 Entering Gaussian System, Link 0=/home/ubuntu/g16/g16
 Input=/home/ubuntu/products/molecule_7.gjf
 Output=/home/ubuntu/products/molecule_7.log
 Initial command:
 /home/ubuntu/g16/l1.exe "/home/ubuntu/Scratch/Gau-26640.inp" -scrdir="/home/ubuntu/Scratch/"
 Entering Link 1 = /home/ubuntu/g16/l1.exe PID=     26642.
  
 Copyright (c) 1988-2017, Gaussian, Inc.  All Rights Reserved.
  
 This is part of the Gaussian(R) 16 program.  It is based on
 the Gaussian(R) 09 system (copyright 2009, Gaussian, Inc.),
 the Gaussian(R) 03 system (copyright 2003, Gaussian, Inc.),
 the Gaussian(R) 98 system (copyright 1998, Gaussian, Inc.),
 the Gaussian(R) 94 system (copyright 1995, Gaussian, Inc.),
 the Gaussian 92(TM) system (copyright 1992, Gaussian, Inc.),
 the Gaussian 90(TM) system (copyright 1990, Gaussian, Inc.),
 the Gaussian 88(TM) system (copyright 1988, Gaussian, Inc.),
 the Gaussian 86(TM) system (copyright 1986, Carnegie Mellon
 University), and the Gaussian 82(TM) system (copyright 1983,
 Carnegie Mellon University). Gaussian is a federally registered
 trademark of Gaussian, Inc.
  
 This software contains proprietary and confidential information,
 including trade secrets, belonging to Gaussian, Inc.
  
 This software is provided under written license and may be
 used, copied, transmitted, or stored only in accord with that
 written license.
  
 The following legend is applicable only to US Government
 contracts under FAR:
  
                    RESTRICTED RIGHTS LEGEND
  
 Use, reproduction and disclosure by the US Government is
 subject to restrictions as set forth in subparagraphs (a)
 and (c) of the Commercial Computer Software - Restricted
 Rights clause in FAR 52.227-19.
  
 Gaussian, Inc.
 340 Quinnipiac St., Bldg. 40, Wallingford CT 06492
  
  
 ---------------------------------------------------------------
 Warning -- This program may not be used in any manner that
 competes with the business of Gaussian, Inc. or will provide
 assistance to any competitor of Gaussian, Inc.  The licensee
 of this program is prohibited from giving any competitor of
 Gaussian, Inc. access to this program.  By using this program,
 the user acknowledges that Gaussian, Inc. is engaged in the
 business of creating and licensing software in the field of
 computational chemistry and represents and warrants to the
 licensee that it is not a competitor of Gaussian, Inc. and that
 it will not use this program in any manner prohibited above.
 ---------------------------------------------------------------
  

 Cite this work as:
 Gaussian 16, Revision B.01,
 M. J. Frisch, G. W. Trucks, H. B. Schlegel, G. E. Scuseria, 
 M. A. Robb, J. R. Cheeseman, G. Scalmani, V. Barone, 
 G. A. Petersson, H. Nakatsuji, X. Li, M. Caricato, A. V. Marenich, 
 J. Bloino, B. G. Janesko, R. Gomperts, B. Mennucci, H. P. Hratchian, 
 J. V. Ortiz, A. F. Izmaylov, J. L. Sonnenberg, D. Williams-Young, 
 F. Ding, F. Lipparini, F. Egidi, J. Goings, B. Peng, A. Petrone, 
 T. Henderson, D. Ranasinghe, V. G. Zakrzewski, J. Gao, N. Rega, 
 G. Zheng, W. Liang, M. Hada, M. Ehara, K. Toyota, R. Fukuda, 
 J. Hasegawa, M. Ishida, T. Nakajima, Y. Honda, O. Kitao, H. Nakai, 
 T. Vreven, K. Throssell, J. A. Montgomery, Jr., J. E. Peralta, 
 F. Ogliaro, M. J. Bearpark, J. J. Heyd, E. N. Brothers, K. N. Kudin, 
 V. N. Staroverov, T. A. Keith, R. Kobayashi, J. Normand, 
 K. Raghavachari, A. P. Rendell, J. C. Burant, S. S. Iyengar, 
 J. Tomasi, M. Cossi, J. M. Millam, M. Klene, C. Adamo, R. Cammi, 
 J. W. Ochterski, R. L. Martin, K. Morokuma, O. Farkas, 
 J. B. Foresman, and D. J. Fox, Gaussian, Inc., Wallingford CT, 2016.
 
 ******************************************
 Gaussian 16:  EM64L-G16RevB.01 20-Dec-2017
                17-Sep-2023 
 ******************************************
 %nprocshared=30
 Will use up to   30 processors via shared memory.
 %mem=30GB
 %chk=molecule_7.chk
 ---------------------------------------------------------
 # opt freq b3lyp/6-31+g(d) empiricaldispersion=gd3 volume
 ---------------------------------------------------------
 1/18=20,19=15,26=3,38=1/1,3;
 2/9=110,12=2,17=6,18=5,40=1/2;
 3/5=1,6=6,7=11,11=2,25=1,30=1,71=1,74=-5,124=31/1,2,3;
 4//1;
 5/5=2,38=5/2;
 6/7=2,8=2,9=2,10=2,28=1,44=1/1,4;
 7//1,2,3,16;
 1/18=20,19=15,26=3/3(2);
 2/9=110/2;
 99//99;
 2/9=110/2;
 3/5=1,6=6,7=11,11=2,25=1,30=1,71=1,74=-5,124=31/1,2,3;
 4/5=5,16=3,69=1/1;
 5/5=2,38=5/2;
 7//1,2,3,16;
 1/18=20,19=15,26=3/3(-5);
 2/9=110/2;
 6/7=2,8=2,9=2,10=2,19=2,28=1,44=1/1,4;
 99/9=1/99;
 -------------------
 Title Card Required
 -------------------
 Symbolic Z-matrix:
 Charge =  0 Multiplicity = 1
 C                    -5.30642  -0.95004   1.13808 
 C                    -3.91026  -0.97885   1.0873 
 C                    -3.24353  -0.49817  -0.05029 
 C                    -3.96927  -0.06568  -1.15526 
 C                    -5.36722  -0.03465  -1.10341 
 C                    -6.03529  -0.47585   0.04315 
 H                    -5.82877  -1.29526   2.03458 
 H                    -3.33932  -1.35081   1.9443 
 H                    -3.4475    0.28095  -2.05001 
 H                    -5.9376    0.33606  -1.95976 
 C                    -1.70232  -0.51098  -0.00174 
 C                    -0.50316  -0.51544   0.00061 
 C                     1.03814  -0.52118   0.00361 
 C                     1.73324  -0.49899   1.21632 
 C                     1.73531  -0.50038  -1.20582 
 C                     3.13124  -0.50192   1.21672 
 H                     1.18549  -0.5016    2.1622 
 C                     3.13359  -0.50384  -1.20525 
 H                     1.18944  -0.5035   -2.1542 
 C                     3.82894  -0.50274   0.00634 
 H                     3.67742  -0.50148   2.16417 
 H                     3.6812   -0.50459  -2.15173 
 C                     5.36894  -0.50335   0.00776 
 H                     5.7252   -1.5123    0.01065 
 H                     5.72661  -0.00131  -0.86684 
 H                     5.725     0.00313   0.88046 
 C                    -7.464    -0.44384   0.0949 
 H                    -7.77757   0.16589   0.91636 
 H                    -7.83854  -1.43766   0.22501 
 H                    -7.8449   -0.03579  -0.81796 
 

 GradGradGradGradGradGradGradGradGradGradGradGradGradGradGradGradGradGrad
 Berny optimization.
 Initialization pass.
                           ----------------------------
                           !    Initial Parameters    !
                           ! (Angstroms and Degrees)  !
 --------------------------                            --------------------------
 ! Name  Definition              Value          Derivative Info.                !
 --------------------------------------------------------------------------------
 ! R1    R(1,2)                  1.3974         estimate D2E/DX2                !
 ! R2    R(1,6)                  1.3982         estimate D2E/DX2                !
 ! R3    R(1,7)                  1.0935         estimate D2E/DX2                !
 ! R4    R(2,3)                  1.4035         estimate D2E/DX2                !
 ! R5    R(2,8)                  1.0949         estimate D2E/DX2                !
 ! R6    R(3,4)                  1.3909         estimate D2E/DX2                !
 ! R7    R(3,11)                 1.542          estimate D2E/DX2                !
 ! R8    R(4,5)                  1.3993         estimate D2E/DX2                !
 ! R9    R(4,9)                  1.0922         estimate D2E/DX2                !
 ! R10   R(5,6)                  1.3984         estimate D2E/DX2                !
 ! R11   R(5,10)                 1.0937         estimate D2E/DX2                !
 ! R12   R(6,27)                 1.43           estimate D2E/DX2                !
 ! R13   R(11,12)                1.1992         estimate D2E/DX2                !
 ! R14   R(12,13)                1.5413         estimate D2E/DX2                !
 ! R15   R(13,14)                1.398          estimate D2E/DX2                !
 ! R16   R(13,15)                1.3961         estimate D2E/DX2                !
 ! R17   R(14,16)                1.398          estimate D2E/DX2                !
 ! R18   R(14,17)                1.093          estimate D2E/DX2                !
 ! R19   R(15,18)                1.3983         estimate D2E/DX2                !
 ! R20   R(15,19)                1.0943         estimate D2E/DX2                !
 ! R21   R(16,20)                1.3971         estimate D2E/DX2                !
 ! R22   R(16,21)                1.0936         estimate D2E/DX2                !
 ! R23   R(18,20)                1.3969         estimate D2E/DX2                !
 ! R24   R(18,22)                1.0935         estimate D2E/DX2                !
 ! R25   R(20,23)                1.54           estimate D2E/DX2                !
 ! R26   R(23,24)                1.07           estimate D2E/DX2                !
 ! R27   R(23,25)                1.07           estimate D2E/DX2                !
 ! R28   R(23,26)                1.07           estimate D2E/DX2                !
 ! R29   R(27,28)                1.07           estimate D2E/DX2                !
 ! R30   R(27,29)                1.07           estimate D2E/DX2                !
 ! R31   R(27,30)                1.07           estimate D2E/DX2                !
 ! A1    A(2,1,6)              119.958          estimate D2E/DX2                !
 ! A2    A(2,1,7)              120.0372         estimate D2E/DX2                !
 ! A3    A(6,1,7)              120.0045         estimate D2E/DX2                !
 ! A4    A(1,2,3)              119.8047         estimate D2E/DX2                !
 ! A5    A(1,2,8)              119.971          estimate D2E/DX2                !
 ! A6    A(3,2,8)              120.204          estimate D2E/DX2                !
 ! A7    A(2,3,4)              120.1683         estimate D2E/DX2                !
 ! A8    A(2,3,11)             116.5157         estimate D2E/DX2                !
 ! A9    A(4,3,11)             123.304          estimate D2E/DX2                !
 ! A10   A(3,4,5)              119.9162         estimate D2E/DX2                !
 ! A11   A(3,4,9)              120.0131         estimate D2E/DX2                !
 ! A12   A(5,4,9)              120.0388         estimate D2E/DX2                !
 ! A13   A(4,5,6)              120.0444         estimate D2E/DX2                !
 ! A14   A(4,5,10)             119.9699         estimate D2E/DX2                !
 ! A15   A(6,5,10)             119.9857         estimate D2E/DX2                !
 ! A16   A(1,6,5)              120.0015         estimate D2E/DX2                !
 ! A17   A(1,6,27)             120.0048         estimate D2E/DX2                !
 ! A18   A(5,6,27)             119.9936         estimate D2E/DX2                !
 ! A19   A(12,13,14)           119.9238         estimate D2E/DX2                !
 ! A20   A(12,13,15)           119.8422         estimate D2E/DX2                !
 ! A21   A(14,13,15)           120.1945         estimate D2E/DX2                !
 ! A22   A(13,14,16)           119.8308         estimate D2E/DX2                !
 ! A23   A(13,14,17)           120.098          estimate D2E/DX2                !
 ! A24   A(16,14,17)           120.0575         estimate D2E/DX2                !
 ! A25   A(13,15,18)           119.9314         estimate D2E/DX2                !
 ! A26   A(13,15,19)           120.108          estimate D2E/DX2                !
 ! A27   A(18,15,19)           119.947          estimate D2E/DX2                !
 ! A28   A(14,16,20)           119.944          estimate D2E/DX2                !
 ! A29   A(14,16,21)           119.9792         estimate D2E/DX2                !
 ! A30   A(20,16,21)           120.0767         estimate D2E/DX2                !
 ! A31   A(15,18,20)           119.8756         estimate D2E/DX2                !
 ! A32   A(15,18,22)           120.0284         estimate D2E/DX2                !
 ! A33   A(20,18,22)           120.0958         estimate D2E/DX2                !
 ! A34   A(16,20,18)           120.1873         estimate D2E/DX2                !
 ! A35   A(16,20,23)           119.9076         estimate D2E/DX2                !
 ! A36   A(18,20,23)           119.9051         estimate D2E/DX2                !
 ! A37   A(20,23,24)           109.4712         estimate D2E/DX2                !
 ! A38   A(20,23,25)           109.4712         estimate D2E/DX2                !
 ! A39   A(20,23,26)           109.4712         estimate D2E/DX2                !
 ! A40   A(24,23,25)           109.4713         estimate D2E/DX2                !
 ! A41   A(24,23,26)           109.4712         estimate D2E/DX2                !
 ! A42   A(25,23,26)           109.4712         estimate D2E/DX2                !
 ! A43   A(6,27,28)            109.4712         estimate D2E/DX2                !
 ! A44   A(6,27,29)            109.4712         estimate D2E/DX2                !
 ! A45   A(6,27,30)            109.4712         estimate D2E/DX2                !
 ! A46   A(28,27,29)           109.4712         estimate D2E/DX2                !
 ! A47   A(28,27,30)           109.4712         estimate D2E/DX2                !
 ! A48   A(29,27,30)           109.4712         estimate D2E/DX2                !
 ! A49   L(3,11,12,8,-1)       181.6583         estimate D2E/DX2                !
 ! A50   L(11,12,13,19,-1)     179.9996         estimate D2E/DX2                !
 ! A51   L(3,11,12,8,-2)       179.4663         estimate D2E/DX2                !
 ! A52   L(11,12,13,19,-2)     179.9998         estimate D2E/DX2                !
 ! D1    D(6,1,2,3)              1.6809         estimate D2E/DX2                !
 ! D2    D(6,1,2,8)           -179.9557         estimate D2E/DX2                !
 ! D3    D(7,1,2,3)           -178.1363         estimate D2E/DX2                !
 ! D4    D(7,1,2,8)              0.227          estimate D2E/DX2                !
 ! D5    D(2,1,6,5)              0.1967         estimate D2E/DX2                !
 ! D6    D(2,1,6,27)          -179.8961         estimate D2E/DX2                !
 ! D7    D(7,1,6,5)           -179.986          estimate D2E/DX2                !
 ! D8    D(7,1,6,27)            -0.0788         estimate D2E/DX2                !
 ! D9    D(1,2,3,4)             -3.6992         estimate D2E/DX2                !
 ! D10   D(1,2,3,11)           177.5162         estimate D2E/DX2                !
 ! D11   D(8,2,3,4)            177.9414         estimate D2E/DX2                !
 ! D12   D(8,2,3,11)            -0.8433         estimate D2E/DX2                !
 ! D13   D(2,3,4,5)              3.816          estimate D2E/DX2                !
 ! D14   D(2,3,4,9)           -178.2399         estimate D2E/DX2                !
 ! D15   D(11,3,4,5)          -177.4853         estimate D2E/DX2                !
 ! D16   D(11,3,4,9)             0.4589         estimate D2E/DX2                !
 ! D17   D(2,3,13,14)          -24.1431         estimate D2E/DX2                !
 ! D18   D(2,3,13,15)          158.2445         estimate D2E/DX2                !
 ! D19   D(4,3,13,14)          157.4038         estimate D2E/DX2                !
 ! D20   D(4,3,13,15)          -20.2086         estimate D2E/DX2                !
 ! D21   D(3,4,5,6)             -1.9249         estimate D2E/DX2                !
 ! D22   D(3,4,5,10)           178.0            estimate D2E/DX2                !
 ! D23   D(9,4,5,6)           -179.8685         estimate D2E/DX2                !
 ! D24   D(9,4,5,10)             0.0564         estimate D2E/DX2                !
 ! D25   D(4,5,6,1)             -0.0841         estimate D2E/DX2                !
 ! D26   D(4,5,6,27)          -179.9913         estimate D2E/DX2                !
 ! D27   D(10,5,6,1)           179.991          estimate D2E/DX2                !
 ! D28   D(10,5,6,27)            0.0838         estimate D2E/DX2                !
 ! D29   D(1,6,27,28)           58.8888         estimate D2E/DX2                !
 ! D30   D(1,6,27,29)          -61.1112         estimate D2E/DX2                !
 ! D31   D(1,6,27,30)          178.8888         estimate D2E/DX2                !
 ! D32   D(5,6,27,28)         -121.2039         estimate D2E/DX2                !
 ! D33   D(5,6,27,29)          118.7961         estimate D2E/DX2                !
 ! D34   D(5,6,27,30)           -1.2039         estimate D2E/DX2                !
 ! D35   D(12,13,14,16)       -179.8905         estimate D2E/DX2                !
 ! D36   D(12,13,14,17)          1.4544         estimate D2E/DX2                !
 ! D37   D(15,13,14,16)         -2.1768         estimate D2E/DX2                !
 ! D38   D(15,13,14,17)        179.1681         estimate D2E/DX2                !
 ! D39   D(12,13,15,18)        179.9195         estimate D2E/DX2                !
 ! D40   D(12,13,15,19)         -1.4191         estimate D2E/DX2                !
 ! D41   D(14,13,15,18)          2.2039         estimate D2E/DX2                !
 ! D42   D(14,13,15,19)       -179.1347         estimate D2E/DX2                !
 ! D43   D(13,14,16,20)          1.1475         estimate D2E/DX2                !
 ! D44   D(13,14,16,21)       -178.9793         estimate D2E/DX2                !
 ! D45   D(17,14,16,20)        179.8032         estimate D2E/DX2                !
 ! D46   D(17,14,16,21)         -0.3236         estimate D2E/DX2                !
 ! D47   D(13,15,18,20)         -1.1998         estimate D2E/DX2                !
 ! D48   D(13,15,18,22)        178.9699         estimate D2E/DX2                !
 ! D49   D(19,15,18,20)       -179.8633         estimate D2E/DX2                !
 ! D50   D(19,15,18,22)          0.3064         estimate D2E/DX2                !
 ! D51   D(14,16,20,18)         -0.1518         estimate D2E/DX2                !
 ! D52   D(14,16,20,23)        179.8876         estimate D2E/DX2                !
 ! D53   D(21,16,20,18)        179.9751         estimate D2E/DX2                !
 ! D54   D(21,16,20,23)          0.0145         estimate D2E/DX2                !
 ! D55   D(15,18,20,16)          0.1766         estimate D2E/DX2                !
 ! D56   D(15,18,20,23)       -179.8628         estimate D2E/DX2                !
 ! D57   D(22,18,20,16)       -179.9932         estimate D2E/DX2                !
 ! D58   D(22,18,20,23)         -0.0326         estimate D2E/DX2                !
 ! D59   D(16,20,23,24)         89.8801         estimate D2E/DX2                !
 ! D60   D(16,20,23,25)       -150.1199         estimate D2E/DX2                !
 ! D61   D(16,20,23,26)        -30.1199         estimate D2E/DX2                !
 ! D62   D(18,20,23,24)        -90.0806         estimate D2E/DX2                !
 ! D63   D(18,20,23,25)         29.9194         estimate D2E/DX2                !
 ! D64   D(18,20,23,26)        149.9194         estimate D2E/DX2                !
 --------------------------------------------------------------------------------
 Trust Radius=3.00D-01 FncErr=1.00D-07 GrdErr=1.00D-06 EigMax=2.50D+02 EigMin=1.00D-04
 Number of steps in this run=    157 maximum allowed number of steps=    180.
 GradGradGradGradGradGradGradGradGradGradGradGradGradGradGradGradGradGrad

                          Input orientation:                          
 ---------------------------------------------------------------------
 Center     Atomic      Atomic             Coordinates (Angstroms)
 Number     Number       Type             X           Y           Z
 ---------------------------------------------------------------------
      1          6           0       -5.306420   -0.950037    1.138085
      2          6           0       -3.910257   -0.978854    1.087296
      3          6           0       -3.243530   -0.498173   -0.050288
      4          6           0       -3.969271   -0.065678   -1.155262
      5          6           0       -5.367223   -0.034654   -1.103412
      6          6           0       -6.035290   -0.475849    0.043153
      7          1           0       -5.828773   -1.295255    2.034578
      8          1           0       -3.339319   -1.350808    1.944296
      9          1           0       -3.447499    0.280946   -2.050008
     10          1           0       -5.937596    0.336059   -1.959755
     11          6           0       -1.702325   -0.510980   -0.001736
     12          6           0       -0.503164   -0.515444    0.000607
     13          6           0        1.038137   -0.521178    0.003607
     14          6           0        1.733241   -0.498994    1.216317
     15          6           0        1.735313   -0.500380   -1.205823
     16          6           0        3.131236   -0.501924    1.216721
     17          1           0        1.185494   -0.501600    2.162198
     18          6           0        3.133594   -0.503838   -1.205245
     19          1           0        1.189441   -0.503497   -2.154202
     20          6           0        3.828940   -0.502741    0.006338
     21          1           0        3.677424   -0.501477    2.164168
     22          1           0        3.681197   -0.504590   -2.151735
     23          6           0        5.368939   -0.503352    0.007760
     24          1           0        5.725203   -1.512295    0.010652
     25          1           0        5.726612   -0.001311   -0.866839
     26          1           0        5.725000    0.003127    0.880457
     27          6           0       -7.463995   -0.443839    0.094897
     28          1           0       -7.777573    0.165891    0.916359
     29          1           0       -7.838540   -1.437663    0.225011
     30          1           0       -7.844905   -0.035793   -0.817959
 ---------------------------------------------------------------------
                    Distance matrix (angstroms):
                    1          2          3          4          5
     1  C    0.000000
     2  C    1.397384   0.000000
     3  C    2.423205   1.403451   0.000000
     4  C    2.798124   2.422073   1.390941   0.000000
     5  C    2.421968   2.795257   2.415365   1.399257   0.000000
     6  C    1.398207   2.420541   2.793413   2.423402   1.398420
     7  H    1.093494   2.162905   3.415478   3.891618   3.413082
     8  H    2.163349   1.094883   2.171296   3.414038   3.890139
     9  H    3.890352   3.412318   2.155808   1.092229   2.163558
    10  H    3.413069   3.888910   3.405877   2.164002   1.093653
    11  C    3.805452   2.505965   1.542023   2.582240   3.856430
    12  C    4.955199   3.606095   2.740893   3.681334   5.010897
    13  C    6.459440   5.086300   4.282068   5.159902   6.518499
    14  C    7.054530   5.665332   5.135421   6.191187   7.484206
    15  C    7.435193   6.112265   5.111179   5.721346   7.118525
    16  C    8.449913   7.058812   6.499459   7.498920   8.821857
    17  H    6.587476   5.229709   4.950895   6.145499   7.336235
    18  C    8.770639   7.422750   6.480869   7.116542   8.514363
    19  H    7.296215   6.061368   4.906905   5.272748   6.656861
    20  C    9.216058   7.828813   7.072698   7.896355   9.274699
    21  H    9.053370   7.678571   7.266598   8.347484   9.628117
    22  H    9.581158   8.267189   7.236571   7.727564   9.121058
    23  C   10.744321   9.353875   8.612666   9.420527  10.803682
    24  H   11.103330   9.710088   9.026092   9.870910  11.245731
    25  H   11.253782   9.881471   9.020925   9.700385  11.096407
    26  H   11.075519   9.687376   9.030622   9.905947  11.268300
    27  C    2.449410   3.728291   4.223311   3.730818   2.449456
    28  H    2.720488   4.036805   4.683260   4.341474   3.151108
    29  H    2.735528   4.047894   4.698142   4.331136   3.136965
    30  H    3.332545   4.472227   4.687831   3.890399   2.494072
                    6          7          8          9         10
     6  C    0.000000
     7  H    2.163297   0.000000
     8  H    3.412940   2.491710   0.000000
     9  H    3.413316   4.983846   4.316107   0.000000
    10  H    2.163419   4.315986   4.983792   2.492341   0.000000
    11  C    4.333341   4.667894   2.678077   2.805031   4.742240
    12  C    5.532432   5.753890   3.538295   3.675373   5.839617
    13  C    7.073683   7.202672   4.859699   4.998166   7.297294
    14  C    7.856649   7.647721   5.194844   6.173917   8.344249
    15  C    7.870376   8.267250   6.033106   5.308923   7.755100
    16  C    9.241382   9.032166   6.566433   7.386755   9.645513
    17  H    7.525340   7.060178   4.608966   6.310283   8.272277
    18  C    9.253525   9.562783   7.248142   6.681339   9.141181
    19  H    7.551548   8.211460   6.166464   4.703979   7.178949
    20  C    9.864335   9.900164   7.473876   7.601926   9.997716
    21  H    9.941639   9.540161   7.071378   8.314806  10.495562
    22  H    9.961349  10.420647   8.171976   7.172567   9.657366
    23  C   11.404317  11.407184   8.961144   9.087305  11.507104
    24  H   11.806120  11.731911   9.269876   9.570815  11.971624
    25  H   11.806593  11.984133   9.587217   9.254398  11.720155
    26  H   11.799786  11.683641   9.226417   9.633252  12.008072
    27  C    1.430000   2.676047   4.610404   4.610659   2.675768
    28  H    2.051796   2.680147   4.801576   5.249962   3.418553
    29  H    2.051796   2.708132   4.817310   5.235510   3.396010
    30  H    2.051796   3.713220   5.446065   4.577712   2.253842
                   11         12         13         14         15
    11  C    0.000000
    12  C    1.199171   0.000000
    13  C    2.740486   1.541315   0.000000
    14  C    3.645121   2.545531   1.397972   0.000000
    15  C    3.642429   2.542927   1.396141   2.422141   0.000000
    16  C    4.984779   3.832490   2.419314   1.397998   2.795948
    17  H    3.608627   2.743033   2.163703   1.093035   3.412604
    18  C    4.983432   3.831478   2.419207   2.797315   1.398285
    19  H    3.604924   2.740120   2.163180   3.414109   1.094262
    20  C    5.531276   4.332126   2.790865   2.419920   2.419217
    21  H    5.799390   4.707283   3.410902   2.162932   3.889555
    22  H    5.796968   4.705483   3.410504   3.890801   2.163615
    23  C    7.071274   5.872120   4.330841   3.831308   3.830931
    24  H    7.494728   6.307643   4.790715   4.291406   4.292203
    25  H    7.496484   6.310856   4.796847   4.531472   4.036638
    26  H    7.497181   6.311346   4.796921   4.037210   4.530308
    27  C    5.762872   6.961838   8.502974   9.265516   9.290982
    28  H    6.181399   7.363412   8.889427   9.538744   9.769471
    29  H    6.209935   7.396525   8.926609   9.668649   9.725453
    30  H    6.214766   7.402788   8.934148   9.802740   9.599315
                   16         17         18         19         20
    16  C    0.000000
    17  H    2.163294   0.000000
    18  C    2.421968   3.890343   0.000000
    19  H    3.890205   4.316402   2.163389   0.000000
    20  C    1.397075   3.411091   1.396940   3.410995   0.000000
    21  H    1.093608   2.491931   3.413020   4.983813   2.163144
    22  H    3.413057   4.983830   1.093486   2.491757   2.163125
    23  C    2.543404   4.705616   2.543256   4.705559   1.540000
    24  H    3.033829   5.124414   3.035100   5.126149   2.148263
    25  H    3.365682   5.481525   2.662855   4.742934   2.148263
    26  H    2.663788   4.743915   3.364901   5.480614   2.148263
    27  C   10.654614   8.893297  10.677212   8.941139  11.293436
    28  H   10.933357   9.073821  11.135677   9.501776  11.661318
    29  H   11.054188   9.276965  11.104295   9.382843  11.706920
    30  H   11.172863   9.520841  10.995294   9.144599  11.712222
                   21         22         23         24         25
    21  H    0.000000
    22  H    4.315906   0.000000
    23  C    2.740679   2.740784   0.000000
    24  H    3.138914   3.141552   1.070000   0.000000
    25  H    3.692742   2.467382   1.070000   1.747303   0.000000
    26  H    2.468827   3.691761   1.070000   1.747303   1.747303
    27  C   11.332098  11.369536  12.833368  13.232674  13.233023
    28  H   11.542070  11.881336  13.194855  13.636773  13.622436
    29  H   11.715554  11.799316  13.242267  13.565642  13.684612
    30  H   11.911088  11.612482  13.247871  13.675324  13.571649
                   26         27         28         29         30
    26  H    0.000000
    27  C   13.219928   0.000000
    28  H   13.503602   1.070000   0.000000
    29  H   13.655589   1.070000   1.747303   0.000000
    30  H   13.675835   1.070000   1.747303   1.747303   0.000000
 Stoichiometry    C16H14
 Framework group  C1[X(C16H14)]
 Deg. of freedom    84
 Full point group                 C1      NOp   1
 Largest Abelian subgroup         C1      NOp   1
 Largest concise Abelian subgroup C1      NOp   1
                         Standard orientation:                         
 ---------------------------------------------------------------------
 Center     Atomic      Atomic             Coordinates (Angstroms)
 Number     Number       Type             X           Y           Z
 ---------------------------------------------------------------------
      1          6           0        4.213963   -1.188792    0.239365
      2          6           0        2.817622   -1.146638    0.273076
      3          6           0        2.149793    0.060871    0.016949
      4          6           0        2.874361    1.229326   -0.193841
      5          6           0        4.272499    1.186556   -0.229916
      6          6           0        4.941796   -0.022209   -0.014259
      7          1           0        4.737277   -2.133967    0.408231
      8          1           0        2.247495   -2.059875    0.472379
      9          1           0        2.351636    2.173056   -0.364419
     10          1           0        4.842060    2.098910   -0.428129
     11          6           0        0.608665    0.008357    0.015487
     12          6           0       -0.590496    0.003329    0.015732
     13          6           0       -2.131797   -0.003121    0.016045
     14          6           0       -2.824263   -1.190250   -0.239961
     15          6           0       -2.831478    1.186842    0.224956
     16          6           0       -4.222257   -1.193392   -0.241462
     17          1           0       -2.274519   -2.118287   -0.416747
     18          6           0       -4.229759    1.183428    0.223939
     19          1           0       -2.287630    2.117945    0.411200
     20          6           0       -4.922527   -0.006632   -0.011156
     21          1           0       -4.766430   -2.124091   -0.424908
     22          1           0       -4.779369    2.111421    0.404136
     23          6           0       -6.462516   -0.010551   -0.015565
     24          1           0       -6.821515   -0.207048    0.973074
     25          1           0       -6.820677    0.943407   -0.342038
     26          1           0       -6.815346   -0.770734   -0.680796
     27          6           0        6.370689   -0.064638   -0.051187
     28          1           0        6.687666   -0.753726   -0.805895
     29          1           0        6.742804   -0.381969    0.900512
     30          1           0        6.750769    0.910033   -0.275809
 ---------------------------------------------------------------------
 Rotational constants (GHZ):           2.7359391           0.1513883           0.1442540
 Standard basis: 6-31+G(d) (6D, 7F)
 There are   332 symmetry adapted cartesian basis functions of A   symmetry.
 There are   332 symmetry adapted basis functions of A   symmetry.
   332 basis functions,   568 primitive gaussians,   332 cartesian basis functions
    55 alpha electrons       55 beta electrons
       nuclear repulsion energy       869.1034371924 Hartrees.
 NAtoms=   30 NActive=   30 NUniq=   30 SFac= 1.00D+00 NAtFMM=   60 NAOKFM=F Big=F
 Integral buffers will be    131072 words long.
 Raffenetti 2 integral format.
 Two-electron integral symmetry is turned on.
 Nuclear repulsion after empirical dispersion term =      869.0837563307 Hartrees.
 One-electron integrals computed using PRISM.
 NBasis=   332 RedAO= T EigKep=  1.40D-06  NBF=   332
 NBsUse=   328 1.00D-06 EigRej=  8.19D-07 NBFU=   328
 ExpMin= 4.38D-02 ExpMax= 3.05D+03 ExpMxC= 4.57D+02 IAcc=3 IRadAn=         5 AccDes= 0.00D+00
 Harris functional with IExCor=  402 and IRadAn=       5 diagonalized for initial guess.
 HarFok:  IExCor=  402 AccDes= 0.00D+00 IRadAn=         5 IDoV= 1 UseB2=F ITyADJ=14
 ICtDFT=  3500011 ScaDFX=  1.000000  1.000000  1.000000  1.000000
 FoFCou: FMM=F IPFlag=           0 FMFlag=      100000 FMFlg1=           0
         NFxFlg=           0 DoJE=T BraDBF=F KetDBF=T FulRan=T
         wScrn=  0.000000 ICntrl=       500 IOpCl=  0 I1Cent=   200000004 NGrid=           0
         NMat0=    1 NMatS0=      1 NMatT0=    0 NMatD0=    1 NMtDS0=    0 NMtDT0=    0
 Petite list used in FoFCou.
 Requested convergence on RMS density matrix=1.00D-08 within 128 cycles.
 Requested convergence on MAX density matrix=1.00D-06.
 Requested convergence on             energy=1.00D-06.
 No special actions if energy rises.
 SCF Done:  E(RB3LYP) =  -618.113864008     A.U. after   14 cycles
            NFock= 14  Conv=0.68D-08     -V/T= 2.0099

 **********************************************************************

            Population analysis using the SCF Density.

 **********************************************************************

 Orbital symmetries:
       Occupied  (A) (A) (A) (A) (A) (A) (A) (A) (A) (A) (A) (A)
                 (A) (A) (A) (A) (A) (A) (A) (A) (A) (A) (A) (A)
                 (A) (A) (A) (A) (A) (A) (A) (A) (A) (A) (A) (A)
                 (A) (A) (A) (A) (A) (A) (A) (A) (A) (A) (A) (A)
                 (A) (A) (A) (A) (A) (A) (A)
       Virtual   (A) (A) (A) (A) (A) (A) (A) (A) (A) (A) (A) (A)
                 (A) (A) (A) (A) (A) (A) (A) (A) (A) (A) (A) (A)
                 (A) (A) (A) (A) (A) (A) (A) (A) (A) (A) (A) (A)
                 (A) (A) (A) (A) (A) (A) (A) (A) (A) (A) (A) (A)
                 (A) (A) (A) (A) (A) (A) (A) (A) (A) (A) (A) (A)
                 (A) (A) (A) (A) (A) (A) (A) (A) (A) (A) (A) (A)
                 (A) (A) (A) (A) (A) (A) (A) (A) (A) (A) (A) (A)
                 (A) (A) (A) (A) (A) (A) (A) (A) (A) (A) (A) (A)
                 (A) (A) (A) (A) (A) (A) (A) (A) (A) (A) (A) (A)
                 (A) (A) (A) (A) (A) (A) (A) (A) (A) (A) (A) (A)
                 (A) (A) (A) (A) (A) (A) (A) (A) (A) (A) (A) (A)
                 (A) (A) (A) (A) (A) (A) (A) (A) (A) (A) (A) (A)
                 (A) (A) (A) (A) (A) (A) (A) (A) (A) (A) (A) (A)
                 (A) (A) (A) (A) (A) (A) (A) (A) (A) (A) (A) (A)
                 (A) (A) (A) (A) (A) (A) (A) (A) (A) (A) (A) (A)
                 (A) (A) (A) (A) (A) (A) (A) (A) (A) (A) (A) (A)
                 (A) (A) (A) (A) (A) (A) (A) (A) (A) (A) (A) (A)
                 (A) (A) (A) (A) (A) (A) (A) (A) (A) (A) (A) (A)
                 (A) (A) (A) (A) (A) (A) (A) (A) (A) (A) (A) (A)
                 (A) (A) (A) (A) (A) (A) (A) (A) (A) (A) (A) (A)
                 (A) (A) (A) (A) (A) (A) (A) (A) (A) (A) (A) (A)
                 (A) (A) (A) (A) (A) (A) (A) (A) (A) (A) (A) (A)
                 (A) (A) (A) (A) (A) (A) (A) (A) (A)
 The electronic state is 1-A.
 Alpha  occ. eigenvalues --  -10.22741 -10.22670 -10.20769 -10.20249 -10.20245
 Alpha  occ. eigenvalues --  -10.20232 -10.20202 -10.20098 -10.19842 -10.19840
 Alpha  occ. eigenvalues --  -10.19768 -10.19651 -10.19418 -10.19163 -10.18415
 Alpha  occ. eigenvalues --  -10.17704  -0.87128  -0.86793  -0.80241  -0.78792
 Alpha  occ. eigenvalues --   -0.75392  -0.75382  -0.74456  -0.70281  -0.68483
 Alpha  occ. eigenvalues --   -0.61868  -0.61633  -0.59975  -0.58851  -0.53994
 Alpha  occ. eigenvalues --   -0.51721  -0.47839  -0.47205  -0.46794  -0.46255
 Alpha  occ. eigenvalues --   -0.44282  -0.43533  -0.43209  -0.43017  -0.42967
 Alpha  occ. eigenvalues --   -0.41917  -0.39940  -0.39612  -0.37611  -0.36793
 Alpha  occ. eigenvalues --   -0.35888  -0.35333  -0.35051  -0.34841  -0.30472
 Alpha  occ. eigenvalues --   -0.27913  -0.26041  -0.26017  -0.25652  -0.22057
 Alpha virt. eigenvalues --   -0.03925  -0.01941  -0.01836  -0.00714   0.00362
 Alpha virt. eigenvalues --    0.00798   0.01789   0.02050   0.02697   0.03017
 Alpha virt. eigenvalues --    0.04415   0.04591   0.04702   0.04903   0.05686
 Alpha virt. eigenvalues --    0.06079   0.06255   0.06418   0.06676   0.06998
 Alpha virt. eigenvalues --    0.08071   0.08430   0.08497   0.08711   0.09043
 Alpha virt. eigenvalues --    0.10079   0.10350   0.10662   0.11250   0.11712
 Alpha virt. eigenvalues --    0.12318   0.12820   0.13327   0.14001   0.14471
 Alpha virt. eigenvalues --    0.14595   0.15053   0.15269   0.15371   0.15473
 Alpha virt. eigenvalues --    0.15638   0.15833   0.16482   0.17255   0.18174
 Alpha virt. eigenvalues --    0.18366   0.18817   0.19294   0.20152   0.20265
 Alpha virt. eigenvalues --    0.20482   0.20734   0.21096   0.21542   0.21785
 Alpha virt. eigenvalues --    0.22045   0.22204   0.22455   0.22909   0.23950
 Alpha virt. eigenvalues --    0.24069   0.24336   0.24580   0.25175   0.25628
 Alpha virt. eigenvalues --    0.26217   0.26427   0.26703   0.27242   0.27567
 Alpha virt. eigenvalues --    0.27639   0.28220   0.29356   0.29437   0.29663
 Alpha virt. eigenvalues --    0.30602   0.30961   0.31930   0.32420   0.33064
 Alpha virt. eigenvalues --    0.33290   0.34377   0.35299   0.36052   0.36169
 Alpha virt. eigenvalues --    0.36902   0.37509   0.38704   0.40349   0.41757
 Alpha virt. eigenvalues --    0.42875   0.43319   0.48519   0.49989   0.56362
 Alpha virt. eigenvalues --    0.57424   0.59971   0.60554   0.65002   0.65913
 Alpha virt. eigenvalues --    0.66123   0.67186   0.67379   0.67770   0.68715
 Alpha virt. eigenvalues --    0.69231   0.70708   0.71505   0.71630   0.71903
 Alpha virt. eigenvalues --    0.72056   0.72929   0.73240   0.74037   0.74577
 Alpha virt. eigenvalues --    0.75406   0.75757   0.75970   0.76324   0.77232
 Alpha virt. eigenvalues --    0.77639   0.78687   0.78993   0.79389   0.79564
 Alpha virt. eigenvalues --    0.80481   0.80754   0.82148   0.83586   0.84579
 Alpha virt. eigenvalues --    0.85176   0.85983   0.86665   0.88748   0.91903
 Alpha virt. eigenvalues --    0.93288   0.93356   0.95183   0.95959   0.96563
 Alpha virt. eigenvalues --    0.96869   0.96992   0.98308   0.98658   1.00994
 Alpha virt. eigenvalues --    1.04062   1.04815   1.05848   1.07283   1.09936
 Alpha virt. eigenvalues --    1.10571   1.12950   1.13465   1.14741   1.15091
 Alpha virt. eigenvalues --    1.16928   1.18428   1.19677   1.20294   1.21074
 Alpha virt. eigenvalues --    1.21808   1.22410   1.24817   1.24950   1.26004
 Alpha virt. eigenvalues --    1.28295   1.28377   1.29533   1.32354   1.34819
 Alpha virt. eigenvalues --    1.37058   1.38404   1.38898   1.41838   1.43642
 Alpha virt. eigenvalues --    1.44065   1.45533   1.46436   1.46466   1.46928
 Alpha virt. eigenvalues --    1.47681   1.50144   1.50211   1.54182   1.56314
 Alpha virt. eigenvalues --    1.57291   1.58056   1.59794   1.72525   1.79025
 Alpha virt. eigenvalues --    1.80728   1.83118   1.84216   1.85046   1.86267
 Alpha virt. eigenvalues --    1.88789   1.89949   1.90690   1.91552   1.92591
 Alpha virt. eigenvalues --    1.93117   1.94323   1.94487   1.95996   1.98176
 Alpha virt. eigenvalues --    1.98514   1.99273   2.08332   2.08760   2.10700
 Alpha virt. eigenvalues --    2.11990   2.13437   2.13529   2.14528   2.15035
 Alpha virt. eigenvalues --    2.17185   2.18790   2.19841   2.20110   2.23097
 Alpha virt. eigenvalues --    2.25284   2.29241   2.30033   2.30197   2.30784
 Alpha virt. eigenvalues --    2.34428   2.37126   2.39212   2.39564   2.40503
 Alpha virt. eigenvalues --    2.41490   2.45444   2.48180   2.51357   2.53569
 Alpha virt. eigenvalues --    2.60828   2.62201   2.63403   2.64902   2.65315
 Alpha virt. eigenvalues --    2.65821   2.69075   2.74887   2.75694   2.75849
 Alpha virt. eigenvalues --    2.80386   2.83217   2.85111   2.88181   2.93523
 Alpha virt. eigenvalues --    2.94241   2.97814   3.08134   3.18162   3.31476
 Alpha virt. eigenvalues --    3.40507   3.56308   4.19395   4.21427   4.23920
 Alpha virt. eigenvalues --    4.24793   4.24887   4.28257   4.31724   4.32772
 Alpha virt. eigenvalues --    4.39766   4.40823   4.41942   4.44322   4.57648
 Alpha virt. eigenvalues --    4.65368   4.76478   4.89609
          Condensed to atoms (all electrons):
               1          2          3          4          5          6
     1  C    9.019149  -4.284100   0.324733   2.660991  -2.085608   0.294934
     2  C   -4.284100  15.585431  -0.556220  -6.679796   2.001578  -0.349357
     3  C    0.324733  -0.556220   8.301899  -1.808638   0.855147  -0.099794
     4  C    2.660991  -6.679796  -1.808638  14.591998  -3.534054   0.557996
     5  C   -2.085608   2.001578   0.855147  -3.534054   9.258608  -0.042874
     6  C    0.294934  -0.349357  -0.099794   0.557996  -0.042874   7.460985
     7  H    0.237293  -0.091136   0.021412  -0.013950   0.078954   0.077294
     8  H   -0.092164   0.382273  -0.042773   0.002234  -0.004341   0.012454
     9  H   -0.007453   0.020662  -0.010064   0.341255  -0.089663  -0.002686
    10  H    0.019201   0.002298   0.033495  -0.061463   0.288841   0.040847
    11  C   -0.026101   0.077788  -0.350721   0.145039  -0.090791  -0.122222
    12  C   -0.025004  -0.004113  -0.511214   0.093853  -0.038601  -0.078236
    13  C    0.049265  -0.219502   0.614449  -0.180332   0.019134   0.017338
    14  C   -0.067578   0.583876  -0.078669  -0.523888   0.040178   0.000693
    15  C    0.057165  -0.482730  -0.317558   0.639639  -0.045907   0.002661
    16  C    0.028837  -0.071249   0.012204   0.075414  -0.015438   0.000237
    17  H   -0.000212   0.000981   0.001341   0.000065  -0.000005   0.000029
    18  C   -0.018062   0.053359   0.076297  -0.086024   0.019622   0.000132
    19  H   -0.000008  -0.000032   0.000716   0.001222   0.000044   0.000014
    20  C   -0.000148   0.001371   0.014871   0.001220   0.000685   0.001620
    21  H    0.000000   0.000044  -0.000128  -0.000020   0.000000   0.000000
    22  H   -0.000001  -0.000023  -0.000110   0.000056   0.000001   0.000000
    23  C   -0.000032  -0.000312   0.006899  -0.000018   0.000017   0.000133
    24  H    0.000000   0.000000   0.000002   0.000000   0.000000   0.000000
    25  H    0.000000   0.000000   0.000001   0.000001   0.000000   0.000000
    26  H    0.000000   0.000000   0.000002  -0.000001   0.000000   0.000000
    27  C   -0.166011   0.198058  -0.504700  -0.034836  -0.038313  -1.558308
    28  H   -0.023459   0.018568   0.000911  -0.013633   0.019724  -0.103409
    29  H   -0.075404  -0.001186   0.001403  -0.009423   0.071146  -0.077167
    30  H    0.045266  -0.014136  -0.009161   0.025024  -0.071010  -0.170801
               7          8          9         10         11         12
     1  C    0.237293  -0.092164  -0.007453   0.019201  -0.026101  -0.025004
     2  C   -0.091136   0.382273   0.020662   0.002298   0.077788  -0.004113
     3  C    0.021412  -0.042773  -0.010064   0.033495  -0.350721  -0.511214
     4  C   -0.013950   0.002234   0.341255  -0.061463   0.145039   0.093853
     5  C    0.078954  -0.004341  -0.089663   0.288841  -0.090791  -0.038601
     6  C    0.077294   0.012454  -0.002686   0.040847  -0.122222  -0.078236
     7  H    0.542672  -0.003971   0.000018  -0.000151  -0.006435   0.001453
     8  H   -0.003971   0.523405  -0.000149   0.000016   0.023114   0.002268
     9  H    0.000018  -0.000149   0.526457  -0.003935   0.032006  -0.004277
    10  H   -0.000151   0.000016  -0.003935   0.541901  -0.005107   0.000778
    11  C   -0.006435   0.023114   0.032006  -0.005107   5.948100   0.967066
    12  C    0.001453   0.002268  -0.004277   0.000778   0.967066   6.111390
    13  C   -0.000211  -0.000131   0.001611  -0.000099  -0.434127  -0.474451
    14  C    0.000082   0.001216   0.000161  -0.000012   0.005860   0.323424
    15  C   -0.000034  -0.000051   0.000770   0.000027  -0.007093  -0.001265
    16  C    0.000000  -0.000308  -0.000026  -0.000001  -0.024977  -0.163783
    17  H    0.000000   0.000001   0.000000   0.000000  -0.001420   0.029296
    18  C    0.000000   0.000035   0.000155   0.000001  -0.031959  -0.024461
    19  H    0.000000   0.000000   0.000000   0.000000  -0.002773   0.030684
    20  C    0.000000   0.000013   0.000016   0.000000  -0.098015  -0.135307
    21  H    0.000000   0.000000   0.000000   0.000000   0.001084  -0.004469
    22  H    0.000000   0.000000   0.000000   0.000000   0.001079  -0.004549
    23  C    0.000000  -0.000001   0.000000   0.000000  -0.033455   0.048878
    24  H    0.000000   0.000000   0.000000   0.000000  -0.000030   0.000203
    25  H    0.000000   0.000000   0.000000   0.000000  -0.000004   0.000389
    26  H    0.000000   0.000000   0.000000   0.000000   0.000001   0.000482
    27  C   -0.024126   0.001558   0.002895  -0.040312   0.088940  -0.044038
    28  H    0.001110  -0.000001   0.000004   0.000151   0.000557   0.000004
    29  H    0.001052  -0.000004   0.000003   0.000154   0.000435  -0.000007
    30  H    0.000095   0.000003  -0.000011   0.006095   0.000517   0.000005
              13         14         15         16         17         18
     1  C    0.049265  -0.067578   0.057165   0.028837  -0.000212  -0.018062
     2  C   -0.219502   0.583876  -0.482730  -0.071249   0.000981   0.053359
     3  C    0.614449  -0.078669  -0.317558   0.012204   0.001341   0.076297
     4  C   -0.180332  -0.523888   0.639639   0.075414   0.000065  -0.086024
     5  C    0.019134   0.040178  -0.045907  -0.015438  -0.000005   0.019622
     6  C    0.017338   0.000693   0.002661   0.000237   0.000029   0.000132
     7  H   -0.000211   0.000082  -0.000034   0.000000   0.000000   0.000000
     8  H   -0.000131   0.001216  -0.000051  -0.000308   0.000001   0.000035
     9  H    0.001611   0.000161   0.000770  -0.000026   0.000000   0.000155
    10  H   -0.000099  -0.000012   0.000027  -0.000001   0.000000   0.000001
    11  C   -0.434127   0.005860  -0.007093  -0.024977  -0.001420  -0.031959
    12  C   -0.474451   0.323424  -0.001265  -0.163783   0.029296  -0.024461
    13  C    8.227703  -1.510667  -0.989140   0.820592  -0.026372   0.592843
    14  C   -1.510667  16.337083  -7.046972  -4.894669   0.363040   2.420895
    15  C   -0.989140  -7.046972  15.345580   2.717024   0.009771  -4.143808
    16  C    0.820592  -4.894669   2.717024   9.404531  -0.093173  -1.862759
    17  H   -0.026372   0.363040   0.009771  -0.093173   0.524601  -0.003065
    18  C    0.592843   2.420895  -4.143808  -1.862759  -0.003065   9.031992
    19  H   -0.021037   0.015184   0.358770  -0.006226  -0.000148  -0.096640
    20  C   -0.202002   0.310165   0.176040   0.051446   0.003023   0.030303
    21  H    0.022096  -0.058448  -0.007141   0.260393  -0.004046   0.045416
    22  H    0.025074  -0.006110  -0.066606   0.043352   0.000017   0.272390
    23  C   -0.349642  -0.004229   0.012646  -0.032645   0.002285  -0.008153
    24  H   -0.001433  -0.002079   0.001509  -0.003376   0.000002  -0.018581
    25  H   -0.003315  -0.014329   0.014596   0.042749   0.000002  -0.034639
    26  H   -0.003561   0.015309  -0.014997  -0.047240  -0.000004   0.050751
    27  C    0.011199  -0.000033  -0.000422  -0.000061   0.000000   0.000070
    28  H    0.000000   0.000002  -0.000001   0.000000   0.000000   0.000000
    29  H    0.000003   0.000000   0.000000   0.000000   0.000000   0.000000
    30  H    0.000003  -0.000001   0.000001   0.000000   0.000000   0.000000
              19         20         21         22         23         24
     1  C   -0.000008  -0.000148   0.000000  -0.000001  -0.000032   0.000000
     2  C   -0.000032   0.001371   0.000044  -0.000023  -0.000312   0.000000
     3  C    0.000716   0.014871  -0.000128  -0.000110   0.006899   0.000002
     4  C    0.001222   0.001220  -0.000020   0.000056  -0.000018   0.000000
     5  C    0.000044   0.000685   0.000000   0.000001   0.000017   0.000000
     6  C    0.000014   0.001620   0.000000   0.000000   0.000133   0.000000
     7  H    0.000000   0.000000   0.000000   0.000000   0.000000   0.000000
     8  H    0.000000   0.000013   0.000000   0.000000  -0.000001   0.000000
     9  H    0.000000   0.000016   0.000000   0.000000   0.000000   0.000000
    10  H    0.000000   0.000000   0.000000   0.000000   0.000000   0.000000
    11  C   -0.002773  -0.098015   0.001084   0.001079  -0.033455  -0.000030
    12  C    0.030684  -0.135307  -0.004469  -0.004549   0.048878   0.000203
    13  C   -0.021037  -0.202002   0.022096   0.025074  -0.349642  -0.001433
    14  C    0.015184   0.310165  -0.058448  -0.006110  -0.004229  -0.002079
    15  C    0.358770   0.176040  -0.007141  -0.066606   0.012646   0.001509
    16  C   -0.006226   0.051446   0.260393   0.043352  -0.032645  -0.003376
    17  H   -0.000148   0.003023  -0.004046   0.000017   0.002285   0.000002
    18  C   -0.096640   0.030303   0.045416   0.272390  -0.008153  -0.018581
    19  H    0.524668   0.003035   0.000017  -0.004053   0.002405   0.000002
    20  C    0.003035   6.733736   0.045501   0.040420  -0.972730  -0.055386
    21  H    0.000017   0.045501   0.541365  -0.000150  -0.023486   0.000335
    22  H   -0.004053   0.040420  -0.000150   0.541024  -0.023945   0.000342
    23  C    0.002405  -0.972730  -0.023486  -0.023945   6.729279   0.414038
    24  H    0.000002  -0.055386   0.000335   0.000342   0.414038   0.490733
    25  H   -0.000004  -0.132367   0.000096   0.002896   0.468941  -0.028391
    26  H    0.000002  -0.126035   0.002903   0.000093   0.467237  -0.028389
    27  C   -0.000001   0.000188   0.000000   0.000000   0.000008   0.000000
    28  H    0.000000   0.000000   0.000000   0.000000   0.000000   0.000000
    29  H    0.000000   0.000000   0.000000   0.000000   0.000000   0.000000
    30  H    0.000000   0.000000   0.000000   0.000000   0.000000   0.000000
              25         26         27         28         29         30
     1  C    0.000000   0.000000  -0.166011  -0.023459  -0.075404   0.045266
     2  C    0.000000   0.000000   0.198058   0.018568  -0.001186  -0.014136
     3  C    0.000001   0.000002  -0.504700   0.000911   0.001403  -0.009161
     4  C    0.000001  -0.000001  -0.034836  -0.013633  -0.009423   0.025024
     5  C    0.000000   0.000000  -0.038313   0.019724   0.071146  -0.071010
     6  C    0.000000   0.000000  -1.558308  -0.103409  -0.077167  -0.170801
     7  H    0.000000   0.000000  -0.024126   0.001110   0.001052   0.000095
     8  H    0.000000   0.000000   0.001558  -0.000001  -0.000004   0.000003
     9  H    0.000000   0.000000   0.002895   0.000004   0.000003  -0.000011
    10  H    0.000000   0.000000  -0.040312   0.000151   0.000154   0.006095
    11  C   -0.000004   0.000001   0.088940   0.000557   0.000435   0.000517
    12  C    0.000389   0.000482  -0.044038   0.000004  -0.000007   0.000005
    13  C   -0.003315  -0.003561   0.011199   0.000000   0.000003   0.000003
    14  C   -0.014329   0.015309  -0.000033   0.000002   0.000000  -0.000001
    15  C    0.014596  -0.014997  -0.000422  -0.000001   0.000000   0.000001
    16  C    0.042749  -0.047240  -0.000061   0.000000   0.000000   0.000000
    17  H    0.000002  -0.000004   0.000000   0.000000   0.000000   0.000000
    18  C   -0.034639   0.050751   0.000070   0.000000   0.000000   0.000000
    19  H   -0.000004   0.000002  -0.000001   0.000000   0.000000   0.000000
    20  C   -0.132367  -0.126035   0.000188   0.000000   0.000000   0.000000
    21  H    0.000096   0.002903   0.000000   0.000000   0.000000   0.000000
    22  H    0.002896   0.000093   0.000000   0.000000   0.000000   0.000000
    23  C    0.468941   0.467237   0.000008   0.000000   0.000000   0.000000
    24  H   -0.028391  -0.028389   0.000000   0.000000   0.000000   0.000000
    25  H    0.499602  -0.026069   0.000000   0.000000   0.000000   0.000000
    26  H   -0.026069   0.499358   0.000000   0.000000   0.000000   0.000000
    27  C    0.000000   0.000000   7.401088   0.429798   0.418800   0.529854
    28  H    0.000000   0.000000   0.429798   0.500324  -0.031688  -0.024927
    29  H    0.000000   0.000000   0.418800  -0.031688   0.498221  -0.024874
    30  H    0.000000   0.000000   0.529854  -0.024927  -0.024874   0.504582
 Mulliken charges:
               1
     1  C    0.134512
     2  C   -0.172397
     3  C    0.023966
     4  C   -0.189931
     5  C   -0.597073
     6  C    0.137487
     7  H    0.178578
     8  H    0.195303
     9  H    0.192252
    10  H    0.177274
    11  C   -0.056356
    12  C   -0.096397
    13  C    0.014713
    14  C   -0.209487
    15  C   -0.212475
    16  C   -0.240846
    17  H    0.193990
    18  C   -0.266111
    19  H    0.194157
    20  C    0.308338
    21  H    0.178639
    22  H    0.178803
    23  C   -0.704118
    24  H    0.230498
    25  H    0.209846
    26  H    0.210157
    27  C   -0.671296
    28  H    0.225964
    29  H    0.228535
    30  H    0.203474
 Sum of Mulliken charges =   0.00000
 Mulliken charges with hydrogens summed into heavy atoms:
               1
     1  C    0.313090
     2  C    0.022907
     3  C    0.023966
     4  C    0.002321
     5  C   -0.419799
     6  C    0.137487
    11  C   -0.056356
    12  C   -0.096397
    13  C    0.014713
    14  C   -0.015497
    15  C   -0.018318
    16  C   -0.062207
    18  C   -0.087308
    20  C    0.308338
    23  C   -0.053617
    27  C   -0.013323
 Electronic spatial extent (au):  <R**2>=           7228.2750
 Charge=              0.0000 electrons
 Dipole moment (field-independent basis, Debye):
    X=              0.1068    Y=             -0.0740    Z=              0.0093  Tot=              0.1302
 Quadrupole moment (field-independent basis, Debye-Ang):
   XX=            -70.2262   YY=            -86.3188   ZZ=           -101.1891
   XY=             -0.2994   XZ=             -0.3319   YZ=              0.0216
 Traceless Quadrupole moment (field-independent basis, Debye-Ang):
   XX=             15.6852   YY=             -0.4074   ZZ=            -15.2778
   XY=             -0.2994   XZ=             -0.3319   YZ=              0.0216
 Octapole moment (field-independent basis, Debye-Ang**2):
  XXX=              1.1149  YYY=              0.8092  ZZZ=              0.5300  XYY=              0.0590
  XXY=             -2.1516  XXZ=             -0.2117  XZZ=              0.8380  YZZ=             -1.0325
  YYZ=             -0.8061  XYZ=            -10.2312
 Hexadecapole moment (field-independent basis, Debye-Ang**3):
 XXXX=          -8586.3396 YYYY=           -583.5597 ZZZZ=           -160.2455 XXXY=             -9.7020
 XXXZ=            -10.3768 YYYX=              0.5646 YYYZ=              0.1133 ZZZX=             -2.5599
 ZZZY=              0.1215 XXYY=          -1556.1556 XXZZ=          -1667.6392 YYZZ=           -139.8981
 XXYZ=              0.3293 YYXZ=              0.3541 ZZXY=             -1.7833
 N-N= 8.690837563307D+02 E-N=-3.167610167466D+03  KE= 6.120277042358D+02
 Evaluate density.
 Using the total density.
 Monte-Carlo method of calculating molar volume:
 based on  0.001 e/bohr**3 density envelope.
 Number of points per bohr**3 =   20 CutOff= 1.00D-04
 Using the SCF density.
 There are       418 points.  Will hold       418 in memory.
 LenV=  4026280836 MDV=  4026531840.
 Box volume = 9185.544 fraction occupied=0.199
 Integrated density= 5.4631681020808706D+01 error=-5.5368318979191294D+01
 Molar volume = 1823.924 bohr**3/mol (162.765 cm**3/mol)
 Recommended a0 for SCRF calculation =  4.91 angstrom (  9.29 bohr)
 Calling FoFJK, ICntrl=      2127 FMM=F ISym2X=0 I1Cent= 0 IOpClX= 0 NMat=1 NMatS=1 NMatT=0.
 ***** Axes restored to original set *****
 -------------------------------------------------------------------
 Center     Atomic                   Forces (Hartrees/Bohr)
 Number     Number              X              Y              Z
 -------------------------------------------------------------------
      1        6           0.013133649   -0.002137535    0.001020698
      2        6          -0.006150756    0.000368095    0.009186413
      3        6           0.063723634   -0.009684856    0.013584972
      4        6           0.000283399    0.008834608   -0.011029767
      5        6           0.010547362   -0.002267982    0.000488430
      6        6           0.040380549    0.001031591   -0.005124222
      7        1           0.001522671    0.000645840   -0.003372847
      8        1          -0.001968846    0.002721227   -0.005379587
      9        1          -0.001078589   -0.001146278    0.003750102
     10        1           0.002557021   -0.002013482    0.003161329
     11        6          -0.089130670    0.002306189   -0.010462022
     12        6           0.089307931   -0.000575928    0.000479217
     13        6          -0.063216211    0.004326135    0.001554105
     14        6           0.002135092   -0.003433634    0.009459954
     15        6           0.002202157   -0.003246682   -0.011632274
     16        6          -0.006585622    0.000377162    0.001062228
     17        1           0.001459433    0.000364517   -0.004670807
     18        6          -0.006638769    0.000585638   -0.000553420
     19        1           0.001739170    0.000249955    0.005376818
     20        6           0.024046787    0.000965652   -0.000085911
     21        1          -0.002172647    0.000545966   -0.003636704
     22        1          -0.002216779    0.000520630    0.003568416
     23        6          -0.035654789    0.001588323   -0.000021279
     24        1           0.009156808   -0.016525722    0.000053452
     25        1           0.008977669    0.007091332   -0.013292880
     26        1           0.008956688    0.007161957    0.013278345
     27        6          -0.025745716    0.002023838   -0.001494370
     28        1          -0.012547439    0.009117269    0.013826268
     29        1          -0.013411947   -0.015550639    0.003159489
     30        1          -0.013611242    0.005756813   -0.012254148
 -------------------------------------------------------------------
 Cartesian Forces:  Max     0.089307931 RMS     0.018833443

 GradGradGradGradGradGradGradGradGradGradGradGradGradGradGradGradGradGrad
 Berny optimization.
 FormGI is forming the generalized inverse of G from B-inverse, IUseBI=4.
 Internal  Forces:  Max     0.065404509 RMS     0.010283427
 Search for a local minimum.
 Step number   1 out of a maximum of  157
 All quantities printed in internal units (Hartrees-Bohrs-Radians)
 Mixed Optimization -- RFO/linear search
 Second derivative matrix not updated -- first step.
 ITU=  0
     Eigenvalues ---    0.00230   0.00230   0.00230   0.00237   0.01366
     Eigenvalues ---    0.01532   0.01661   0.01692   0.01945   0.02079
     Eigenvalues ---    0.02091   0.02104   0.02111   0.02116   0.02117
     Eigenvalues ---    0.02118   0.02120   0.02122   0.02125   0.02126
     Eigenvalues ---    0.02132   0.02148   0.02165   0.03984   0.04701
     Eigenvalues ---    0.07243   0.07243   0.08051   0.08051   0.15990
     Eigenvalues ---    0.15994   0.15995   0.15996   0.16000   0.16000
     Eigenvalues ---    0.16000   0.16000   0.16000   0.16000   0.16000
     Eigenvalues ---    0.16000   0.16000   0.16000   0.21985   0.21994
     Eigenvalues ---    0.22975   0.22981   0.23986   0.23992   0.24980
     Eigenvalues ---    0.24994   0.25000   0.25000   0.28340   0.28403
     Eigenvalues ---    0.28519   0.34254   0.34325   0.34394   0.34399
     Eigenvalues ---    0.34412   0.34413   0.34464   0.34556   0.37230
     Eigenvalues ---    0.37230   0.37230   0.37230   0.37230   0.37230
     Eigenvalues ---    0.40989   0.41551   0.41751   0.42154   0.42205
     Eigenvalues ---    0.45390   0.45833   0.45928   0.45974   0.45996
     Eigenvalues ---    0.46091   0.46204   0.46785   1.05241
 RFO step:  Lambda=-4.18050032D-02 EMin= 2.30000000D-03
 Linear search not attempted -- first point.
 Maximum step size (   0.300) exceeded in Quadratic search.
    -- Step size scaled by   0.865
 Iteration  1 RMS(Cart)=  0.06145927 RMS(Int)=  0.00052061
 Iteration  2 RMS(Cart)=  0.00107170 RMS(Int)=  0.00011663
 Iteration  3 RMS(Cart)=  0.00000163 RMS(Int)=  0.00011663
 Iteration  4 RMS(Cart)=  0.00000000 RMS(Int)=  0.00011663
 Variable       Old X    -DE/DX   Delta X   Delta X   Delta X     New X
                                 (Linear)    (Quad)   (Total)
    R1        2.64067  -0.00241   0.00000  -0.00427  -0.00427   2.63640
    R2        2.64223   0.00842   0.00000   0.01453   0.01459   2.65681
    R3        2.06640  -0.00370   0.00000  -0.00829  -0.00829   2.05812
    R4        2.65214   0.00140   0.00000   0.00235   0.00229   2.65443
    R5        2.06903  -0.00616   0.00000  -0.01387  -0.01387   2.05516
    R6        2.62850   0.00437   0.00000   0.00736   0.00731   2.63580
    R7        2.91400  -0.05792   0.00000  -0.15407  -0.15407   2.75993
    R8        2.64421  -0.00050   0.00000  -0.00076  -0.00076   2.64346
    R9        2.06401  -0.00395   0.00000  -0.00882  -0.00882   2.05519
   R10        2.64263   0.00568   0.00000   0.00993   0.00999   2.65262
   R11        2.06671  -0.00449   0.00000  -0.01007  -0.01007   2.05663
   R12        2.70231   0.06540   0.00000   0.12526   0.12526   2.82757
   R13        2.26611   0.03150   0.00000   0.02490   0.02490   2.29101
   R14        2.91266  -0.05781   0.00000  -0.15348  -0.15348   2.75918
   R15        2.64178   0.00276   0.00000   0.00483   0.00481   2.64659
   R16        2.63832   0.00387   0.00000   0.00673   0.00671   2.64504
   R17        2.64183  -0.00105   0.00000  -0.00184  -0.00184   2.63999
   R18        2.06554  -0.00477   0.00000  -0.01069  -0.01069   2.05485
   R19        2.64238  -0.00109   0.00000  -0.00185  -0.00185   2.64053
   R20        2.06786  -0.00553   0.00000  -0.01242  -0.01242   2.05544
   R21        2.64009   0.00425   0.00000   0.00721   0.00723   2.64732
   R22        2.06662  -0.00424   0.00000  -0.00950  -0.00950   2.05712
   R23        2.63983   0.00420   0.00000   0.00717   0.00718   2.64702
   R24        2.06639  -0.00420   0.00000  -0.00941  -0.00941   2.05698
   R25        2.91018  -0.00856   0.00000  -0.02265  -0.02265   2.88752
   R26        2.02201   0.01863   0.00000   0.03892   0.03892   2.06093
   R27        2.02201   0.01719   0.00000   0.03592   0.03592   2.05792
   R28        2.02201   0.01720   0.00000   0.03593   0.03593   2.05794
   R29        2.02201   0.01949   0.00000   0.04071   0.04071   2.06272
   R30        2.02201   0.01952   0.00000   0.04078   0.04078   2.06279
   R31        2.02201   0.01750   0.00000   0.03655   0.03655   2.05855
    A1        2.09366   0.00655   0.00000   0.02079   0.02081   2.11447
    A2        2.09504  -0.00302   0.00000  -0.00927  -0.00928   2.08576
    A3        2.09447  -0.00354   0.00000  -0.01151  -0.01152   2.08295
    A4        2.09099   0.00074   0.00000   0.00138   0.00127   2.09226
    A5        2.09389   0.00115   0.00000   0.00593   0.00595   2.09984
    A6        2.09796  -0.00187   0.00000  -0.00700  -0.00698   2.09098
    A7        2.09733  -0.00216   0.00000  -0.00717  -0.00731   2.09002
    A8        2.03358   0.01091   0.00000   0.03278   0.03285   2.06643
    A9        2.15206  -0.00874   0.00000  -0.02550  -0.02544   2.12662
   A10        2.09293  -0.00041   0.00000  -0.00172  -0.00183   2.09110
   A11        2.09462  -0.00073   0.00000  -0.00301  -0.00300   2.09162
   A12        2.09507   0.00118   0.00000   0.00517   0.00518   2.10026
   A13        2.09517   0.00684   0.00000   0.02237   0.02240   2.11757
   A14        2.09387  -0.00370   0.00000  -0.01240  -0.01242   2.08145
   A15        2.09414  -0.00313   0.00000  -0.00996  -0.00998   2.08416
   A16        2.09442  -0.01147   0.00000  -0.03438  -0.03429   2.06013
   A17        2.09448   0.00328   0.00000   0.00991   0.00987   2.10435
   A18        2.09428   0.00819   0.00000   0.02446   0.02442   2.11870
   A19        2.09307   0.00094   0.00000   0.00296   0.00297   2.09603
   A20        2.09164   0.00064   0.00000   0.00208   0.00209   2.09373
   A21        2.09779  -0.00156   0.00000  -0.00469  -0.00474   2.09305
   A22        2.09144  -0.00006   0.00000  -0.00058  -0.00062   2.09082
   A23        2.09611  -0.00107   0.00000  -0.00437  -0.00438   2.09173
   A24        2.09540   0.00115   0.00000   0.00515   0.00515   2.10055
   A25        2.09320  -0.00044   0.00000  -0.00167  -0.00171   2.09149
   A26        2.09628  -0.00099   0.00000  -0.00427  -0.00427   2.09201
   A27        2.09347   0.00144   0.00000   0.00614   0.00614   2.09961
   A28        2.09342   0.00446   0.00000   0.01402   0.01404   2.10745
   A29        2.09403  -0.00230   0.00000  -0.00731  -0.00731   2.08672
   A30        2.09573  -0.00216   0.00000  -0.00672  -0.00672   2.08901
   A31        2.09222   0.00462   0.00000   0.01473   0.01474   2.10696
   A32        2.09489  -0.00245   0.00000  -0.00795  -0.00795   2.08694
   A33        2.09607  -0.00217   0.00000  -0.00678  -0.00678   2.08928
   A34        2.09766  -0.00697   0.00000  -0.02136  -0.02133   2.07633
   A35        2.09278   0.00345   0.00000   0.01057   0.01055   2.10333
   A36        2.09274   0.00352   0.00000   0.01079   0.01076   2.10350
   A37        1.91063   0.00285   0.00000   0.01157   0.01148   1.92211
   A38        1.91063   0.00362   0.00000   0.01586   0.01573   1.92637
   A39        1.91063   0.00363   0.00000   0.01586   0.01574   1.92637
   A40        1.91063  -0.00348   0.00000  -0.01557  -0.01566   1.89498
   A41        1.91063  -0.00348   0.00000  -0.01559  -0.01567   1.89496
   A42        1.91063  -0.00313   0.00000  -0.01212  -0.01228   1.89835
   A43        1.91063   0.00692   0.00000   0.02919   0.02870   1.93933
   A44        1.91063   0.00673   0.00000   0.02826   0.02778   1.93842
   A45        1.91063   0.00871   0.00000   0.03841   0.03778   1.94841
   A46        1.91063  -0.00781   0.00000  -0.03566  -0.03598   1.87465
   A47        1.91063  -0.00727   0.00000  -0.02996  -0.03057   1.88006
   A48        1.91063  -0.00728   0.00000  -0.03024  -0.03082   1.87981
   A49        3.17054  -0.00298   0.00000  -0.02916  -0.02918   3.14136
   A50        3.14159   0.00123   0.00000   0.02481   0.02479   3.16637
   A51        3.13228   0.00076   0.00000   0.00787   0.00776   3.14004
   A52        3.14159   0.00000   0.00000   0.00118   0.00127   3.14286
    D1        0.02934  -0.00067   0.00000  -0.01012  -0.01018   0.01916
    D2       -3.14082   0.00023   0.00000   0.00246   0.00245  -3.13837
    D3       -3.10907  -0.00084   0.00000  -0.01211  -0.01216  -3.12123
    D4        0.00396   0.00006   0.00000   0.00046   0.00047   0.00443
    D5        0.00343   0.00000   0.00000  -0.00018  -0.00019   0.00324
    D6       -3.13978  -0.00001   0.00000  -0.00015  -0.00015  -3.13993
    D7       -3.14135   0.00017   0.00000   0.00182   0.00179  -3.13956
    D8       -0.00137   0.00017   0.00000   0.00185   0.00183   0.00045
    D9       -0.06456   0.00155   0.00000   0.02200   0.02197  -0.04259
   D10        3.09824   0.00130   0.00000   0.01620   0.01613   3.11437
   D11        3.10566   0.00061   0.00000   0.00918   0.00919   3.11485
   D12       -0.01472   0.00036   0.00000   0.00337   0.00335  -0.01136
   D13        0.06660  -0.00168   0.00000  -0.02319  -0.02310   0.04350
   D14       -3.11087  -0.00064   0.00000  -0.00879  -0.00873  -3.11960
   D15       -3.09770  -0.00116   0.00000  -0.01622  -0.01631  -3.11401
   D16        0.00801  -0.00012   0.00000  -0.00182  -0.00194   0.00607
   D17       -0.42138   0.00096   0.00000   0.01487   0.01490  -0.40648
   D18        2.76189   0.00006   0.00000   0.00139   0.00150   2.76338
   D19        2.74721   0.00007   0.00000   0.00128   0.00118   2.74839
   D20       -0.35271  -0.00082   0.00000  -0.01219  -0.01222  -0.36493
   D21       -0.03360   0.00088   0.00000   0.01237   0.01240  -0.02120
   D22        3.10669   0.00092   0.00000   0.01292   0.01294   3.11963
   D23       -3.13930  -0.00012   0.00000  -0.00186  -0.00188  -3.14118
   D24        0.00098  -0.00008   0.00000  -0.00131  -0.00133  -0.00035
   D25       -0.00147  -0.00007   0.00000  -0.00083  -0.00082  -0.00229
   D26       -3.14144  -0.00006   0.00000  -0.00084  -0.00085   3.14090
   D27        3.14144  -0.00011   0.00000  -0.00137  -0.00136   3.14007
   D28        0.00146  -0.00010   0.00000  -0.00139  -0.00139   0.00007
   D29        1.02780  -0.00062   0.00000  -0.00452  -0.00464   1.02316
   D30       -1.06659   0.00058   0.00000   0.00398   0.00408  -1.06252
   D31        3.12220   0.00005   0.00000   0.00018   0.00019   3.12239
   D32       -2.11541  -0.00064   0.00000  -0.00454  -0.00465  -2.12006
   D33        2.07338   0.00056   0.00000   0.00395   0.00406   2.07744
   D34       -0.02101   0.00002   0.00000   0.00016   0.00018  -0.02084
   D35       -3.13968   0.00027   0.00000   0.00300   0.00298  -3.13670
   D36        0.02538  -0.00045   0.00000  -0.00683  -0.00684   0.01855
   D37       -0.03799   0.00093   0.00000   0.01326   0.01325  -0.02474
   D38        3.12707   0.00021   0.00000   0.00343   0.00344   3.13051
   D39        3.14019  -0.00030   0.00000  -0.00347  -0.00344   3.13675
   D40       -0.02477   0.00040   0.00000   0.00609   0.00610  -0.01867
   D41        0.03847  -0.00097   0.00000  -0.01374  -0.01372   0.02474
   D42       -3.12649  -0.00026   0.00000  -0.00417  -0.00418  -3.13067
   D43        0.02003  -0.00048   0.00000  -0.00695  -0.00700   0.01303
   D44       -3.12378  -0.00049   0.00000  -0.00698  -0.00702  -3.13080
   D45        3.13816   0.00021   0.00000   0.00274   0.00274   3.14089
   D46       -0.00565   0.00020   0.00000   0.00271   0.00272  -0.00293
   D47       -0.02094   0.00055   0.00000   0.00786   0.00791  -0.01303
   D48        3.12361   0.00049   0.00000   0.00696   0.00699   3.13061
   D49       -3.13921  -0.00012   0.00000  -0.00154  -0.00154  -3.14074
   D50        0.00535  -0.00018   0.00000  -0.00245  -0.00245   0.00290
   D51       -0.00265   0.00014   0.00000   0.00136   0.00138  -0.00127
   D52        3.13963   0.00053   0.00000   0.00770   0.00767  -3.13588
   D53        3.14116   0.00015   0.00000   0.00139   0.00140  -3.14063
   D54        0.00025   0.00054   0.00000   0.00773   0.00770   0.00795
   D55        0.00308  -0.00017   0.00000  -0.00180  -0.00181   0.00127
   D56       -3.13920  -0.00056   0.00000  -0.00813  -0.00811   3.13587
   D57       -3.14147  -0.00011   0.00000  -0.00090  -0.00090   3.14081
   D58       -0.00057  -0.00050   0.00000  -0.00723  -0.00720  -0.00777
   D59        1.56870  -0.00020   0.00000  -0.00319  -0.00323   1.56547
   D60       -2.62009  -0.00050   0.00000  -0.00547  -0.00554  -2.62562
   D61       -0.52569   0.00010   0.00000  -0.00089  -0.00090  -0.52660
   D62       -1.57220   0.00020   0.00000   0.00314   0.00318  -1.56902
   D63        0.52219  -0.00010   0.00000   0.00086   0.00087   0.52306
   D64        2.61659   0.00050   0.00000   0.00544   0.00551   2.62209
         Item               Value     Threshold  Converged?
 Maximum Force            0.065405     0.000450     NO 
 RMS     Force            0.010283     0.000300     NO 
 Maximum Displacement     0.200198     0.001800     NO 
 RMS     Displacement     0.061858     0.001200     NO 
 Predicted change in Energy=-2.248187D-02
 GradGradGradGradGradGradGradGradGradGradGradGradGradGradGradGradGradGrad

                          Input orientation:                          
 ---------------------------------------------------------------------
 Center     Atomic      Atomic             Coordinates (Angstroms)
 Number     Number       Type             X           Y           Z
 ---------------------------------------------------------------------
      1          6           0       -5.213947   -0.941963    1.137806
      2          6           0       -3.819955   -0.963670    1.085960
      3          6           0       -3.154864   -0.492483   -0.058034
      4          6           0       -3.893734   -0.052791   -1.156319
      5          6           0       -5.291006   -0.034704   -1.092261
      6          6           0       -5.974943   -0.475668    0.051491
      7          1           0       -5.722833   -1.290979    2.035237
      8          1           0       -3.244812   -1.330028    1.933157
      9          1           0       -3.380339    0.293056   -2.050523
     10          1           0       -5.857988    0.329504   -1.946856
     11          6           0       -1.694393   -0.497924   -0.064059
     12          6           0       -0.482071   -0.503956   -0.069391
     13          6           0        0.977693   -0.512900   -0.039644
     14          6           0        1.655203   -0.498844    1.186011
     15          6           0        1.701383   -0.499611   -1.237657
     16          6           0        3.052065   -0.501583    1.207118
     17          1           0        1.091613   -0.498741    2.115935
     18          6           0        3.098329   -0.502341   -1.205980
     19          1           0        1.174064   -0.500243   -2.188974
     20          6           0        3.786408   -0.502577    0.014111
     21          1           0        3.574739   -0.500844    2.162012
     22          1           0        3.656860   -0.502367   -2.140265
     23          6           0        5.314101   -0.513097    0.043481
     24          1           0        5.682244   -1.539637    0.052697
     25          1           0        5.713657   -0.009167   -0.835352
     26          1           0        5.679657   -0.005481    0.934910
     27          6           0       -7.469441   -0.456133    0.121914
     28          1           0       -7.815756    0.153806    0.958277
     29          1           0       -7.868675   -1.462104    0.263977
     30          1           0       -7.909169   -0.050709   -0.788543
 ---------------------------------------------------------------------
                    Distance matrix (angstroms):
                    1          2          3          4          5
     1  C    0.000000
     2  C    1.395125   0.000000
     3  C    2.423198   1.404666   0.000000
     4  C    2.792239   2.421354   1.394807   0.000000
     5  C    2.408788   2.787762   2.417083   1.398857   0.000000
     6  C    1.405926   2.439723   2.822256   2.443166   1.403706
     7  H    1.089110   2.151558   3.407909   3.881332   3.397933
     8  H    2.158858   1.087543   2.162039   3.405480   3.875297
     9  H    3.879798   3.407366   2.153583   1.087560   2.162485
    10  H    3.398022   3.876061   3.398557   2.151602   1.088323
    11  C    3.745519   2.461194   1.460493   2.495651   3.769270
    12  C    4.903042   3.561972   2.672842   3.608934   4.938858
    13  C    6.317190   4.948495   4.132648   5.018911   6.374422
    14  C    6.883597   5.495765   4.968343   6.039551   7.325010
    15  C    7.325318   6.008304   4.997469   5.613519   7.009335
    16  C    8.278025   6.888604   6.334561   7.350604   8.666716
    17  H    6.396348   5.039891   4.770613   5.979983   7.158609
    18  C    8.647574   7.302634   6.357696   7.006676   8.403128
    19  H    7.215904   5.990007   4.824996   5.191259   6.573936
    20  C    9.080866   7.695338   6.941654   7.781824   9.156550
    21  H    8.859152   7.486895   7.086341   8.184752   9.455634
    22  H    9.467323   8.156230   7.122876   7.627696   9.021160
    23  C   10.593454   9.204388   8.469599   9.297077  10.676473
    24  H   10.966388   9.575550   8.899622   9.765848  11.134989
    25  H   11.143428   9.772014   8.915631   9.612850  11.007691
    26  H   10.935665   9.549009   8.903475   9.799250  11.156421
    27  C    2.520976   3.808638   4.318481   3.818670   2.529308
    28  H    2.828843   4.151082   4.813990   4.460544   3.258006
    29  H    2.842835   4.161277   4.823264   4.450119   3.243645
    30  H    3.430653   4.590091   4.830344   4.032243   2.635769
                    6          7          8          9         10
     6  C    0.000000
     7  H    2.159523   0.000000
     8  H    3.424064   2.480429   0.000000
     9  H    3.426569   4.968891   4.303774   0.000000
    10  H    2.157631   4.301313   4.963590   2.480085   0.000000
    11  C    4.282167   4.611324   2.661779   2.722884   4.643822
    12  C    5.494275   5.702144   3.510746   3.600009   5.754999
    13  C    6.953333   7.057449   4.731722   4.866789   7.146582
    14  C    7.714066   7.468874   5.025858   6.038124   8.182240
    15  C    7.783859   8.152121   5.933676   5.207011   7.637701
    16  C    9.100716   8.849167   6.392505   7.253930   9.488272
    17  H    7.361975   6.860818   4.419166   6.163170   8.092540
    18  C    9.160034   9.430818   7.125636   6.581720   9.025324
    19  H    7.491902   8.126279   6.099753   4.625049   7.084974
    20  C    9.761460   9.753573   7.335221   7.500533   9.876848
    21  H    9.780152   9.331946   6.873587   8.169996  10.322239
    22  H    9.878064  10.297348   8.056729   7.082579   9.553102
    23  C   11.289110  11.242158   8.803026   8.979311  11.379235
    24  H   11.705642  11.578777   9.125372   9.482231  11.860390
    25  H   11.731474  11.860717   9.469080   9.179800  11.629837
    26  H   11.697488  11.527359   9.077284   9.543871  11.896808
    27  C    1.496283   2.721840   4.678865   4.690578   2.737483
    28  H    2.146413   2.761807   4.903640   5.361455   3.507638
    29  H    2.145793   2.787703   4.917694   5.346275   3.484323
    30  H    2.151157   3.780486   5.549823   4.713923   2.386126
                   11         12         13         14         15
    11  C    0.000000
    12  C    1.212349   0.000000
    13  C    2.672240   1.460094   0.000000
    14  C    3.575258   2.478710   1.400517   0.000000
    15  C    3.592858   2.476355   1.399693   2.424108   0.000000
    16  C    4.913733   3.757606   2.420241   1.397024   2.793076
    17  H    3.537542   2.692984   2.158634   1.087380   3.408578
    18  C    4.926884   3.756475   2.420237   2.793608   1.397308
    19  H    3.569778   2.689875   2.158319   3.409109   1.087690
    20  C    5.481360   4.269296   2.809248   2.432159   2.431925
    21  H    5.720066   4.629998   3.404715   2.153416   3.881652
    22  H    5.739910   4.628096   3.404505   3.882107   2.153741
    23  C    7.009336   5.797278   4.337205   3.833160   3.833175
    24  H    7.450744   6.251906   4.816173   4.310999   4.312068
    25  H    7.464113   6.262472   4.828690   4.560344   4.062109
    26  H    7.457685   6.262906   4.828633   4.062350   4.559702
    27  C    5.778192   6.990152   8.448869   9.186580   9.271156
    28  H    6.240273   7.434494   8.874970   9.496151   9.789026
    29  H    6.257716   7.455944   8.902326   9.616771   9.734851
    30  H    6.272824   7.475587   8.930330   9.776344   9.631507
                   16         17         18         19         20
    16  C    0.000000
    17  H    2.160864   0.000000
    18  C    2.413542   3.880985   0.000000
    19  H    3.880765   4.305700   2.160805   0.000000
    20  C    1.400902   3.417543   1.400741   3.417299   0.000000
    21  H    1.088582   2.483555   3.401521   4.969339   2.158307
    22  H    3.401580   4.969482   1.088506   2.483275   2.158267
    23  C    2.543814   4.703688   2.543799   4.703608   1.528012
    24  H    3.054191   5.139486   3.055629   5.140926   2.161291
    25  H    3.390903   5.505731   2.687104   4.762494   2.163176
    26  H    2.687834   4.763222   3.390212   5.504890   2.163185
    27  C   10.577420   8.790311  10.650971   8.947196  11.256460
    28  H   10.890409   9.005955  11.145932   9.547243  11.659010
    29  H   11.003395   9.200249  11.106624   9.418773  11.697183
    30  H   11.150543   9.468411  11.024665   9.201544  11.731793
                   21         22         23         24         25
    21  H    0.000000
    22  H    4.303061   0.000000
    23  C    2.741114   2.741406   0.000000
    24  H    3.157512   3.160252   1.090596   0.000000
    25  H    3.714957   2.485248   1.089006   1.769733   0.000000
[...]
 .07439046,-0.26854654,-0.04387352,-0.08417978,0.29176610,0.00000308,-0
 .00000115,0.00000121,0.00000025,-0.00000067,0.00000682,0.00000661,0.00
 000009,0.00000518,-0.00000286,0.00000021,-0.00000217,0.00000281,0.0000
 0166,-0.00000368,-0.00000195,0.00000004,0.00000040,0.00000145,-0.00000
 017,-0.00000098,-0.00000080,-0.00000020,-0.00000064,-0.00000060,0.0000
 0014,-0.00000127,0.00000004,0.00000005,0.00000034,-0.00003075,0.000006
 89,-0.00002802,0.00006049,-0.00001566,-0.00000535,-0.00009564,-0.00023
 494,0.00111897,-0.00100844,0.00050636,-0.00045921,0.00123011,-0.000249
 67,-0.00063713,0.00174599,0.00062311,-0.00009172,0.00002264,-0.0000477
 6,-0.00002872,-0.00189856,-0.00036862,-0.00056433,-0.00000493,0.000066
 73,-0.00000517,0.00041176,0.00054331,0.00051784,0.00006686,-0.00032774
 ,-0.00018985,-0.00004801,0.00026151,-0.00008414,0.01473218,-0.04388787
 ,-0.05544660,-0.01667559,0.04866952,0.05541861,-0.00000921,0.00000616,
 -0.00002383,-0.00001890,0.00000312,-0.00001395,0.00005789,-0.00000237,
 0.00000346,-0.00001927,-0.00000536,0.00002203,-0.00000998,-0.00000277,
 0.00002250,-0.00000155,0.00000243,-0.00000583,-0.00000625,-0.00000139,
 0.00000575,0.00000592,-0.00000006,-0.00000310,0.00000460,-0.00000160,-
 0.00000038,-0.00000789,0.00000103,-0.00000609,-0.00001521,0.00001331,-
 0.00000117,-0.00002595,-0.00002831,-0.00010482,0.00011342,-0.00012455,
 -0.00019343,-0.00012811,0.00056387,0.00156918,-0.00009164,0.00036040,0
 .00017758,-0.00567079,-0.00011072,-0.00201655,-0.00046300,0.00004758,0
 .00001036,0.00126712,0.00020784,0.00180583,0.00003078,-0.00001152,-0.0
 0002116,-0.01304702,-0.01972952,0.02507396,0.00004954,-0.00027224,-0.0
 0001554,-0.00028080,-0.00014939,-0.00135229,-0.08279152,-0.05812963,0.
 06556082,0.00392813,0.00559341,-0.00826370,0.09249742,-0.00000562,0.00
 000255,-0.00001681,-0.00001506,0.00000208,-0.00000575,0.00005359,0.000
 00903,0.00000164,-0.00001498,-0.00000369,0.00000893,-0.00000605,-0.000
 00367,0.00001660,-0.00000175,-0.00000043,-0.00000475,-0.00000393,-0.00
 000076,0.00000422,0.00000319,0.00000022,-0.00000185,0.00000356,0.00000
 085,0.00000095,-0.00000559,0.00000119,-0.00000454,-0.00004681,-0.00000
 359,0.00000161,0.00005446,-0.00002753,-0.00002522,-0.00006520,0.000109
 99,-0.00052178,0.00087532,0.00008019,0.00012910,-0.00037611,0.00007780
 ,-0.00002727,-0.00003478,0.00043345,-0.00011192,0.00002762,-0.00007302
 ,-0.00002573,0.00055272,0.00040378,0.00031477,-0.00003158,-0.00003596,
 -0.00000349,0.00257723,0.00160945,-0.00271857,0.00007775,-0.00005558,0
 .00004484,-0.00028742,0.00003807,-0.00043040,-0.06006856,-0.14306403,0
 .11323448,-0.01122305,-0.01844082,0.02296763,0.06285289,0.15212111,0.0
 0000830,-0.00000182,0.00000620,0.00000238,-0.00000414,0.00000891,0.000
 00298,-0.00000905,-0.00000506,0.00000146,0.00000430,-0.00001175,0.0000
 0845,0.00000137,-0.00000572,-0.00000558,-0.00000228,0.00000116,0.00000
 242,0.00000110,-0.00000214,-0.00000347,0.00000091,0.00000344,-0.000003
 57,0.00000078,-0.00000178,0.00000358,0.00000033,0.00000272,-0.00005424
 ,-0.00001121,-0.00000362,0.00014004,0.00014631,0.00008184,-0.00029788,
 -0.00009721,0.00017346,0.00004009,0.00002850,-0.00006780,0.00062452,-0
 .00061206,0.00000490,0.00042105,0.00058376,0.00056206,0.00006800,-0.00
 001896,-0.00000716,-0.00197612,-0.00033486,0.00036772,0.00005723,0.000
 03391,0.00001413,0.00065168,-0.00173452,-0.00043335,-0.00017633,-0.000
 03409,0.00045460,-0.00012401,0.00045292,0.00026616,0.06715664,0.112833
 03,-0.18232959,-0.00318976,-0.00418450,0.00526404,-0.07410713,-0.12519
 189,0.19460983,-0.00001028,0.00000613,-0.00002103,-0.00002052,0.000003
 17,-0.00002249,0.00005810,-0.00000011,-0.00000943,-0.00001785,-0.00000
 285,0.00001472,-0.00000929,-0.00000357,0.00002567,-0.00000142,0.000002
 65,-0.00000543,-0.00000745,-0.00000144,0.00000630,0.00000466,-0.000001
 64,-0.00000018,0.00000600,-0.00000130,0.00000293,-0.00000680,0.0000008
 7,-0.00000572,-0.00001451,0.00001260,0.00000839,-0.00002752,-0.0000689
 1,0.00008591,0.00011543,-0.00019010,0.00012814,-0.00009650,0.00041100,
 -0.00002449,-0.00014159,0.00113192,-0.00121982,0.00126597,0.00089200,-
 0.00158353,0.00003030,-0.00001933,0.00001504,-0.00563516,-0.00089322,0
 .00185353,-0.00046191,0.00004779,0.00001149,-0.01324384,-0.00874305,-0
 .03059047,-0.00026692,-0.00066419,0.00118689,0.00005009,-0.00026110,-0
 .00008936,-0.08369260,-0.02937001,-0.08365053,0.00398949,0.00205248,0.
 00974514,0.00465397,0.00512417,0.01074183,0.09350233,-0.00000240,0.000
 00225,-0.00001284,-0.00001371,-0.00000014,-0.00000416,0.00005093,0.000
 00475,-0.00000068,-0.00001269,-0.00000065,0.00000195,-0.00000206,-0.00
 000347,0.00001355,-0.00000375,-0.00000128,-0.00000376,-0.00000354,-0.0
 0000014,0.00000353,0.00000195,0.00000107,0.00000030,0.00000165,0.00000
 032,0.00000066,-0.00000301,0.00000091,-0.00000288,-0.00006410,-0.00000
 684,-0.00000119,0.00010391,0.00003125,0.00000408,-0.00017168,-0.000101
 25,0.00040935,-0.00010782,-0.00015771,-0.00003903,0.00082446,0.0001090
 8,-0.00006050,-0.00025078,0.00040195,-0.00030531,-0.00000746,-0.000017
 54,-0.00000965,0.00012598,0.00060351,0.00013898,0.00005120,-0.00007726
 ,-0.00000411,0.00264213,-0.00024615,0.00275164,-0.00031233,0.00007282,
 0.00035851,0.00000352,0.00002819,-0.00022292,-0.03054937,-0.06946061,-
 0.06688540,-0.01174693,-0.00846791,-0.02851251,0.00891953,0.00681978,0
 .01814821,0.03053854,0.07046509,-0.00001010,0.00000226,-0.00001096,-0.
 00000784,0.00000016,-0.00001494,0.00001659,0.00001321,-0.00000328,-0.0
 0000666,0.00000018,0.00001184,-0.00000970,-0.00000220,0.00001253,0.000
 00466,0.00000192,-0.00000275,-0.00000503,-0.00000145,0.00000406,0.0000
 0460,0.00000037,-0.00000199,0.00000442,-0.00000218,0.00000328,-0.00000
 397,0.00000013,-0.00000363,0.00003389,0.00001021,0.00000034,-0.0001105
 7,-0.00016797,0.00002231,0.00025589,-0.00001654,0.00038489,-0.00072830
 ,0.00054393,0.00024415,0.00029611,0.00004330,-0.00009743,0.00203247,0.
 00034629,0.00037264,-0.00006505,-0.00004725,-0.00000383,-0.00037224,-0
 .00055707,0.00036269,-0.00004963,-0.00001149,-0.00000099,0.00044863,0.
 00187302,0.00162285,0.00000666,-0.00052991,0.00021243,0.00019374,-0.00
 014652,0.00037536,-0.08582518,-0.06649265,-0.25494393,-0.00135321,-0.0
 0144973,-0.00478516,-0.00812772,-0.00763903,-0.01895171,0.09339045,0.0
 7423049,0.27518814,-0.02415861,0.00102158,-0.00492936,0.00446132,0.000
 43840,-0.00205147,-0.00195066,-0.00029284,0.00153305,0.00140379,-0.000
 06702,0.00055118,-0.02020403,-0.00069713,0.00367144,-0.21167059,-0.000
 54193,0.00349838,0.00082677,-0.00027446,0.00119995,-0.00005942,-0.0000
 3947,0.00016043,-0.00006142,0.00003052,-0.00019216,0.00128152,0.000307
 68,-0.00174127,0.00113364,-0.00001150,-0.00003730,-0.00065348,0.000010
 43,-0.00001721,0.00022840,-0.00000446,0.00000118,-0.00005815,0.0000131
 0,-0.00006296,-0.00005567,-0.00001272,0.00006506,0.00004078,0.00000352
 ,-0.00001996,-0.00000314,0.00000030,-0.00000191,0.00003952,-0.00000400
 ,0.00001845,-0.00000300,-0.00000031,0.00000122,-0.00002855,0.00000411,
 0.00000204,0.00000325,-0.00000009,0.00000113,0.00000351,0.00000039,-0.
 00000125,0.00000515,-0.00000585,-0.00000152,0.00000146,0.00000085,0.00
 000032,0.00000179,0.00000130,-0.00000005,0.00000169,0.00000114,0.00000
 049,0.48674776,0.00589532,0.00330875,-0.00024795,0.00063352,0.00469959
 ,0.00203262,-0.00027820,-0.00102458,-0.00006954,-0.00004890,0.00730411
 ,0.00223960,-0.00551398,0.00568955,0.00063085,0.00097256,-0.07182216,0
 .00351930,0.00010984,-0.00215618,-0.00067352,0.00030514,0.00009087,0.0
 0000754,-0.00023675,0.00003473,-0.00000027,-0.00035451,-0.00405339,-0.
 00082476,0.00009416,-0.00061865,-0.00016754,-0.00007310,-0.00007809,-0
 .00002438,0.00005238,0.00009598,0.00002180,-0.00001390,-0.00000055,0.0
 0000506,-0.00001528,0.00000566,-0.00000130,-0.00000375,-0.00001230,0.0
 0000947,0.00000093,0.00000002,-0.00000049,-0.00000123,-0.00001704,-0.0
 0001762,0.00000243,0.00000249,-0.00000035,-0.00000254,-0.00001767,-0.0
 0000379,-0.00000321,0.00000409,-0.00000235,-0.00000277,0.00000195,0.00
 000378,0.00000211,0.00001307,0.00000408,-0.00000665,0.00000085,-0.0000
 0036,-0.00000368,-0.00000158,0.00000160,-0.00000392,-0.00000073,-0.000
 00242,-0.00258578,0.54070602,-0.02919187,-0.00025860,0.00445532,-0.002
 75922,0.00194123,-0.00496680,0.00112281,-0.00008293,-0.00065630,0.0006
 3264,0.00234201,-0.00364094,0.02814443,0.00065190,0.00266531,-0.002815
 95,0.00351898,-0.08883019,-0.00066542,-0.00057933,0.00090794,-0.001481
 82,0.00001735,0.00005553,0.00123816,-0.00000815,0.00003547,0.00164434,
 -0.00091551,0.00009391,-0.00039041,-0.00016455,0.00018797,0.00029730,-
 0.00002301,0.00003761,-0.00019548,0.00001800,-0.00000701,0.00004815,0.
 00000274,-0.00001947,0.00005715,-0.00000233,0.00000253,0.00001344,0.00
 000523,-0.00004132,-0.00000253,0.00000018,0.00000358,0.00000020,-0.000
 01470,0.00005146,-0.00000984,0.00000113,0.00000388,0.00001710,0.000018
 20,0.00000661,0.00001271,-0.00000111,0.00001081,0.00001117,0.00000356,
 -0.00001187,-0.00000492,-0.00002555,-0.00000950,0.00002591,-0.00000539
 ,0.00000004,0.00001103,0.00000856,-0.00000355,0.00001170,0.00000669,0.
 00000597,0.01002225,-0.00848527,0.58178003,0.00091128,-0.00087204,0.00
 103085,-0.00015657,-0.00102193,0.00009540,0.00008438,0.00020919,0.0001
 5878,-0.00062057,-0.00152512,0.00018379,-0.00295140,0.00077489,-0.0017
 0570,-0.01469048,0.02192317,0.02233417,0.00014605,0.00070490,-0.000607
 94,-0.00000120,0.00005059,-0.00002548,-0.00030576,-0.00004543,0.000012
 62,0.00002636,0.00049294,0.00021941,-0.00016508,0.00014192,-0.00002762
 ,0.00002435,-0.00002051,-0.00000857,0.00007268,-0.00000700,0.00000222,
 -0.00002625,-0.00000549,0.00004020,-0.00002529,0.00001079,-0.00003302,
 -0.00002172,-0.00000982,0.00004093,0.00000800,0.00000183,0.00000101,-0
 .00002207,0.00000475,-0.00004422,0.00000890,0.00000163,-0.00000268,-0.
 00000083,-0.00001545,-0.00000317,-0.00001240,0.00000226,-0.00001032,-0
 .00001152,-0.00000182,0.00001015,0.00000208,0.00002395,0.00000439,-0.0
 0002130,0.00000356,0.00000095,-0.00000964,-0.00000706,0.00000327,-0.00
 001001,-0.00000542,-0.00000584,-0.07615216,0.06291528,0.05575891,0.085
 69776,0.00016925,0.00099821,-0.00032419,0.00022265,0.00009939,0.000126
 88,-0.00011385,-0.00006016,0.00014372,-0.00020754,-0.00030690,0.000012
 11,-0.00041999,-0.00047707,0.00042270,-0.00097612,0.00267693,0.0022965
 8,0.00019624,-0.00034250,0.00027166,0.00003449,-0.00000508,0.,-0.00001
 493,0.00004038,0.00002108,-0.00005540,0.00016181,0.00002804,0.00006625
 ,-0.00001905,0.00001426,-0.00002473,-0.00000029,0.00000469,-0.00002231
 ,0.00000514,-0.00000198,0.00000720,0.00000060,-0.00001461,0.00000627,-
 0.00000239,0.00001074,0.00000918,0.00000298,-0.00001537,-0.00000323,0.
 00000050,-0.00000043,0.00000880,-0.00000257,0.00001659,-0.00000294,-0.
 00000068,0.00000174,-0.00000155,0.00000508,0.00000114,0.00000496,-0.00
 000083,0.00000411,0.00000364,0.00000079,-0.00000356,-0.00000059,-0.000
 00847,-0.00000225,0.00000774,-0.00000162,-0.00000056,0.00000344,0.0000
 0264,-0.00000114,0.00000380,0.00000231,0.00000261,0.06190516,-0.169276
 63,-0.11477594,-0.06689616,0.18187723,-0.00219045,0.00044803,-0.000109
 62,0.00143966,0.00036919,-0.00024124,-0.00048259,-0.00012276,0.0008166
 9,-0.00028637,0.00043891,-0.00025621,0.00108866,-0.00007744,0.00005939
 ,0.00161484,0.00172004,0.00060855,0.00006753,-0.00044296,-0.00011984,0
 .00004644,-0.00001381,-0.00000609,0.00006337,-0.00004428,-0.00002431,-
 0.00005323,-0.00045660,0.00023958,0.00026993,-0.00015087,-0.00000724,-
 0.00013862,0.00000986,-0.00000800,0.00004644,0.00000331,-0.00000081,-0
 .00001015,0.00000589,-0.00001246,-0.00000865,0.00000129,0.00001511,0.0
 0000866,-0.00000100,-0.00000250,-0.00000228,0.,-0.00000208,0.00000830,
 -0.00000185,0.00000093,-0.00000224,-0.00000183,0.00000130,-0.00000845,
 0.00000318,0.00000084,0.00000119,-0.00000077,0.00000057,0.00000138,-0.
 00000065,-0.00000097,0.00000093,-0.00000162,-0.00000018,-0.00000013,0.
 00000016,0.00000013,0.00000047,0.00000034,-0.00000074,0.00000032,0.000
 00005,0.00000088,0.05460921,-0.11452577,-0.15465539,-0.06227744,0.1269
 2019,0.16461268,0.00087484,0.00041225,0.00126956,-0.00017102,0.0009568
 2,0.00049967,0.00008462,-0.00026025,0.00007493,-0.00063639,0.00138195,
 0.00068673,-0.00271359,-0.00000370,-0.00183898,-0.01490786,-0.02919214
 ,0.01098324,0.00014832,-0.00043862,-0.00080027,-0.00000627,-0.00003841
 ,-0.00004430,-0.00029034,0.00003415,0.00003030,0.00002304,-0.00055924,
 0.00002089,-0.00017784,-0.00012623,-0.00007667,0.00002841,0.00002336,-
 0.00000081,0.00007369,0.00000821,0.00000552,-0.00002672,-0.00000825,0.
 00004082,-0.00002569,0.00000524,-0.00003605,-0.00002291,-0.00000511,0.
 00004372,0.00000827,-0.00000395,0.00000001,-0.00002333,0.00001514,-0.0
 0004372,0.00000914,-0.00000229,-0.00000348,-0.00000032,-0.00001926,-0.
 00000368,-0.00001278,0.00000103,-0.00001093,-0.00001191,-0.00000318,0.
 00001023,0.00000199,0.00002381,0.00000429,-0.00002236,0.00000405,0.000
 00105,-0.00000992,-0.00000737,0.00000276,-0.00001038,-0.00000598,-0.00
 000559,-0.07628173,-0.08088992,0.02438949,0.00393947,0.00985653,-0.004
 16778,0.08585271,0.00070039,0.00086620,0.00074889,-0.00078557,0.000219
 65,0.00007539,0.00032318,0.00007050,-0.00043734,0.00023448,-0.00013577
 ,0.00003102,-0.00001337,-0.00026861,-0.00057177,0.00009407,0.00397947,
 -0.00085711,-0.00019688,-0.00038305,-0.00034512,-0.00005045,-0.0000066
 9,-0.00000105,-0.00001313,0.00002533,-0.00000024,0.00006540,0.00000551
 ,-0.00013266,-0.00018533,-0.00006776,-0.00003798,0.00008781,0.00000383
 ,0.00000050,-0.00000308,0.00000569,0.00000426,-0.00000112,-0.00000325,
 0.00001870,-0.00000108,0.00000545,-0.00001552,-0.00001208,-0.00000326,
 0.00001438,0.00000379,-0.00000068,0.00000118,-0.00001163,0.00000341,-0
 .00001496,0.00000350,-0.00000094,-0.00000255,0.00000542,-0.00000527,-0
 .00000133,-0.00000477,0.00000010,-0.00000400,-0.00000378,-0.00000133,0
 .00000332,0.00000001,0.00000761,0.00000171,-0.00000698,0.00000182,0.00
 000064,-0.00000299,-0.00000256,0.00000103,-0.00000340,-0.00000228,-0.0
 0000224,-0.07917008,-0.25350367,0.06851831,-0.00722703,-0.02103187,0.0
 0721580,0.08713935,0.27498727,-0.00208371,0.00002894,-0.00000828,0.001
 26936,-0.00012449,-0.00039326,-0.00038382,-0.00018649,0.00073273,-0.00
 025284,-0.00041248,-0.00045504,0.00122938,-0.00013434,-0.00020165,0.00
 182527,-0.00024560,-0.00044086,-0.00000983,0.00029914,-0.00011492,0.00
 002665,0.00000759,-0.00000322,0.00006211,0.00006806,-0.00000638,-0.000
 01330,0.00038892,0.00035277,0.00021610,0.00011816,0.00003473,-0.000114
 79,-0.00000785,-0.00001433,0.00005069,0.00000205,0.00000080,-0.0000121
 3,-0.00000097,-0.00000633,-0.00001031,-0.00000465,0.00000799,0.0000040
 2,-0.00000065,0.00000388,-0.00000069,0.00000052,-0.00000156,0.00000392
 ,0.00000269,-0.00000494,-0.00000078,0.00000080,0.00000079,-0.00000721,
 -0.00000576,-0.00000104,-0.00000102,0.00000068,-0.00000095,-0.00000023
 ,0.00000060,0.00000085,0.00000125,0.00000391,0.00000116,-0.00000257,0.
 00000027,0.00000033,-0.00000120,-0.00000061,0.00000029,-0.00000140,-0.
 00000068,-0.00000071,0.02369402,0.06829640,-0.06968882,-0.00796278,-0.
 02020005,0.00703769,-0.02852638,-0.07533880,0.07079010,-0.00677015,-0.
 00035012,0.00196789,0.00009492,0.00032879,-0.00181727,0.00016334,-0.00
 005464,0.00030265,-0.00009999,-0.00001904,0.00002777,0.00139025,0.0003
 8043,-0.00206113,-0.01209759,0.00691268,-0.03157570,0.00006909,0.00001
 109,-0.00000523,-0.00052177,-0.00000325,0.00000984,0.00003928,-0.00000
 166,0.00000948,-0.00047984,-0.00027463,0.00148283,0.00002920,-0.000020
 60,0.00011118,-0.00002673,-0.00000133,0.00000824,0.00004885,0.00000147
 ,-0.00000819,-0.00001477,-0.00000103,0.00000571,-0.00001630,0.00000330
 ,-0.00001429,-0.00000420,-0.00000258,0.00001581,0.00000463,-0.00000087
 ,0.00000297,-0.00000563,0.00000289,-0.00001246,0.00000318,-0.00000035,
 0.00000021,-0.00000151,-0.00000608,-0.00000081,-0.00000424,0.00000059,
 -0.00000372,-0.00000545,-0.00000100,0.00000417,0.00000173,0.00000824,0
 .00000179,-0.00000815,0.00000167,0.00000011,-0.00000393,-0.00000289,0.
 00000146,-0.00000347,-0.00000191,-0.00000198,-0.08483975,0.01905440,-0
 .08594142,0.00428294,-0.00376627,0.01036104,0.00430686,-0.00096465,0.0
 1100225,0.09446921,0.00003505,0.00121203,0.00011388,-0.00013453,0.0005
 1333,0.00012203,-0.00000046,-0.00000607,-0.00007234,0.00007497,-0.0001
 2508,-0.00008148,-0.00040586,-0.00015444,-0.00013214,-0.00039489,-0.00
 112384,-0.00060692,-0.00004717,-0.00027321,-0.00011038,0.00000645,-0.0
 0016475,-0.00003507,0.00001335,-0.00003849,-0.00000904,0.00000944,0.00
 034107,-0.00004769,-0.00000945,-0.00000551,-0.00001519,0.00001314,0.00
 000559,0.00000256,-0.00001480,0.00000843,0.00000239,0.00000440,-0.0000
 0346,-0.00000243,0.00000448,-0.00000527,0.00000189,0.00000189,0.000000
 51,-0.00000439,-0.00000118,0.00000103,-0.00000072,0.00000199,0.0000008
 2,0.00000431,-0.00000124,0.00000139,0.00000068,-0.00000013,-0.00000208
 ,-0.00000047,0.00000123,0.00000015,0.00000127,0.00000160,0.00000109,-0
 .00000119,-0.00000036,-0.00000129,-0.00000041,0.00000277,-0.00000084,0
 .00000001,0.00000109,0.00000106,-0.00000030,0.00000104,0.00000067,0.00
 000056,0.01996919,-0.05937449,0.04828831,-0.00960137,0.00566214,-0.021
 29403,0.01170200,-0.00476487,0.02744466,-0.02123264,0.05829441,-0.0000
 6944,0.00015221,0.00064653,0.00042009,0.00011666,-0.00001437,0.0000481
 7,-0.00004698,0.00019810,-0.00032027,-0.00011145,0.00026309,0.00196852
 ,-0.00017540,0.00057626,0.00136634,-0.00063710,0.00139602,0.00022713,-
 0.00012474,0.00031139,-0.00004050,-0.00003574,0.00000141,-0.00006518,-
 0.00000690,0.00000705,0.00004283,-0.00000175,0.00046512,0.00001513,-0.
 00000773,0.00006706,-0.00004495,0.00000179,-0.00000593,0.00005792,0.00
 000265,-0.00000335,-0.00001773,-0.00000158,0.00000811,-0.00001837,0.00
 000258,-0.00001289,-0.00000873,-0.00000345,0.00001752,0.00000532,-0.00
 000094,0.00000413,-0.00000890,0.00000380,-0.00001574,0.00000549,0.0000
 0024,-0.00000190,0.00000093,-0.00000921,-0.00000187,-0.00000515,0.0000
 0086,-0.00000501,-0.00000701,-0.00000122,0.00000578,0.00000174,0.00001
 130,0.00000215,-0.00001033,0.00000250,0.00000021,-0.00000506,-0.000004
 06,0.00000251,-0.00000456,-0.00000238,-0.00000304,-0.08997337,0.048275
 59,-0.26777279,-0.00718226,0.00504125,-0.01794665,-0.00250458,0.001127
 55,-0.00762182,0.09612680,-0.05356835,0.28943292\\-0.00003240,0.000001
 18,-0.00001392,0.00003214,0.00000394,-0.00001473,-0.00002173,-0.000008
 14,0.00003530,-0.00001263,0.00000433,-0.00001891,0.00001432,0.00000308
 ,-0.00001299,0.00001674,-0.00000531,0.00002928,0.00000112,-0.00000015,
 0.00000073,-0.00000518,-0.00000095,0.00000082,0.00000206,-0.00000134,0
 .00000268,-0.00000257,-0.00000052,0.00000205,0.00000636,0.00000266,-0.
 00000652,0.00001315,0.00000197,-0.00000351,0.00001046,0.00000017,0.000
 00030,-0.00000673,-0.00000032,-0.00000099,-0.00001330,-0.00000004,0.00
 000314,0.00000050,0.00000079,0.00000101,0.00000123,-0.00000032,-0.0000
 0052,0.00000529,0.00000052,0.00000175,0.00000250,-0.00000052,0.0000007
 2,-0.00000414,-0.00000335,-0.00000413,0.00000081,0.00000003,-0.0000001
 7,0.00000026,0.00000016,0.00000001,0.00000112,0.00000177,0.00000045,-0
 .00000044,-0.00000058,0.00000010,-0.00000039,0.00000001,0.00000007,0.0
 0000023,0.00000037,0.00000042,-0.00001713,0.00000009,0.00000005,0.0000
 0289,0.00000018,-0.00000166,0.00000295,0.00000094,-0.00000042,0.000002
 49,-0.00000066,-0.00000039\\\@


 TIME IS IN FACT THE HERO OF THE PLOT. THE TIME
 WITH WHICH WE HAVE TO DEAL IS OF THE ORDER OF TWO
 BILLION YEARS...GIVEN SO MUCH TIME, THE "IMPOSSIBLE"
 BECOMES POSSIBLE, THE POSSIBLE PROBABLE, THE PROBABLE
 VIRTUALLY CERTAIN.  ONE HAS ONLY TO WAIT, TIME
 ITSELF PERFORMS THE MIRACLES.
 "ORIGIN OF LIFE" LECTURES, GEORGE WALD, 1954
 Job cpu time:       0 days  2 hours 15 minutes 52.5 seconds.
 Elapsed time:       0 days  0 hours  4 minutes 31.8 seconds.
 File lengths (MBytes):  RWF=    333 Int=      0 D2E=      0 Chk=     12 Scr=      1
 Normal termination of Gaussian 16 at Sun Sep 17 15:50:25 2023.
