 Entering Gaussian System, Link 0=/home/ubuntu/g16/g16
 Input=/home/ubuntu/ML products/molecule_120.gjf
 Output=/home/ubuntu/ML products/molecule_120.log
 Initial command:
 /home/ubuntu/g16/l1.exe "/home/ubuntu/Scratch/Gau-349777.inp" -scrdir="/home/ubuntu/Scratch/"
 Entering Link 1 = /home/ubuntu/g16/l1.exe PID=    349779.
  
 Copyright (c) 1988-2017, Gaussian, Inc.  All Rights Reserved.
  
 This is part of the Gaussian(R) 16 program.  It is based on
 the Gaussian(R) 09 system (copyright 2009, Gaussian, Inc.),
 the Gaussian(R) 03 system (copyright 2003, Gaussian, Inc.),
 the Gaussian(R) 98 system (copyright 1998, Gaussian, Inc.),
 the Gaussian(R) 94 system (copyright 1995, Gaussian, Inc.),
 the Gaussian 92(TM) system (copyright 1992, Gaussian, Inc.),
 the Gaussian 90(TM) system (copyright 1990, Gaussian, Inc.),
 the Gaussian 88(TM) system (copyright 1988, Gaussian, Inc.),
 the Gaussian 86(TM) system (copyright 1986, Carnegie Mellon
 University), and the Gaussian 82(TM) system (copyright 1983,
 Carnegie Mellon University). Gaussian is a federally registered
 trademark of Gaussian, Inc.
  
 This software contains proprietary and confidential information,
 including trade secrets, belonging to Gaussian, Inc.
  
 This software is provided under written license and may be
 used, copied, transmitted, or stored only in accord with that
 written license.
  
 The following legend is applicable only to US Government
 contracts under FAR:
  
                    RESTRICTED RIGHTS LEGEND
  
 Use, reproduction and disclosure by the US Government is
 subject to restrictions as set forth in subparagraphs (a)
 and (c) of the Commercial Computer Software - Restricted
 Rights clause in FAR 52.227-19.
  
 Gaussian, Inc.
 340 Quinnipiac St., Bldg. 40, Wallingford CT 06492
  
  
 ---------------------------------------------------------------
 Warning -- This program may not be used in any manner that
 competes with the business of Gaussian, Inc. or will provide
 assistance to any competitor of Gaussian, Inc.  The licensee
 of this program is prohibited from giving any competitor of
 Gaussian, Inc. access to this program.  By using this program,
 the user acknowledges that Gaussian, Inc. is engaged in the
 business of creating and licensing software in the field of
 computational chemistry and represents and warrants to the
 licensee that it is not a competitor of Gaussian, Inc. and that
 it will not use this program in any manner prohibited above.
 ---------------------------------------------------------------
  

 Cite this work as:
 Gaussian 16, Revision B.01,
 M. J. Frisch, G. W. Trucks, H. B. Schlegel, G. E. Scuseria, 
 M. A. Robb, J. R. Cheeseman, G. Scalmani, V. Barone, 
 G. A. Petersson, H. Nakatsuji, X. Li, M. Caricato, A. V. Marenich, 
 J. Bloino, B. G. Janesko, R. Gomperts, B. Mennucci, H. P. Hratchian, 
 J. V. Ortiz, A. F. Izmaylov, J. L. Sonnenberg, D. Williams-Young, 
 F. Ding, F. Lipparini, F. Egidi, J. Goings, B. Peng, A. Petrone, 
 T. Henderson, D. Ranasinghe, V. G. Zakrzewski, J. Gao, N. Rega, 
 G. Zheng, W. Liang, M. Hada, M. Ehara, K. Toyota, R. Fukuda, 
 J. Hasegawa, M. Ishida, T. Nakajima, Y. Honda, O. Kitao, H. Nakai, 
 T. Vreven, K. Throssell, J. A. Montgomery, Jr., J. E. Peralta, 
 F. Ogliaro, M. J. Bearpark, J. J. Heyd, E. N. Brothers, K. N. Kudin, 
 V. N. Staroverov, T. A. Keith, R. Kobayashi, J. Normand, 
 K. Raghavachari, A. P. Rendell, J. C. Burant, S. S. Iyengar, 
 J. Tomasi, M. Cossi, J. M. Millam, M. Klene, C. Adamo, R. Cammi, 
 J. W. Ochterski, R. L. Martin, K. Morokuma, O. Farkas, 
 J. B. Foresman, and D. J. Fox, Gaussian, Inc., Wallingford CT, 2016.
 
 ******************************************
 Gaussian 16:  EM64L-G16RevB.01 20-Dec-2017
                15-Sep-2023 
 ******************************************
 %nprocshared=30
 Will use up to   30 processors via shared memory.
 %mem=30GB
 %chk=molecule_120.chk
 ----------------------------------------------------------------------
 # opt freq b3lyp/6-31+g(d) geom=connectivity empiricaldispersion=gd3 v
 olume
 ----------------------------------------------------------------------
 1/18=20,19=15,26=3,38=1,57=2/1,3;
 2/9=110,12=2,17=6,18=5,40=1/2;
 3/5=1,6=6,7=11,11=2,25=1,30=1,71=1,74=-5,124=31/1,2,3;
 4//1;
 5/5=2,38=5/2;
 6/7=2,8=2,9=2,10=2,28=1,44=1/1,4;
 7//1,2,3,16;
 1/18=20,19=15,26=3/3(2);
 2/9=110/2;
 99//99;
 2/9=110/2;
 3/5=1,6=6,7=11,11=2,25=1,30=1,71=1,74=-5,124=31/1,2,3;
 4/5=5,16=3,69=1/1;
 5/5=2,38=5/2;
 7//1,2,3,16;
 1/18=20,19=15,26=3/3(-5);
 2/9=110/2;
 6/7=2,8=2,9=2,10=2,19=2,28=1,44=1/1,4;
 99/9=1/99;
 --------------
 ML molecule120
 --------------
 Symbolic Z-matrix:
 Charge =  0 Multiplicity = 1
 C                    -4.16942  -0.43006  -3.00147 
 C                    -4.57309   0.25534  -1.8477 
 C                    -4.10926   1.55562  -1.60677 
 C                    -3.24176   2.17051  -2.51962 
 C                    -2.83809   1.48511  -3.67339 
 C                    -3.30192   0.18482  -3.91432 
 H                    -5.23544  -0.21414  -1.15072 
 H                    -2.17574   1.95458  -4.37037 
 H                    -2.99371  -0.3385   -4.79525 
 H                    -4.41746   2.07894  -0.72584 
 C                    -1.6528    5.06599  -0.82146 
 C                    -1.62225   4.03073  -1.78709 
 C                    -0.74258   6.09292  -0.876 
 C                    -0.68271   4.04248  -2.78795 
 C                     0.24118   6.1302   -1.90173 
 H                    -0.75815   6.90191  -0.13052 
 C                     0.27205   5.09313  -2.86957 
 H                    -0.65141   3.24235  -3.54263 
 C                     1.19643   7.18047  -1.98402 
 C                     1.25602   5.13062  -3.89553 
 C                     2.13586   7.19241  -2.98506 
 H                     1.16545   7.98077  -1.22949 
 C                     2.16615   6.15706  -3.95088 
 H                     1.27172   4.32153  -4.64105 
 H                     2.87533   8.0041   -3.05043 
 H                     2.92857   6.18913  -4.74308 
 H                    -2.38898   5.04807  -0.04518 
 O                    -2.58382   2.9757   -1.70228 
 C                    -4.67912  -1.85894  -3.26623 
 N                    -5.06305  -2.93525  -3.46566 
 

 GradGradGradGradGradGradGradGradGradGradGradGradGradGradGradGradGradGrad
 Berny optimization.
 Initialization pass.
                           ----------------------------
                           !    Initial Parameters    !
                           ! (Angstroms and Degrees)  !
 --------------------------                            --------------------------
 ! Name  Definition              Value          Derivative Info.                !
 --------------------------------------------------------------------------------
 ! R1    R(1,2)                  1.4014         estimate D2E/DX2                !
 ! R2    R(1,6)                  1.4014         estimate D2E/DX2                !
 ! R3    R(1,29)                 1.54           estimate D2E/DX2                !
 ! R4    R(2,3)                  1.4014         estimate D2E/DX2                !
 ! R5    R(2,7)                  1.07           estimate D2E/DX2                !
 ! R6    R(3,4)                  1.4014         estimate D2E/DX2                !
 ! R7    R(3,10)                 1.07           estimate D2E/DX2                !
 ! R8    R(4,5)                  1.4014         estimate D2E/DX2                !
 ! R9    R(4,28)                 1.3226         estimate D2E/DX2                !
 ! R10   R(5,6)                  1.4014         estimate D2E/DX2                !
 ! R11   R(5,8)                  1.07           estimate D2E/DX2                !
 ! R12   R(6,9)                  1.07           estimate D2E/DX2                !
 ! R13   R(11,12)                1.416          estimate D2E/DX2                !
 ! R14   R(11,13)                1.3733         estimate D2E/DX2                !
 ! R15   R(11,27)                1.07           estimate D2E/DX2                !
 ! R16   R(12,14)                1.3728         estimate D2E/DX2                !
 ! R17   R(12,28)                1.43           estimate D2E/DX2                !
 ! R18   R(13,15)                1.4217         estimate D2E/DX2                !
 ! R19   R(13,16)                1.1002         estimate D2E/DX2                !
 ! R20   R(14,17)                1.422          estimate D2E/DX2                !
 ! R21   R(14,18)                1.1003         estimate D2E/DX2                !
 ! R22   R(15,17)                1.4189         estimate D2E/DX2                !
 ! R23   R(15,19)                1.4221         estimate D2E/DX2                !
 ! R24   R(17,20)                1.422          estimate D2E/DX2                !
 ! R25   R(19,21)                1.3729         estimate D2E/DX2                !
 ! R26   R(19,22)                1.1003         estimate D2E/DX2                !
 ! R27   R(20,23)                1.3729         estimate D2E/DX2                !
 ! R28   R(20,24)                1.1003         estimate D2E/DX2                !
 ! R29   R(21,23)                1.4162         estimate D2E/DX2                !
 ! R30   R(21,25)                1.1            estimate D2E/DX2                !
 ! R31   R(23,26)                1.0999         estimate D2E/DX2                !
 ! R32   R(29,30)                1.16           estimate D2E/DX2                !
 ! A1    A(2,1,6)              120.0            estimate D2E/DX2                !
 ! A2    A(2,1,29)             120.0            estimate D2E/DX2                !
 ! A3    A(6,1,29)             120.0            estimate D2E/DX2                !
 ! A4    A(1,2,3)              120.0            estimate D2E/DX2                !
 ! A5    A(1,2,7)              120.0            estimate D2E/DX2                !
 ! A6    A(3,2,7)              120.0            estimate D2E/DX2                !
 ! A7    A(2,3,4)              120.0            estimate D2E/DX2                !
 ! A8    A(2,3,10)             120.0            estimate D2E/DX2                !
 ! A9    A(4,3,10)             120.0            estimate D2E/DX2                !
 ! A10   A(3,4,5)              120.0            estimate D2E/DX2                !
 ! A11   A(3,4,28)              99.934          estimate D2E/DX2                !
 ! A12   A(5,4,28)             131.5476         estimate D2E/DX2                !
 ! A13   A(4,5,6)              120.0            estimate D2E/DX2                !
 ! A14   A(4,5,8)              120.0            estimate D2E/DX2                !
 ! A15   A(6,5,8)              120.0            estimate D2E/DX2                !
 ! A16   A(1,6,5)              120.0            estimate D2E/DX2                !
 ! A17   A(1,6,9)              120.0            estimate D2E/DX2                !
 ! A18   A(5,6,9)              120.0            estimate D2E/DX2                !
 ! A19   A(12,11,13)           120.3516         estimate D2E/DX2                !
 ! A20   A(12,11,27)           119.8242         estimate D2E/DX2                !
 ! A21   A(13,11,27)           119.8242         estimate D2E/DX2                !
 ! A22   A(11,12,14)           120.3763         estimate D2E/DX2                !
 ! A23   A(11,12,28)           118.976          estimate D2E/DX2                !
 ! A24   A(14,12,28)           120.6477         estimate D2E/DX2                !
 ! A25   A(11,13,15)           120.4559         estimate D2E/DX2                !
 ! A26   A(11,13,16)           120.8999         estimate D2E/DX2                !
 ! A27   A(15,13,16)           118.6441         estimate D2E/DX2                !
 ! A28   A(12,14,17)           120.5099         estimate D2E/DX2                !
 ! A29   A(12,14,18)           120.8832         estimate D2E/DX2                !
 ! A30   A(17,14,18)           118.6069         estimate D2E/DX2                !
 ! A31   A(13,15,17)           119.2103         estimate D2E/DX2                !
 ! A32   A(13,15,19)           121.73           estimate D2E/DX2                !
 ! A33   A(17,15,19)           119.0596         estimate D2E/DX2                !
 ! A34   A(14,17,15)           119.0959         estimate D2E/DX2                !
 ! A35   A(14,17,20)           121.7004         estimate D2E/DX2                !
 ! A36   A(15,17,20)           119.2037         estimate D2E/DX2                !
 ! A37   A(15,19,21)           120.5491         estimate D2E/DX2                !
 ! A38   A(15,19,22)           118.5913         estimate D2E/DX2                !
 ! A39   A(21,19,22)           120.8596         estimate D2E/DX2                !
 ! A40   A(17,20,23)           120.4968         estimate D2E/DX2                !
 ! A41   A(17,20,24)           118.6409         estimate D2E/DX2                !
 ! A42   A(23,20,24)           120.8623         estimate D2E/DX2                !
 ! A43   A(19,21,23)           120.3669         estimate D2E/DX2                !
 ! A44   A(19,21,25)           120.6492         estimate D2E/DX2                !
 ! A45   A(23,21,25)           118.9839         estimate D2E/DX2                !
 ! A46   A(20,23,21)           120.3239         estimate D2E/DX2                !
 ! A47   A(20,23,26)           120.685          estimate D2E/DX2                !
 ! A48   A(21,23,26)           118.991          estimate D2E/DX2                !
 ! A49   A(4,28,12)            138.3322         estimate D2E/DX2                !
 ! A50   L(1,29,30,7,-1)       180.0            estimate D2E/DX2                !
 ! A51   L(1,29,30,7,-2)       180.0            estimate D2E/DX2                !
 ! D1    D(6,1,2,3)              0.0001         estimate D2E/DX2                !
 ! D2    D(6,1,2,7)           -179.9998         estimate D2E/DX2                !
 ! D3    D(29,1,2,3)          -179.9999         estimate D2E/DX2                !
 ! D4    D(29,1,2,7)             0.0002         estimate D2E/DX2                !
 ! D5    D(2,1,6,5)             -0.0001         estimate D2E/DX2                !
 ! D6    D(2,1,6,9)            179.9998         estimate D2E/DX2                !
 ! D7    D(29,1,6,5)           179.9999         estimate D2E/DX2                !
 ! D8    D(29,1,6,9)            -0.0002         estimate D2E/DX2                !
 ! D9    D(1,2,3,4)              0.0001         estimate D2E/DX2                !
 ! D10   D(1,2,3,10)          -179.9999         estimate D2E/DX2                !
 ! D11   D(7,2,3,4)            179.9999         estimate D2E/DX2                !
 ! D12   D(7,2,3,10)            -0.0001         estimate D2E/DX2                !
 ! D13   D(2,3,4,5)             -0.0002         estimate D2E/DX2                !
 ! D14   D(2,3,4,28)          -151.4765         estimate D2E/DX2                !
 ! D15   D(10,3,4,5)           179.9998         estimate D2E/DX2                !
 ! D16   D(10,3,4,28)           28.5235         estimate D2E/DX2                !
 ! D17   D(3,4,5,6)              0.0001         estimate D2E/DX2                !
 ! D18   D(3,4,5,8)           -180.0            estimate D2E/DX2                !
 ! D19   D(28,4,5,6)           141.0616         estimate D2E/DX2                !
 ! D20   D(28,4,5,8)           -38.9385         estimate D2E/DX2                !
 ! D21   D(3,4,28,12)         -172.8299         estimate D2E/DX2                !
 ! D22   D(5,4,28,12)           40.7136         estimate D2E/DX2                !
 ! D23   D(4,5,6,1)              0.0            estimate D2E/DX2                !
 ! D24   D(4,5,6,9)           -179.9999         estimate D2E/DX2                !
 ! D25   D(8,5,6,1)           -179.9999         estimate D2E/DX2                !
 ! D26   D(8,5,6,9)              0.0002         estimate D2E/DX2                !
 ! D27   D(13,11,12,14)         -0.0029         estimate D2E/DX2                !
 ! D28   D(13,11,12,28)        179.991          estimate D2E/DX2                !
 ! D29   D(27,11,12,14)        179.9971         estimate D2E/DX2                !
 ! D30   D(27,11,12,28)         -0.009          estimate D2E/DX2                !
 ! D31   D(12,11,13,15)          0.0104         estimate D2E/DX2                !
 ! D32   D(12,11,13,16)        179.9938         estimate D2E/DX2                !
 ! D33   D(27,11,13,15)       -179.9896         estimate D2E/DX2                !
 ! D34   D(27,11,13,16)         -0.0062         estimate D2E/DX2                !
 ! D35   D(11,12,14,17)         -0.011          estimate D2E/DX2                !
 ! D36   D(11,12,14,18)       -179.9971         estimate D2E/DX2                !
 ! D37   D(28,12,14,17)        179.9952         estimate D2E/DX2                !
 ! D38   D(28,12,14,18)          0.009          estimate D2E/DX2                !
 ! D39   D(11,12,28,4)         148.1253         estimate D2E/DX2                !
 ! D40   D(14,12,28,4)         -31.8808         estimate D2E/DX2                !
 ! D41   D(11,13,15,17)         -0.004          estimate D2E/DX2                !
 ! D42   D(11,13,15,19)        179.9916         estimate D2E/DX2                !
 ! D43   D(16,13,15,17)       -179.9878         estimate D2E/DX2                !
 ! D44   D(16,13,15,19)          0.0078         estimate D2E/DX2                !
 ! D45   D(12,14,17,15)          0.0171         estimate D2E/DX2                !
 ! D46   D(12,14,17,20)       -179.9875         estimate D2E/DX2                !
 ! D47   D(18,14,17,15)       -179.9964         estimate D2E/DX2                !
 ! D48   D(18,14,17,20)         -0.0011         estimate D2E/DX2                !
 ! D49   D(13,15,17,14)         -0.0096         estimate D2E/DX2                !
 ! D50   D(13,15,17,20)        179.995          estimate D2E/DX2                !
 ! D51   D(19,15,17,14)        179.9947         estimate D2E/DX2                !
 ! D52   D(19,15,17,20)         -0.0008         estimate D2E/DX2                !
 ! D53   D(13,15,19,21)       -179.9942         estimate D2E/DX2                !
 ! D54   D(13,15,19,22)          0.0027         estimate D2E/DX2                !
 ! D55   D(17,15,19,21)          0.0014         estimate D2E/DX2                !
 ! D56   D(17,15,19,22)        179.9984         estimate D2E/DX2                !
 ! D57   D(14,17,20,23)       -179.9995         estimate D2E/DX2                !
 ! D58   D(14,17,20,24)         -0.0135         estimate D2E/DX2                !
 ! D59   D(15,17,20,23)         -0.0042         estimate D2E/DX2                !
 ! D60   D(15,17,20,24)        179.9818         estimate D2E/DX2                !
 ! D61   D(15,19,21,23)          0.0027         estimate D2E/DX2                !
 ! D62   D(15,19,21,25)        179.9839         estimate D2E/DX2                !
 ! D63   D(22,19,21,23)       -179.9941         estimate D2E/DX2                !
 ! D64   D(22,19,21,25)         -0.013          estimate D2E/DX2                !
 ! D65   D(17,20,23,21)          0.0084         estimate D2E/DX2                !
 ! D66   D(17,20,23,26)        179.9987         estimate D2E/DX2                !
 ! D67   D(24,20,23,21)       -179.9773         estimate D2E/DX2                !
 ! D68   D(24,20,23,26)          0.013          estimate D2E/DX2                !
 ! D69   D(19,21,23,20)         -0.0078         estimate D2E/DX2                !
 ! D70   D(19,21,23,26)       -179.9982         estimate D2E/DX2                !
 ! D71   D(25,21,23,20)       -179.9892         estimate D2E/DX2                !
 ! D72   D(25,21,23,26)          0.0203         estimate D2E/DX2                !
 --------------------------------------------------------------------------------
 Trust Radius=3.00D-01 FncErr=1.00D-07 GrdErr=1.00D-06 EigMax=2.50D+02 EigMin=1.00D-04
 Number of steps in this run=    165 maximum allowed number of steps=    180.
 GradGradGradGradGradGradGradGradGradGradGradGradGradGradGradGradGradGrad

                          Input orientation:                          
 ---------------------------------------------------------------------
 Center     Atomic      Atomic             Coordinates (Angstroms)
 Number     Number       Type             X           Y           Z
 ---------------------------------------------------------------------
      1          6           0       -4.169419   -0.430061   -3.001474
      2          6           0       -4.573086    0.255341   -1.847698
      3          6           0       -4.109257    1.555625   -1.606770
      4          6           0       -3.241762    2.170508   -2.519619
      5          6           0       -2.838094    1.485105   -3.673395
      6          6           0       -3.301922    0.184821   -3.914322
      7          1           0       -5.235437   -0.214137   -1.150717
      8          1           0       -2.175742    1.954582   -4.370375
      9          1           0       -2.993710   -0.338500   -4.795254
     10          1           0       -4.417465    2.078944   -0.725836
     11          6           0       -1.652800    5.065990   -0.821463
     12          6           0       -1.622251    4.030732   -1.787093
     13          6           0       -0.742575    6.092917   -0.876005
     14          6           0       -0.682713    4.042479   -2.787949
     15          6           0        0.241184    6.130202   -1.901731
     16          1           0       -0.758154    6.901912   -0.130523
     17          6           0        0.272055    5.093133   -2.869573
     18          1           0       -0.651405    3.242350   -3.542630
     19          6           0        1.196430    7.180466   -1.984024
     20          6           0        1.256022    5.130622   -3.895528
     21          6           0        2.135864    7.192414   -2.985058
     22          1           0        1.165453    7.980767   -1.229487
     23          6           0        2.166151    6.157058   -3.950880
     24          1           0        1.271717    4.321531   -4.641046
     25          1           0        2.875333    8.004098   -3.050427
     26          1           0        2.928568    6.189125   -4.743075
     27          1           0       -2.388977    5.048070   -0.045175
     28          8           0       -2.583815    2.975696   -1.702277
     29          6           0       -4.679122   -1.858944   -3.266230
     30          7           0       -5.063054   -2.935246   -3.465657
 ---------------------------------------------------------------------
                    Distance matrix (angstroms):
                    1          2          3          4          5
     1  C    0.000000
     2  C    1.401400   0.000000
     3  C    2.427296   1.401400   0.000000
     4  C    2.802800   2.427296   1.401400   0.000000
     5  C    2.427296   2.802800   2.427296   1.401400   0.000000
     6  C    1.401400   2.427296   2.802800   2.427296   1.401400
     7  H    2.146700   1.070000   2.146700   3.396345   3.872800
     8  H    3.396345   3.872800   3.396345   2.146700   1.070000
     9  H    2.146700   3.396345   3.872800   3.396345   2.146700
    10  H    3.396345   2.146700   1.070000   2.146700   3.396345
    11  C    6.425916   5.720452   4.355864   3.713806   4.728760
    12  C    5.278396   4.792148   3.513385   2.572906   3.393615
    13  C    7.668775   7.049418   5.696980   4.932818   5.783469
    14  C    5.675062   5.510126   4.395547   3.181982   3.459746
    15  C    7.981222   7.595664   6.319818   5.309603   5.847877
    16  H    8.581196   7.853618   6.480122   5.853399   6.798521
    17  C    7.088706   6.922705   5.771007   4.583788   4.830840
    18  H    5.114281   5.212926   4.306894   2.984183   2.808312
    19  C    9.367372   9.014613   7.741542   6.714469   7.181120
    20  C    7.820226   7.870228   6.841436   5.557470   5.486431
    21  C    9.892370   9.717334   8.524941   7.372587   7.601805
    22  H   10.116463   9.643403   8.321500   7.405883   8.012159
    23  C    9.188631   9.201682   8.127040   6.869251   6.851759
    24  H    7.407548   7.648425   6.768452   5.431284   5.086472
    25  H   10.989357  10.815209   9.615168   8.469438   8.690719
    26  H    9.860437   9.993389   8.990924   7.691945   7.518405
    27  H    6.474534   5.566837   4.194653   3.889792   5.104939
    28  O    3.975076   3.373230   2.086312   1.322600   2.484315
    29  C    1.540000   2.548270   3.838989   4.342800   3.838989
    30  N    2.700000   3.610776   4.953091   5.502800   4.953091
                    6          7          8          9         10
     6  C    0.000000
     7  H    3.396345   0.000000
     8  H    2.146700   4.942800   0.000000
     9  H    1.070000   4.280590   2.471400   0.000000
    10  H    3.872800   2.471400   4.280590   4.942800   0.000000
    11  C    6.009258   6.389321   4.748589   6.840874   4.071236
    12  C    4.705043   5.610614   3.360074   5.479062   3.570569
    13  C    7.119496   7.748561   5.602714   7.860740   5.444203
    14  C    4.796926   6.444114   3.015381   5.344433   4.696398
    15  C    7.207751   8.414751   5.419551   7.789809   6.284778
    16  H    8.118325   8.469062   6.667981   8.898370   6.083254
    17  C    6.160871   7.839262   4.253776   6.623903   5.972649
    18  H    4.063481   6.219477   2.160350   4.458469   4.844693
    19  C    8.538165   9.835825   6.661537   9.055116   7.689238
    20  C    6.725783   8.845308   4.699970   6.984342   7.179704
    21  C    8.918487  10.609330   6.924156   9.289995   8.613814
    22  H    9.377769  10.398752   7.572560   9.961101   8.139666
    23  C    8.097454  10.159553   6.057129   8.338429   8.389036
    24  H    6.209562   8.665894   4.190546   6.319298   7.261188
    25  H   10.002294  11.701832   7.990761  10.348383   9.679673
    26  H    8.692382  10.979881   6.642608   8.813966   9.327165
    27  H    6.281318   6.084026   5.321888   7.207224   3.659751
    28  O    3.632878   4.184537   2.885818   4.551748   2.262714
    29  C    2.548270   2.736837   4.693509   2.736837   4.693509
    30  N    3.610776   3.576744   5.750261   3.576744   5.750261
                   11         12         13         14         15
    11  C    0.000000
    12  C    1.416027   0.000000
    13  C    1.373340   2.420024   0.000000
    14  C    2.419857   1.372801   2.804177   0.000000
    15  C    2.426253   2.809503   1.421719   2.448990   0.000000
    16  H    2.156015   3.425575   1.100209   3.904351   2.175176
    17  C    2.810793   2.426696   2.450175   1.422011   1.418868
    18  H    3.425376   2.155458   3.904476   1.100332   3.439325
    19  C    3.733721   4.231379   2.483991   3.744921   1.422083
    20  C    4.232647   3.733593   3.746722   2.483844   2.450364
    21  C    4.853535   5.055174   3.733954   4.231468   2.427284
    22  H    4.074919   4.866723   2.707305   4.621107   2.175035
    23  C    5.056488   4.853373   4.233162   3.733614   2.811625
    24  H    4.867877   4.074882   4.622847   2.707699   3.440514
    25  H    5.839927   6.132855   4.633571   5.331323   3.430704
    26  H    6.134282   5.840073   5.332991   4.633785   3.911361
    27  H    1.070000   2.158036   2.119580   3.383099   3.396403
    28  O    2.451928   1.430000   3.713483   2.435344   4.239258
    29  C    7.942935   6.798573   9.189215   7.143307   9.481441
    30  N    9.090729   7.948682  10.338305   8.266518  10.618999
                   16         17         18         19         20
    16  H    0.000000
    17  C    3.440263   0.000000
    18  H    5.004624   2.175127   0.000000
    19  C    2.708036   2.448597   4.620877   0.000000
    20  C    4.622730   1.422034   2.707100   2.803436   0.000000
    21  C    4.075304   2.809645   4.866494   1.372861   2.419517
    22  H    2.464125   3.438965   5.577114   1.100349   3.903755
    23  C    4.868418   2.426677   4.074409   2.419968   1.372941
    24  H    5.578849   2.175502   2.463645   3.903709   1.100306
    25  H    4.789872   3.909410   5.945956   2.152742   3.404883
    26  H    5.947741   3.430492   4.789652   3.405205   2.153178
    27  H    2.470546   3.880766   4.302554   4.600151   5.302645
    28  O    4.606368   3.741939   2.681830   5.661247   4.919188
    29  C   10.097487   8.544171   6.505544  10.857122   9.191082
    30  N   11.243885   9.657823   7.591525  11.987660  10.255425
                   21         22         23         24         25
    21  C    0.000000
    22  H    2.155279   0.000000
    23  C    1.416225   3.425389   0.000000
    24  H    3.425058   5.004002   2.155342   0.000000
    25  H    1.099963   2.498010   2.173779   4.320065   0.000000
    26  H    2.173843   4.320169   1.099946   2.498695   2.482342
    27  H    5.806488   4.757865   6.101932   5.920352   6.744078
    28  O    6.457678   6.271465   6.143244   5.031178   7.543516
    29  C   11.333586  11.624427  10.563275   8.689123  12.425617
    30  N   12.434826  12.765347  11.626127   9.704208  13.522561
                   26         27         28         29         30
    26  H    0.000000
    27  H    7.186693   0.000000
    28  O    7.068165   2.660579   0.000000
    29  C   11.172709   7.957814   5.496363   0.000000
    30  N   12.196391   9.087558   6.647960   1.160000   0.000000
 Stoichiometry    C17H11NO
 Framework group  C1[X(C17H11NO)]
 Deg. of freedom    84
 Full point group                 C1      NOp   1
 Largest Abelian subgroup         C1      NOp   1
 Largest concise Abelian subgroup C1      NOp   1
                         Standard orientation:                         
 ---------------------------------------------------------------------
 Center     Atomic      Atomic             Coordinates (Angstroms)
 Number     Number       Type             X           Y           Z
 ---------------------------------------------------------------------
      1          6           0        4.395446   -0.313002   -0.013628
      2          6           0        4.047051    1.042867   -0.078151
      3          6           0        2.723400    1.438199    0.157608
      4          6           0        1.748144    0.477664    0.457890
      5          6           0        2.096539   -0.878205    0.522411
      6          6           0        3.420190   -1.273538    0.286652
      7          1           0        4.791680    1.776257   -0.307424
      8          1           0        1.351910   -1.611596    0.751683
      9          1           0        3.686196   -2.308774    0.335913
     10          1           0        2.457392    2.473435    0.108342
     11          6           0       -1.587044    2.032485   -0.043507
     12          6           0       -0.742628    0.895830   -0.033063
     13          6           0       -2.952124    1.882762   -0.057736
     14          6           0       -1.279304   -0.367715   -0.036986
     15          6           0       -3.534841    0.585955   -0.061939
     16          1           0       -3.616631    2.759589   -0.065830
     17          6           0       -2.689087   -0.553244   -0.051342
     18          1           0       -0.630986   -1.256731   -0.028898
     19          6           0       -4.944577    0.399524   -0.076408
     20          6           0       -3.272083   -1.850272   -0.055439
     21          6           0       -5.481341   -0.864050   -0.080059
     22          1           0       -5.593226    1.288318   -0.084531
     23          6           0       -4.636679   -2.000767   -0.069387
     24          1           0       -2.607568   -2.727215   -0.047446
     25          1           0       -6.571502   -1.010157   -0.090979
     26          1           0       -5.090921   -3.002533   -0.072614
     27          1           0       -1.159275    3.013252   -0.040296
     28          8           0        0.674621    1.085809   -0.018532
     29          6           0        5.850008   -0.747433   -0.272702
     30          7           0        6.945652   -1.074667   -0.467849
 ---------------------------------------------------------------------
 Rotational constants (GHZ):           1.2935005           0.1461366           0.1321489
 Standard basis: 6-31+G(d) (6D, 7F)
 There are   383 symmetry adapted cartesian basis functions of A   symmetry.
 There are   383 symmetry adapted basis functions of A   symmetry.
   383 basis functions,   652 primitive gaussians,   383 cartesian basis functions
    64 alpha electrons       64 beta electrons
       nuclear repulsion energy      1178.4570390310 Hartrees.
 NAtoms=   30 NActive=   30 NUniq=   30 SFac= 1.00D+00 NAtFMM=   60 NAOKFM=F Big=F
 Integral buffers will be    131072 words long.
 Raffenetti 2 integral format.
 Two-electron integral symmetry is turned on.
 Nuclear repulsion after empirical dispersion term =     1178.4331010137 Hartrees.
 One-electron integrals computed using PRISM.
 NBasis=   383 RedAO= T EigKep=  1.15D-06  NBF=   383
 NBsUse=   381 1.00D-06 EigRej=  6.13D-07 NBFU=   381
 ExpMin= 4.38D-02 ExpMax= 5.48D+03 ExpMxC= 8.25D+02 IAcc=3 IRadAn=         5 AccDes= 0.00D+00
 Harris functional with IExCor=  402 and IRadAn=       5 diagonalized for initial guess.
 HarFok:  IExCor=  402 AccDes= 0.00D+00 IRadAn=         5 IDoV= 1 UseB2=F ITyADJ=14
 ICtDFT=  3500011 ScaDFX=  1.000000  1.000000  1.000000  1.000000
 FoFCou: FMM=F IPFlag=           0 FMFlag=      100000 FMFlg1=           0
         NFxFlg=           0 DoJE=T BraDBF=F KetDBF=T FulRan=T
         wScrn=  0.000000 ICntrl=       500 IOpCl=  0 I1Cent=   200000004 NGrid=           0
         NMat0=    1 NMatS0=      1 NMatT0=    0 NMatD0=    1 NMtDS0=    0 NMtDT0=    0
 Petite list used in FoFCou.
 Requested convergence on RMS density matrix=1.00D-08 within 128 cycles.
 Requested convergence on MAX density matrix=1.00D-06.
 Requested convergence on             energy=1.00D-06.
 No special actions if energy rises.
 SCF Done:  E(RB3LYP) =  -784.396302614     A.U. after   16 cycles
            NFock= 16  Conv=0.69D-08     -V/T= 2.0097

 **********************************************************************

            Population analysis using the SCF Density.

 **********************************************************************

 Orbital symmetries:
       Occupied  (A) (A) (A) (A) (A) (A) (A) (A) (A) (A) (A) (A)
                 (A) (A) (A) (A) (A) (A) (A) (A) (A) (A) (A) (A)
                 (A) (A) (A) (A) (A) (A) (A) (A) (A) (A) (A) (A)
                 (A) (A) (A) (A) (A) (A) (A) (A) (A) (A) (A) (A)
                 (A) (A) (A) (A) (A) (A) (A) (A) (A) (A) (A) (A)
                 (A) (A) (A) (A)
       Virtual   (A) (A) (A) (A) (A) (A) (A) (A) (A) (A) (A) (A)
                 (A) (A) (A) (A) (A) (A) (A) (A) (A) (A) (A) (A)
                 (A) (A) (A) (A) (A) (A) (A) (A) (A) (A) (A) (A)
                 (A) (A) (A) (A) (A) (A) (A) (A) (A) (A) (A) (A)
                 (A) (A) (A) (A) (A) (A) (A) (A) (A) (A) (A) (A)
                 (A) (A) (A) (A) (A) (A) (A) (A) (A) (A) (A) (A)
                 (A) (A) (A) (A) (A) (A) (A) (A) (A) (A) (A) (A)
                 (A) (A) (A) (A) (A) (A) (A) (A) (A) (A) (A) (A)
                 (A) (A) (A) (A) (A) (A) (A) (A) (A) (A) (A) (A)
                 (A) (A) (A) (A) (A) (A) (A) (A) (A) (A) (A) (A)
                 (A) (A) (A) (A) (A) (A) (A) (A) (A) (A) (A) (A)
                 (A) (A) (A) (A) (A) (A) (A) (A) (A) (A) (A) (A)
                 (A) (A) (A) (A) (A) (A) (A) (A) (A) (A) (A) (A)
                 (A) (A) (A) (A) (A) (A) (A) (A) (A) (A) (A) (A)
                 (A) (A) (A) (A) (A) (A) (A) (A) (A) (A) (A) (A)
                 (A) (A) (A) (A) (A) (A) (A) (A) (A) (A) (A) (A)
                 (A) (A) (A) (A) (A) (A) (A) (A) (A) (A) (A) (A)
                 (A) (A) (A) (A) (A) (A) (A) (A) (A) (A) (A) (A)
                 (A) (A) (A) (A) (A) (A) (A) (A) (A) (A) (A) (A)
                 (A) (A) (A) (A) (A) (A) (A) (A) (A) (A) (A) (A)
                 (A) (A) (A) (A) (A) (A) (A) (A) (A) (A) (A) (A)
                 (A) (A) (A) (A) (A) (A) (A) (A) (A) (A) (A) (A)
                 (A) (A) (A) (A) (A) (A) (A) (A) (A) (A) (A) (A)
                 (A) (A) (A) (A) (A) (A) (A) (A) (A) (A) (A) (A)
                 (A) (A) (A) (A) (A) (A) (A) (A) (A) (A) (A) (A)
                 (A) (A) (A) (A) (A) (A) (A) (A) (A) (A) (A) (A)
                 (A) (A) (A) (A) (A)
 The electronic state is 1-A.
 Alpha  occ. eigenvalues --  -19.21693 -14.34400 -10.28747 -10.28316 -10.25353
 Alpha  occ. eigenvalues --  -10.24072 -10.23100 -10.22406 -10.22362 -10.22354
 Alpha  occ. eigenvalues --  -10.22107 -10.21957 -10.21859 -10.21738 -10.21344
 Alpha  occ. eigenvalues --  -10.21309 -10.21278 -10.21249 -10.21141  -1.10993
 Alpha  occ. eigenvalues --   -0.91173  -0.90198  -0.88348  -0.84850  -0.80235
 Alpha  occ. eigenvalues --   -0.79049  -0.78111  -0.75701  -0.74065  -0.68163
 Alpha  occ. eigenvalues --   -0.65486  -0.64179  -0.62004  -0.61652  -0.57584
 Alpha  occ. eigenvalues --   -0.56306  -0.53751  -0.53049  -0.50448  -0.48647
 Alpha  occ. eigenvalues --   -0.47868  -0.47155  -0.46514  -0.46039  -0.45491
 Alpha  occ. eigenvalues --   -0.43923  -0.43543  -0.42733  -0.41132  -0.40460
 Alpha  occ. eigenvalues --   -0.39725  -0.38865  -0.37281  -0.36477  -0.35665
 Alpha  occ. eigenvalues --   -0.35193  -0.34095  -0.34051  -0.33316  -0.30753
 Alpha  occ. eigenvalues --   -0.28128  -0.27331  -0.24808  -0.22980
 Alpha virt. eigenvalues --   -0.06934  -0.05554  -0.04041  -0.02725  -0.00962
 Alpha virt. eigenvalues --   -0.00709  -0.00009   0.00295   0.01506   0.01801
 Alpha virt. eigenvalues --    0.02423   0.02453   0.03234   0.03473   0.03805
 Alpha virt. eigenvalues --    0.04850   0.05088   0.05340   0.05446   0.05514
 Alpha virt. eigenvalues --    0.06137   0.06407   0.07448   0.07519   0.07939
 Alpha virt. eigenvalues --    0.08257   0.08524   0.09050   0.09995   0.10057
 Alpha virt. eigenvalues --    0.10533   0.10916   0.11548   0.11605   0.12038
 Alpha virt. eigenvalues --    0.12388   0.12641   0.12848   0.13118   0.13825
 Alpha virt. eigenvalues --    0.14527   0.14769   0.14966   0.15142   0.15693
 Alpha virt. eigenvalues --    0.15976   0.16619   0.16789   0.17459   0.17625
 Alpha virt. eigenvalues --    0.18165   0.18550   0.18813   0.19094   0.19706
 Alpha virt. eigenvalues --    0.19877   0.20140   0.20336   0.20736   0.20843
 Alpha virt. eigenvalues --    0.21445   0.22126   0.22240   0.22401   0.22713
 Alpha virt. eigenvalues --    0.23336   0.23530   0.23765   0.24140   0.24390
 Alpha virt. eigenvalues --    0.24832   0.25207   0.25411   0.25786   0.25885
 Alpha virt. eigenvalues --    0.26170   0.26876   0.26979   0.27742   0.27841
 Alpha virt. eigenvalues --    0.28263   0.28519   0.28791   0.29395   0.29823
 Alpha virt. eigenvalues --    0.30033   0.30380   0.31011   0.31448   0.32000
 Alpha virt. eigenvalues --    0.32086   0.32270   0.32660   0.33262   0.33475
 Alpha virt. eigenvalues --    0.33756   0.34443   0.35059   0.35890   0.37097
 Alpha virt. eigenvalues --    0.38130   0.38932   0.39824   0.40950   0.41736
 Alpha virt. eigenvalues --    0.43234   0.44526   0.45564   0.46069   0.51781
 Alpha virt. eigenvalues --    0.53245   0.55759   0.57896   0.60044   0.63141
 Alpha virt. eigenvalues --    0.64133   0.65120   0.65640   0.67220   0.67710
 Alpha virt. eigenvalues --    0.67805   0.68993   0.69361   0.70639   0.70866
 Alpha virt. eigenvalues --    0.71016   0.71653   0.72095   0.72655   0.72820
 Alpha virt. eigenvalues --    0.73167   0.74012   0.74467   0.74820   0.75451
 Alpha virt. eigenvalues --    0.76155   0.76375   0.76778   0.77188   0.77585
 Alpha virt. eigenvalues --    0.78533   0.79403   0.80362   0.80969   0.82443
 Alpha virt. eigenvalues --    0.83967   0.84731   0.86918   0.87424   0.88157
 Alpha virt. eigenvalues --    0.88582   0.89259   0.91065   0.91739   0.93175
 Alpha virt. eigenvalues --    0.93390   0.94245   0.95601   0.97125   0.97575
 Alpha virt. eigenvalues --    0.98846   0.99863   1.00791   1.01521   1.01991
 Alpha virt. eigenvalues --    1.03366   1.04523   1.05541   1.06985   1.08573
 Alpha virt. eigenvalues --    1.09346   1.10911   1.12921   1.13288   1.14428
 Alpha virt. eigenvalues --    1.15582   1.16628   1.17852   1.18473   1.19992
 Alpha virt. eigenvalues --    1.20391   1.20723   1.21463   1.22445   1.23612
 Alpha virt. eigenvalues --    1.25744   1.26552   1.26767   1.29042   1.29352
 Alpha virt. eigenvalues --    1.32162   1.34161   1.36214   1.36801   1.37301
 Alpha virt. eigenvalues --    1.38022   1.39636   1.40275   1.40668   1.42661
 Alpha virt. eigenvalues --    1.44453   1.45239   1.45968   1.46477   1.46930
 Alpha virt. eigenvalues --    1.47680   1.48334   1.48345   1.48693   1.52855
 Alpha virt. eigenvalues --    1.55148   1.55536   1.56628   1.60283   1.66651
 Alpha virt. eigenvalues --    1.68970   1.74516   1.75501   1.76738   1.77721
 Alpha virt. eigenvalues --    1.79758   1.81301   1.81775   1.83478   1.84101
 Alpha virt. eigenvalues --    1.85400   1.89324   1.89925   1.91537   1.93002
 Alpha virt. eigenvalues --    1.93763   1.94088   1.95662   1.96232   1.97079
 Alpha virt. eigenvalues --    1.97850   1.98604   1.99970   2.00467   2.03081
 Alpha virt. eigenvalues --    2.03744   2.06385   2.07622   2.08355   2.10865
 Alpha virt. eigenvalues --    2.11817   2.13097   2.16148   2.17045   2.18633
 Alpha virt. eigenvalues --    2.19019   2.19523   2.20091   2.20936   2.22409
 Alpha virt. eigenvalues --    2.26707   2.27603   2.30584   2.30897   2.31952
 Alpha virt. eigenvalues --    2.32908   2.34957   2.35429   2.35910   2.44357
 Alpha virt. eigenvalues --    2.46838   2.50800   2.52533   2.57720   2.59383
 Alpha virt. eigenvalues --    2.61189   2.62330   2.63426   2.65092   2.65456
 Alpha virt. eigenvalues --    2.66112   2.67459   2.71198   2.73509   2.74474
 Alpha virt. eigenvalues --    2.75708   2.77209   2.79567   2.80651   2.84169
 Alpha virt. eigenvalues --    2.86977   2.88266   2.89359   2.94378   3.02849
 Alpha virt. eigenvalues --    3.04646   3.09486   3.12180   3.21870   3.28104
 Alpha virt. eigenvalues --    3.36111   3.42876   3.48450   4.18611   4.21273
 Alpha virt. eigenvalues --    4.23251   4.23842   4.26407   4.28443   4.30763
 Alpha virt. eigenvalues --    4.35203   4.35720   4.36886   4.37198   4.43664
 Alpha virt. eigenvalues --    4.44005   4.46570   4.57936   4.60827   4.61989
 Alpha virt. eigenvalues --    4.77595   4.82791
          Condensed to atoms (all electrons):
               1          2          3          4          5          6
     1  C    8.484310  -1.033960   1.246113  -1.147933   1.321336  -1.476322
     2  C   -1.033960  10.282082  -2.004710   1.009286  -0.723254  -1.405408
     3  C    1.246113  -2.004710   9.566217  -1.881141  -0.182686  -0.821643
     4  C   -1.147933   1.009286  -1.881141   9.856571  -1.833674   1.035927
     5  C    1.321336  -0.723254  -0.182686  -1.833674  10.174068  -3.055761
     6  C   -1.476322  -1.405408  -0.821643   1.035927  -3.055761  11.478740
     7  H    0.034182   0.271328  -0.064805   0.048504  -0.015034   0.055114
     8  H   -0.022396  -0.008450   0.007530   0.053725   0.222676   0.025564
     9  H    0.085427   0.070966  -0.029583   0.013846  -0.051657   0.247517
    10  H   -0.005460  -0.025904   0.305835   0.047702   0.018489  -0.018145
    11  C    0.052426  -0.086612  -0.124314  -0.329726   0.437079  -0.019937
    12  C   -0.206762   0.375194  -0.278157  -1.502607  -0.093554   0.535600
    13  C    0.013149  -0.031009   0.096530   0.064818  -0.032349  -0.036390
    14  C   -0.002268  -0.042649  -0.054417   1.243344  -0.494989  -0.177891
    15  C    0.006499  -0.001401  -0.001815  -0.398051   0.225088  -0.003966
    16  H   -0.000023   0.000053  -0.000403   0.000109  -0.000044   0.000067
    17  C    0.013005   0.019909  -0.082759   0.032649   0.105865  -0.014117
    18  H   -0.002094   0.001979  -0.000566  -0.009552  -0.016040   0.029493
    19  C    0.001767  -0.001541   0.035154  -0.112129   0.006543   0.002632
    20  C   -0.007846   0.004374  -0.017873   0.300773  -0.210125   0.016105
    21  C   -0.000598   0.000479   0.000026   0.013471  -0.005790  -0.000627
    22  H    0.000000   0.000001   0.000017  -0.000010  -0.000011   0.000000
    23  C    0.002264  -0.000664  -0.008788  -0.029846   0.036931  -0.005033
    24  H   -0.000009   0.000027   0.000162  -0.001511   0.001291   0.000206
    25  H    0.000000   0.000000   0.000000   0.000006  -0.000004   0.000000
    26  H    0.000000   0.000000   0.000004   0.000002  -0.000006  -0.000007
    27  H    0.000098  -0.001056  -0.007191   0.002156   0.002987  -0.000596
    28  O   -0.019089   0.056746   0.054482   0.021127  -0.209861  -0.022047
    29  C   -2.547372  -0.014608  -0.051245  -0.542056  -0.038312   0.395143
    30  N    0.347604  -0.048062   0.013057   0.004765   0.014607  -0.073064
               7          8          9         10         11         12
     1  C    0.034182  -0.022396   0.085427  -0.005460   0.052426  -0.206762
     2  C    0.271328  -0.008450   0.070966  -0.025904  -0.086612   0.375194
     3  C   -0.064805   0.007530  -0.029583   0.305835  -0.124314  -0.278157
     4  C    0.048504   0.053725   0.013846   0.047702  -0.329726  -1.502607
     5  C   -0.015034   0.222676  -0.051657   0.018489   0.437079  -0.093554
     6  C    0.055114   0.025564   0.247517  -0.018145  -0.019937   0.535600
     7  H    0.514873   0.000015  -0.000151  -0.004589   0.000744  -0.002492
     8  H    0.000015   0.532068  -0.005399  -0.000168   0.011943  -0.005752
     9  H   -0.000151  -0.005399   0.510552   0.000012  -0.000407  -0.006510
    10  H   -0.004589  -0.000168   0.000012   0.506567  -0.016551  -0.004225
    11  C    0.000744   0.011943  -0.000407  -0.016551  13.022624  -0.622235
    12  C   -0.002492  -0.005752  -0.006510  -0.004225  -0.622235  13.002372
    13  C    0.000050  -0.002922   0.000045   0.000705  -2.032203  -0.755497
    14  C    0.000510  -0.000109   0.005180   0.015140  -4.526698  -3.478340
    15  C   -0.000017  -0.006183  -0.000140  -0.002231   0.573342   2.181413
    16  H    0.000000   0.000000   0.000000   0.000000   0.089019   0.013826
    17  C   -0.000047   0.004031   0.000178   0.002642   0.626822  -0.136020
    18  H    0.000000   0.002693   0.000001  -0.000001   0.058669   0.018084
    19  C   -0.000002  -0.000683  -0.000010  -0.000043   0.462076   0.749679
    20  C    0.000006   0.008633   0.000420   0.000320  -0.902612  -3.911723
    21  C    0.000000   0.000194   0.000002   0.000005  -0.602743  -0.140651
    22  H    0.000000   0.000000   0.000000   0.000000   0.007211   0.003335
    23  C    0.000000   0.001176   0.000010  -0.000009   0.391449  -0.195793
    24  H    0.000000  -0.000005   0.000000   0.000000   0.006496   0.013397
    25  H    0.000000   0.000000   0.000000   0.000000   0.000579   0.000051
    26  H    0.000000   0.000000   0.000000   0.000000  -0.000011   0.001442
    27  H    0.000000   0.000000   0.000000   0.000044   0.191478   0.017030
    28  O    0.000120  -0.002613  -0.000420  -0.017084  -0.476563   0.605760
    29  C   -0.041330  -0.000670  -0.046457  -0.003154   0.015108  -0.023678
    30  N    0.000932   0.000005   0.001002   0.000007  -0.000011  -0.000234
              13         14         15         16         17         18
     1  C    0.013149  -0.002268   0.006499  -0.000023   0.013005  -0.002094
     2  C   -0.031009  -0.042649  -0.001401   0.000053   0.019909   0.001979
     3  C    0.096530  -0.054417  -0.001815  -0.000403  -0.082759  -0.000566
     4  C    0.064818   1.243344  -0.398051   0.000109   0.032649  -0.009552
     5  C   -0.032349  -0.494989   0.225088  -0.000044   0.105865  -0.016040
     6  C   -0.036390  -0.177891  -0.003966   0.000067  -0.014117   0.029493
     7  H    0.000050   0.000510  -0.000017   0.000000  -0.000047   0.000000
     8  H   -0.002922  -0.000109  -0.006183   0.000000   0.004031   0.002693
     9  H    0.000045   0.005180  -0.000140   0.000000   0.000178   0.000001
    10  H    0.000705   0.015140  -0.002231   0.000000   0.002642  -0.000001
    11  C   -2.032203  -4.526698   0.573342   0.089019   0.626822   0.058669
    12  C   -0.755497  -3.478340   2.181413   0.013826  -0.136020   0.018084
    13  C   11.476387   2.158868  -4.945044   0.190575  -3.608499  -0.050346
    14  C    2.158868  13.151751  -3.607173   0.000739   0.186763   0.205846
    15  C   -4.945044  -3.607173  21.400495  -0.001344  -0.460770  -0.014787
    16  H    0.190575   0.000739  -0.001344   0.521240   0.111871   0.000015
    17  C   -3.608499   0.186763  -0.460770   0.111871  16.053092   0.020768
    18  H   -0.050346   0.205846  -0.014787   0.000015   0.020768   0.549556
    19  C    1.559546  -0.912208  -5.350029  -0.130027  -2.041229   0.006882
    20  C    2.621767   2.866155  -4.877349   0.020413  -5.529156   0.010826
    21  C   -0.493500   0.321729   0.492338  -0.010269   0.688856  -0.000567
    22  H   -0.077114  -0.001057  -0.016209   0.004262   0.086108   0.000002
    23  C   -0.384958  -0.667491   0.421460  -0.000550   0.217621   0.015109
    24  H    0.003092  -0.006132   0.068497   0.000002  -0.056898   0.004294
    25  H   -0.012593  -0.001820   0.019831  -0.000009   0.026720   0.000000
    26  H    0.003904  -0.003301   0.013505   0.000000   0.009557  -0.000010
    27  H    0.017127   0.086135  -0.046489  -0.004485   0.034824  -0.000155
    28  O    0.111698  -0.172973   0.001645  -0.000345  -0.098918  -0.008178
    29  C   -0.002466  -0.016135  -0.000741   0.000000   0.006129   0.000293
    30  N    0.000013   0.000120   0.000005   0.000000  -0.000023   0.000000
              19         20         21         22         23         24
     1  C    0.001767  -0.007846  -0.000598   0.000000   0.002264  -0.000009
     2  C   -0.001541   0.004374   0.000479   0.000001  -0.000664   0.000027
     3  C    0.035154  -0.017873   0.000026   0.000017  -0.008788   0.000162
     4  C   -0.112129   0.300773   0.013471  -0.000010  -0.029846  -0.001511
     5  C    0.006543  -0.210125  -0.005790  -0.000011   0.036931   0.001291
     6  C    0.002632   0.016105  -0.000627   0.000000  -0.005033   0.000206
     7  H   -0.000002   0.000006   0.000000   0.000000   0.000000   0.000000
     8  H   -0.000683   0.008633   0.000194   0.000000   0.001176  -0.000005
     9  H   -0.000010   0.000420   0.000002   0.000000   0.000010   0.000000
    10  H   -0.000043   0.000320   0.000005   0.000000  -0.000009   0.000000
    11  C    0.462076  -0.902612  -0.602743   0.007211   0.391449   0.006496
    12  C    0.749679  -3.911723  -0.140651   0.003335  -0.195793   0.013397
    13  C    1.559546   2.621767  -0.493500  -0.077114  -0.384958   0.003092
    14  C   -0.912208   2.866155   0.321729  -0.001057  -0.667491  -0.006132
    15  C   -5.350029  -4.877349   0.492338  -0.016209   0.421460   0.068497
    16  H   -0.130027   0.020413  -0.010269   0.004262  -0.000550   0.000002
    17  C   -2.041229  -5.529156   0.688856   0.086108   0.217621  -0.056898
    18  H    0.006882   0.010826  -0.000567   0.000002   0.015109   0.004294
    19  C   12.908506   0.031138  -1.207334   0.277887  -0.201907  -0.022261
    20  C    0.031138  16.478648  -0.390988  -0.037602  -0.430217   0.243386
    21  C   -1.207334  -0.390988   6.795786   0.019609   0.532554   0.004778
    22  H    0.277887  -0.037602   0.019609   0.535301   0.015187   0.000017
    23  C   -0.201907  -0.430217   0.532554   0.015187   6.341582   0.022122
    24  H   -0.022261   0.243386   0.004778   0.000017   0.022122   0.538189
    25  H    0.008096   0.006977   0.271945  -0.004249  -0.023093  -0.000157
    26  H    0.025812  -0.006490  -0.026174  -0.000156   0.278253  -0.004239
    27  H   -0.008747   0.011126   0.001213  -0.000010  -0.000434   0.000000
    28  O    0.019705  -0.031682  -0.001670   0.000002  -0.004911   0.000008
    29  C    0.000106   0.001102  -0.000054   0.000000   0.000100   0.000001
    30  N    0.000000  -0.000004   0.000000   0.000000   0.000000   0.000000
              25         26         27         28         29         30
     1  C    0.000000   0.000000   0.000098  -0.019089  -2.547372   0.347604
     2  C    0.000000   0.000000  -0.001056   0.056746  -0.014608  -0.048062
     3  C    0.000000   0.000004  -0.007191   0.054482  -0.051245   0.013057
     4  C    0.000006   0.000002   0.002156   0.021127  -0.542056   0.004765
     5  C   -0.000004  -0.000006   0.002987  -0.209861  -0.038312   0.014607
     6  C    0.000000  -0.000007  -0.000596  -0.022047   0.395143  -0.073064
     7  H    0.000000   0.000000   0.000000   0.000120  -0.041330   0.000932
     8  H    0.000000   0.000000   0.000000  -0.002613  -0.000670   0.000005
     9  H    0.000000   0.000000   0.000000  -0.000420  -0.046457   0.001002
    10  H    0.000000   0.000000   0.000044  -0.017084  -0.003154   0.000007
    11  C    0.000579  -0.000011   0.191478  -0.476563   0.015108  -0.000011
    12  C    0.000051   0.001442   0.017030   0.605760  -0.023678  -0.000234
    13  C   -0.012593   0.003904   0.017127   0.111698  -0.002466   0.000013
    14  C   -0.001820  -0.003301   0.086135  -0.172973  -0.016135   0.000120
    15  C    0.019831   0.013505  -0.046489   0.001645  -0.000741   0.000005
    16  H   -0.000009   0.000000  -0.004485  -0.000345   0.000000   0.000000
    17  C    0.026720   0.009557   0.034824  -0.098918   0.006129  -0.000023
    18  H    0.000000  -0.000010  -0.000155  -0.008178   0.000293   0.000000
    19  C    0.008096   0.025812  -0.008747   0.019705   0.000106   0.000000
    20  C    0.006977  -0.006490   0.011126  -0.031682   0.001102  -0.000004
    21  C    0.271945  -0.026174   0.001213  -0.001670  -0.000054   0.000000
    22  H   -0.004249  -0.000156  -0.000010   0.000002   0.000000   0.000000
    23  C   -0.023093   0.278253  -0.000434  -0.004911   0.000100   0.000000
    24  H   -0.000157  -0.004239   0.000000   0.000008   0.000001   0.000000
    25  H    0.527282  -0.004116   0.000000   0.000000   0.000000   0.000000
    26  H   -0.004116   0.526932   0.000000   0.000000   0.000000   0.000000
    27  H    0.000000   0.000000   0.518663  -0.006718   0.000002   0.000000
    28  O    0.000000   0.000000  -0.006718   8.571634  -0.003756  -0.000036
    29  C    0.000000   0.000000   0.000002  -0.003756   9.225760   0.007652
    30  N    0.000000   0.000000   0.000000  -0.000036   0.007652   7.241069
 Mulliken charges:
               1
     1  C    0.863952
     2  C   -0.663138
     3  C    0.286970
     4  C    0.039457
     5  C    0.396192
     6  C   -0.691151
     7  H    0.202088
     8  H    0.185098
     9  H    0.205577
    10  H    0.200095
    11  C   -0.206442
    12  C   -0.152953
    13  C    0.146616
    14  C   -0.076631
    15  C    0.329620
    16  H    0.195310
    17  C   -0.218972
    18  H    0.177785
    19  C   -0.107377
    20  C   -0.268501
    21  C   -0.262019
    22  H    0.187478
    23  C   -0.322125
    24  H    0.185248
    25  H    0.184553
    26  H    0.185099
    27  H    0.192999
    28  O   -0.366060
    29  C   -0.319362
    30  N   -0.509405
 Sum of Mulliken charges =   0.00000
 Mulliken charges with hydrogens summed into heavy atoms:
               1
     1  C    0.863952
     2  C   -0.461050
     3  C    0.487066
     4  C    0.039457
     5  C    0.581290
     6  C   -0.485574
    11  C   -0.013443
    12  C   -0.152953
    13  C    0.341926
    14  C    0.101155
    15  C    0.329620
    17  C   -0.218972
    19  C    0.080102
    20  C   -0.083253
    21  C   -0.077467
    23  C   -0.137026
    28  O   -0.366060
    29  C   -0.319362
    30  N   -0.509405
 Electronic spatial extent (au):  <R**2>=           7512.3045
 Charge=              0.0000 electrons
 Dipole moment (field-independent basis, Debye):
    X=             -6.6016    Y=              1.0742    Z=              0.7888  Tot=              6.7348
 Quadrupole moment (field-independent basis, Debye-Ang):
   XX=           -146.2800   YY=            -96.9932   ZZ=           -117.0416
   XY=              9.6965   XZ=              4.1933   YZ=             -1.7504
 Traceless Quadrupole moment (field-independent basis, Debye-Ang):
   XX=            -26.1751   YY=             23.1117   ZZ=              3.0634
   XY=              9.6965   XZ=              4.1933   YZ=             -1.7504
 Octapole moment (field-independent basis, Debye-Ang**2):
  XXX=           -482.2539  YYY=             10.6262  ZZZ=             -1.3652  XYY=            -19.3450
  XXY=             83.9357  XXZ=             27.4491  XZZ=              7.1214  YZZ=              2.5793
  YYZ=              1.4478  XYZ=             -9.2470
 Hexadecapole moment (field-independent basis, Debye-Ang**3):
 XXXX=         -12082.4522 YYYY=          -1069.0711 ZZZZ=           -176.8360 XXXY=            653.4814
 XXXZ=            243.5542 YYYX=             34.1464 YYYZ=             -8.0725 ZZZX=             -7.5534
 ZZZY=             -0.8561 XXYY=          -1679.1807 XXZZ=          -1733.0310 YYZZ=           -247.1685
 XXYZ=            -58.5556 YYXZ=              9.5644 ZZXY=             -2.0289
 N-N= 1.178433101014D+03 E-N=-4.174684986689D+03  KE= 7.768688661680D+02
 Evaluate density.
 Using the total density.
 Monte-Carlo method of calculating molar volume:
 based on  0.001 e/bohr**3 density envelope.
 Number of points per bohr**3 =   20 CutOff= 1.00D-04
 Using the SCF density.
 There are       439 points.  Will hold       439 in memory.
 LenV=  4026214875 MDV=  4026531840.
 Box volume =10642.610 fraction occupied=0.214
 Integrated density= 9.9517607123734649D+01 error=-2.8482392876265351D+01
 Molar volume = 2278.828 bohr**3/mol (203.360 cm**3/mol)
 Recommended a0 for SCRF calculation =  5.25 angstrom (  9.93 bohr)
 Calling FoFJK, ICntrl=      2127 FMM=F ISym2X=0 I1Cent= 0 IOpClX= 0 NMat=1 NMatS=1 NMatT=0.
 ***** Axes restored to original set *****
 -------------------------------------------------------------------
 Center     Atomic                   Forces (Hartrees/Bohr)
 Number     Number              X              Y              Z
 -------------------------------------------------------------------
      1        6          -0.012773725   -0.047374836   -0.012421346
      2        6           0.000536338    0.017791774   -0.002799454
      3        6          -0.039977924   -0.047272054   -0.025530545
      4        6           0.003651102   -0.047935427    0.023776103
      5        6          -0.003595738    0.004836029   -0.004431969
      6        6          -0.010966245    0.010286069    0.007788423
      7        1          -0.006494953   -0.005656920    0.007650795
      8        1           0.009291840    0.001783929   -0.006303305
      9        1           0.003729709   -0.004589076   -0.009187170
     10        1           0.001590210    0.004335410    0.009035574
     11        6          -0.003776444   -0.005056985    0.001291592
     12        6          -0.014920122   -0.021006656   -0.026101593
     13        6           0.003509466    0.002961971    0.000803350
     14        6           0.004506714   -0.007263670   -0.011740865
     15        6           0.002149512    0.009854837    0.006433359
     16        1          -0.001437454   -0.007324637   -0.005189296
     17        6          -0.001313054   -0.008185510   -0.004518429
     18        1          -0.000549555    0.007458389    0.007869357
     19        6          -0.002694705    0.005874132    0.007988315
     20        6          -0.001858615   -0.008912159   -0.006037138
     21        6           0.009748095    0.008882588   -0.002518493
     22        1           0.000689051   -0.005710690   -0.005876270
     23        6           0.008858484    0.002148225   -0.007663345
     24        1           0.000330262    0.006224862    0.005347050
     25        1          -0.006162157   -0.005860310    0.001390980
     26        1          -0.006362024   -0.001264674    0.005713195
     27        1          -0.009294094   -0.002366438    0.007240179
     28        8           0.054266185    0.092587173    0.028346788
     29        6           0.022120800    0.057907225    0.011049129
     30        7          -0.002800959   -0.007152572   -0.001404972
 -------------------------------------------------------------------
 Cartesian Forces:  Max     0.092587173 RMS     0.018393399

 GradGradGradGradGradGradGradGradGradGradGradGradGradGradGradGradGradGrad
 Berny optimization.
 FormGI is forming the generalized inverse of G from B-inverse, IUseBI=4.
 Internal  Forces:  Max     0.061595654 RMS     0.011523578
 Search for a local minimum.
 Step number   1 out of a maximum of  165
 All quantities printed in internal units (Hartrees-Bohrs-Radians)
 Mixed Optimization -- RFO/linear search
 Second derivative matrix not updated -- first step.
 ITU=  0
     Eigenvalues ---    0.01295   0.01806   0.01817   0.01818   0.01949
     Eigenvalues ---    0.02009   0.02023   0.02035   0.02070   0.02070
     Eigenvalues ---    0.02070   0.02070   0.02070   0.02070   0.02070
     Eigenvalues ---    0.02070   0.02101   0.02129   0.02130   0.02159
     Eigenvalues ---    0.02190   0.02220   0.02269   0.02300   0.02716
     Eigenvalues ---    0.03048   0.04867   0.04867   0.16000   0.16000
     Eigenvalues ---    0.16000   0.16000   0.16000   0.16000   0.16000
     Eigenvalues ---    0.16000   0.16000   0.16000   0.16000   0.20749
     Eigenvalues ---    0.22000   0.22000   0.22285   0.22686   0.22860
     Eigenvalues ---    0.23520   0.23714   0.24373   0.24753   0.25000
     Eigenvalues ---    0.25000   0.25000   0.28519   0.33644   0.33645
     Eigenvalues ---    0.33648   0.33659   0.33686   0.33688   0.37230
     Eigenvalues ---    0.37230   0.37230   0.37230   0.37230   0.37558
     Eigenvalues ---    0.39677   0.40125   0.40989   0.41069   0.41268
     Eigenvalues ---    0.41474   0.42246   0.42561   0.42923   0.45389
     Eigenvalues ---    0.45389   0.45389   0.45389   0.48402   0.48617
     Eigenvalues ---    0.49809   0.49828   0.61288   1.27794
 RFO step:  Lambda=-6.79016975D-02 EMin= 1.29493790D-02
 Linear search not attempted -- first point.
 Maximum step size (   0.300) exceeded in Quadratic search.
    -- Step size scaled by   0.780
 Iteration  1 RMS(Cart)=  0.20102586 RMS(Int)=  0.00898766
 Iteration  2 RMS(Cart)=  0.03201266 RMS(Int)=  0.00155382
 Iteration  3 RMS(Cart)=  0.00027229 RMS(Int)=  0.00155147
 Iteration  4 RMS(Cart)=  0.00000061 RMS(Int)=  0.00155147
 Variable       Old X    -DE/DX   Delta X   Delta X   Delta X     New X
                                 (Linear)    (Quad)   (Total)
    R1        2.64826  -0.00001   0.00000   0.00124   0.00085   2.64911
    R2        2.64826  -0.00498   0.00000  -0.00651  -0.00679   2.64148
    R3        2.91018  -0.05514   0.00000  -0.12180  -0.12180   2.78838
    R4        2.64826  -0.01250   0.00000  -0.01835  -0.01842   2.62985
    R5        2.02201   0.01149   0.00000   0.02035   0.02035   2.04236
    R6        2.64826   0.03102   0.00000   0.04542   0.04576   2.69402
    R7        2.02201   0.00910   0.00000   0.01612   0.01612   2.03813
    R8        2.64826   0.00606   0.00000   0.00779   0.00811   2.65637
    R9        2.49935   0.05785   0.00000   0.06627   0.06627   2.56562
   R10        2.64826  -0.00510   0.00000  -0.00795  -0.00787   2.64039
   R11        2.02201   0.01064   0.00000   0.01885   0.01885   2.04086
   R12        2.02201   0.01088   0.00000   0.01928   0.01928   2.04129
   R13        2.67590  -0.00408   0.00000  -0.00667  -0.00666   2.66924
   R14        2.59524   0.00250   0.00000   0.00319   0.00319   2.59842
   R15        2.02201   0.01169   0.00000   0.02071   0.02071   2.04271
   R16        2.59422   0.00496   0.00000   0.00672   0.00674   2.60096
   R17        2.70231  -0.03277   0.00000  -0.05350  -0.05350   2.64881
   R18        2.68666   0.00279   0.00000   0.00448   0.00447   2.69113
   R19        2.07909  -0.00888   0.00000  -0.01712  -0.01712   2.06197
   R20        2.68721   0.00029   0.00000   0.00071   0.00071   2.68792
   R21        2.07933  -0.01084   0.00000  -0.02090  -0.02090   2.05843
   R22        2.68127   0.00970   0.00000   0.01575   0.01573   2.69701
   R23        2.68735   0.00129   0.00000   0.00212   0.00212   2.68947
   R24        2.68725   0.00134   0.00000   0.00221   0.00221   2.68947
   R25        2.59433   0.00455   0.00000   0.00614   0.00614   2.60047
   R26        2.07936  -0.00820   0.00000  -0.01582  -0.01582   2.06354
   R27        2.59448   0.00452   0.00000   0.00610   0.00610   2.60058
   R28        2.07928  -0.00820   0.00000  -0.01581  -0.01581   2.06347
   R29        2.67628   0.00334   0.00000   0.00508   0.00509   2.68136
   R30        2.07863  -0.00855   0.00000  -0.01647  -0.01647   2.06215
   R31        2.07860  -0.00856   0.00000  -0.01650  -0.01650   2.06210
   R32        2.19208   0.00781   0.00000   0.00452   0.00452   2.19661
    A1        2.09440   0.00257   0.00000   0.00558   0.00515   2.09955
    A2        2.09440  -0.00073   0.00000  -0.00142  -0.00124   2.09316
    A3        2.09440  -0.00184   0.00000  -0.00416  -0.00398   2.09042
    A4        2.09440  -0.00289   0.00000  -0.00978  -0.00992   2.08448
    A5        2.09440   0.00105   0.00000   0.00353   0.00359   2.09798
    A6        2.09440   0.00184   0.00000   0.00625   0.00628   2.10068
    A7        2.09440   0.00908   0.00000   0.01860   0.01922   2.11361
    A8        2.09440  -0.00273   0.00000  -0.00310  -0.00340   2.09099
    A9        2.09440  -0.00635   0.00000  -0.01550  -0.01585   2.07854
   A10        2.09440  -0.01824   0.00000  -0.02858  -0.02994   2.06445
   A11        1.74418   0.06160   0.00000   0.18902   0.18885   1.93303
   A12        2.29594  -0.03593   0.00000  -0.07916  -0.08707   2.20887
   A13        2.09440   0.00581   0.00000   0.00794   0.00847   2.10287
   A14        2.09440  -0.00095   0.00000   0.00272   0.00233   2.09673
   A15        2.09440  -0.00486   0.00000  -0.01066  -0.01095   2.08344
   A16        2.09440   0.00368   0.00000   0.00624   0.00627   2.10067
   A17        2.09440  -0.00086   0.00000   0.00023   0.00021   2.09460
   A18        2.09440  -0.00282   0.00000  -0.00647  -0.00650   2.08790
   A19        2.10053  -0.00492   0.00000  -0.01402  -0.01401   2.08652
   A20        2.09133  -0.00034   0.00000  -0.00258  -0.00259   2.08874
   A21        2.09133   0.00526   0.00000   0.01660   0.01659   2.10792
   A22        2.10096   0.00683   0.00000   0.01648   0.01648   2.11744
   A23        2.07652  -0.01958   0.00000  -0.04788  -0.04792   2.02860
   A24        2.10570   0.01274   0.00000   0.03140   0.03135   2.13705
   A25        2.10235   0.00393   0.00000   0.01052   0.01050   2.11286
   A26        2.11010  -0.00398   0.00000  -0.01215  -0.01215   2.09796
   A27        2.07073   0.00005   0.00000   0.00163   0.00164   2.07237
   A28        2.10330  -0.00275   0.00000  -0.00682  -0.00680   2.09649
   A29        2.10981   0.00078   0.00000   0.00139   0.00138   2.11119
   A30        2.07008   0.00196   0.00000   0.00543   0.00542   2.07550
   A31        2.08061  -0.00230   0.00000  -0.00509  -0.00510   2.07551
   A32        2.12459   0.00255   0.00000   0.00564   0.00565   2.13024
   A33        2.07798  -0.00025   0.00000  -0.00055  -0.00055   2.07744
   A34        2.07862  -0.00079   0.00000  -0.00107  -0.00107   2.07755
   A35        2.12407   0.00169   0.00000   0.00336   0.00336   2.12743
   A36        2.08050  -0.00089   0.00000  -0.00229  -0.00230   2.07820
   A37        2.10398   0.00058   0.00000   0.00169   0.00169   2.10567
   A38        2.06981   0.00031   0.00000   0.00122   0.00122   2.07103
   A39        2.10940  -0.00090   0.00000  -0.00291  -0.00291   2.10649
   A40        2.10307   0.00040   0.00000   0.00120   0.00120   2.10426
   A41        2.07068   0.00035   0.00000   0.00128   0.00128   2.07195
   A42        2.10944  -0.00075   0.00000  -0.00248  -0.00248   2.10697
   A43        2.10080  -0.00041   0.00000  -0.00136  -0.00137   2.09943
   A44        2.10573  -0.00091   0.00000  -0.00314  -0.00314   2.10259
   A45        2.07666   0.00132   0.00000   0.00450   0.00450   2.08116
   A46        2.10005   0.00058   0.00000   0.00132   0.00132   2.10137
   A47        2.10635  -0.00153   0.00000  -0.00490  -0.00490   2.10146
   A48        2.07679   0.00095   0.00000   0.00357   0.00357   2.08036
   A49        2.41435  -0.04420   0.00000  -0.10844  -0.10844   2.30591
   A50        3.14159  -0.00014   0.00000  -0.00092  -0.00092   3.14067
   A51        3.14159  -0.00040   0.00000  -0.00269  -0.00269   3.13891
    D1        0.00000  -0.00333   0.00000  -0.02125  -0.02067  -0.02067
    D2       -3.14159  -0.00030   0.00000  -0.00916  -0.01040   3.13120
    D3       -3.14159  -0.00187   0.00000  -0.00920  -0.00821   3.13338
    D4        0.00000   0.00116   0.00000   0.00289   0.00206   0.00206
    D5        0.00000   0.00090   0.00000   0.01481   0.01596   0.01596
    D6        3.14159   0.00356   0.00000   0.02291   0.02268  -3.11891
    D7        3.14159  -0.00056   0.00000   0.00276   0.00352  -3.13807
    D8        0.00000   0.00210   0.00000   0.01086   0.01025   0.01024
    D9        0.00000   0.00128   0.00000  -0.00254  -0.00471  -0.00471
   D10       -3.14159   0.00424   0.00000   0.00819   0.00469  -3.13690
   D11        3.14159  -0.00175   0.00000  -0.01463  -0.01500   3.12659
   D12        0.00000   0.00121   0.00000  -0.00390  -0.00560  -0.00560
   D13        0.00000   0.00320   0.00000   0.03277   0.03420   0.03420
   D14       -2.64376   0.00096   0.00000  -0.07041  -0.07985  -2.72362
   D15        3.14159   0.00024   0.00000   0.02204   0.02486  -3.11673
   D16        0.49783  -0.00200   0.00000  -0.08114  -0.08919   0.40864
   D17        0.00000  -0.00562   0.00000  -0.03921  -0.03889  -0.03889
   D18       -3.14159  -0.00959   0.00000  -0.05961  -0.05753   3.08406
   D19        2.46199   0.03214   0.00000   0.19761   0.18969   2.65168
   D20       -0.67960   0.02817   0.00000   0.17722   0.17105  -0.50856
   D21       -3.01645   0.00826   0.00000   0.07931   0.07982  -2.93663
   D22        0.71059  -0.00860   0.00000  -0.08212  -0.08263   0.62795
   D23        0.00000   0.00358   0.00000   0.01542   0.01455   0.01455
   D24       -3.14159   0.00092   0.00000   0.00732   0.00785  -3.13374
   D25       -3.14159   0.00755   0.00000   0.03582   0.03305  -3.10854
   D26        0.00000   0.00489   0.00000   0.02772   0.02635   0.02636
   D27       -0.00005   0.00018   0.00000   0.00163   0.00162   0.00156
   D28        3.14144  -0.00148   0.00000  -0.01306  -0.01276   3.12867
   D29        3.14154   0.00032   0.00000   0.00285   0.00277  -3.13887
   D30       -0.00016  -0.00133   0.00000  -0.01184  -0.01160  -0.01176
   D31        0.00018  -0.00001   0.00000  -0.00002   0.00003   0.00022
   D32        3.14149  -0.00006   0.00000  -0.00052  -0.00052   3.14097
   D33       -3.14141  -0.00015   0.00000  -0.00125  -0.00114   3.14064
   D34       -0.00011  -0.00021   0.00000  -0.00174  -0.00169  -0.00180
   D35       -0.00019  -0.00017   0.00000  -0.00161  -0.00165  -0.00184
   D36       -3.14154  -0.00067   0.00000  -0.00605  -0.00614   3.13550
   D37        3.14151   0.00152   0.00000   0.01332   0.01364  -3.12804
   D38        0.00016   0.00101   0.00000   0.00889   0.00915   0.00930
   D39        2.58527   0.00097   0.00000   0.00874   0.00866   2.59393
   D40       -0.55642  -0.00069   0.00000  -0.00598  -0.00590  -0.56232
   D41       -0.00007  -0.00017   0.00000  -0.00154  -0.00157  -0.00164
   D42        3.14145  -0.00006   0.00000  -0.00055  -0.00059   3.14086
   D43       -3.14138  -0.00012   0.00000  -0.00106  -0.00103   3.14078
   D44        0.00014  -0.00001   0.00000  -0.00007  -0.00004   0.00009
   D45        0.00030  -0.00001   0.00000   0.00002   0.00006   0.00036
   D46       -3.14138  -0.00003   0.00000  -0.00020  -0.00020  -3.14157
   D47       -3.14153   0.00048   0.00000   0.00436   0.00446  -3.13707
   D48       -0.00002   0.00046   0.00000   0.00413   0.00420   0.00418
   D49       -0.00017   0.00017   0.00000   0.00154   0.00151   0.00135
   D50        3.14150   0.00020   0.00000   0.00176   0.00177  -3.13991
   D51        3.14150   0.00007   0.00000   0.00057   0.00056  -3.14113
   D52       -0.00001   0.00009   0.00000   0.00080   0.00081   0.00080
   D53       -3.14149  -0.00014   0.00000  -0.00130  -0.00130   3.14039
   D54        0.00005  -0.00010   0.00000  -0.00090  -0.00090  -0.00085
   D55        0.00003  -0.00003   0.00000  -0.00031  -0.00031  -0.00029
   D56        3.14156   0.00001   0.00000   0.00009   0.00009  -3.14153
   D57       -3.14158  -0.00006   0.00000  -0.00055  -0.00053   3.14107
   D58       -0.00024  -0.00004   0.00000  -0.00034  -0.00032  -0.00056
   D59       -0.00007  -0.00009   0.00000  -0.00078  -0.00079  -0.00087
   D60        3.14128  -0.00006   0.00000  -0.00057  -0.00059   3.14069
   D61        0.00005  -0.00002   0.00000  -0.00022  -0.00022  -0.00017
   D62        3.14131   0.00002   0.00000   0.00021   0.00021   3.14152
   D63       -3.14149  -0.00007   0.00000  -0.00063  -0.00063   3.14106
   D64       -0.00023  -0.00002   0.00000  -0.00020  -0.00020  -0.00042
   D65        0.00015   0.00003   0.00000   0.00026   0.00027   0.00041
   D66        3.14157   0.00002   0.00000   0.00019   0.00019  -3.14142
   D67       -3.14120   0.00000   0.00000   0.00005   0.00005  -3.14114
   D68        0.00023   0.00000   0.00000  -0.00002  -0.00002   0.00021
   D69       -0.00014   0.00003   0.00000   0.00025   0.00025   0.00011
   D70       -3.14156   0.00003   0.00000   0.00031   0.00032  -3.14124
   D71       -3.14140  -0.00002   0.00000  -0.00017  -0.00018  -3.14158
   D72        0.00035  -0.00001   0.00000  -0.00011  -0.00011   0.00025
         Item               Value     Threshold  Converged?
 Maximum Force            0.061596     0.000450     NO 
 RMS     Force            0.011524     0.000300     NO 
 Maximum Displacement     0.934916     0.001800     NO 
 RMS     Displacement     0.217245     0.001200     NO 
 Predicted change in Energy=-3.863170D-02
 GradGradGradGradGradGradGradGradGradGradGradGradGradGradGradGradGradGrad

                          Input orientation:                          
 ---------------------------------------------------------------------
 Center     Atomic      Atomic             Coordinates (Angstroms)
 Number     Number       Type             X           Y           Z
 ---------------------------------------------------------------------
      1          6           0       -4.129578   -0.354060   -3.110230
      2          6           0       -4.684003    0.221557   -1.958509
      3          6           0       -4.211379    1.452690   -1.513942
      4          6           0       -3.169149    2.135245   -2.206944
      5          6           0       -2.656076    1.553014   -3.379006
      6          6           0       -3.127984    0.314132   -3.820298
      7          1           0       -5.465085   -0.291955   -1.416036
      8          1           0       -1.903816    2.069614   -3.956566
      9          1           0       -2.718757   -0.123937   -4.718889
     10          1           0       -4.630603    1.899005   -0.626087
     11          6           0       -1.620465    5.105398   -0.723256
     12          6           0       -1.591910    4.013176   -1.618462
     13          6           0       -0.730942    6.140875   -0.888279
     14          6           0       -0.688407    3.961483   -2.655475
     15          6           0        0.219908    6.130708   -1.948370
     16          1           0       -0.743965    6.990160   -0.203336
     17          6           0        0.240990    5.021266   -2.845909
     18          1           0       -0.667808    3.113656   -3.339052
     19          6           0        1.149525    7.191295   -2.139383
     20          6           0        1.191272    5.006738   -3.905280
     21          6           0        2.057076    7.150927   -3.173016
     22          1           0        1.128152    8.037167   -1.449123
     23          6           0        2.077713    6.047266   -4.064547
     24          1           0        1.202811    4.154650   -4.588032
     25          1           0        2.768541    7.965756   -3.316848
     26          1           0        2.805132    6.033494   -4.877829
     27          1           0       -2.339737    5.117412    0.083571
     28          8           0       -2.518081    2.989307   -1.376310
     29          6           0       -4.615197   -1.663860   -3.585452
     30          7           0       -5.000159   -2.694579   -3.960393
 ---------------------------------------------------------------------
                    Distance matrix (angstroms):
                    1          2          3          4          5
     1  C    0.000000
     2  C    1.401850   0.000000
     3  C    2.412296   1.391655   0.000000
     4  C    2.816911   2.453305   1.425614   0.000000
     5  C    2.424950   2.811241   2.430533   1.405691   0.000000
     6  C    1.397809   2.428173   2.790938   2.433322   1.397234
     7  H    2.158177   1.080768   2.150617   3.433388   3.892003
     8  H    3.397720   3.890628   3.416409   2.160220   1.079976
     9  H    2.152013   3.406062   3.871093   3.408317   2.147412
    10  H    3.390913   2.142902   1.078533   2.165817   3.405441
    11  C    6.465213   5.896017   4.547558   3.663545   4.554660
    12  C    5.266676   4.904390   3.664509   2.522027   3.206924
    13  C    7.659764   7.197945   5.872305   4.871222   5.564021
    14  C    5.538265   5.517028   4.473083   3.112942   3.193109
    15  C    7.894313   7.678966   6.458241   5.245598   5.592253
    16  H    8.593601   8.026115   6.663649   5.784995   6.580548
    17  C    6.932955   6.933992   5.859390   4.512920   4.550380
    18  H    4.905229   5.138089   4.318186   2.914733   2.527927
    19  C    9.259798   9.090655   7.877947   6.649748   6.914440
    20  C    7.594847   7.823472   6.894808   5.490272   5.196851
    21  C    9.726431   9.743374   8.632262   7.307790   7.320715
    22  H   10.040702   9.753172   8.477624   7.339875   7.751714
    23  C    8.967617   9.170337   8.195632   6.803246   6.563309
    24  H    7.137699   7.552364   6.787051   5.372301   4.808458
    25  H   10.809537  10.833195   9.715440   8.395410   8.399619
    26  H    9.592469   9.919082   9.029447   7.617218   7.221216
    27  H    6.583381   5.799575   4.414213   3.850676   4.979402
    28  O    4.096523   3.562388   2.290718   1.357669   2.468354
    29  C    1.475546   2.491280   3.763922   4.292381   3.772141
    30  N    2.637938   3.551245   4.879256   5.454757   4.886182
                    6          7          8          9         10
     6  C    0.000000
     7  H    3.407324   0.000000
     8  H    2.144499   4.971312   0.000000
     9  H    1.080203   4.298766   2.461084   0.000000
    10  H    3.869453   2.474002   4.307733   4.949594   0.000000
    11  C    5.900891   6.662767   4.444160   6.672126   4.399014
    12  C    4.570616   5.794533   3.056378   5.291326   3.832516
    13  C    6.949351   8.004495   5.231174   7.607421   5.767977
    14  C    4.539992   6.514952   2.597927   5.007061   4.890106
    15  C    6.967428   8.593784   5.003553   7.445275   6.571393
    16  H    7.958349   8.762923   6.296329   8.654502   6.419076
    17  C    5.869969   7.926799   3.813922   6.224249   6.197463
    18  H    3.757846   6.189511   1.731780   4.073371   4.953716
    19  C    8.271513  10.013756   6.233511   8.667760   7.981746
    20  C    6.378381   8.864511   4.267188   6.501854   7.369215
    21  C    8.604975  10.726900   6.490174   8.838662   8.876631
    22  H    9.131398  10.622906   7.147851   9.596546   8.456812
    23  C    7.747758  10.202653   5.629027   7.843343   8.604218
    24  H    5.839074   8.619437   3.794372   5.805353   7.403625
    25  H    9.673149  11.815053   7.550142   9.875185   9.939467
    26  H    8.308510  10.972320   6.223765   8.273606   9.511123
    27  H    6.239634   6.424785   5.079548   7.118920   4.013704
    28  O    3.674455   4.410565   2.807290   4.572241   2.492858
    29  C    2.485841   2.703849   4.629054   2.693052   4.631639
    30  N    3.546408   3.530228   5.681979   3.519703   5.688161
[...]
 1194,0.00004430,-0.00255064,0.00457962,0.00062924,0.00023749,0.0001179
 8,-0.00004312,-0.00064677,0.00014518,0.00009019,0.13154077,-0.24269867
 ,-0.00481822,-0.00331668,-0.00275768,0.00312574,0.00005928,-0.00004687
 ,-0.00024172,0.01840385,-0.01844941,-0.00192558,-0.14166449,0.25718151
 ,-0.00001098,-0.00000323,-0.00001338,0.00001480,0.00000617,0.00000805,
 -0.00001734,-0.00002000,0.00000672,0.00013417,0.00007806,0.00004766,-0
 .00002462,-0.00000198,-0.00001800,0.00000602,-0.00000847,-0.00000455,-
 0.00000012,0.00000061,0.00000016,-0.00000952,0.00000715,0.00001201,-0.
 00000689,-0.00000032,-0.00000180,0.00000283,0.00000484,-0.00000347,-0.
 00005777,-0.00007381,-0.00001264,-0.00012133,0.00005249,-0.00025687,0.
 00022560,-0.00052003,0.00015975,-0.00095032,-0.00111552,-0.00253319,0.
 00302982,0.00148798,0.00375368,0.00021535,0.00003368,0.00010749,0.0060
 0798,-0.00872268,0.00291696,0.00015457,0.00044480,0.00018333,0.0001285
 2,0.00011329,-0.00057978,0.01317402,-0.00489103,-0.03925616,0.00311066
 ,0.00268125,0.00641417,-0.00040236,-0.00024394,-0.00103644,-0.00579321
 ,0.00791810,0.00426698,-0.01690773,0.00332641,0.02956694,-0.00002130,-
 0.00001298,-0.00000296,0.00000592,0.00000119,0.00000510,-0.00001644,-0
 .00001668,-0.00000502,0.00010367,0.00005658,0.00005456,-0.00001769,-0.
 00001274,-0.00003659,0.00002021,0.00001024,0.00000965,-0.00000177,-0.0
 0000130,0.00000008,-0.00000173,0.00000413,0.00001576,-0.00000134,-0.00
 000126,-0.00000223,0.00000071,0.00000323,-0.00000057,-0.00053178,-0.00
 025563,0.00001772,-0.00020788,0.00034810,0.00005113,0.00045770,-0.0013
 4921,0.00022827,0.00026699,0.00001036,-0.00037866,-0.00421777,0.001876
 94,0.00387371,0.00000455,0.00004234,0.00004461,-0.00093200,0.00026617,
 0.00010807,-0.00000819,-0.00006922,0.00002816,-0.00665927,-0.02836201,
 0.00868780,-0.00156094,0.00340496,0.00161324,-0.09612488,-0.09009610,0
 .03680219,0.00011848,-0.00003111,-0.00164909,0.01086986,0.01734209,-0.
 00597854,0.00038994,0.00094524,-0.00023047,0.09782177,-0.00002417,-0.0
 0001835,-0.00000913,0.00000969,0.00000196,0.00001253,-0.00002927,-0.00
 003000,-0.00000949,0.00014221,0.00008640,0.00008560,-0.00002968,-0.000
 00515,-0.00004374,0.00002330,0.00001434,0.00001138,-0.00000256,-0.0000
 0249,-0.00000007,0.00000612,0.00000199,0.00001804,-0.00000173,-0.00000
 079,-0.00000261,0.00000250,0.00000373,-0.00000127,-0.00018481,0.000076
 14,-0.00007290,0.00020062,0.00009525,-0.00006958,0.00007739,-0.0001019
 2,0.00006778,-0.00022576,-0.00006634,-0.00007341,0.00078336,0.00188192
 ,0.00097393,-0.00001560,0.00001245,0.00003313,0.00067852,0.00040933,-0
 .00038573,0.00003266,0.00003713,-0.00000934,0.00102161,0.00230116,-0.0
 0012269,0.00440643,-0.00216730,-0.00008510,-0.09049784,-0.27718822,0.0
 7526656,-0.00063000,0.00073262,-0.00083466,-0.01189295,-0.01760966,0.0
 0775562,-0.00060401,-0.00098982,0.00043235,0.09671966,0.29209661,0.000
 00580,0.00000299,-0.00000108,0.00000008,0.00000270,-0.00000317,0.00001
 105,0.00000225,0.00000344,-0.00001493,-0.00001127,-0.00000788,0.000007
 47,-0.00000359,0.00000452,-0.00000558,-0.00000457,-0.00000175,0.000001
 21,0.00000171,0.00000017,-0.00000506,-0.00000368,-0.00000352,-0.000000
 99,-0.00000116,0.00000016,-0.00000125,0.00000031,-0.00000079,-0.000016
 11,-0.00009105,-0.00062302,0.00009524,-0.00008658,0.00007038,0.0000030
 0,0.00055888,0.00032188,-0.00034556,-0.00014526,-0.00070164,0.00405591
 ,0.00059361,0.00698737,0.00005634,0.00000922,0.00014710,0.00005817,-0.
 00024521,-0.00039299,0.00000755,0.00002212,0.00002649,0.00317399,0.009
 67705,0.00058641,0.00142540,0.00026168,0.00468715,0.03689775,0.0751221
 2,-0.06267442,-0.00153586,-0.00103140,-0.00413839,-0.00051281,-0.00197
 775,0.00318549,0.00006038,-0.00008395,0.00023413,-0.04232017,-0.082222
 73,0.05468209,-0.00002919,-0.00002062,-0.00001548,0.00001431,0.0000018
 1,0.00002026,-0.00004261,-0.00004546,-0.00001730,0.00020081,0.00010643
 ,0.00011588,-0.00003604,-0.00000758,-0.00005198,0.00002385,0.00001425,
 0.00001058,-0.00000494,-0.00000240,0.00000003,0.00000474,0.00000765,0.
 00002324,-0.00000464,0.00000012,-0.00000290,0.00000264,0.00000574,-0.0
 0000082,0.00002738,-0.00003200,0.00005389,0.00006659,-0.00006043,-0.00
 024960,-0.00007637,-0.00006150,-0.00023339,-0.00046520,0.00028875,0.00
 018721,0.00052831,0.00015950,-0.00035921,0.00002079,0.00001941,0.00000
 259,0.00222468,-0.00137745,0.00236525,0.00002996,-0.00001405,0.0000614
 3,0.00039922,0.00374430,0.00090599,-0.00676069,0.00106723,0.00326405,-
 0.01243079,-0.00384433,0.00582110,-0.00072264,-0.00022560,0.00034562,-
 0.30584421,-0.01812546,0.09298267,0.00032664,-0.00069490,-0.00159473,0
 .00037460,0.00021490,-0.00111888,0.32248482,-0.00001667,-0.00000853,-0
 .00000759,0.00000882,-0.00000203,0.00001074,-0.00002834,-0.00002856,-0
 .00001443,0.00010163,0.00004271,0.00009312,-0.00002158,-0.00000187,-0.
 00002657,0.00001222,0.00000398,0.00000324,-0.00000360,-0.00000092,-0.0
 0000025,0.00000107,0.00000204,0.00000813,-0.00000243,-0.00000077,-0.00
 000198,0.00000070,0.00000351,-0.00000020,0.00012353,-0.00030828,0.0000
 4938,-0.00024217,-0.00017378,-0.00000527,0.00018074,0.00032471,-0.0002
 7359,-0.00106312,0.00074066,0.00028324,-0.00026198,-0.00108912,0.00020
 392,-0.00008050,0.00001485,0.00003173,-0.00044631,-0.00478257,0.002662
 43,0.00004503,-0.00000216,0.00002406,0.00276368,-0.00421904,0.00085085
 ,-0.02825414,0.00243063,0.00962369,0.02532733,0.00653733,-0.00911896,0
 .00132980,0.00014397,-0.00043601,-0.01767876,-0.06079181,0.01038509,-0
 .00010916,0.00051618,-0.00097632,-0.00054763,0.00059224,-0.00046550,0.
 01913813,0.06019794,0.00001465,0.00001257,-0.00000051,-0.00000350,0.00
 000349,-0.00000094,0.00001977,0.00000799,0.00000469,-0.00005411,-0.000
 05125,-0.00005052,0.00001531,0.00000564,0.00003394,-0.00001787,-0.0000
 0925,-0.00000537,0.00000105,0.00000291,0.00000089,0.00000015,0.0000031
 7,-0.00000413,-0.00000205,-0.00000039,0.00000113,0.00000057,-0.0000016
 7,-0.00000108,0.00001265,0.00007552,0.00013270,-0.00023328,-0.00007267
 ,-0.00058206,-0.00027616,-0.00018547,-0.00067715,0.00048420,-0.0001895
 6,0.00014869,-0.00028651,0.00005653,-0.00040440,0.00002446,-0.00000505
 ,0.00003858,0.00220009,0.00296986,0.00728348,0.00004623,0.00004505,0.0
 0017385,0.00108893,0.00053428,0.00478552,0.00878396,-0.00014246,0.0007
 4879,0.00035525,0.00056685,0.00264633,0.00005422,0.00008310,0.00015579
 ,0.09287967,0.01056271,-0.06979437,-0.00170178,-0.00078112,-0.00413565
 ,-0.00097630,-0.00071894,-0.00240778,-0.10255750,-0.01292399,0.0619311
 5,-0.00007337,-0.00005039,0.00007906,-0.00001222,-0.00004293,-0.000068
 10,0.00005372,0.00017381,0.00003757,0.00018113,0.00025608,0.00003571,-
 0.00002273,-0.00033954,-0.00008664,0.00019151,0.00006468,-0.00003746,0
 .00000659,-0.00000927,-0.00000357,-0.00010088,0.00003467,0.00007586,-0
 .00001269,0.00000126,-0.00000490,-0.00002580,0.00003426,0.00000753,-0.
 30552063,-0.01980279,0.09743731,-0.01420196,-0.00493393,0.00700179,-0.
 00556008,0.00058750,0.00287858,0.00023654,0.00354608,0.00055921,0.0023
 6983,-0.00105804,0.00232754,0.00024524,-0.00062615,-0.00170878,0.00045
 746,0.00018842,-0.00041983,-0.00063904,-0.00018978,0.00035771,-0.00037
 987,0.00027728,0.00021530,-0.00006497,-0.00004303,-0.00013657,-0.00006
 314,-0.00030626,-0.00013299,0.00002654,-0.00001735,0.00005228,0.000067
 41,0.00001726,0.00001780,0.00002232,0.00001697,-0.00000051,-0.00005225
 ,-0.00000757,0.00000471,-0.00002032,-0.00000310,0.00000991,0.32172293,
 0.00004538,0.00003098,0.00003220,-0.00003052,-0.00003137,-0.00002449,-
 0.00010266,0.00001928,0.00003010,-0.00010295,-0.00095706,-0.00033498,-
 0.00000159,-0.00009781,-0.00014863,-0.00003005,-0.00003844,-0.00001702
 ,0.00001020,0.00000351,-0.00000324,0.00008792,0.00003988,-0.00001046,0
 .00001234,0.00001178,0.00001629,0.00001754,-0.00001045,-0.00000137,-0.
 02100762,-0.06051089,0.01230252,0.02479661,0.00629215,-0.00935927,-0.0
 2790199,0.00266048,0.00963307,0.00246901,-0.00445950,0.00072609,-0.000
 16699,-0.00471225,0.00246424,-0.00008545,0.00060363,-0.00097037,-0.000
 40524,-0.00105688,0.00016896,0.00134159,0.00023475,-0.00033970,-0.0010
 1026,0.00081256,0.00023855,0.00016912,0.00030816,-0.00022265,-0.000373
 46,-0.00034391,0.00007753,0.00003104,-0.00002306,0.00002359,0.00013069
 ,-0.00029639,0.00004168,-0.00007894,0.00001370,0.00003357,-0.00014563,
 -0.00000457,0.00004528,-0.00000159,0.00001039,-0.00000140,0.02320880,0
 .05914122,0.00006145,0.00007597,-0.00016976,0.00014827,0.00007703,0.00
 016264,-0.00028810,-0.00019901,-0.00002299,0.00056086,-0.00015582,0.00
 056838,-0.00021781,0.00017751,0.00026893,-0.00028223,-0.00007152,-0.00
 008609,0.00000358,0.00000068,-0.00000856,0.00036876,0.00004374,-0.0002
 2265,-0.00001022,-0.00001482,-0.00001528,0.00001197,0.00003513,-0.0000
 2644,0.09755698,0.01177986,-0.07021292,0.00128996,0.00169458,0.0023228
 8,0.00814941,-0.00019017,0.00043359,0.00074142,0.00039896,0.00365742,0
 .00208520,0.00280935,0.00733355,-0.00180667,-0.00082363,-0.00430741,-0
 .00038465,-0.00007693,-0.00060197,0.00012942,0.00008999,0.00037820,0.0
 0044167,-0.00018287,0.00024412,-0.00016356,-0.00012082,-0.00052013,-0.
 00014666,0.00005178,-0.00061166,0.00003995,0.00004363,0.00014327,0.000
 01753,0.00004452,0.00016826,0.00002132,-0.00000376,0.00002638,0.000035
 75,-0.00000107,-0.00004041,0.00001115,0.00000054,0.00000399,-0.1070179
 0,-0.01404227,0.06374913,-0.00613620,-0.00190293,-0.00563044,0.0082174
 1,0.00034370,0.00518121,-0.03136471,-0.03146361,-0.01105508,-0.1598535
 1,-0.06654039,-0.09612403,-0.01728679,-0.01114613,-0.02111961,0.004846
 57,-0.00073820,-0.00079918,-0.00057441,-0.00044029,-0.00031914,-0.0010
 3779,0.00070003,0.00122524,-0.00080722,-0.00033043,-0.00023992,-0.0005
 7847,0.00223210,0.00046139,0.01035775,0.00779884,-0.00252482,-0.089994
 61,-0.04781695,0.01637907,-0.00139602,0.00124956,0.00279711,-0.0169845
 8,-0.04927200,0.01894119,0.00021146,-0.00165906,-0.00020864,0.00020277
 ,0.00005901,-0.00017432,-0.00387650,0.00624110,0.00136083,0.00233735,-
 0.00016349,-0.00232891,-0.00003484,0.00039465,-0.00007471,-0.00038408,
 -0.00315738,0.00086373,-0.00014410,-0.00100682,0.00028046,0.00006734,-
 0.00034989,0.00001512,-0.00051763,0.00059613,0.00006391,0.00000787,0.0
 0021066,-0.00007832,-0.00008311,-0.00017834,0.00001440,-0.00029853,-0.
 00027659,0.00011938,0.00116104,-0.00085567,-0.00135719,0.30287504,-0.0
 0289049,-0.00157167,-0.00495456,0.00155296,0.00043786,0.00936930,-0.04
 465681,-0.02665902,-0.01975235,-0.07868940,-0.10665126,-0.02756005,-0.
 00457052,0.00723541,-0.00692815,-0.00273110,0.00213658,0.00384416,-0.0
 0137129,-0.00085811,-0.00080686,0.00056983,-0.00185767,-0.00132246,0.0
 0009868,-0.00009430,-0.00012897,0.00210607,0.00006808,-0.00168644,-0.0
 1838371,-0.04774047,0.02059860,-0.03649179,-0.19982260,0.06982437,0.00
 835451,-0.00156748,-0.00147612,-0.01488227,-0.01712755,0.01220648,-0.0
 0142116,-0.00139840,0.00054215,-0.00100415,-0.00227223,0.00050845,-0.0
 0102471,0.00356572,0.00019527,-0.00009209,0.00095523,-0.00138851,0.000
 06468,0.00143643,-0.00041358,0.00061504,-0.00155768,-0.00023120,-0.001
 25221,-0.00084155,0.00059470,0.00016603,-0.00020049,-0.00004980,0.0000
 4927,-0.00069542,0.00018836,-0.00010648,0.00020702,-0.00004784,-0.0001
 3273,-0.00016254,0.00007242,-0.00025896,-0.00015382,0.00015458,-0.0009
 8846,0.00236743,-0.00144946,0.19631888,0.39223496,-0.00243748,-0.00418
 038,0.00212145,-0.00112249,0.00355467,-0.00451587,0.01037602,0.0049332
 2,0.01576289,-0.08365322,-0.01308746,-0.13043430,-0.04038287,-0.022061
 66,-0.02057238,0.00416833,0.01000216,-0.00314524,0.00059372,0.00039345
 ,0.00042262,0.00172909,-0.00095682,0.00133290,-0.00110043,-0.00121276,
 -0.00074212,0.00094838,-0.00140260,0.00049729,-0.00133792,0.00362685,0
 .00311824,0.00585906,0.05567437,-0.08307003,0.00254366,0.00037051,0.00
 434694,0.01190407,0.01584452,-0.00150795,-0.00074519,0.00081486,-0.000
 98365,-0.00002308,-0.00014219,0.00013037,0.00226187,-0.00166560,0.0093
 8355,-0.00229308,-0.00090686,-0.00438885,-0.00010413,-0.00013449,-0.00
 064627,0.00058967,0.00072325,-0.00010155,-0.00005589,0.00069530,0.0000
 4947,0.00000082,0.00006178,-0.00001414,-0.00049039,-0.00058852,-0.0005
 3182,0.00003864,0.00002322,0.00014921,0.00000259,0.00000165,0.00006252
 ,0.00002652,0.00001889,-0.00002094,-0.00148634,-0.00034964,-0.00258316
 ,0.09359859,-0.05000948,0.21537999,-0.18011992,-0.08848100,-0.07271733
 ,-0.01932287,-0.00615917,-0.02225049,0.00757043,0.00266330,-0.00263317
 ,-0.00435136,-0.00201608,-0.00175528,0.00635631,-0.00360416,0.00469664
 ,-0.02609405,-0.02307254,-0.00479513,-0.00091468,0.00149564,0.00205537
 ,0.00006930,-0.00058412,-0.00054161,-0.00107267,0.00254921,0.00051944,
 0.00022803,-0.00053884,-0.00025771,0.00023377,0.00038148,-0.00017614,-
 0.00128629,-0.00191829,0.00091764,-0.00012532,-0.00001057,0.00000888,0
 .00012864,0.00032146,-0.00012440,0.00001914,0.00007710,-0.00003260,0.0
 0001666,0.00008401,-0.00000107,-0.00001609,-0.00011221,0.00005900,-0.0
 0007712,-0.00001957,0.00000818,0.00003892,-0.00008880,0.00001207,-0.00
 002153,0.00011686,-0.00000243,0.00005065,0.00004782,-0.00003305,-0.000
 01879,0.00002565,0.00000377,0.00002389,0.00001875,-0.00001693,-0.00000
 257,-0.00002191,0.00000470,0.00001812,0.00002663,-0.00000839,0.0000302
 3,0.00001239,-0.00001207,0.00004059,-0.00009316,-0.00003826,0.00373343
 ,0.00313562,0.00151332,0.89480237,-0.08839553,-0.12187231,-0.03737344,
 -0.00071109,0.00498563,-0.01135491,0.00100067,0.00599821,0.00363460,-0
 .00248005,-0.00303038,-0.00030005,-0.00206791,0.00054625,0.00751728,-0
 .02865820,-0.02262021,-0.01304464,0.00233963,-0.00130122,0.00015234,-0
 .00116391,-0.00004743,-0.00044389,0.00168885,-0.00121249,-0.00135987,0
 .00003438,0.00072348,0.00036765,0.00007526,0.00031693,-0.00008122,-0.0
 0060044,-0.00151710,0.00053057,-0.00008697,-0.00004850,0.00004787,0.00
 004578,0.00025600,-0.00014695,0.00004660,0.00005842,-0.00004175,0.0000
 0841,0.00004865,0.00000271,0.00003934,-0.00003751,0.00005373,-0.000048
 82,-0.00001384,0.00001105,0.00001069,-0.00007430,-0.00000098,-0.000032
 05,0.00007989,0.00000502,0.00005561,0.00003122,-0.00002398,-0.00001163
 ,0.00001695,0.00000292,0.00001311,0.00003272,-0.00002146,0.00000149,-0
 .00001680,0.00000782,0.00001227,0.00001831,-0.00000375,0.00002224,0.00
 000952,-0.00000931,0.00003332,-0.00005341,-0.00002801,0.00304179,0.001
 96104,0.00050998,0.55489022,0.47331695,-0.07252007,-0.03702048,-0.1176
 5346,-0.03160540,-0.02112641,-0.02026887,-0.00075538,0.00587310,-0.004
 46244,-0.00175361,-0.00000623,-0.00373242,0.00283210,0.00530377,0.0025
 9092,0.00450021,-0.00364529,0.01367929,0.00062690,-0.00132048,-0.00019
 764,0.00043802,0.00058831,0.00066145,0.00196321,0.00012063,-0.00035820
 ,-0.00128005,-0.00066680,-0.00026557,0.00012917,0.00026133,-0.00003661
 ,-0.00049256,-0.00115914,0.00040176,-0.00009261,-0.00008522,0.00006675
 ,-0.00002253,0.00017998,-0.00002850,0.00005697,0.00004872,-0.00003205,
 0.00000680,0.00004257,0.00000398,0.00001635,-0.00002267,0.00002799,-0.
 00004454,-0.00001078,-0.00000771,0.00000469,-0.00007914,-0.00000197,-0
 .00003915,0.00006755,0.00001000,0.00005817,0.00002212,-0.00002176,-0.0
 0001159,0.00001611,0.00000254,0.00001399,0.00003926,-0.00001875,0.0000
 0184,-0.00001614,0.00000435,0.00001196,0.00001751,-0.00000459,0.000020
 82,0.00000844,-0.00000939,0.00002805,-0.00005310,-0.00005827,0.0023163
 9,0.00126183,0.00104851,0.47401878,0.31106800,0.38664095,-0.00798219,-
 0.01574541,-0.01390284,0.00364123,-0.00251119,0.00726941,-0.00248147,-
 0.00139165,-0.00029333,0.00282053,0.00150799,0.00146367,-0.00237827,-0
 .00016474,-0.00159494,0.00532265,0.00549234,-0.00373991,0.00013961,0.0
 0010369,-0.00053907,-0.00025798,0.00005334,-0.00001089,0.00013493,-0.0
 0046861,0.00026581,-0.00030545,-0.00002349,0.00000119,-0.00017243,-0.0
 0028724,0.00010389,0.00077493,0.00142064,-0.00060330,0.00009289,0.0000
 4061,-0.00003144,-0.00006574,-0.00024893,0.00006639,-0.00002520,-0.000
 06338,0.00003138,-0.00001151,-0.00006241,0.00000187,0.00000996,0.00007
 689,-0.00004682,0.00006152,0.00001362,0.00000360,-0.00002425,0.0000772
 2,-0.00000779,0.00002213,-0.00008716,-0.00000229,-0.00004685,-0.000034
 90,0.00002521,0.00001502,-0.00002101,-0.00000227,-0.00001682,-0.000021
 88,0.00001393,0.00000316,0.00001689,-0.00000280,-0.00001416,-0.0000213
 2,0.00000711,-0.00002340,-0.00000903,0.00001069,-0.00003291,0.00007355
 ,0.00003859,-0.00266490,-0.00208324,-0.00092185,-0.67993722,-0.4391030
 7,-0.37842693,0.68340218,-0.01572388,0.00579643,-0.01137008,0.00002915
 ,-0.00151190,0.00619361,-0.00100984,-0.00164189,-0.00118106,0.00179635
 ,0.00143888,0.00075721,-0.00050718,-0.00056758,-0.00184721,0.00295114,
 0.00520793,-0.00030769,-0.00024220,0.00033839,-0.00035402,0.00013156,-
 0.00012366,-0.00002096,-0.00011267,0.00007768,0.00029874,-0.00009976,-
 0.00031742,-0.00012908,-0.00009307,-0.00020492,0.00004484,0.00047061,0
 .00096002,-0.00038130,0.00006235,0.00003940,-0.00003113,-0.00002503,-0
 .00017085,0.00006044,-0.00002479,-0.00003703,0.00002544,-0.00000392,-0
 .00003226,0.00000296,-0.00001104,0.00004296,-0.00003475,0.00003358,0.0
 0001000,-0.00000028,-0.00001426,0.00005516,-0.00000590,0.00002499,-0.0
 0006360,-0.00000341,-0.00003897,-0.00002362,0.00001673,0.00001042,-0.0
 0001080,-0.00000013,-0.00001053,-0.00002089,0.00001285,-0.00000170,0.0
 0001443,-0.00000340,-0.00000926,-0.00001442,0.00000513,-0.00001812,-0.
 00000741,0.00000829,-0.00002179,0.00004608,0.00003690,-0.00188828,-0.0
 0137350,-0.00055023,-0.43912575,-0.33655467,-0.25970738,0.45347187,0.3
 2864906,-0.01409138,-0.01156522,0.01042511,0.00281520,0.00167966,0.004
 07674,-0.00051276,-0.00153641,0.00044135,0.00147311,0.00057692,0.00155
 187,-0.00133982,-0.00145409,-0.00088063,0.00082398,0.00435864,-0.00415
 527,0.00003284,0.00023807,0.00002791,-0.00016144,-0.00017406,-0.000252
 56,-0.00029119,-0.00029478,0.00032687,0.00014459,0.00001342,-0.0000440
 9,-0.00008742,-0.00018113,0.00004583,0.00041436,0.00085366,-0.00033194
 ,0.00006050,0.00004357,-0.00002815,-0.00001452,-0.00014369,0.00003758,
 -0.00002946,-0.00003828,0.00002019,-0.00000541,-0.00003396,-0.00000462
 ,-0.00000563,0.00003428,-0.00002726,0.00003197,0.00000842,-0.00000248,
 -0.00000898,0.00005379,0.00000198,0.00002287,-0.00005318,-0.00000043,-
 0.00003698,-0.00002097,0.00001777,0.00000844,-0.00001253,-0.00000406,-
 0.00001087,-0.00002095,0.00001552,-0.00000179,0.00001168,-0.00000603,-
 0.00000975,-0.00001362,0.00000213,-0.00001647,-0.00000684,0.00000476,-
 0.00002232,0.00004491,0.00002693,-0.00158370,-0.00115486,-0.00054767,-
 0.37842172,-0.25967734,-0.25798027,0.39082373,0.26846487,0.24724294\\-
 0.00000106,0.00000244,-0.00000832,0.00000477,0.00000139,0.00000556,-0.
 00000570,-0.00000485,-0.00000036,0.00001265,0.00000992,0.00000312,0.00
 000107,-0.00000181,0.00000160,-0.00000353,-0.00000170,0.00000272,-0.00
 000061,-0.00000006,-0.00000021,-0.00000030,-0.00000026,-0.00000090,0.0
 0000070,0.00000024,-0.00000046,0.00000064,0.00000066,0.00000034,-0.000
 00157,-0.00000119,0.00000118,0.00000839,0.00000909,-0.00000230,-0.0000
 0141,-0.00000005,-0.00000030,-0.00000498,-0.00000563,0.00000319,0.0000
 0037,-0.00000010,-0.00000071,0.00000014,-0.00000027,-0.00000040,0.0000
 0319,0.00000440,-0.00000260,0.00000039,0.00000042,-0.00000054,-0.00000
 148,-0.00000046,0.00000235,-0.00000288,-0.00000283,0.00000212,0.000002
 54,-0.00000194,-0.00000146,0.00000046,0.00000009,-0.00000088,0.0000006
 0,0.00000378,-0.00000024,-0.00000004,0.00000032,-0.00000051,-0.0000003
 1,0.00000027,0.00000024,-0.00000004,-0.00000011,0.00000033,-0.00000028
 ,0.00000009,-0.00000045,-0.00001256,-0.00001091,-0.00000293,0.00000159
 ,-0.00000037,0.00000059,-0.00000075,-0.00000054,0.00000023\\\@


    THE DOUGHNUT CREED
 AS YOU RAMBLE ON THROUGH LIFE, BROTHER
 WHATEVER BE YOUR GOAL
 KEEP YOUR EYE UPON THE DOUGHNUT
 AND NOT UPON THE HOLE.
 Job cpu time:       0 days  3 hours 38 minutes 26.8 seconds.
 Elapsed time:       0 days  0 hours  7 minutes 17.0 seconds.
 File lengths (MBytes):  RWF=    447 Int=      0 D2E=      0 Chk=     14 Scr=      1
 Normal termination of Gaussian 16 at Fri Sep 15 13:34:14 2023.
