 Entering Gaussian System, Link 0=/home/ubuntu/g16/g16
 Input=/home/ubuntu/products/MOLECULE_21.gjf
 Output=/home/ubuntu/products/MOLECULE_21.log
 Initial command:
 /home/ubuntu/g16/l1.exe "/home/ubuntu/Scratch/Gau-71605.inp" -scrdir="/home/ubuntu/Scratch/"
 Entering Link 1 = /home/ubuntu/g16/l1.exe PID=     71607.
  
 Copyright (c) 1988-2017, Gaussian, Inc.  All Rights Reserved.
  
 This is part of the Gaussian(R) 16 program.  It is based on
 the Gaussian(R) 09 system (copyright 2009, Gaussian, Inc.),
 the Gaussian(R) 03 system (copyright 2003, Gaussian, Inc.),
 the Gaussian(R) 98 system (copyright 1998, Gaussian, Inc.),
 the Gaussian(R) 94 system (copyright 1995, Gaussian, Inc.),
 the Gaussian 92(TM) system (copyright 1992, Gaussian, Inc.),
 the Gaussian 90(TM) system (copyright 1990, Gaussian, Inc.),
 the Gaussian 88(TM) system (copyright 1988, Gaussian, Inc.),
 the Gaussian 86(TM) system (copyright 1986, Carnegie Mellon
 University), and the Gaussian 82(TM) system (copyright 1983,
 Carnegie Mellon University). Gaussian is a federally registered
 trademark of Gaussian, Inc.
  
 This software contains proprietary and confidential information,
 including trade secrets, belonging to Gaussian, Inc.
  
 This software is provided under written license and may be
 used, copied, transmitted, or stored only in accord with that
 written license.
  
 The following legend is applicable only to US Government
 contracts under FAR:
  
                    RESTRICTED RIGHTS LEGEND
  
 Use, reproduction and disclosure by the US Government is
 subject to restrictions as set forth in subparagraphs (a)
 and (c) of the Commercial Computer Software - Restricted
 Rights clause in FAR 52.227-19.
  
 Gaussian, Inc.
 340 Quinnipiac St., Bldg. 40, Wallingford CT 06492
  
  
 ---------------------------------------------------------------
 Warning -- This program may not be used in any manner that
 competes with the business of Gaussian, Inc. or will provide
 assistance to any competitor of Gaussian, Inc.  The licensee
 of this program is prohibited from giving any competitor of
 Gaussian, Inc. access to this program.  By using this program,
 the user acknowledges that Gaussian, Inc. is engaged in the
 business of creating and licensing software in the field of
 computational chemistry and represents and warrants to the
 licensee that it is not a competitor of Gaussian, Inc. and that
 it will not use this program in any manner prohibited above.
 ---------------------------------------------------------------
  

 Cite this work as:
 Gaussian 16, Revision B.01,
 M. J. Frisch, G. W. Trucks, H. B. Schlegel, G. E. Scuseria, 
 M. A. Robb, J. R. Cheeseman, G. Scalmani, V. Barone, 
 G. A. Petersson, H. Nakatsuji, X. Li, M. Caricato, A. V. Marenich, 
 J. Bloino, B. G. Janesko, R. Gomperts, B. Mennucci, H. P. Hratchian, 
 J. V. Ortiz, A. F. Izmaylov, J. L. Sonnenberg, D. Williams-Young, 
 F. Ding, F. Lipparini, F. Egidi, J. Goings, B. Peng, A. Petrone, 
 T. Henderson, D. Ranasinghe, V. G. Zakrzewski, J. Gao, N. Rega, 
 G. Zheng, W. Liang, M. Hada, M. Ehara, K. Toyota, R. Fukuda, 
 J. Hasegawa, M. Ishida, T. Nakajima, Y. Honda, O. Kitao, H. Nakai, 
 T. Vreven, K. Throssell, J. A. Montgomery, Jr., J. E. Peralta, 
 F. Ogliaro, M. J. Bearpark, J. J. Heyd, E. N. Brothers, K. N. Kudin, 
 V. N. Staroverov, T. A. Keith, R. Kobayashi, J. Normand, 
 K. Raghavachari, A. P. Rendell, J. C. Burant, S. S. Iyengar, 
 J. Tomasi, M. Cossi, J. M. Millam, M. Klene, C. Adamo, R. Cammi, 
 J. W. Ochterski, R. L. Martin, K. Morokuma, O. Farkas, 
 J. B. Foresman, and D. J. Fox, Gaussian, Inc., Wallingford CT, 2016.
 
 ******************************************
 Gaussian 16:  EM64L-G16RevB.01 20-Dec-2017
                17-Sep-2023 
 ******************************************
 %nprocshared=30
 Will use up to   30 processors via shared memory.
 %mem=30GB
 %chk=MOLECULE_21.chk
 ----------------------------------------------------------------------
 # opt freq b3lyp/6-31+g(d) geom=connectivity empiricaldispersion=gd3 v
 olume
 ----------------------------------------------------------------------
 1/18=20,19=15,26=3,38=1,57=2/1,3;
 2/9=110,12=2,17=6,18=5,40=1/2;
 3/5=1,6=6,7=11,11=2,25=1,30=1,71=1,74=-5,124=31/1,2,3;
 4//1;
 5/5=2,38=5/2;
 6/7=2,8=2,9=2,10=2,28=1,44=1/1,4;
 7//1,2,3,16;
 1/18=20,19=15,26=3/3(2);
 2/9=110/2;
 99//99;
 2/9=110/2;
 3/5=1,6=6,7=11,11=2,25=1,30=1,71=1,74=-5,124=31/1,2,3;
 4/5=5,16=3,69=1/1;
 5/5=2,38=5/2;
 7//1,2,3,16;
 1/18=20,19=15,26=3/3(-5);
 2/9=110/2;
 6/7=2,8=2,9=2,10=2,19=2,28=1,44=1/1,4;
 99/9=1/99;
 -------------------
 Title Card Required
 -------------------
 Symbolic Z-matrix:
 Charge =  0 Multiplicity = 1
 C                    -4.66507   1.2098    0.00338 
 C                    -3.27104   1.21453   0.00117 
 C                    -2.55307  -0.00001   0.00031 
 C                    -3.27098  -1.21456   0.00174 
 C                    -4.66502  -1.20987   0.00394 
 C                    -5.36791  -0.00006   0.00475 
 H                    -5.2052    2.15318   0.00403 
 H                    -2.72383   2.15282   0.00013 
 H                    -2.72376  -2.15284   0.00115 
 H                    -5.2051   -2.15329   0.00503 
 H                    -6.45477  -0.00007   0.00649 
 C                    -1.12781   0.00007  -0.00165 
 C                     0.08969   0.00021  -0.00373 
 C                     1.51441   0.0001   -0.00482 
 C                     2.23707  -1.21051  -0.00763 
 C                     2.23721   1.21063  -0.00707 
 C                     3.62986  -1.20275  -0.01073 
 H                     1.69516  -2.15197  -0.01091 
 C                     3.63      1.20271  -0.01015 
 H                     1.69543   2.15216  -0.00987 
 C                     4.35307  -0.00006  -0.00902 
 H                     4.16693  -2.14909  -0.01605 
 H                     4.16718   2.149    -0.01504 
 C                     5.86338  -0.00014   0.02494 
 H                     6.23238   0.00013   1.05985 
 H                     6.27642  -0.88711  -0.46846 
 H                     6.27653   0.8865   -0.46895 
 

 GradGradGradGradGradGradGradGradGradGradGradGradGradGradGradGradGradGrad
 Berny optimization.
 Initialization pass.
                           ----------------------------
                           !    Initial Parameters    !
                           ! (Angstroms and Degrees)  !
 --------------------------                            --------------------------
 ! Name  Definition              Value          Derivative Info.                !
 --------------------------------------------------------------------------------
 ! R1    R(1,2)                  1.394          estimate D2E/DX2                !
 ! R2    R(1,6)                  1.3992         estimate D2E/DX2                !
 ! R3    R(1,7)                  1.0871         estimate D2E/DX2                !
 ! R4    R(2,3)                  1.4109         estimate D2E/DX2                !
 ! R5    R(2,8)                  1.0862         estimate D2E/DX2                !
 ! R6    R(3,4)                  1.4109         estimate D2E/DX2                !
 ! R7    R(3,12)                 1.4253         estimate D2E/DX2                !
 ! R8    R(4,5)                  1.3941         estimate D2E/DX2                !
 ! R9    R(4,9)                  1.0862         estimate D2E/DX2                !
 ! R10   R(5,6)                  1.3992         estimate D2E/DX2                !
 ! R11   R(5,10)                 1.0871         estimate D2E/DX2                !
 ! R12   R(6,11)                 1.0869         estimate D2E/DX2                !
 ! R13   R(12,13)                1.2175         estimate D2E/DX2                !
 ! R14   R(13,14)                1.4247         estimate D2E/DX2                !
 ! R15   R(14,15)                1.4099         estimate D2E/DX2                !
 ! R16   R(14,16)                1.4099         estimate D2E/DX2                !
 ! R17   R(15,17)                1.3928         estimate D2E/DX2                !
 ! R18   R(15,18)                1.0863         estimate D2E/DX2                !
 ! R19   R(16,19)                1.3928         estimate D2E/DX2                !
 ! R20   R(16,20)                1.0863         estimate D2E/DX2                !
 ! R21   R(17,21)                1.4034         estimate D2E/DX2                !
 ! R22   R(17,22)                1.0881         estimate D2E/DX2                !
 ! R23   R(19,21)                1.4034         estimate D2E/DX2                !
 ! R24   R(19,23)                1.0881         estimate D2E/DX2                !
 ! R25   R(21,24)                1.5107         estimate D2E/DX2                !
 ! R26   R(24,25)                1.0987         estimate D2E/DX2                !
 ! R27   R(24,26)                1.0958         estimate D2E/DX2                !
 ! R28   R(24,27)                1.0958         estimate D2E/DX2                !
 ! A1    A(2,1,6)              120.3482         estimate D2E/DX2                !
 ! A2    A(2,1,7)              119.5986         estimate D2E/DX2                !
 ! A3    A(6,1,7)              120.0532         estimate D2E/DX2                !
 ! A4    A(1,2,3)              120.3947         estimate D2E/DX2                !
 ! A5    A(1,2,8)              120.4457         estimate D2E/DX2                !
 ! A6    A(3,2,8)              119.1596         estimate D2E/DX2                !
 ! A7    A(2,3,4)              118.8235         estimate D2E/DX2                !
 ! A8    A(2,3,12)             120.5863         estimate D2E/DX2                !
 ! A9    A(4,3,12)             120.5902         estimate D2E/DX2                !
 ! A10   A(3,4,5)              120.3948         estimate D2E/DX2                !
 ! A11   A(3,4,9)              119.1613         estimate D2E/DX2                !
 ! A12   A(5,4,9)              120.4439         estimate D2E/DX2                !
 ! A13   A(4,5,6)              120.3484         estimate D2E/DX2                !
 ! A14   A(4,5,10)             119.5973         estimate D2E/DX2                !
 ! A15   A(6,5,10)             120.0543         estimate D2E/DX2                !
 ! A16   A(1,6,5)              119.6905         estimate D2E/DX2                !
 ! A17   A(1,6,11)             120.1542         estimate D2E/DX2                !
 ! A18   A(5,6,11)             120.1553         estimate D2E/DX2                !
 ! A19   A(13,14,15)           120.8389         estimate D2E/DX2                !
 ! A20   A(13,14,16)           120.8369         estimate D2E/DX2                !
 ! A21   A(15,14,16)           118.3239         estimate D2E/DX2                !
 ! A22   A(14,15,17)           120.5155         estimate D2E/DX2                !
 ! A23   A(14,15,18)           119.2411         estimate D2E/DX2                !
 ! A24   A(17,15,18)           120.2431         estimate D2E/DX2                !
 ! A25   A(14,16,19)           120.5157         estimate D2E/DX2                !
 ! A26   A(14,16,20)           119.2418         estimate D2E/DX2                !
 ! A27   A(19,16,20)           120.2422         estimate D2E/DX2                !
 ! A28   A(15,17,21)           121.3386         estimate D2E/DX2                !
 ! A29   A(15,17,22)           119.2571         estimate D2E/DX2                !
 ! A30   A(21,17,22)           119.4043         estimate D2E/DX2                !
 ! A31   A(16,19,21)           121.3383         estimate D2E/DX2                !
 ! A32   A(16,19,23)           119.2569         estimate D2E/DX2                !
 ! A33   A(21,19,23)           119.4048         estimate D2E/DX2                !
 ! A34   A(17,21,19)           117.9674         estimate D2E/DX2                !
 ! A35   A(17,21,24)           121.0096         estimate D2E/DX2                !
 ! A36   A(19,21,24)           121.0086         estimate D2E/DX2                !
 ! A37   A(21,24,25)           110.9118         estimate D2E/DX2                !
 ! A38   A(21,24,26)           111.5162         estimate D2E/DX2                !
 ! A39   A(21,24,27)           111.5157         estimate D2E/DX2                !
 ! A40   A(25,24,26)           107.3213         estimate D2E/DX2                !
 ! A41   A(25,24,27)           107.3206         estimate D2E/DX2                !
 ! A42   A(26,24,27)           108.0519         estimate D2E/DX2                !
 ! A43   L(3,12,13,8,-1)       179.9961         estimate D2E/DX2                !
 ! A44   L(12,13,14,18,-1)     179.9889         estimate D2E/DX2                !
 ! A45   L(3,12,13,8,-2)       180.0243         estimate D2E/DX2                !
 ! A46   L(12,13,14,18,-2)     180.0675         estimate D2E/DX2                !
 ! D1    D(6,1,2,3)             -0.0003         estimate D2E/DX2                !
 ! D2    D(6,1,2,8)           -179.998          estimate D2E/DX2                !
 ! D3    D(7,1,2,3)            179.9994         estimate D2E/DX2                !
 ! D4    D(7,1,2,8)              0.0017         estimate D2E/DX2                !
 ! D5    D(2,1,6,5)              0.0015         estimate D2E/DX2                !
 ! D6    D(2,1,6,11)           179.9993         estimate D2E/DX2                !
 ! D7    D(7,1,6,5)           -179.9982         estimate D2E/DX2                !
 ! D8    D(7,1,6,11)            -0.0004         estimate D2E/DX2                !
 ! D9    D(1,2,3,4)             -0.0009         estimate D2E/DX2                !
 ! D10   D(1,2,3,12)          -179.9858         estimate D2E/DX2                !
 ! D11   D(8,2,3,4)            179.9967         estimate D2E/DX2                !
 ! D12   D(8,2,3,12)             0.0118         estimate D2E/DX2                !
 ! D13   D(2,3,4,5)              0.001          estimate D2E/DX2                !
 ! D14   D(2,3,4,9)           -179.9961         estimate D2E/DX2                !
 ! D15   D(12,3,4,5)           179.9859         estimate D2E/DX2                !
 ! D16   D(12,3,4,9)            -0.0112         estimate D2E/DX2                !
 ! D17   D(2,3,14,15)         -179.9079         estimate D2E/DX2                !
 ! D18   D(2,3,14,16)           -0.0613         estimate D2E/DX2                !
 ! D19   D(4,3,14,15)            0.1148         estimate D2E/DX2                !
 ! D20   D(4,3,14,16)          179.9614         estimate D2E/DX2                !
 ! D21   D(3,4,5,6)              0.0002         estimate D2E/DX2                !
 ! D22   D(3,4,5,10)          -179.9994         estimate D2E/DX2                !
 ! D23   D(9,4,5,6)            179.9973         estimate D2E/DX2                !
 ! D24   D(9,4,5,10)            -0.0023         estimate D2E/DX2                !
 ! D25   D(4,5,6,1)             -0.0014         estimate D2E/DX2                !
 ! D26   D(4,5,6,11)          -179.9992         estimate D2E/DX2                !
 ! D27   D(10,5,6,1)           179.9981         estimate D2E/DX2                !
 ! D28   D(10,5,6,11)            0.0003         estimate D2E/DX2                !
 ! D29   D(13,14,15,17)        179.9027         estimate D2E/DX2                !
 ! D30   D(13,14,15,18)          0.1166         estimate D2E/DX2                !
 ! D31   D(16,14,15,17)          0.0853         estimate D2E/DX2                !
 ! D32   D(16,14,15,18)       -179.7008         estimate D2E/DX2                !
 ! D33   D(13,14,16,19)       -179.9032         estimate D2E/DX2                !
 ! D34   D(13,14,16,20)         -0.1145         estimate D2E/DX2                !
 ! D35   D(15,14,16,19)         -0.0858         estimate D2E/DX2                !
 ! D36   D(15,14,16,20)        179.7029         estimate D2E/DX2                !
 ! D37   D(14,15,17,21)          0.1012         estimate D2E/DX2                !
 ! D38   D(14,15,17,22)       -179.8078         estimate D2E/DX2                !
 ! D39   D(18,15,17,21)        179.8851         estimate D2E/DX2                !
 ! D40   D(18,15,17,22)         -0.0238         estimate D2E/DX2                !
 ! D41   D(14,16,19,21)         -0.1001         estimate D2E/DX2                !
 ! D42   D(14,16,19,23)        179.8076         estimate D2E/DX2                !
 ! D43   D(20,16,19,21)       -179.8867         estimate D2E/DX2                !
 ! D44   D(20,16,19,23)          0.021          estimate D2E/DX2                !
 ! D45   D(15,17,21,19)         -0.2807         estimate D2E/DX2                !
 ! D46   D(15,17,21,24)        178.3476         estimate D2E/DX2                !
 ! D47   D(22,17,21,19)        179.6281         estimate D2E/DX2                !
 ! D48   D(22,17,21,24)         -1.7436         estimate D2E/DX2                !
 ! D49   D(16,19,21,17)          0.2802         estimate D2E/DX2                !
 ! D50   D(16,19,21,24)       -178.3481         estimate D2E/DX2                !
 ! D51   D(23,19,21,17)       -179.6274         estimate D2E/DX2                !
 ! D52   D(23,19,21,24)          1.7443         estimate D2E/DX2                !
 ! D53   D(17,21,24,25)        -89.3234         estimate D2E/DX2                !
 ! D54   D(17,21,24,26)         30.2301         estimate D2E/DX2                !
 ! D55   D(17,21,24,27)        151.1244         estimate D2E/DX2                !
 ! D56   D(19,21,24,25)         89.2631         estimate D2E/DX2                !
 ! D57   D(19,21,24,26)       -151.1835         estimate D2E/DX2                !
 ! D58   D(19,21,24,27)        -30.2891         estimate D2E/DX2                !
 --------------------------------------------------------------------------------
 Trust Radius=3.00D-01 FncErr=1.00D-07 GrdErr=1.00D-06 EigMax=2.50D+02 EigMin=1.00D-04
 Number of steps in this run=    142 maximum allowed number of steps=    162.
 GradGradGradGradGradGradGradGradGradGradGradGradGradGradGradGradGradGrad

                          Input orientation:                          
 ---------------------------------------------------------------------
 Center     Atomic      Atomic             Coordinates (Angstroms)
 Number     Number       Type             X           Y           Z
 ---------------------------------------------------------------------
      1          6           0       -4.665066    1.209796    0.003376
      2          6           0       -3.271045    1.214532    0.001169
      3          6           0       -2.553072   -0.000010    0.000307
      4          6           0       -3.270984   -1.214555    0.001737
      5          6           0       -4.665025   -1.209873    0.003940
      6          6           0       -5.367907   -0.000061    0.004754
      7          1           0       -5.205196    2.153176    0.004028
      8          1           0       -2.723831    2.152819    0.000130
      9          1           0       -2.723761   -2.152839    0.001147
     10          1           0       -5.205097   -2.153286    0.005033
     11          1           0       -6.454767   -0.000073    0.006485
     12          6           0       -1.127814    0.000065   -0.001645
     13          6           0        0.089694    0.000211   -0.003728
     14          6           0        1.514409    0.000103   -0.004820
     15          6           0        2.237067   -1.210508   -0.007634
     16          6           0        2.237209    1.210630   -0.007069
     17          6           0        3.629855   -1.202749   -0.010725
     18          1           0        1.695164   -2.151971   -0.010905
     19          6           0        3.630001    1.202714   -0.010153
     20          1           0        1.695428    2.152164   -0.009866
     21          6           0        4.353067   -0.000058   -0.009019
     22          1           0        4.166926   -2.149086   -0.016048
     23          1           0        4.167177    2.148996   -0.015038
     24          6           0        5.863382   -0.000142    0.024942
     25          1           0        6.232377    0.000134    1.059849
     26          1           0        6.276425   -0.887106   -0.468458
     27          1           0        6.276526    0.886502   -0.468953
 ---------------------------------------------------------------------
                    Distance matrix (angstroms):
                    1          2          3          4          5
     1  C    0.000000
     2  C    1.394031   0.000000
     3  C    2.433959   1.410886   0.000000
     4  C    2.796595   2.429087   1.410858   0.000000
     5  C    2.419669   2.796592   2.433953   1.394051   0.000000
     6  C    1.399193   2.423237   2.814839   2.423240   1.399174
     7  H    1.087063   2.149884   3.416136   3.883657   3.406154
     8  H    2.158170   1.086198   2.159591   3.411537   3.882776
     9  H    3.882780   3.411555   2.159585   1.086200   2.158170
    10  H    3.406165   3.883654   3.416117   2.149888   1.087063
    11  H    2.160283   3.407547   3.901700   3.407560   2.160278
    12  C    3.738399   2.463408   1.425259   2.463431   3.738428
    13  C    4.906209   3.573397   2.642769   3.573492   4.906293
    14  C    6.296772   4.937149   4.067484   4.937147   6.296787
    15  C    7.314194   6.018322   4.940729   5.508060   6.902102
    16  C    6.902283   5.508262   4.940900   6.018454   7.314355
    17  C    8.638651   7.312032   6.298832   6.900860   8.294896
    18  H    7.194040   5.999727   4.762202   5.053863   6.429601
    19  C    8.295081   6.901065   6.298972   7.312108   8.638763
    20  H    6.429939   5.054219   4.762532   6.000015   7.194362
    21  C    9.098935   7.720260   6.906145   7.720186   9.098890
    22  H    9.449156   8.163188   7.055294   7.496410   8.881772
    23  H    8.882058   7.496708   7.055509   8.163332   9.449347
    24  C   10.597765   9.214866   8.416490   9.214770  10.597700
    25  H   11.015157   9.639014   8.849110   9.638928  11.015100
    26  H   11.150599   9.787319   8.886321   9.564587  10.956398
    27  H   10.956553   9.564765   8.886389   9.787284  11.150603
                    6          7          8          9         10
     6  C    0.000000
     7  H    2.159376   0.000000
     8  H    3.409700   2.481368   0.000000
     9  H    3.409688   4.969838   4.305658   0.000000
    10  H    2.159371   4.306462   4.969834   2.481339   0.000000
    11  H    1.086861   2.489561   4.307536   4.307532   2.489579
    12  C    4.240098   4.610961   2.679855   2.679935   4.610987
    13  C    5.457608   5.715871   3.542550   3.542764   5.715981
    14  C    6.882323   7.056125   4.753619   4.753660   7.056128
    15  C    7.700712   8.167116   5.993541   5.049542   7.501653
    16  C    7.700890   7.501860   5.049722   5.993681   8.167251
    17  C    9.077798   9.450956   7.185352   6.424270   8.885952
    18  H    7.383626   8.133233   6.169186   4.418942   6.900280
    19  C    9.077953   8.886185   6.424483   7.185413   9.451028
    20  H    7.383968   6.900638   4.419270   6.169474   8.133533
    21  C    9.720984   9.797805   7.397124   7.397031   9.797708
    22  H    9.774036  10.312445   8.123372   6.890709   9.372048
    23  H    9.774286   9.372393   6.891026   8.123489  10.312592
    24  C   11.231307  11.276109   8.853027   8.852892  11.275977
    25  H   11.648168  11.686249   9.272040   9.271923  11.686131
    26  H   11.687654  11.886723   9.511326   9.100877  11.560828
    27  H   11.687738  11.561060   9.101100   9.511244  11.886658
                   11         12         13         14         15
    11  H    0.000000
    12  C    5.326959   0.000000
    13  C    6.544469   1.217510   0.000000
    14  C    7.969184   2.642225   1.424715   0.000000
    15  C    8.775724   3.576024   2.465171   1.409901   0.000000
    16  C    8.775901   3.576154   2.465146   1.409901   2.421138
    17  C   10.156098   4.907368   3.738971   2.433516   1.392813
    18  H    8.429255   3.549725   2.685046   2.159660   1.086288
    19  C   10.156255   4.907468   3.738961   2.433522   2.786380
    20  H    8.429595   3.549971   2.685018   2.159667   3.406015
    21  C   10.807845   5.480886   4.263376   2.838661   2.437755
    22  H   10.836933   5.714309   4.609062   3.413940   2.146009
    23  H   10.837189   5.714457   4.609042   3.413945   3.874487
    24  C   12.318163   6.991247   5.773759   4.349075   3.823115
    25  H   12.730797   7.436342   6.234080   4.836604   4.309023
    26  H   12.770891   7.471796   6.267292   4.866097   4.078402
    27  H   12.770978   7.471840   6.267283   4.866095   4.574658
                   16         17         18         19         20
    16  C    0.000000
    17  C    2.786373   0.000000
    18  H    3.406011   2.155006   0.000000
    19  C    1.392818   2.405463   3.872661   0.000000
    20  H    1.086288   3.872654   4.304135   2.155001   0.000000
    21  C    2.437750   1.403390   3.419822   1.403384   3.419811
    22  H    3.874478   1.088130   2.471769   3.394538   4.960755
    23  H    2.146013   3.394544   4.960764   1.088132   2.471756
    24  C    3.823104   2.536962   4.691023   2.536944   4.690999
    25  H    4.308710   3.060421   5.134625   3.059978   5.134144
    26  H    4.574783   2.704345   4.774640   3.403080   5.516611
    27  H    4.078539   3.402912   5.516430   2.704548   4.774842
                   21         22         23         24         25
    21  C    0.000000
    22  H    2.157086   0.000000
    23  H    2.157087   4.298082   0.000000
    24  C    1.510697   2.738175   2.738157   0.000000
    25  H    2.162009   3.169036   3.168287   1.098722   0.000000
    26  H    2.167313   2.499451   3.724571   1.095789   1.767727
    27  H    2.167308   3.724289   2.499857   1.095791   1.767720
                   26         27
    26  H    0.000000
    27  H    1.773608   0.000000
 Stoichiometry    C15H12
 Framework group  C1[X(C15H12)]
 Deg. of freedom    75
 Full point group                 C1      NOp   1
 Largest Abelian subgroup         C1      NOp   1
 Largest concise Abelian subgroup C1      NOp   1
                         Standard orientation:                         
 ---------------------------------------------------------------------
 Center     Atomic      Atomic             Coordinates (Angstroms)
 Number     Number       Type             X           Y           Z
 ---------------------------------------------------------------------
      1          6           0        4.665066   -1.209796    0.003376
      2          6           0        3.271045   -1.214532    0.001169
      3          6           0        2.553072    0.000010    0.000307
      4          6           0        3.270984    1.214555    0.001737
      5          6           0        4.665025    1.209873    0.003940
      6          6           0        5.367907    0.000061    0.004754
      7          1           0        5.205196   -2.153176    0.004028
      8          1           0        2.723831   -2.152819    0.000130
      9          1           0        2.723761    2.152839    0.001147
     10          1           0        5.205097    2.153286    0.005033
     11          1           0        6.454767    0.000073    0.006485
     12          6           0        1.127814   -0.000065   -0.001645
     13          6           0       -0.089694   -0.000211   -0.003728
     14          6           0       -1.514409   -0.000103   -0.004820
     15          6           0       -2.237067    1.210508   -0.007634
     16          6           0       -2.237209   -1.210630   -0.007069
     17          6           0       -3.629855    1.202749   -0.010725
     18          1           0       -1.695164    2.151971   -0.010905
     19          6           0       -3.630001   -1.202714   -0.010153
     20          1           0       -1.695428   -2.152164   -0.009866
     21          6           0       -4.353067    0.000058   -0.009019
     22          1           0       -4.166926    2.149086   -0.016048
     23          1           0       -4.167177   -2.148996   -0.015038
     24          6           0       -5.863382    0.000142    0.024942
     25          1           0       -6.232377   -0.000134    1.059849
     26          1           0       -6.276425    0.887106   -0.468458
     27          1           0       -6.276526   -0.886502   -0.468953
 ---------------------------------------------------------------------
 Rotational constants (GHZ):           2.7932871           0.1947962           0.1823060
 Standard basis: 6-31+G(d) (6D, 7F)
 There are   309 symmetry adapted cartesian basis functions of A   symmetry.
 There are   309 symmetry adapted basis functions of A   symmetry.
   309 basis functions,   528 primitive gaussians,   309 cartesian basis functions
    51 alpha electrons       51 beta electrons
       nuclear repulsion energy       782.0124556451 Hartrees.
 NAtoms=   27 NActive=   27 NUniq=   27 SFac= 1.00D+00 NAtFMM=   60 NAOKFM=F Big=F
 Integral buffers will be    131072 words long.
 Raffenetti 2 integral format.
 Two-electron integral symmetry is turned on.
 Nuclear repulsion after empirical dispersion term =      781.9953191788 Hartrees.
 One-electron integrals computed using PRISM.
 NBasis=   309 RedAO= T EigKep=  2.25D-06  NBF=   309
 NBsUse=   305 1.00D-06 EigRej=  5.84D-07 NBFU=   305
 ExpMin= 4.38D-02 ExpMax= 3.05D+03 ExpMxC= 4.57D+02 IAcc=3 IRadAn=         5 AccDes= 0.00D+00
 Harris functional with IExCor=  402 and IRadAn=       5 diagonalized for initial guess.
 HarFok:  IExCor=  402 AccDes= 0.00D+00 IRadAn=         5 IDoV= 1 UseB2=F ITyADJ=14
 ICtDFT=  3500011 ScaDFX=  1.000000  1.000000  1.000000  1.000000
 FoFCou: FMM=F IPFlag=           0 FMFlag=      100000 FMFlg1=           0
         NFxFlg=           0 DoJE=T BraDBF=F KetDBF=T FulRan=T
         wScrn=  0.000000 ICntrl=       500 IOpCl=  0 I1Cent=   200000004 NGrid=           0
         NMat0=    1 NMatS0=      1 NMatT0=    0 NMatD0=    1 NMtDS0=    0 NMtDT0=    0
 Petite list used in FoFCou.
 Requested convergence on RMS density matrix=1.00D-08 within 128 cycles.
 Requested convergence on MAX density matrix=1.00D-06.
 Requested convergence on             energy=1.00D-06.
 No special actions if energy rises.
 SCF Done:  E(RB3LYP) =  -578.818619396     A.U. after   14 cycles
            NFock= 14  Conv=0.43D-08     -V/T= 2.0101

 **********************************************************************

            Population analysis using the SCF Density.

 **********************************************************************

 Orbital symmetries:
       Occupied  (A) (A) (A) (A) (A) (A) (A) (A) (A) (A) (A) (A)
                 (A) (A) (A) (A) (A) (A) (A) (A) (A) (A) (A) (A)
                 (A) (A) (A) (A) (A) (A) (A) (A) (A) (A) (A) (A)
                 (A) (A) (A) (A) (A) (A) (A) (A) (A) (A) (A) (A)
                 (A) (A) (A)
       Virtual   (A) (A) (A) (A) (A) (A) (A) (A) (A) (A) (A) (A)
                 (A) (A) (A) (A) (A) (A) (A) (A) (A) (A) (A) (A)
                 (A) (A) (A) (A) (A) (A) (A) (A) (A) (A) (A) (A)
                 (A) (A) (A) (A) (A) (A) (A) (A) (A) (A) (A) (A)
                 (A) (A) (A) (A) (A) (A) (A) (A) (A) (A) (A) (A)
                 (A) (A) (A) (A) (A) (A) (A) (A) (A) (A) (A) (A)
                 (A) (A) (A) (A) (A) (A) (A) (A) (A) (A) (A) (A)
                 (A) (A) (A) (A) (A) (A) (A) (A) (A) (A) (A) (A)
                 (A) (A) (A) (A) (A) (A) (A) (A) (A) (A) (A) (A)
                 (A) (A) (A) (A) (A) (A) (A) (A) (A) (A) (A) (A)
                 (A) (A) (A) (A) (A) (A) (A) (A) (A) (A) (A) (A)
                 (A) (A) (A) (A) (A) (A) (A) (A) (A) (A) (A) (A)
                 (A) (A) (A) (A) (A) (A) (A) (A) (A) (A) (A) (A)
                 (A) (A) (A) (A) (A) (A) (A) (A) (A) (A) (A) (A)
                 (A) (A) (A) (A) (A) (A) (A) (A) (A) (A) (A) (A)
                 (A) (A) (A) (A) (A) (A) (A) (A) (A) (A) (A) (A)
                 (A) (A) (A) (A) (A) (A) (A) (A) (A) (A) (A) (A)
                 (A) (A) (A) (A) (A) (A) (A) (A) (A) (A) (A) (A)
                 (A) (A) (A) (A) (A) (A) (A) (A) (A) (A) (A) (A)
                 (A) (A) (A) (A) (A) (A) (A) (A) (A) (A) (A) (A)
                 (A) (A) (A) (A) (A) (A) (A) (A) (A) (A) (A) (A)
                 (A) (A)
 The electronic state is 1-A.
 Alpha  occ. eigenvalues --  -10.22349 -10.22076 -10.21053 -10.20372 -10.20372
 Alpha  occ. eigenvalues --  -10.20326 -10.20325 -10.20275 -10.20227 -10.20197
 Alpha  occ. eigenvalues --  -10.19898 -10.19897 -10.19599 -10.19368 -10.19323
 Alpha  occ. eigenvalues --   -0.87072  -0.86734  -0.80264  -0.78081  -0.75582
 Alpha  occ. eigenvalues --   -0.75493  -0.73462  -0.69368  -0.63020  -0.61726
 Alpha  occ. eigenvalues --   -0.61454  -0.60013  -0.55040  -0.53129  -0.48802
 Alpha  occ. eigenvalues --   -0.47493  -0.47010  -0.46149  -0.44376  -0.43223
 Alpha  occ. eigenvalues --   -0.43089  -0.42895  -0.42798  -0.39662  -0.38785
 Alpha  occ. eigenvalues --   -0.37314  -0.36718  -0.36089  -0.35725  -0.35077
 Alpha  occ. eigenvalues --   -0.31776  -0.27358  -0.27120  -0.26251  -0.26188
 Alpha  occ. eigenvalues --   -0.21492
 Alpha virt. eigenvalues --   -0.05604  -0.01904  -0.01708  -0.00565   0.00208
 Alpha virt. eigenvalues --    0.00793   0.01926   0.02005   0.02744   0.03578
 Alpha virt. eigenvalues --    0.04349   0.04610   0.04737   0.05017   0.05519
 Alpha virt. eigenvalues --    0.06126   0.06661   0.06879   0.07115   0.07778
 Alpha virt. eigenvalues --    0.08492   0.09143   0.09173   0.09409   0.09624
 Alpha virt. eigenvalues --    0.10246   0.10678   0.12084   0.12541   0.12800
 Alpha virt. eigenvalues --    0.13042   0.14391   0.14767   0.14841   0.15014
 Alpha virt. eigenvalues --    0.15291   0.15633   0.15783   0.16097   0.16164
 Alpha virt. eigenvalues --    0.17126   0.17532   0.17821   0.17985   0.19344
 Alpha virt. eigenvalues --    0.19593   0.19910   0.20350   0.20761   0.21149
 Alpha virt. eigenvalues --    0.21947   0.22174   0.22824   0.22967   0.23345
 Alpha virt. eigenvalues --    0.23390   0.24087   0.24399   0.24584   0.24659
 Alpha virt. eigenvalues --    0.25923   0.26496   0.26703   0.26982   0.27582
 Alpha virt. eigenvalues --    0.28201   0.28297   0.28749   0.29213   0.29892
 Alpha virt. eigenvalues --    0.30043   0.31163   0.32418   0.33470   0.33570
 Alpha virt. eigenvalues --    0.34272   0.34612   0.35489   0.35562   0.37395
 Alpha virt. eigenvalues --    0.37453   0.40056   0.40610   0.42161   0.43183
 Alpha virt. eigenvalues --    0.46103   0.49189   0.55564   0.58051   0.59673
 Alpha virt. eigenvalues --    0.59874   0.63978   0.65951   0.66594   0.66931
 Alpha virt. eigenvalues --    0.67300   0.68519   0.70049   0.70253   0.70988
 Alpha virt. eigenvalues --    0.71067   0.71663   0.71764   0.72013   0.73686
 Alpha virt. eigenvalues --    0.73926   0.74185   0.75539   0.75623   0.76046
 Alpha virt. eigenvalues --    0.76372   0.76421   0.77825   0.78516   0.79013
 Alpha virt. eigenvalues --    0.79973   0.81125   0.81186   0.82118   0.83327
 Alpha virt. eigenvalues --    0.84774   0.85962   0.86325   0.88231   0.90808
 Alpha virt. eigenvalues --    0.91668   0.93374   0.93882   0.96066   0.97070
 Alpha virt. eigenvalues --    0.98019   0.98038   0.99402   1.00193   1.01269
 Alpha virt. eigenvalues --    1.02769   1.04097   1.06547   1.08467   1.09896
 Alpha virt. eigenvalues --    1.11740   1.12540   1.13726   1.14528   1.17034
 Alpha virt. eigenvalues --    1.18031   1.19532   1.20221   1.23385   1.23953
 Alpha virt. eigenvalues --    1.24253   1.24259   1.25835   1.26564   1.29063
 Alpha virt. eigenvalues --    1.29516   1.33423   1.34959   1.36152   1.39501
 Alpha virt. eigenvalues --    1.41840   1.42997   1.43693   1.44492   1.45166
 Alpha virt. eigenvalues --    1.45335   1.46748   1.48067   1.48326   1.49969
 Alpha virt. eigenvalues --    1.50361   1.56047   1.56412   1.58241   1.60774
 Alpha virt. eigenvalues --    1.71605   1.76639   1.83602   1.83861   1.85795
 Alpha virt. eigenvalues --    1.87235   1.87485   1.90277   1.90671   1.91082
 Alpha virt. eigenvalues --    1.91360   1.92090   1.92862   1.95553   1.98761
 Alpha virt. eigenvalues --    1.99645   1.99780   2.06511   2.08783   2.08973
 Alpha virt. eigenvalues --    2.11432   2.12200   2.14028   2.14555   2.14622
 Alpha virt. eigenvalues --    2.16868   2.17384   2.21403   2.22029   2.24153
 Alpha virt. eigenvalues --    2.25625   2.27236   2.29536   2.30269   2.30959
 Alpha virt. eigenvalues --    2.35581   2.37053   2.37748   2.42334   2.47005
 Alpha virt. eigenvalues --    2.50830   2.53508   2.60307   2.60794   2.61377
 Alpha virt. eigenvalues --    2.63521   2.64290   2.65230   2.69333   2.74442
 Alpha virt. eigenvalues --    2.74552   2.75609   2.79380   2.81134   2.82053
 Alpha virt. eigenvalues --    2.91924   2.92293   2.93028   3.01471   3.06586
 Alpha virt. eigenvalues --    3.28712   3.33639   3.40566   3.60423   4.21646
 Alpha virt. eigenvalues --    4.23128   4.23819   4.24105   4.25192   4.27573
 Alpha virt. eigenvalues --    4.31175   4.36734   4.39921   4.40808   4.44026
 Alpha virt. eigenvalues --    4.56205   4.64411   4.77800   4.99434
          Condensed to atoms (all electrons):
               1          2          3          4          5          6
     1  C    8.519417  -6.301536   1.013718   3.882028  -1.495406   0.582403
     2  C   -6.301536  22.189831  -2.278943 -11.709342   3.881369  -0.395341
     3  C    1.013718  -2.278943   9.335139  -2.279681   1.013712   0.269451
     4  C    3.882028 -11.709342  -2.279681  22.190037  -6.299977  -0.395397
     5  C   -1.495406   3.881369   1.013712  -6.299977   8.517901   0.582442
     6  C    0.582403  -0.395341   0.269451  -0.395397   0.582442   5.411328
     7  H    0.294041  -0.027560   0.009798   0.003833   0.001371   0.016861
     8  H   -0.066808   0.319405  -0.021476   0.021175  -0.005404   0.006897
     9  H   -0.005401   0.021167  -0.021472   0.319438  -0.066842   0.006891
    10  H    0.001371   0.003831   0.009797  -0.027547   0.294029   0.016863
    11  H   -0.006156   0.010916   0.001277   0.010898  -0.006152   0.282022
    12  C   -0.291124   0.742246  -1.287667   0.742633  -0.291102  -0.199027
    13  C   -0.064987   0.014401  -0.272990   0.013564  -0.064587   0.025202
    14  C    0.109192  -0.231425   0.562546  -0.232292   0.109351  -0.014024
    15  C    0.081767  -0.397206  -0.218933   0.505108  -0.117630  -0.000021
    16  C   -0.117681   0.505144  -0.219108  -0.397234   0.081754  -0.000009
    17  C   -0.020885   0.084853   0.077232  -0.113722   0.028596   0.000691
    18  H   -0.000025   0.000143   0.001223   0.002080  -0.000017   0.000046
    19  C    0.028601  -0.113684   0.077169   0.084880  -0.020883   0.000692
    20  H   -0.000018   0.002081   0.001219   0.000140  -0.000025   0.000046
    21  C    0.001771   0.000660  -0.009796   0.000631   0.001773  -0.000377
    22  H   -0.000002  -0.000034  -0.000106   0.000095   0.000003   0.000000
    23  H    0.000003   0.000095  -0.000106  -0.000034  -0.000002   0.000000
    24  C    0.000137  -0.000309   0.002743  -0.000312   0.000137  -0.000030
    25  H    0.000000   0.000000   0.000000   0.000000   0.000000   0.000000
    26  H    0.000000   0.000000   0.000001   0.000000   0.000000   0.000000
    27  H    0.000000   0.000000   0.000001   0.000000   0.000000   0.000000
               7          8          9         10         11         12
     1  C    0.294041  -0.066808  -0.005401   0.001371  -0.006156  -0.291124
     2  C   -0.027560   0.319405   0.021167   0.003831   0.010916   0.742246
     3  C    0.009798  -0.021476  -0.021472   0.009797   0.001277  -1.287667
     4  C    0.003833   0.021175   0.319438  -0.027547   0.010898   0.742633
     5  C    0.001371  -0.005404  -0.066842   0.294029  -0.006152  -0.291102
     6  C    0.016861   0.006897   0.006891   0.016863   0.282022  -0.199027
     7  H    0.534945  -0.004634   0.000016  -0.000162  -0.004739  -0.005012
     8  H   -0.004634   0.530633  -0.000145   0.000016  -0.000143   0.024317
     9  H    0.000016  -0.000145   0.530638  -0.004634  -0.000143   0.024336
    10  H   -0.000162   0.000016  -0.004634   0.534945  -0.004739  -0.005011
    11  H   -0.004739  -0.000143  -0.000143  -0.004739   0.537236  -0.000749
    12  C   -0.005012   0.024317   0.024336  -0.005011  -0.000749   7.172900
    13  C   -0.000404   0.002903   0.002894  -0.000404   0.000193   0.290277
    14  C   -0.000130  -0.000241  -0.000243  -0.000130  -0.000034  -0.969534
    15  C   -0.000041   0.000300   0.001263   0.000111  -0.000001   0.167922
    16  C    0.000111   0.001262   0.000299  -0.000041  -0.000001   0.167175
    17  C   -0.000001  -0.000042   0.000046   0.000006   0.000000  -0.063625
    18  H    0.000000   0.000000   0.000002   0.000000   0.000000  -0.001075
    19  C    0.000006   0.000046  -0.000043  -0.000001   0.000000  -0.063227
    20  H    0.000000   0.000002   0.000000   0.000000   0.000000  -0.001075
    21  C    0.000000  -0.000016  -0.000016   0.000000   0.000000  -0.064530
    22  H    0.000000   0.000000   0.000000   0.000000   0.000000   0.001133
    23  H    0.000000   0.000000   0.000000   0.000000   0.000000   0.001134
    24  C    0.000000  -0.000002  -0.000002   0.000000   0.000000  -0.022430
    25  H    0.000000   0.000000   0.000000   0.000000   0.000000  -0.000018
    26  H    0.000000   0.000000   0.000000   0.000000   0.000000   0.000015
    27  H    0.000000   0.000000   0.000000   0.000000   0.000000   0.000015
              13         14         15         16         17         18
     1  C   -0.064987   0.109192   0.081767  -0.117681  -0.020885  -0.000025
     2  C    0.014401  -0.231425  -0.397206   0.505144   0.084853   0.000143
     3  C   -0.272990   0.562546  -0.218933  -0.219108   0.077232   0.001223
     4  C    0.013564  -0.232292   0.505108  -0.397234  -0.113722   0.002080
     5  C   -0.064587   0.109351  -0.117630   0.081754   0.028596  -0.000017
     6  C    0.025202  -0.014024  -0.000021  -0.000009   0.000691   0.000046
     7  H   -0.000404  -0.000130  -0.000041   0.000111  -0.000001   0.000000
     8  H    0.002903  -0.000241   0.000300   0.001262  -0.000042   0.000000
     9  H    0.002894  -0.000243   0.001263   0.000299   0.000046   0.000002
    10  H   -0.000404  -0.000130   0.000111  -0.000041   0.000006   0.000000
    11  H    0.000193  -0.000034  -0.000001  -0.000001   0.000000   0.000000
    12  C    0.290277  -0.969534   0.167922   0.167175  -0.063625  -0.001075
    13  C    5.949495   0.338301  -0.152574  -0.152790   0.053979   0.029547
    14  C    0.338301   6.771093  -0.506394  -0.506312   0.462292  -0.022265
    15  C   -0.152574  -0.506394  11.253828  -3.734297  -2.680180   0.354185
    16  C   -0.152790  -0.506312  -3.734297  11.255383   1.226626   0.022533
    17  C    0.053979   0.462292  -2.680180   1.226626   8.444350  -0.099108
    18  H    0.029547  -0.022265   0.354185   0.022533  -0.099108   0.529012
    19  C    0.054347   0.461886   1.226648  -2.680127  -1.160715  -0.007816
    20  H    0.029555  -0.022257   0.022544   0.354257  -0.007827  -0.000157
    21  C   -0.116028  -0.096232   0.278809   0.278329  -0.004362   0.002379
    22  H   -0.005436   0.031315  -0.078361  -0.001976   0.279153  -0.004376
    23  H   -0.005436   0.031325  -0.002001  -0.078500   0.043066   0.000017
    24  C    0.035215  -0.232144   0.037279   0.037398  -0.078043   0.001997
    25  H    0.000133  -0.000341   0.000639   0.000634  -0.014229   0.000001
    26  H    0.000362  -0.002123   0.007283  -0.006874  -0.009378  -0.000005
    27  H    0.000363  -0.002117  -0.006879   0.007276   0.024463   0.000002
              19         20         21         22         23         24
     1  C    0.028601  -0.000018   0.001771  -0.000002   0.000003   0.000137
     2  C   -0.113684   0.002081   0.000660  -0.000034   0.000095  -0.000309
     3  C    0.077169   0.001219  -0.009796  -0.000106  -0.000106   0.002743
     4  C    0.084880   0.000140   0.000631   0.000095  -0.000034  -0.000312
     5  C   -0.020883  -0.000025   0.001773   0.000003  -0.000002   0.000137
     6  C    0.000692   0.000046  -0.000377   0.000000   0.000000  -0.000030
     7  H    0.000006   0.000000   0.000000   0.000000   0.000000   0.000000
     8  H    0.000046   0.000002  -0.000016   0.000000   0.000000  -0.000002
     9  H   -0.000043   0.000000  -0.000016   0.000000   0.000000  -0.000002
    10  H   -0.000001   0.000000   0.000000   0.000000   0.000000   0.000000
    11  H    0.000000   0.000000   0.000000   0.000000   0.000000   0.000000
    12  C   -0.063227  -0.001075  -0.064530   0.001133   0.001134  -0.022430
    13  C    0.054347   0.029555  -0.116028  -0.005436  -0.005436   0.035215
    14  C    0.461886  -0.022257  -0.096232   0.031315   0.031325  -0.232144
    15  C    1.226648   0.022544   0.278809  -0.078361  -0.002001   0.037279
    16  C   -2.680127   0.354257   0.278329  -0.001976  -0.078500   0.037398
    17  C   -1.160715  -0.007827  -0.004362   0.279153   0.043066  -0.078043
    18  H   -0.007816  -0.000157   0.002379  -0.004376   0.000017   0.001997
    19  C    8.443495  -0.099200  -0.004347   0.042995   0.279228  -0.078652
    20  H   -0.099200   0.529017   0.002385   0.000017  -0.004377   0.001996
    21  C   -0.004347   0.002385   6.389333   0.035056   0.035045  -0.877720
    22  H    0.042995   0.000017   0.035056   0.545046  -0.000165  -0.024505
    23  H    0.279228  -0.004377   0.035045  -0.000165   0.545043  -0.024483
    24  C   -0.078652   0.001996  -0.877720  -0.024505  -0.024483   6.636214
    25  H   -0.014378   0.000001  -0.044468   0.000329   0.000330   0.402760
    26  H    0.024456   0.000002  -0.144237   0.002931   0.000067   0.468693
    27  H   -0.009339  -0.000005  -0.144220   0.000067   0.002926   0.468629
              25         26         27
     1  C    0.000000   0.000000   0.000000
     2  C    0.000000   0.000000   0.000000
     3  C    0.000000   0.000001   0.000001
     4  C    0.000000   0.000000   0.000000
     5  C    0.000000   0.000000   0.000000
     6  C    0.000000   0.000000   0.000000
     7  H    0.000000   0.000000   0.000000
     8  H    0.000000   0.000000   0.000000
     9  H    0.000000   0.000000   0.000000
    10  H    0.000000   0.000000   0.000000
    11  H    0.000000   0.000000   0.000000
    12  C   -0.000018   0.000015   0.000015
    13  C    0.000133   0.000362   0.000363
    14  C   -0.000341  -0.002123  -0.002117
    15  C    0.000639   0.007283  -0.006879
    16  C    0.000634  -0.006874   0.007276
    17  C   -0.014229  -0.009378   0.024463
    18  H    0.000001  -0.000005   0.000002
    19  C   -0.014378   0.024456  -0.009339
    20  H    0.000001   0.000002  -0.000005
    21  C   -0.044468  -0.144237  -0.144220
    22  H    0.000329   0.002931   0.000067
    23  H    0.000330   0.000067   0.002926
    24  C    0.402760   0.468693   0.468629
    25  H    0.498877  -0.029330  -0.029340
    26  H   -0.029330   0.504284  -0.025656
    27  H   -0.029340  -0.025656   0.504287
 Mulliken charges:
               1
     1  C   -0.144420
     2  C   -0.320762
     3  C    0.235252
     4  C   -0.321000
     5  C   -0.144411
     6  C   -0.197608
     7  H    0.181703
     8  H    0.191954
     9  H    0.191951
    10  H    0.181702
    11  H    0.180315
    12  C   -0.068896
    13  C   -0.005096
    14  C   -0.039063
    15  C   -0.043168
    16  C   -0.043228
    17  C   -0.473238
    18  H    0.191678
    19  C   -0.472036
    20  H    0.191676
    21  C    0.480175
    22  H    0.176822
    23  H    0.176824
    24  C   -0.754563
    25  H    0.228400
    26  H    0.209508
    27  H    0.209527
 Sum of Mulliken charges =   0.00000
 Mulliken charges with hydrogens summed into heavy atoms:
               1
     1  C    0.037283
     2  C   -0.128808
     3  C    0.235252
     4  C   -0.129049
     5  C    0.037292
     6  C   -0.017293
    12  C   -0.068896
    13  C   -0.005096
    14  C   -0.039063
    15  C    0.148510
    16  C    0.148448
    17  C   -0.296416
    19  C   -0.295212
    21  C    0.480175
    24  C   -0.107128
 Electronic spatial extent (au):  <R**2>=           5681.6641
 Charge=              0.0000 electrons
 Dipole moment (field-independent basis, Debye):
    X=             -0.6841    Y=              0.0001    Z=              0.0475  Tot=              0.6857
 Quadrupole moment (field-independent basis, Debye-Ang):
   XX=            -68.6870   YY=            -79.2745   ZZ=            -95.6050
   XY=              0.0004   XZ=             -0.2356   YZ=              0.0001
 Traceless Quadrupole moment (field-independent basis, Debye-Ang):
   XX=             12.5018   YY=              1.9143   ZZ=            -14.4162
   XY=              0.0004   XZ=             -0.2356   YZ=              0.0001
 Octapole moment (field-independent basis, Debye-Ang**2):
  XXX=             -2.9687  YYY=              0.0013  ZZZ=              0.7872  XYY=              3.1123
  XXY=             -0.0017  XXZ=              1.4407  XZZ=             -8.9105  YZZ=             -0.0002
  YYZ=             -0.6265  XYZ=              0.0131
 Hexadecapole moment (field-independent basis, Debye-Ang**3):
 XXXX=          -6555.6931 YYYY=           -579.6044 ZZZZ=           -125.3843 XXXY=              0.0061
 XXXZ=             -5.7239 YYYX=              0.0009 YYYZ=              0.0001 ZZZX=             -4.8492
 ZZZY=              0.0004 XXYY=          -1209.7177 XXZZ=          -1348.4854 YYZZ=           -139.7893
 XXYZ=              0.0190 YYXZ=              3.8845 ZZXY=              0.0020
 N-N= 7.819953191788D+02 E-N=-2.902551282284D+03  KE= 5.730380034901D+02
 Evaluate density.
 Using the total density.
 Monte-Carlo method of calculating molar volume:
 based on  0.001 e/bohr**3 density envelope.
 Number of points per bohr**3 =   20 CutOff= 1.00D-04
 Using the SCF density.
 There are       398 points.  Will hold       398 in memory.
 LenV=  4026311476 MDV=  4026531840.
 Box volume = 7899.394 fraction occupied=0.236
 Integrated density= 5.5504335962466193D+01 error=-4.6495664037533807D+01
 Molar volume = 1865.686 bohr**3/mol (166.492 cm**3/mol)
 Recommended a0 for SCRF calculation =  4.95 angstrom (  9.35 bohr)
 Calling FoFJK, ICntrl=      2127 FMM=F ISym2X=0 I1Cent= 0 IOpClX= 0 NMat=1 NMatS=1 NMatT=0.
 ***** Axes restored to original set *****
 -------------------------------------------------------------------
 Center     Atomic                   Forces (Hartrees/Bohr)
 Number     Number              X              Y              Z
 -------------------------------------------------------------------
      1        6          -0.000053983    0.000000116   -0.000002339
      2        6           0.000098571    0.000010506   -0.000001306
      3        6          -0.000119572    0.000016336    0.000012212
      4        6           0.000084769   -0.000024385   -0.000001426
      5        6          -0.000040200   -0.000007535   -0.000002286
      6        6           0.000011398    0.000007414    0.000001779
      7        1           0.000002085    0.000005541   -0.000000627
      8        1          -0.000009400   -0.000001695   -0.000000206
      9        1          -0.000007827    0.000003555   -0.000000536
     10        1           0.000000912   -0.000004617   -0.000000565
     11        1           0.000005590   -0.000000699   -0.000000036
     12        6          -0.000063708    0.000000114   -0.000005553
     13        6          -0.000006051   -0.000012873   -0.000008047
     14        6           0.000152222    0.000008425    0.000009297
     15        6          -0.000089747   -0.000013099   -0.000000037
     16        6          -0.000079143    0.000013760    0.000002969
     17        6           0.000045737   -0.000013577   -0.000002860
     18        1           0.000008555    0.000000646   -0.000001094
     19        6           0.000037792    0.000018717   -0.000005143
     20        1           0.000007178   -0.000000941   -0.000002606
     21        6           0.000055496   -0.000005092    0.000001226
     22        1          -0.000013379   -0.000004567    0.000004294
     23        1          -0.000013127    0.000003524    0.000005030
     24        6          -0.000041823    0.000000081   -0.000017741
     25        1           0.000026836   -0.000000025    0.000012491
     26        1           0.000000199    0.000006121    0.000001579
     27        1           0.000000619   -0.000005753    0.000001529
 -------------------------------------------------------------------
 Cartesian Forces:  Max     0.000152222 RMS     0.000033428

 GradGradGradGradGradGradGradGradGradGradGradGradGradGradGradGradGradGrad
 Berny optimization.
 FormGI is forming the generalized inverse of G from B-inverse, IUseBI=4.
 Internal  Forces:  Max     0.000097409 RMS     0.000017888
 Search for a local minimum.
 Step number   1 out of a maximum of  142
 All quantities printed in internal units (Hartrees-Bohrs-Radians)
 Mixed Optimization -- En-DIIS/RFO-DIIS
 Second derivative matrix not updated -- first step.
 ITU=  0
     Eigenvalues ---    0.00230   0.00624   0.01020   0.01389   0.01475
     Eigenvalues ---    0.01762   0.01876   0.01969   0.01983   0.02044
     Eigenvalues ---    0.02052   0.02060   0.02063   0.02090   0.02100
     Eigenvalues ---    0.02100   0.02106   0.02119   0.02126   0.02127
     Eigenvalues ---    0.02135   0.02140   0.03782   0.04503   0.07033
     Eigenvalues ---    0.07151   0.16000   0.16000   0.16000   0.16000
     Eigenvalues ---    0.16000   0.16000   0.16000   0.16000   0.16000
     Eigenvalues ---    0.16000   0.16000   0.16000   0.22000   0.22000
     Eigenvalues ---    0.22000   0.22955   0.23471   0.23998   0.24992
     Eigenvalues ---    0.25000   0.25000   0.31281   0.33824   0.34152
     Eigenvalues ---    0.34152   0.35029   0.35030   0.35154   0.35154
     Eigenvalues ---    0.35178   0.35245   0.35245   0.35256   0.35256
     Eigenvalues ---    0.40834   0.40974   0.41404   0.41455   0.41678
     Eigenvalues ---    0.41758   0.44479   0.44547   0.44605   0.44992
     Eigenvalues ---    0.45689   0.45978   0.46623   0.46832   0.96495
 RFO step:  Lambda=-1.59738104D-07 EMin= 2.30000000D-03
 Linear search not attempted -- first point.
 Iteration  1 RMS(Cart)=  0.00108317 RMS(Int)=  0.00000022
 Iteration  2 RMS(Cart)=  0.00000062 RMS(Int)=  0.00000001
 Variable       Old X    -DE/DX   Delta X   Delta X   Delta X     New X
                                 (Linear)    (Quad)   (Total)
    R1        2.63434   0.00004   0.00000   0.00009   0.00009   2.63443
    R2        2.64409   0.00001   0.00000   0.00001   0.00001   2.64411
    R3        2.05425   0.00000   0.00000   0.00001   0.00001   2.05426
    R4        2.66619  -0.00002   0.00000  -0.00005  -0.00005   2.66613
    R5        2.05262  -0.00001   0.00000  -0.00002  -0.00002   2.05260
    R6        2.66613  -0.00001   0.00000  -0.00003  -0.00003   2.66611
    R7        2.69335   0.00003   0.00000   0.00007   0.00007   2.69342
    R8        2.63437   0.00003   0.00000   0.00007   0.00007   2.63444
    R9        2.05262  -0.00001   0.00000  -0.00002  -0.00002   2.05260
   R10        2.64406   0.00001   0.00000   0.00003   0.00003   2.64409
   R11        2.05425   0.00000   0.00000   0.00001   0.00001   2.05426
   R12        2.05387  -0.00001   0.00000  -0.00002  -0.00002   2.05385
   R13        2.30076   0.00009   0.00000   0.00009   0.00009   2.30085
   R14        2.69232   0.00010   0.00000   0.00023   0.00023   2.69256
   R15        2.66433  -0.00001   0.00000  -0.00003  -0.00003   2.66430
   R16        2.66433  -0.00001   0.00000  -0.00003  -0.00003   2.66430
   R17        2.63204   0.00005   0.00000   0.00011   0.00011   2.63215
   R18        2.05279   0.00000   0.00000  -0.00001  -0.00001   2.05277
   R19        2.63204   0.00005   0.00000   0.00010   0.00010   2.63214
   R20        2.05279   0.00000   0.00000  -0.00001  -0.00001   2.05277
   R21        2.65202   0.00003   0.00000   0.00008   0.00008   2.65210
   R22        2.05627   0.00000   0.00000  -0.00001  -0.00001   2.05626
   R23        2.65201   0.00004   0.00000   0.00009   0.00009   2.65210
   R24        2.05627   0.00000   0.00000  -0.00001  -0.00001   2.05626
   R25        2.85480  -0.00001   0.00000  -0.00005  -0.00005   2.85476
   R26        2.07628   0.00002   0.00000   0.00006   0.00006   2.07634
   R27        2.07074  -0.00001   0.00000  -0.00002  -0.00002   2.07072
   R28        2.07074  -0.00001   0.00000  -0.00001  -0.00001   2.07073
    A1        2.10047  -0.00001   0.00000  -0.00003  -0.00003   2.10044
    A2        2.08739   0.00000   0.00000  -0.00001  -0.00001   2.08738
    A3        2.09532   0.00001   0.00000   0.00005   0.00005   2.09537
    A4        2.10128  -0.00002   0.00000  -0.00011  -0.00011   2.10118
    A5        2.10217   0.00000   0.00000   0.00001   0.00001   2.10218
    A6        2.07973   0.00002   0.00000   0.00010   0.00010   2.07983
    A7        2.07386   0.00005   0.00000   0.00019   0.00019   2.07406
    A8        2.10463  -0.00002   0.00000  -0.00008  -0.00008   2.10455
    A9        2.10470  -0.00003   0.00000  -0.00012  -0.00012   2.10458
   A10        2.10128  -0.00002   0.00000  -0.00011  -0.00011   2.10118
   A11        2.07976   0.00002   0.00000   0.00008   0.00008   2.07984
   A12        2.10214   0.00001   0.00000   0.00002   0.00002   2.10216
   A13        2.10048  -0.00001   0.00000  -0.00003  -0.00003   2.10044
   A14        2.08737   0.00000   0.00000   0.00000   0.00000   2.08736
   A15        2.09534   0.00001   0.00000   0.00004   0.00004   2.09538
   A16        2.08899   0.00002   0.00000   0.00008   0.00008   2.08908
   A17        2.09709  -0.00001   0.00000  -0.00004  -0.00004   2.09705
   A18        2.09711  -0.00001   0.00000  -0.00005  -0.00005   2.09706
   A19        2.10904  -0.00002   0.00000  -0.00007  -0.00007   2.10896
   A20        2.10900  -0.00001   0.00000  -0.00003  -0.00003   2.10897
   A21        2.06514   0.00003   0.00000   0.00011   0.00011   2.06525
   A22        2.10339  -0.00001   0.00000  -0.00005  -0.00005   2.10334
   A23        2.08115   0.00001   0.00000   0.00007   0.00007   2.08122
   A24        2.09864   0.00000   0.00000  -0.00002  -0.00002   2.09862
   A25        2.10340  -0.00001   0.00000  -0.00005  -0.00005   2.10334
   A26        2.08116   0.00001   0.00000   0.00006   0.00006   2.08122
   A27        2.09862   0.00000   0.00000  -0.00001  -0.00001   2.09861
   A28        2.11776   0.00000   0.00000   0.00001   0.00001   2.11777
   A29        2.08143  -0.00001   0.00000  -0.00010  -0.00010   2.08133
   A30        2.08400   0.00001   0.00000   0.00008   0.00008   2.08408
   A31        2.11775   0.00000   0.00000   0.00002   0.00002   2.11777
   A32        2.08143  -0.00001   0.00000  -0.00009  -0.00009   2.08133
   A33        2.08401   0.00001   0.00000   0.00008   0.00008   2.08408
   A34        2.05892  -0.00001   0.00000  -0.00003  -0.00003   2.05889
   A35        2.11202   0.00001   0.00000   0.00002   0.00002   2.11204
   A36        2.11200   0.00001   0.00000   0.00002   0.00002   2.11202
   A37        1.93578   0.00003   0.00000   0.00022   0.00022   1.93600
   A38        1.94632   0.00000   0.00000  -0.00003  -0.00003   1.94629
   A39        1.94632   0.00000   0.00000  -0.00003  -0.00003   1.94629
   A40        1.87311  -0.00001   0.00000  -0.00005  -0.00005   1.87306
   A41        1.87310  -0.00001   0.00000  -0.00005  -0.00005   1.87305
   A42        1.88586   0.00000   0.00000  -0.00007  -0.00007   1.88579
   A43        3.14153   0.00000   0.00000  -0.00004  -0.00004   3.14149
   A44        3.14140   0.00001   0.00000   0.00071   0.00071   3.14211
   A45        3.14202   0.00000   0.00000   0.00009   0.00009   3.14211
   A46        3.14277   0.00000   0.00000  -0.00035  -0.00035   3.14243
    D1       -0.00001   0.00000   0.00000   0.00000   0.00000  -0.00001
    D2       -3.14156   0.00000   0.00000  -0.00005  -0.00005   3.14158
    D3        3.14158   0.00000   0.00000   0.00001   0.00001  -3.14159
    D4        0.00003   0.00000   0.00000  -0.00003  -0.00003   0.00000
    D5        0.00003   0.00000   0.00000  -0.00005  -0.00005  -0.00002
    D6        3.14158   0.00000   0.00000   0.00001   0.00001   3.14159
    D7       -3.14156   0.00000   0.00000  -0.00007  -0.00007   3.14156
    D8       -0.00001   0.00000   0.00000  -0.00001  -0.00001  -0.00001
    D9       -0.00002   0.00000   0.00000   0.00006   0.00006   0.00004
   D10       -3.14135   0.00000   0.00000  -0.00022  -0.00022  -3.14157
   D11        3.14154   0.00000   0.00000   0.00010   0.00010  -3.14155
   D12        0.00021   0.00000   0.00000  -0.00018  -0.00018   0.00003
   D13        0.00002   0.00000   0.00000  -0.00006  -0.00006  -0.00004
   D14       -3.14153   0.00000   0.00000  -0.00011  -0.00011   3.14155
   D15        3.14135   0.00000   0.00000   0.00022   0.00022   3.14157
   D16       -0.00020   0.00000   0.00000   0.00017   0.00017  -0.00003
   D17       -3.13999   0.00000   0.00000   0.00038   0.00038  -3.13961
   D18       -0.00107   0.00000   0.00000  -0.00019  -0.00019  -0.00126
   D19        0.00200   0.00000   0.00000  -0.00008  -0.00008   0.00192
   D20        3.14092  -0.00001   0.00000  -0.00065  -0.00065   3.14027
   D21        0.00000   0.00000   0.00000   0.00001   0.00001   0.00001
   D22       -3.14158   0.00000   0.00000  -0.00001  -0.00001   3.14159
   D23        3.14155   0.00000   0.00000   0.00006   0.00006  -3.14158
   D24       -0.00004   0.00000   0.00000   0.00004   0.00004   0.00000
   D25       -0.00003   0.00000   0.00000   0.00005   0.00005   0.00002
   D26       -3.14158   0.00000   0.00000  -0.00001  -0.00001  -3.14159
   D27        3.14156   0.00000   0.00000   0.00007   0.00007  -3.14156
   D28        0.00001   0.00000   0.00000   0.00001   0.00001   0.00001
   D29        3.13989  -0.00001   0.00000  -0.00044  -0.00044   3.13945
   D30        0.00203   0.00000   0.00000  -0.00026  -0.00026   0.00177
   D31        0.00149   0.00000   0.00000  -0.00012  -0.00012   0.00136
   D32       -3.13637   0.00000   0.00000   0.00005   0.00005  -3.13632
   D33       -3.13990   0.00001   0.00000   0.00045   0.00045  -3.13945
   D34       -0.00200   0.00000   0.00000   0.00023   0.00023  -0.00177
   D35       -0.00150   0.00000   0.00000   0.00014   0.00014  -0.00136
   D36        3.13641   0.00000   0.00000  -0.00008  -0.00008   3.13632
   D37        0.00177   0.00000   0.00000  -0.00003  -0.00003   0.00174
   D38       -3.13824   0.00000   0.00000   0.00010   0.00010  -3.13813
   D39        3.13959   0.00000   0.00000  -0.00021  -0.00021   3.13938
   D40       -0.00042   0.00000   0.00000  -0.00007  -0.00007  -0.00049
   D41       -0.00175   0.00000   0.00000   0.00000   0.00000  -0.00175
   D42        3.13823   0.00000   0.00000  -0.00011  -0.00011   3.13813
   D43       -3.13962   0.00000   0.00000   0.00023   0.00023  -3.13939
   D44        0.00037   0.00000   0.00000   0.00012   0.00012   0.00048
   D45       -0.00490   0.00000   0.00000   0.00017   0.00017  -0.00473
   D46        3.11275   0.00001   0.00000   0.00051   0.00051   3.11326
   D47        3.13510   0.00000   0.00000   0.00003   0.00003   3.13514
   D48       -0.03043   0.00001   0.00000   0.00037   0.00037  -0.03006
   D49        0.00489   0.00000   0.00000  -0.00015  -0.00015   0.00474
   D50       -3.11276  -0.00001   0.00000  -0.00049  -0.00049  -3.11325
   D51       -3.13509   0.00000   0.00000  -0.00004  -0.00004  -3.13513
   D52        0.03044  -0.00001   0.00000  -0.00038  -0.00038   0.03006
   D53       -1.55899   0.00000   0.00000  -0.00017  -0.00017  -1.55915
   D54        0.52761   0.00000   0.00000  -0.00010  -0.00010   0.52751
   D55        2.63762  -0.00001   0.00000  -0.00023  -0.00023   2.63739
   D56        1.55793   0.00000   0.00000   0.00018   0.00018   1.55812
   D57       -2.63865   0.00001   0.00000   0.00025   0.00025  -2.63840
   D58       -0.52864   0.00000   0.00000   0.00012   0.00012  -0.52853
         Item               Value     Threshold  Converged?
 Maximum Force            0.000097     0.000450     YES
 RMS     Force            0.000018     0.000300     YES
 Maximum Displacement     0.003138     0.001800     NO 
 RMS     Displacement     0.001083     0.001200     YES
 Predicted change in Energy=-7.986781D-08
 GradGradGradGradGradGradGradGradGradGradGradGradGradGradGradGradGradGrad

                          Input orientation:                          
 ---------------------------------------------------------------------
 Center     Atomic      Atomic             Coordinates (Angstroms)
 Number     Number       Type             X           Y           Z
 ---------------------------------------------------------------------
      1          6           0       -4.664694    1.210209    0.002922
      2          6           0       -3.270623    1.214455    0.001428
      3          6           0       -2.553220   -0.000391    0.000875
      4          6           0       -3.271444   -1.214735    0.001808
      5          6           0       -4.665521   -1.209539    0.003300
      6          6           0       -5.367925    0.000570    0.003878
      7          1           0       -5.204483    2.153791    0.003331
      8          1           0       -2.723077    2.152538    0.000671
      9          1           0       -2.724552   -2.153200    0.001348
     10          1           0       -5.205941   -2.152760    0.004005
     11          1           0       -6.454777    0.000945    0.005045
     12          6           0       -1.127926   -0.000858   -0.000622
     13          6           0        0.089633   -0.001127   -0.002409
     14          6           0        1.514471   -0.000712   -0.003547
     15          6           0        2.237476   -1.211096   -0.006509
     16          6           0        2.236776    1.210093   -0.006087
     17          6           0        3.630318   -1.202854   -0.010173
     18          1           0        1.695920   -2.152751   -0.009608
     19          6           0        3.629623    1.202662   -0.009759
     20          1           0        1.694679    2.151437   -0.008855
     21          6           0        4.353152    0.000113   -0.008946
     22          1           0        4.167621   -2.149054   -0.015698
     23          1           0        4.166376    2.149176   -0.014961
     24          6           0        5.863471    0.000559    0.023741
     25          1           0        6.233577    0.001024    1.058286
     26          1           0        6.276374   -0.886260   -0.470016
     27          1           0        6.275857    0.887290   -0.470613
 ---------------------------------------------------------------------
                    Distance matrix (angstroms):
                    1          2          3          4          5
     1  C    0.000000
     2  C    1.394078   0.000000
     3  C    2.433902   1.410857   0.000000
     4  C    2.796695   2.429190   1.410843   0.000000
     5  C    2.419749   2.796693   2.433899   1.394088   0.000000
     6  C    1.399201   2.423262   2.814707   2.423263   1.399191
     7  H    1.087069   2.149923   3.416094   3.883762   3.406240
     8  H    2.158208   1.086189   2.159619   3.411632   3.882867
     9  H    3.882869   3.411641   2.159616   1.086189   2.158208
    10  H    3.406246   3.883761   3.416084   2.149924   1.087069
    11  H    2.160260   3.407559   3.901560   3.407565   2.160258
    12  C    3.738371   2.463359   1.425294   2.463366   3.738382
    13  C    4.906219   3.573370   2.642854   3.573471   4.906300
    14  C    6.296701   4.936981   4.067693   4.937495   6.297111
    15  C    7.314557   6.018514   4.941318   5.508927   6.903004
    16  C    6.901476   5.507406   4.940585   6.018334   7.314124
    17  C    8.638881   7.312079   6.299379   6.901782   8.295852
    18  H    7.194933   6.000395   4.763187   5.055166   6.430998
    19  C    8.294329   6.900265   6.298808   7.312227   8.638767
    20  H    6.428660   5.052946   4.761838   5.999467   7.193640
    21  C    9.098682   7.719888   6.906379   7.720779   9.099443
    22  H    9.449591   8.163391   7.055971   7.497529   8.882986
    23  H    8.880865   7.495527   7.055059   8.163170   9.449006
    24  C   10.597449   9.214430   8.416722   9.215427  10.598322
    25  H   11.015817   9.639460   8.850193   9.640521  11.016751
    26  H   11.150149   9.786747   8.886407   9.565111  10.956898
    27  H   10.955554   9.563741   8.886106   9.787372  11.150563
                    6          7          8          9         10
     6  C    0.000000
     7  H    2.159416   0.000000
     8  H    3.409721   2.481407   0.000000
     9  H    3.409714   4.969933   4.305738   0.000000
    10  H    2.159413   4.306551   4.969931   2.481391   0.000000
    11  H    1.086853   2.489576   4.307547   4.307544   2.489585
    12  C    4.240002   4.610948   2.679855   2.679887   4.610955
    13  C    5.457561   5.715887   3.542544   3.542748   5.716000
    14  C    6.882400   7.055938   4.753243   4.754213   7.056578
    15  C    7.701322   8.167331   5.993427   5.050677   7.502752
    16  C    7.700294   7.500866   5.048604   5.993878   8.167185
    17  C    9.078370   9.450976   7.185012   6.425547   8.887181
    18  H    7.384773   8.134004   6.169534   4.420485   6.901874
    19  C    9.077504   8.885169   6.423330   7.185921   9.451255
    20  H    7.382870   6.899173   4.417767   6.169247   8.132947
    21  C    9.721086   9.797288   7.396354   7.398023   9.798535
    22  H    9.774861  10.312670   8.123157   6.892195   9.373583
    23  H    9.773421   9.370878   6.889472   8.123767  10.312484
    24  C   11.231414  11.275479   8.852139   8.854000  11.276926
    25  H   11.649319  11.686597   9.271959   9.273935  11.688151
    26  H   11.687632  11.885960   9.510309   9.101867  11.561673
    27  H   11.687133  11.559708   9.099659   9.511818  11.886919
                   11         12         13         14         15
    11  H    0.000000
    12  C    5.326855   0.000000
    13  C    6.544414   1.217560   0.000000
    14  C    7.969253   2.642399   1.424839   0.000000
    15  C    8.776357   3.576400   2.465212   1.409884   0.000000
    16  C    8.775265   3.575983   2.465217   1.409886   2.421189
    17  C   10.156698   4.907725   3.739072   2.433515   1.392871
    18  H    8.430449   3.550328   2.685087   2.159683   1.086281
    19  C   10.155760   4.907424   3.739076   2.433519   2.786451
    20  H    8.428431   3.549583   2.685098   2.159687   3.406062
    21  C   10.807938   5.481084   4.263525   2.838686   2.437851
    22  H   10.837816   5.714699   4.609095   3.413902   2.145999
    23  H   10.836245   5.714236   4.609100   3.413905   3.874552
    24  C   12.318263   6.991440   5.773898   4.349086   3.823201
    25  H   12.731994   7.437272   6.234833   4.837092   4.309507
    26  H   12.770867   7.471809   6.267208   4.865954   4.078365
    27  H   12.770314   7.471660   6.267207   4.865953   4.574619
                   16         17         18         19         20
    16  C    0.000000
    17  C    2.786447   0.000000
    18  H    3.406061   2.155041   0.000000
    19  C    1.392871   2.405516   3.872725   0.000000
    20  H    1.086281   3.872721   4.304188   2.155036   0.000000
    21  C    2.437849   1.403431   3.419898   1.403432   3.419894
    22  H    3.874547   1.088126   2.471711   3.394624   4.960817
    23  H    2.145999   3.394626   4.960822   1.088127   2.471706
    24  C    3.823189   2.536992   4.691092   2.536977   4.691073
    25  H    4.309194   3.060701   5.135122   3.060267   5.134653
    26  H    4.574743   2.704312   4.774572   3.403047   5.516539
    27  H    4.078500   3.402879   5.516358   2.704516   4.774776
                   21         22         23         24         25
    21  C    0.000000
    22  H    2.157170   0.000000
    23  H    2.157173   4.298230   0.000000
    24  C    1.510673   2.738302   2.738281   0.000000
    25  H    2.162171   3.169298   3.168554   1.098754   0.000000
    26  H    2.167262   2.499578   3.724653   1.095780   1.767713
    27  H    2.167260   3.724378   2.499977   1.095783   1.767707
                   26         27
    26  H    0.000000
    27  H    1.773550   0.000000
 Stoichiometry    C15H12
 Framework group  C1[X(C15H12)]
 Deg. of freedom    75
 Full point group                 C1      NOp   1
 Largest Abelian subgroup         C1      NOp   1
 Largest concise Abelian subgroup C1      NOp   1
                         Standard orientation:                         
 ---------------------------------------------------------------------
 Center     Atomic      Atomic             Coordinates (Angstroms)
 Number     Number       Type             X           Y           Z
 ---------------------------------------------------------------------
      1          6           0        4.664700   -1.210280    0.002703
      2          6           0        3.270629   -1.214545    0.001209
      3          6           0        2.553210    0.000291    0.000656
      4          6           0        3.271417    1.214645    0.001589
      5          6           0        4.665494    1.209468    0.003081
      6          6           0        5.367915   -0.000631    0.003659
      7          1           0        5.204502   -2.153855    0.003112
      8          1           0        2.723097   -2.152636    0.000452
      9          1           0        2.724512    2.153102    0.001129
     10          1           0        5.205901    2.152696    0.003786
     11          1           0        6.454767   -0.000991    0.004826
     12          6           0        1.127916    0.000739   -0.000841
     13          6           0       -0.089643    0.000992   -0.002628
     14          6           0       -1.514481    0.000557   -0.003766
     15          6           0       -2.237502    1.210930   -0.006729
     16          6           0       -2.236770   -1.210258   -0.006306
     17          6           0       -3.630344    1.202670   -0.010392
     18          1           0       -1.695959    2.152593   -0.009827
     19          6           0       -3.629616   -1.202846   -0.009978
     20          1           0       -1.694660   -2.151595   -0.009074
     21          6           0       -4.353162   -0.000307   -0.009165
     22          1           0       -4.167660    2.148862   -0.015917
     23          1           0       -4.166357   -2.149367   -0.015180
     24          6           0       -5.863481   -0.000774    0.023522
     25          1           0       -6.233587   -0.001244    1.058067
     26          1           0       -6.276396    0.886040   -0.470235
     27          1           0       -6.275855   -0.887510   -0.470832
 ---------------------------------------------------------------------
 Rotational constants (GHZ):           2.7931663           0.1947913           0.1823009
 Standard basis: 6-31+G(d) (6D, 7F)
 There are   309 symmetry adapted cartesian basis functions of A   symmetry.
 There are   309 symmetry adapted basis functions of A   symmetry.
   309 basis functions,   528 primitive gaussians,   309 cartesian basis functions
    51 alpha electrons       51 beta electrons
       nuclear repulsion energy       782.0007220451 Hartrees.
 NAtoms=   27 NActive=   27 NUniq=   27 SFac= 1.00D+00 NAtFMM=   60 NAOKFM=F Big=F
 Integral buffers will be    131072 words long.
 Raffenetti 2 integral format.
 Two-electron integral symmetry is turned on.
 Nuclear repulsion after empirical dispersion term =      781.9835858668 Hartrees.
 One-electron integrals computed using PRISM.
 NBasis=   309 RedAO= T EigKep=  2.26D-06  NBF=   309
 NBsUse=   305 1.00D-06 EigRej=  5.84D-07 NBFU=   305
 Initial guess from the checkpoint file:  "MOLECULE_21.chk"
 B after Tr=     0.000000    0.000000    0.000000
         Rot=    1.000000    0.000001   -0.000017   -0.000001 Ang=   0.00 deg.
 Requested convergence on RMS density matrix=1.00D-08 within 128 cycles.
 Requested convergence on MAX density matrix=1.00D-06.
 Requested convergence on             energy=1.00D-06.
 No special actions if energy rises.
 SCF Done:  E(RB3LYP) =  -578.818619467     A.U. after    9 cycles
            NFock=  9  Conv=0.10D-07     -V/T= 2.0101
 Calling FoFJK, ICntrl=      2127 FMM=F ISym2X=0 I1Cent= 0 IOpClX= 0 NMat=1 NMatS=1 NMatT=0.
 ***** Axes restored to original set *****
 -------------------------------------------------------------------
 Center     Atomic                   Forces (Hartrees/Bohr)
 Number     Number              X              Y              Z
 -------------------------------------------------------------------
      1        6          -0.000016237   -0.000006416    0.000000922
      2        6           0.000027097   -0.000001871    0.000001422
      3        6          -0.000037711   -0.000004656   -0.000005372
      4        6           0.000015711   -0.000003808    0.000001110
      5        6          -0.000009247    0.000001732    0.000000875
      6        6           0.000010183    0.000003946   -0.000001794
      7        1           0.000000296   -0.000001092    0.000000074
      8        1          -0.000002439   -0.000001913    0.000000963
      9        1          -0.000001467    0.000002882    0.000000897
     10        1          -0.000000741    0.000001507    0.000000114
     11        1          -0.000001428   -0.000000309    0.000000233
     12        6           0.000029361    0.000002467    0.000004764
     13        6          -0.000028190    0.000027280   -0.000008740
     14        6           0.000041090   -0.000021733    0.000000458
     15        6          -0.000020626    0.000005763    0.000000111
     16        6          -0.000022178   -0.000000293   -0.000000775
     17        6           0.000011248    0.000008530   -0.000002788
     18        1           0.000004187    0.000000241    0.000002274
     19        6           0.000005774   -0.000008691   -0.000002490
     20        1           0.000003170   -0.000000778    0.000002190
     21        6           0.000003915   -0.000003132   -0.000002025
     22        1          -0.000001929   -0.000000675    0.000002966
     23        1          -0.000002270    0.000000668    0.000003072
     24        6          -0.000015410    0.000000276    0.000003152
     25        1           0.000006202    0.000000025   -0.000001200
     26        1           0.000000801   -0.000001230   -0.000000250
     27        1           0.000000837    0.000001278   -0.000000163
 -------------------------------------------------------------------
 Cartesian Forces:  Max     0.000041090 RMS     0.000010743

 GradGradGradGradGradGradGradGradGradGradGradGradGradGradGradGradGradGrad
 Berny optimization.
 Using GEDIIS/GDIIS optimizer.
 FormGI is forming the generalized inverse of G from B-inverse, IUseBI=4.
 Internal  Forces:  Max     0.000039033 RMS     0.000005719
 Search for a local minimum.
 Step number   2 out of a maximum of  142
 All quantities printed in internal units (Hartrees-Bohrs-Radians)
 Mixed Optimization -- En-DIIS/RFO-DIIS
 Swapping is turned off.
 Update second derivatives using D2CorX and points    1    2
 DE= -7.10D-08 DEPred=-7.99D-08 R= 8.89D-01
 Trust test= 8.89D-01 RLast= 1.89D-03 DXMaxT set to 3.00D-01
 ITU=  0  0
     Eigenvalues ---    0.00229   0.00624   0.01028   0.01368   0.01396
     Eigenvalues ---    0.01700   0.01889   0.01969   0.02035   0.02044
     Eigenvalues ---    0.02052   0.02060   0.02067   0.02100   0.02100
     Eigenvalues ---    0.02106   0.02119   0.02125   0.02127   0.02135
     Eigenvalues ---    0.02140   0.02886   0.03786   0.04759   0.07011
     Eigenvalues ---    0.07149   0.14917   0.16000   0.16000   0.16000
     Eigenvalues ---    0.16000   0.16000   0.16000   0.16000   0.16000
     Eigenvalues ---    0.16000   0.16000   0.16050   0.21258   0.22000
     Eigenvalues ---    0.22011   0.22080   0.23111   0.23970   0.24992
     Eigenvalues ---    0.24998   0.25194   0.31142   0.33757   0.34152
     Eigenvalues ---    0.34169   0.35016   0.35030   0.35135   0.35154
     Eigenvalues ---    0.35162   0.35197   0.35245   0.35249   0.35256
     Eigenvalues ---    0.38075   0.40867   0.41186   0.41405   0.41460
[...]
 000162,0.00000920,-0.00002045,0.00000213,0.00002957,-0.00005890,-0.000
 00121,0.00001625,0.00003028,0.00000081,-0.00000991,0.00000050,-0.00000
 042,0.00000516,-0.00000198,0.,-0.00002602,0.00003955,0.00000016,-0.000
 00302,0.00000427,-0.00000015,0.00001086,0.00000361,0.00000003,0.000007
 06,0.00000394,-0.00000007,-0.00086497,0.00024721,0.00000742,0.00121280
 ,0.00047951,-0.00002692,0.01554642,-0.01898698,0.00005747,-0.00422684,
 -0.00289989,0.00003273,0.12072522,-0.27146220,0.00075931,-0.00078448,0
 .00027384,-0.00000102,0.00082232,-0.00104133,-0.00000648,-0.00226962,0
 .00424676,-0.00002941,-0.12974708,0.28655749,0.00000061,0.00000065,-0.
 00004475,0.00000282,0.00000314,0.00001415,-0.00000469,0.00000010,0.000
 17722,0.00000169,-0.00000148,-0.00002299,-0.00000002,-0.00000145,0.000
 00806,0.00000263,0.00000012,0.00000703,0.00000054,-0.00000046,0.000004
 49,-0.00000002,-0.00000033,0.00004270,-0.00000034,-0.00000015,0.000003
 98,0.00000039,0.00000041,0.00000345,0.00000037,-0.00000007,0.00000101,
 0.00000381,0.00000078,-0.00000593,-0.00000232,-0.00001831,-0.00359658,
 -0.00008441,-0.00001759,0.00351934,-0.00003290,0.00004027,0.00584062,-
 0.00024424,0.00085752,-0.03627876,0.00006019,0.00002270,-0.00061272,-0
 .00000776,0.00000619,0.00040152,-0.00001348,0.00003378,0.00341172,0.00
 031478,-0.00080309,0.02494176,-0.00013760,-0.00008419,0.00000539,0.000
 24619,-0.00025584,-0.00000772,-0.00096161,0.00000003,-0.00001898,0.000
 24621,0.00025583,-0.00000767,-0.00013759,0.00008420,0.00000536,0.00006
 769,0.,-0.00000307,-0.00000010,-0.00000054,0.00000042,-0.00000281,0.00
 001264,0.00000056,-0.00000281,-0.00001264,0.00000056,-0.00000010,0.000
 00054,0.00000041,0.00000239,0.,0.00000008,0.00302684,-0.00000013,0.000
 03504,-0.00486154,0.00000007,0.00011849,0.00610584,0.00000333,-0.00036
 326,-0.02785025,-0.02893943,-0.00031147,-0.02785769,0.02893569,-0.0003
 0562,-0.17222555,-0.11510982,-0.00023396,-0.00527115,0.00076987,0.0002
 0636,-0.17222445,0.11510562,-0.00021055,-0.00527104,-0.00077017,0.0002
 0619,0.63936650,0.00005176,0.00002009,0.00000090,-0.00005696,0.0000014
 6,-0.00000360,-0.00000009,0.00001818,0.,0.00005702,0.00000142,0.000003
 58,-0.00005178,0.00002004,-0.00000088,0.00000005,-0.00005527,0.,0.0000
 0115,0.00000119,0.00000011,0.00000004,-0.00000118,0.00000031,-0.000000
 05,-0.00000118,-0.00000032,-0.00000114,0.00000121,-0.00000011,0.,0.000
 00071,0.,0.00000002,0.00077738,0.00000006,0.00000033,-0.00113350,0.000
 00007,0.00000133,-0.06721545,-0.00000625,-0.07663164,0.03366173,0.0002
 4261,0.07662914,0.03366734,-0.00023700,-0.04762910,-0.26779430,-0.0015
 8171,0.00180665,0.00166268,0.00011401,0.04762913,-0.26778261,0.0015408
 1,-0.00180703,0.00166254,-0.00011515,0.00000869,0.66076837,-0.00002880
 ,0.00004376,0.00001970,0.00004309,0.00001968,0.00002354,-0.00010947,-0
 .00000002,-0.00021088,0.00004308,-0.00001968,0.00002360,-0.00002883,-0
 .00004375,0.00001968,0.00007866,0.,-0.00001299,0.00000957,-0.00000978,
 -0.00000169,-0.00000761,0.00000139,0.00000450,-0.00000760,-0.00000139,
 0.00000449,0.00000957,0.00000978,-0.00000169,0.00000942,0.,0.00000754,
 0.00001927,0.00000003,0.00047046,0.00014110,0.00000006,-0.00145412,0.0
 0020378,-0.00000613,-0.00534473,0.00022204,-0.00072826,0.00532354,0.00
 023720,0.00073388,0.00532410,-0.00052814,-0.00040670,-0.06535409,-0.00
 008878,-0.00002170,0.00747530,-0.00051830,0.00036568,-0.06535711,-0.00
 008915,0.00002052,0.00747600,0.00546292,0.00004992,0.16997541,0.000004
 23,-0.00000009,-0.00000120,-0.00006544,-0.00002171,0.00000178,0.000176
 18,-0.00009492,-0.00000448,-0.00011106,0.00004536,-0.00000035,0.000003
 66,-0.00001454,0.00000141,-0.00003861,0.00000037,0.00000012,-0.0000128
 1,0.00000654,0.00000003,0.00001463,-0.00001146,0.00000024,0.00001288,0
 .00000582,-0.00000040,-0.00001957,-0.00000793,0.00000013,-0.00000877,-
 0.00000055,-0.00000002,-0.00042177,-0.00003517,-0.00000326,-0.00035400
 ,0.00137392,0.00004450,-0.00500914,-0.00167701,0.00003403,-0.01160143,
 0.02955668,-0.00005287,-0.00065826,-0.00073978,-0.00002021,-0.12594952
 ,0.11767735,0.00102648,0.00054597,-0.00035883,-0.00001683,-0.00127559,
 -0.00331865,0.00004669,0.00007475,0.00010225,0.00000254,0.01051968,-0.
 01405715,-0.00001436,0.13268135,-0.00000461,0.00001263,0.00000077,0.00
 003347,0.00000562,-0.00000098,-0.00008301,-0.00001163,0.00000013,0.000
 03190,-0.00001305,0.00000068,-0.00000233,-0.00000998,-0.00000056,0.000
 03352,0.00000056,-0.00000015,0.00000651,-0.00000583,-0.00000002,-0.000
 00708,0.00000388,-0.00000009,-0.00000726,-0.00000195,0.00000017,0.0000
 0772,0.00000644,-0.00000003,0.00000677,0.00000004,0.,-0.00001342,-0.00
 003410,0.00000167,0.00000669,0.00006954,-0.00000972,-0.00091203,0.0019
 3717,-0.00004202,-0.00192826,0.00361074,0.00004357,-0.00090849,0.00015
 242,-0.00000856,0.11740929,-0.26756231,-0.00130719,0.00032948,0.000918
 19,0.00003605,-0.00421983,-0.00305530,-0.00008440,0.00011695,-0.000005
 53,0.00001424,0.01593378,-0.02010471,-0.00013917,-0.12646497,0.2840722
 6,-0.00000081,0.00000039,-0.00000642,0.00000189,-0.00000010,-0.0000153
 4,-0.00000653,0.00000043,-0.00001513,0.00000272,-0.00000002,0.00000478
 ,-0.00000035,-0.00000026,0.00000446,0.00000171,-0.00000018,-0.00000056
 ,0.00000037,-0.00000028,0.00000192,-0.00000035,0.00000021,0.00000404,-
 0.00000043,-0.00000026,0.00000336,0.00000043,0.00000030,0.00000152,0.0
 0000035,0.,0.00000109,0.00001185,0.00000410,-0.00015884,-0.00000662,-0
 .00001590,0.00046542,0.00004230,-0.00003008,0.00731424,-0.00003750,-0.
 00008281,0.00289344,0.00003427,0.00001378,-0.00060807,0.00078586,-0.00
 161387,-0.03640687,0.00000285,0.00001923,-0.00419086,-0.00007346,0.000
 15360,0.00621912,0.00000169,-0.00000651,-0.00105891,0.00069799,0.00002
 307,0.00365446,-0.00098196,0.00144457,0.02524005,0.00000365,0.00001454
 ,0.00000141,-0.00011106,-0.00004535,-0.00000035,0.00017618,0.00009491,
 -0.00000448,-0.00006544,0.00002172,0.00000176,0.00000423,0.00000008,-0
 .00000118,-0.00003860,-0.00000037,0.00000011,-0.00001957,0.00000793,0.
 00000012,0.00001288,-0.00000582,-0.00000040,0.00001463,0.00001146,0.00
 000024,-0.00001281,-0.00000653,0.00000003,-0.00000877,0.00000055,-0.00
 000002,-0.00042172,0.00003520,-0.00000319,-0.00035400,-0.00137398,0.00
 004421,-0.00500927,0.00167675,0.00003436,-0.00065829,0.00073978,-0.000
 02006,-0.01160049,-0.02955750,-0.00005886,-0.00127605,0.00331865,0.000
 04735,0.00007478,-0.00010225,0.00000252,-0.12594185,-0.11767083,0.0010
 0272,0.00054602,0.00035882,-0.00001677,0.01052189,0.01405895,-0.000011
 46,0.00062236,0.00081486,-0.00004235,0.13267061,0.00000233,-0.00000999
 ,0.00000056,-0.00003191,-0.00001305,-0.00000067,0.00008302,-0.00001163
 ,-0.00000013,-0.00003347,0.00000563,0.00000099,0.00000461,0.00001263,-
 0.00000077,-0.00003352,0.00000057,0.00000015,-0.00000772,0.00000645,0.
 00000003,0.00000726,-0.00000195,-0.00000017,0.00000708,0.00000388,0.00
 000009,-0.00000651,-0.00000583,0.00000002,-0.00000677,0.00000004,0.,0.
 00001340,-0.00003411,-0.00000164,-0.00000673,0.00006950,0.00000962,0.0
 0091175,0.00193715,0.00004093,0.00090832,0.00015253,0.00000875,0.00192
 782,0.00360965,-0.00004342,0.00421995,-0.00305483,0.00008250,-0.000116
 95,-0.00000554,-0.00001403,-0.11740410,-0.26757012,0.00126065,-0.00032
 948,0.00091823,-0.00003502,-0.01593332,-0.02010470,0.00013439,-0.00081
 470,-0.00115639,-0.00002591,0.12645951,0.28408086,-0.00000036,0.000000
 26,0.00000445,0.00000272,0.,0.00000479,-0.00000656,-0.00000042,-0.0000
 1512,0.00000189,0.00000011,-0.00001534,-0.00000081,-0.00000039,-0.0000
 0642,0.00000171,0.00000018,-0.00000056,0.00000042,-0.00000030,0.000001
 52,-0.00000043,0.00000026,0.00000336,-0.00000034,-0.00000021,0.0000040
 4,0.00000037,0.00000028,0.00000192,0.00000034,0.,0.00000109,0.00001191
 ,-0.00000409,-0.00015887,-0.00000667,0.00001583,0.00046542,0.00004251,
 0.00002902,0.00731459,0.00003447,-0.00001360,-0.00060806,-0.00003714,0
 .00008290,0.00289378,-0.00007262,-0.00015549,0.00621926,0.00000166,0.0
 0000672,-0.00105899,0.00076219,0.00156738,-0.03640700,0.00000278,-0.00
 001820,-0.00419116,0.00069482,-0.00002773,0.00365429,-0.00004251,0.000
 02563,0.00022053,-0.00095644,-0.00139248,0.02523936,0.00003260,0.00001
 771,0.00000046,-0.00005298,0.00005929,-0.00000122,0.00022063,-0.000000
 01,0.00000649,-0.00005299,-0.00005929,-0.00000123,0.00003260,-0.000017
 71,0.00000046,-0.00001373,0.,-0.00000057,0.00000260,-0.00000078,-0.000
 00012,-0.00000299,0.00000173,0.00000030,-0.00000299,-0.00000173,0.0000
 0030,0.00000260,0.00000078,-0.00000012,0.00000228,0.,0.00000028,-0.000
 64515,0.00000003,0.00003472,0.00112100,0.00000008,-0.00021659,-0.00195
 603,-0.00000239,0.00016495,0.00292565,-0.00128718,0.00045724,0.0029302
 1,0.00128960,0.00045749,-0.02217106,-0.00447299,-0.00048750,-0.0000604
 4,0.00017908,-0.00012780,-0.02217778,0.00447446,-0.00048664,-0.0000604
 7,-0.00017901,-0.00012783,-0.21181329,-0.00000636,-0.00299139,0.001050
 32,0.00151636,-0.00043772,0.00104963,-0.00151545,-0.00043806,0.4873149
 7,-0.00000859,0.00001090,-0.00000460,-0.00000030,-0.00001213,-0.000000
 46,0.00000036,-0.00001515,0.00000002,0.00000007,-0.00001213,0.00000045
 ,0.00000867,0.00001099,0.00000461,-0.00000012,0.00000142,0.,-0.0000007
 8,-0.00000098,-0.00000050,-0.00000507,0.00000415,0.00000139,0.00000509
 ,0.00000414,-0.00000139,0.00000075,-0.00000101,0.00000050,-0.00000001,
 -0.00000020,0.,-0.00000053,0.00003438,-0.00000002,0.00000067,0.0002248
 0,0.00000008,-0.00000175,-0.00049844,0.00000010,-0.00159554,-0.0048073
 4,-0.00115825,0.00159890,-0.00480928,0.00115602,-0.02938953,0.00344001
 ,-0.00153059,-0.00139084,0.00004541,0.00009315,0.02939045,0.00344347,0
 .00153032,0.00139119,0.00004548,-0.00009318,0.00000314,-0.08965332,-0.
 00000145,-0.00120942,0.00062350,0.00085276,0.00120793,0.00062472,-0.00
 085207,-0.00001575,0.58472366,0.00003152,-0.00003714,-0.00001011,-0.00
 009026,-0.00000543,-0.00000617,0.00026883,-0.00000001,0.00010150,-0.00
 009026,0.00000543,-0.00000618,0.00003153,0.00003714,-0.00001014,-0.000
 09956,0.,0.00000819,-0.00001279,0.00001295,0.00000149,0.00000918,-0.00
 000099,0.00000118,0.00000918,0.00000099,0.00000119,-0.00001279,-0.0000
 1295,0.00000150,-0.00001178,0.,-0.00000329,-0.00035356,0.00000003,-0.0
 0005205,0.00045028,0.00000009,-0.00072678,-0.00097704,-0.00000024,-0.0
 0102247,0.00120151,0.00045010,0.00649571,0.00120236,-0.00045207,0.0064
 9176,0.00031295,-0.00027685,0.00453295,0.00015960,0.00000284,0.0000350
 2,0.00031823,0.00027690,0.00452939,0.00015987,-0.00000283,0.00003510,0
 .00117559,-0.00000185,-0.07085053,-0.00023347,-0.00055845,-0.00327869,
 -0.00023327,0.00055931,-0.00327581,-0.01171755,0.00000310,0.53777410,0
 .00000481,-0.00003513,0.00000306,-0.00005606,-0.00003571,0.00000148,0.
 00012774,-0.00000001,0.00000575,-0.00005606,0.00003571,0.00000149,0.00
 000481,0.00003513,0.00000305,-0.00007403,0.,-0.00000112,-0.00001346,0.
 00001193,-0.00000088,0.00001081,-0.00000216,-0.00000304,0.00001081,0.0
 0000216,-0.00000304,-0.00001346,-0.00001193,-0.00000088,-0.00001182,0.
 ,-0.00000083,-0.00000564,0.,0.00001165,-0.00019886,0.00000006,-0.00014
 145,0.00004380,-0.00000026,-0.00025426,-0.00052086,0.00023233,0.001497
 20,-0.00052004,-0.00023326,0.00149660,-0.00022667,0.00133995,0.0004408
 3,-0.00010978,-0.00003888,-0.00003444,-0.00022307,-0.00133908,0.000441
 77,-0.00010948,0.00003890,-0.00003455,-0.01528306,-0.00001462,-0.03118
 385,0.00004466,-0.00036626,-0.00068355,0.00004483,0.00036700,-0.000683
 51,-0.07172393,-0.00003113,-0.08074821,0.08087548,0.00000113,-0.000001
 66,0.00000096,0.00000254,0.00000269,0.00000008,-0.00000008,0.00000445,
 0.00000001,-0.00000249,0.00000271,-0.00000007,-0.00000115,-0.00000166,
 -0.00000097,0.00000002,0.00000128,0.,0.00000068,-0.00000032,0.00000026
 ,-0.00000009,-0.00000094,0.00000007,0.00000009,-0.00000094,-0.00000007
 ,-0.00000067,-0.00000032,-0.00000026,0.,-0.00000011,0.,0.00000019,-0.0
 0003252,0.00000002,-0.00000034,0.00000761,-0.00000020,0.00000054,0.001
 15762,0.00000016,0.00114343,-0.00057221,0.00039295,-0.00114489,-0.0005
 7222,-0.00039205,-0.00185351,-0.00035408,0.00055375,-0.00001429,-0.000
 01876,-0.00006014,0.00185453,-0.00035385,-0.00055344,0.00001418,-0.000
 01875,0.00006004,-0.00000269,0.00039796,-0.00000003,-0.00006026,-0.000
 13019,-0.00030530,0.00006022,-0.00013084,0.00030424,-0.00002936,-0.046
 72740,-0.00009661,0.00003597,0.04576693,-0.00000767,-0.00000816,0.0000
 0043,0.00000359,-0.00001942,0.00000013,-0.00003144,0.,0.00000534,0.000
 00359,0.00001942,0.00000013,-0.00000767,0.00000816,0.00000043,-0.00000
 483,0.,0.00000044,-0.00000310,0.00000243,-0.00000074,0.00000335,-0.000
 00175,-0.00000106,0.00000335,0.00000175,-0.00000107,-0.00000310,-0.000
 00242,-0.00000074,-0.00000313,0.,-0.00000038,0.00015315,0.,0.00001093,
 -0.00030747,0.00000004,-0.00008708,0.00052016,0.00000040,-0.00005787,-
 0.00058758,0.00004203,0.00008427,-0.00058849,-0.00004208,0.00008481,0.
 00040770,0.00069118,0.00030197,-0.00004500,-0.00000071,0.00003006,0.00
 040821,-0.00069123,0.00030399,-0.00004504,0.00000071,0.00002999,-0.001
 87076,0.00000083,0.00382481,-0.00005322,0.00004826,-0.00030468,-0.0000
 5351,-0.00004770,-0.00030533,-0.07654579,-0.00009676,-0.27682332,0.086
 56436,0.00010661,0.30093582,0.00000714,-0.00001751,-0.00000156,-0.0000
 2906,-0.00000746,-0.00000029,0.00007807,0.00000712,0.00000139,-0.00003
 116,0.00001507,0.00000243,0.00000644,0.00001448,-0.00000350,-0.0000367
 1,-0.00000016,0.00000116,-0.00000584,0.00000523,0.00000035,0.00000609,
 -0.00000303,0.00000064,0.00000475,-0.00000004,0.00000171,-0.00000693,-
 0.00000573,0.00000021,-0.00000549,-0.00000036,0.00000035,-0.00004098,-
 0.00000516,-0.00001547,-0.00000085,-0.00009769,0.00004967,0.00009759,-
 0.00016168,0.00016377,-0.00008325,0.00009736,-0.00039499,-0.00013488,0
 .00143212,-0.00087081,0.00124888,0.00172307,-0.00056309,0.00003105,-0.
 00001849,0.00001676,-0.00566003,-0.00196909,0.00052184,-0.00046293,-0.
 00000125,-0.00004404,-0.01309993,0.02839508,0.01455383,-0.00027477,-0.
 00129363,0.00041606,0.00005011,0.00003597,0.00027080,-0.08298165,0.075
 69485,0.04459546,0.00398949,-0.00927077,-0.00395096,0.09272428,0.00000
 230,0.00000561,0.00000092,0.00000859,0.00000823,0.00000266,-0.00001366
 ,-0.00000443,0.00001152,0.00000936,-0.00001097,-0.00000326,0.00000233,
 -0.00000458,0.00000020,0.00000968,0.00000007,0.00000019,0.00000279,-0.
 00000268,-0.00000064,-0.00000414,0.00000343,-0.00000163,-0.00000420,-0
 .00000199,-0.00000022,0.00000389,0.00000315,-0.00000076,0.00000375,-0.
 00000002,-0.00000031,-0.00003728,-0.00000217,0.00001138,0.00012137,0.0
 0005484,-0.00016015,-0.00027956,0.00028952,0.00005706,0.00069082,0.000
 13187,0.00060067,-0.00012764,-0.00008982,0.00000022,-0.00204346,0.0003
 6936,0.00034684,0.00006213,0.00000620,-0.00004159,0.00039430,0.0004603
 5,-0.00058948,0.00005958,-0.00000053,0.00000475,0.00011010,0.00059316,
 0.00201372,-0.00007006,0.00024542,-0.00049458,-0.00018911,0.00043243,-
 0.00006296,0.07764186,-0.22342668,-0.09706654,-0.00094653,0.00077720,0
 .00038284,-0.08498558,0.24013385,-0.00000607,0.00000959,-0.00000160,0.
 00002199,0.00000089,0.00000135,-0.00006732,-0.00000114,0.00000526,0.00
 002284,-0.00000370,-0.00000089,-0.00000585,-0.00000888,-0.00000094,0.0
 0002416,0.00000029,-0.00000005,0.00000320,-0.00000339,0.00000017,-0.00
 000261,0.00000120,0.00000017,-0.00000294,-0.00000034,0.00000110,0.0000
 0418,0.00000382,0.00000040,0.00000359,0.,0.00000028,0.00007416,-0.0000
 0208,-0.00000940,-0.00009778,0.00001197,0.00001124,0.00013467,0.000484
 60,-0.00001898,0.00023834,0.00001915,-0.00004502,-0.00087403,-0.000102
 80,0.00010678,-0.00014878,-0.00031122,0.00040099,0.00001920,-0.0000048
 3,-0.00002780,-0.00002490,0.00010809,0.00052476,-0.00003979,0.00001128
 ,-0.00007860,-0.00263813,0.00284518,0.00065040,0.00030877,0.00039329,0
 .00004761,-0.00004150,-0.00014239,-0.00003239,0.04620002,-0.09744853,-
 0.10189593,0.01165440,-0.02669677,-0.01400411,-0.04762280,0.10790194,0
 .10647043,0.00000644,-0.00001450,-0.00000350,-0.00003119,-0.00001509,0
 .00000243,0.00007813,-0.00000712,0.00000138,-0.00002909,0.00000749,-0.
 00000029,0.00000715,0.00001753,-0.00000157,-0.00003676,0.00000016,0.00
 000117,-0.00000694,0.00000573,0.00000021,0.00000475,0.00000004,0.00000
 171,0.00000609,0.00000303,0.00000064,-0.00000585,-0.00000524,0.0000003
 5,-0.00000550,0.00000036,0.00000035,-0.00004096,0.00000515,-0.00001549
 ,-0.00000103,0.00009761,0.00004981,0.00009742,0.00016110,0.00016405,-0
 .00013572,-0.00143040,-0.00087262,-0.00008320,-0.00009770,-0.00039593,
 -0.00565592,0.00196872,0.00052286,-0.00046270,0.00000121,-0.00004410,0
 .00124836,-0.00172168,-0.00056408,0.00003101,0.00001852,0.00001681,-0.
 01310265,-0.02838343,0.01457421,0.00005005,-0.00003613,0.00027130,-0.0
 0027389,0.00129261,0.00041686,-0.08296962,-0.07565272,0.04465444,0.003
 98903,0.00926709,-0.00395870,0.00461057,0.00957838,-0.00713703,0.09271
 200,-0.00000235,-0.00000457,-0.00000021,-0.00000931,-0.00001098,0.0000
 0327,0.00001348,-0.00000443,-0.00001152,-0.00000854,0.00000824,-0.0000
 0266,-0.00000232,0.00000560,-0.00000092,-0.00000963,0.00000007,-0.0000
 0018,-0.00000388,0.00000314,0.00000076,0.00000420,-0.00000199,0.000000
 22,0.00000414,0.00000343,0.00000163,-0.00000279,-0.00000267,0.00000064
 ,-0.00000374,-0.00000002,0.00000031,0.00003757,-0.00000217,-0.00001144
 ,-0.00012181,0.00005476,0.00016040,0.00028025,0.00029015,-0.00005704,0
 .00012714,-0.00009015,-0.00000088,-0.00069222,0.00013132,-0.00060108,-
 0.00039568,0.00045963,0.00058952,-0.00005964,-0.00000056,-0.00000466,0
 .00204377,0.00036852,-0.00034710,-0.00006211,0.00000618,0.00004162,-0.
 00011473,0.00059078,-0.00201474,0.00018891,0.00043257,0.00006362,0.000
 06990,0.00024470,0.00049512,-0.07759296,-0.22327298,0.09716308,0.00095
 579,0.00079834,-0.00039440,-0.00958272,-0.01997083,0.01293478,0.084939
 26,0.23996392,-0.00000584,0.00000889,-0.00000095,0.00002285,0.00000371
 ,-0.00000089,-0.00006734,0.00000115,0.00000525,0.00002200,-0.00000090,
 0.00000135,-0.00000607,-0.00000960,-0.00000159,0.00002418,-0.00000029,
 -0.00000005,0.00000419,-0.00000382,0.00000040,-0.00000294,0.00000034,0
 .00000110,-0.00000261,-0.00000120,0.00000017,0.00000321,0.00000339,0.0
 0000017,0.00000359,0.,0.00000028,0.00007413,0.00000208,-0.00000938,-0.
 00009770,-0.00001199,0.00001123,0.00013455,-0.00048472,-0.00001912,-0.
 00087415,0.00010267,0.00010563,0.00023859,-0.00001922,-0.00004467,-0.0
 0002524,-0.00010870,0.00052241,-0.00003979,-0.00001128,-0.00007831,-0.
 00014845,0.00031170,0.00040263,0.00001924,0.00000483,-0.00002775,-0.00
 263897,-0.00284684,0.00065598,-0.00004157,0.00014233,-0.00003165,0.000
 30899,-0.00039366,0.00004666,0.04625741,0.09754533,-0.10204760,0.01165
 199,0.02668677,-0.01402718,-0.00712893,-0.01291279,0.00789476,-0.04768
 528,-0.10800814,0.10664114\\-0.00000133,0.00000073,0.00000016,0.000002
 77,0.00000207,0.00000071,-0.00000163,-0.00000076,-0.00000079,0.0000051
 1,-0.00000074,0.00000092,-0.00000315,0.00000051,0.00000014,-0.00000064
 ,-0.00000105,-0.00000089,0.00000005,0.00000034,-0.00000005,-0.00000029
 ,-0.00000020,0.00000022,-0.00000052,0.00000005,0.00000023,0.00000037,-
 0.00000046,-0.00000004,0.00000066,0.00000014,0.00000026,-0.00000888,-0
 .00000004,0.00000149,0.00000346,-0.00000230,-0.00000572,0.00000514,0.0
 0000207,0.00000122,-0.00000244,-0.00000141,0.00000104,-0.00000235,0.00
 000086,0.00000128,0.00000126,-0.00000202,-0.00000044,-0.00000018,0.000
 00018,0.00000028,0.00000181,0.00000190,-0.00000038,-0.00000011,-0.0000
 0013,0.00000024,0.00000353,0.00000035,-0.00000080,-0.00000093,0.000000
 09,0.00000022,-0.00000100,-0.00000010,0.00000026,-0.00000095,-0.000000
 14,-0.00000125,0.00000131,0.00000004,0.00000124,-0.00000057,0.00000062
 ,0.00000023,-0.00000052,-0.00000059,0.00000019\\\@


 SI MONUMENTUM REQUIRIS, CIRCUMSPICE
     -- FROM SIR CHRISTOPHER WREN'S TOMBSTONE
 Job cpu time:       0 days  1 hours 50 minutes 16.8 seconds.
 Elapsed time:       0 days  0 hours  3 minutes 40.6 seconds.
 File lengths (MBytes):  RWF=    264 Int=      0 D2E=      0 Chk=      9 Scr=      1
 Normal termination of Gaussian 16 at Sun Sep 17 17:24:34 2023.
