 Entering Gaussian System, Link 0=/home/ubuntu/g16/g16
 Input=/home/ubuntu/ML products/molecule_95.gjf
 Output=/home/ubuntu/ML products/molecule_95.log
 Initial command:
 /home/ubuntu/g16/l1.exe "/home/ubuntu/Scratch/Gau-88852.inp" -scrdir="/home/ubuntu/Scratch/"
 Entering Link 1 = /home/ubuntu/g16/l1.exe PID=     88855.
  
 Copyright (c) 1988-2017, Gaussian, Inc.  All Rights Reserved.
  
 This is part of the Gaussian(R) 16 program.  It is based on
 the Gaussian(R) 09 system (copyright 2009, Gaussian, Inc.),
 the Gaussian(R) 03 system (copyright 2003, Gaussian, Inc.),
 the Gaussian(R) 98 system (copyright 1998, Gaussian, Inc.),
 the Gaussian(R) 94 system (copyright 1995, Gaussian, Inc.),
 the Gaussian 92(TM) system (copyright 1992, Gaussian, Inc.),
 the Gaussian 90(TM) system (copyright 1990, Gaussian, Inc.),
 the Gaussian 88(TM) system (copyright 1988, Gaussian, Inc.),
 the Gaussian 86(TM) system (copyright 1986, Carnegie Mellon
 University), and the Gaussian 82(TM) system (copyright 1983,
 Carnegie Mellon University). Gaussian is a federally registered
 trademark of Gaussian, Inc.
  
 This software contains proprietary and confidential information,
 including trade secrets, belonging to Gaussian, Inc.
  
 This software is provided under written license and may be
 used, copied, transmitted, or stored only in accord with that
 written license.
  
 The following legend is applicable only to US Government
 contracts under FAR:
  
                    RESTRICTED RIGHTS LEGEND
  
 Use, reproduction and disclosure by the US Government is
 subject to restrictions as set forth in subparagraphs (a)
 and (c) of the Commercial Computer Software - Restricted
 Rights clause in FAR 52.227-19.
  
 Gaussian, Inc.
 340 Quinnipiac St., Bldg. 40, Wallingford CT 06492
  
  
 ---------------------------------------------------------------
 Warning -- This program may not be used in any manner that
 competes with the business of Gaussian, Inc. or will provide
 assistance to any competitor of Gaussian, Inc.  The licensee
 of this program is prohibited from giving any competitor of
 Gaussian, Inc. access to this program.  By using this program,
 the user acknowledges that Gaussian, Inc. is engaged in the
 business of creating and licensing software in the field of
 computational chemistry and represents and warrants to the
 licensee that it is not a competitor of Gaussian, Inc. and that
 it will not use this program in any manner prohibited above.
 ---------------------------------------------------------------
  

 Cite this work as:
 Gaussian 16, Revision B.01,
 M. J. Frisch, G. W. Trucks, H. B. Schlegel, G. E. Scuseria, 
 M. A. Robb, J. R. Cheeseman, G. Scalmani, V. Barone, 
 G. A. Petersson, H. Nakatsuji, X. Li, M. Caricato, A. V. Marenich, 
 J. Bloino, B. G. Janesko, R. Gomperts, B. Mennucci, H. P. Hratchian, 
 J. V. Ortiz, A. F. Izmaylov, J. L. Sonnenberg, D. Williams-Young, 
 F. Ding, F. Lipparini, F. Egidi, J. Goings, B. Peng, A. Petrone, 
 T. Henderson, D. Ranasinghe, V. G. Zakrzewski, J. Gao, N. Rega, 
 G. Zheng, W. Liang, M. Hada, M. Ehara, K. Toyota, R. Fukuda, 
 J. Hasegawa, M. Ishida, T. Nakajima, Y. Honda, O. Kitao, H. Nakai, 
 T. Vreven, K. Throssell, J. A. Montgomery, Jr., J. E. Peralta, 
 F. Ogliaro, M. J. Bearpark, J. J. Heyd, E. N. Brothers, K. N. Kudin, 
 V. N. Staroverov, T. A. Keith, R. Kobayashi, J. Normand, 
 K. Raghavachari, A. P. Rendell, J. C. Burant, S. S. Iyengar, 
 J. Tomasi, M. Cossi, J. M. Millam, M. Klene, C. Adamo, R. Cammi, 
 J. W. Ochterski, R. L. Martin, K. Morokuma, O. Farkas, 
 J. B. Foresman, and D. J. Fox, Gaussian, Inc., Wallingford CT, 2016.
 
 ******************************************
 Gaussian 16:  EM64L-G16RevB.01 20-Dec-2017
                15-Sep-2023 
 ******************************************
 %nprocshared=30
 Will use up to   30 processors via shared memory.
 %mem=30GB
 %chk=molecule_95.chk
 ----------------------------------------------------------------------
 # opt freq b3lyp/6-31+g(d) geom=connectivity empiricaldispersion=gd3 v
 olume
 ----------------------------------------------------------------------
 1/18=20,19=15,26=3,38=1,57=2/1,3;
 2/9=110,12=2,17=6,18=5,40=1/2;
 3/5=1,6=6,7=11,11=2,25=1,30=1,71=1,74=-5,124=31/1,2,3;
 4//1;
 5/5=2,38=5/2;
 6/7=2,8=2,9=2,10=2,28=1,44=1/1,4;
 7//1,2,3,16;
 1/18=20,19=15,26=3/3(2);
 2/9=110/2;
 99//99;
 2/9=110/2;
 3/5=1,6=6,7=11,11=2,25=1,30=1,71=1,74=-5,124=31/1,2,3;
 4/5=5,16=3,69=1/1;
 5/5=2,38=5/2;
 7//1,2,3,16;
 1/18=20,19=15,26=3/3(-5);
 2/9=110/2;
 6/7=2,8=2,9=2,10=2,19=2,28=1,44=1/1,4;
 99/9=1/99;
 -------------
 ML molecule95
 -------------
 Symbolic Z-matrix:
 Charge =  0 Multiplicity = 1
 C                    -4.74942  -0.23058  -0.40002 
 C                    -4.8202    0.23854  -1.71867 
 C                    -4.55025   1.58484  -1.99888 
 C                    -4.20951   2.46203  -0.96044 
 C                    -4.13873   1.99291   0.35822 
 C                    -4.40868   0.64661   0.63842 
 H                    -5.08036  -0.43121  -2.51155 
 H                    -3.87857   2.66266   1.15109 
 H                    -4.35464   0.28843   1.64524 
 O                    -3.91049   3.9533   -1.27081 
 C                    -3.81752   4.69985  -2.77936 
 C                    -4.13168   3.88761  -3.87731 
 C                    -3.30395   5.98751  -2.98454 
 C                    -3.93225   4.36302  -5.18043 
 C                    -3.10452   6.46292  -4.28767 
 H                    -3.06408   6.60768  -2.14623 
 C                    -3.41867   5.65068  -5.38561 
 H                    -4.17211   3.74285  -6.01874 
 H                    -2.7124    7.44608  -4.44432 
 H                    -4.60429   1.94302  -3.0057 
 H                    -4.5238    2.90445  -3.72065 
 H                    -4.95553  -1.25851  -0.18608 
 O                    -3.21518   6.13579  -6.71533 
 C                    -4.11354   7.21857  -6.97113 
 H                    -3.77052   8.09462  -6.46144 
 H                    -4.15121   7.40981  -8.02323 
 H                    -5.09109   6.96149  -6.62012 
 

 GradGradGradGradGradGradGradGradGradGradGradGradGradGradGradGradGradGrad
 Berny optimization.
 Initialization pass.
                           ----------------------------
                           !    Initial Parameters    !
                           ! (Angstroms and Degrees)  !
 --------------------------                            --------------------------
 ! Name  Definition              Value          Derivative Info.                !
 --------------------------------------------------------------------------------
 ! R1    R(1,2)                  1.4014         estimate D2E/DX2                !
 ! R2    R(1,6)                  1.4014         estimate D2E/DX2                !
 ! R3    R(1,22)                 1.07           estimate D2E/DX2                !
 ! R4    R(2,3)                  1.4014         estimate D2E/DX2                !
 ! R5    R(2,7)                  1.07           estimate D2E/DX2                !
 ! R6    R(3,4)                  1.4014         estimate D2E/DX2                !
 ! R7    R(3,20)                 1.07           estimate D2E/DX2                !
 ! R8    R(4,5)                  1.4014         estimate D2E/DX2                !
 ! R9    R(4,10)                 1.5523         estimate D2E/DX2                !
 ! R10   R(5,6)                  1.4014         estimate D2E/DX2                !
 ! R11   R(5,8)                  1.07           estimate D2E/DX2                !
 ! R12   R(6,9)                  1.07           estimate D2E/DX2                !
 ! R13   R(10,11)                1.6857         estimate D2E/DX2                !
 ! R14   R(11,12)                1.4014         estimate D2E/DX2                !
 ! R15   R(11,13)                1.4014         estimate D2E/DX2                !
 ! R16   R(12,14)                1.4014         estimate D2E/DX2                !
 ! R17   R(12,21)                1.07           estimate D2E/DX2                !
 ! R18   R(13,15)                1.4014         estimate D2E/DX2                !
 ! R19   R(13,16)                1.07           estimate D2E/DX2                !
 ! R20   R(14,17)                1.4014         estimate D2E/DX2                !
 ! R21   R(14,18)                1.07           estimate D2E/DX2                !
 ! R22   R(15,17)                1.4014         estimate D2E/DX2                !
 ! R23   R(15,19)                1.07           estimate D2E/DX2                !
 ! R24   R(17,23)                1.43           estimate D2E/DX2                !
 ! R25   R(23,24)                1.43           estimate D2E/DX2                !
 ! R26   R(24,25)                1.07           estimate D2E/DX2                !
 ! R27   R(24,26)                1.07           estimate D2E/DX2                !
 ! R28   R(24,27)                1.07           estimate D2E/DX2                !
 ! A1    A(2,1,6)              120.0            estimate D2E/DX2                !
 ! A2    A(2,1,22)             120.0            estimate D2E/DX2                !
 ! A3    A(6,1,22)             120.0            estimate D2E/DX2                !
 ! A4    A(1,2,3)              120.0            estimate D2E/DX2                !
 ! A5    A(1,2,7)              120.0            estimate D2E/DX2                !
 ! A6    A(3,2,7)              120.0            estimate D2E/DX2                !
 ! A7    A(2,3,4)              120.0            estimate D2E/DX2                !
 ! A8    A(2,3,20)             120.0            estimate D2E/DX2                !
 ! A9    A(4,3,20)             120.0            estimate D2E/DX2                !
 ! A10   A(3,4,5)              120.0            estimate D2E/DX2                !
 ! A11   A(3,4,10)             120.0            estimate D2E/DX2                !
 ! A12   A(5,4,10)             120.0            estimate D2E/DX2                !
 ! A13   A(4,5,6)              120.0            estimate D2E/DX2                !
 ! A14   A(4,5,8)              120.0            estimate D2E/DX2                !
 ! A15   A(6,5,8)              120.0            estimate D2E/DX2                !
 ! A16   A(1,6,5)              120.0            estimate D2E/DX2                !
 ! A17   A(1,6,9)              120.0            estimate D2E/DX2                !
 ! A18   A(5,6,9)              120.0            estimate D2E/DX2                !
 ! A19   A(4,10,11)            127.9526         estimate D2E/DX2                !
 ! A20   A(10,11,12)           115.5989         estimate D2E/DX2                !
 ! A21   A(10,11,13)           123.9281         estimate D2E/DX2                !
 ! A22   A(12,11,13)           120.0            estimate D2E/DX2                !
 ! A23   A(11,12,14)           120.0            estimate D2E/DX2                !
 ! A24   A(11,12,21)           120.0            estimate D2E/DX2                !
 ! A25   A(14,12,21)           120.0            estimate D2E/DX2                !
 ! A26   A(11,13,15)           120.0            estimate D2E/DX2                !
 ! A27   A(11,13,16)           120.0            estimate D2E/DX2                !
 ! A28   A(15,13,16)           120.0            estimate D2E/DX2                !
 ! A29   A(12,14,17)           120.0            estimate D2E/DX2                !
 ! A30   A(12,14,18)           120.0            estimate D2E/DX2                !
 ! A31   A(17,14,18)           120.0            estimate D2E/DX2                !
 ! A32   A(13,15,17)           120.0            estimate D2E/DX2                !
 ! A33   A(13,15,19)           120.0            estimate D2E/DX2                !
 ! A34   A(17,15,19)           120.0            estimate D2E/DX2                !
 ! A35   A(14,17,15)           120.0            estimate D2E/DX2                !
 ! A36   A(14,17,23)           120.0            estimate D2E/DX2                !
 ! A37   A(15,17,23)           120.0            estimate D2E/DX2                !
 ! A38   A(17,23,24)           109.5            estimate D2E/DX2                !
 ! A39   A(23,24,25)           109.4712         estimate D2E/DX2                !
 ! A40   A(23,24,26)           109.4712         estimate D2E/DX2                !
 ! A41   A(23,24,27)           109.4712         estimate D2E/DX2                !
 ! A42   A(25,24,26)           109.4713         estimate D2E/DX2                !
 ! A43   A(25,24,27)           109.4712         estimate D2E/DX2                !
 ! A44   A(26,24,27)           109.4712         estimate D2E/DX2                !
 ! D1    D(6,1,2,3)              0.0001         estimate D2E/DX2                !
 ! D2    D(6,1,2,7)           -179.9998         estimate D2E/DX2                !
 ! D3    D(22,1,2,3)          -179.9999         estimate D2E/DX2                !
 ! D4    D(22,1,2,7)             0.0002         estimate D2E/DX2                !
 ! D5    D(2,1,6,5)             -0.0001         estimate D2E/DX2                !
 ! D6    D(2,1,6,9)            179.9998         estimate D2E/DX2                !
 ! D7    D(22,1,6,5)           179.9999         estimate D2E/DX2                !
 ! D8    D(22,1,6,9)            -0.0002         estimate D2E/DX2                !
 ! D9    D(1,2,3,4)              0.0001         estimate D2E/DX2                !
 ! D10   D(1,2,3,20)          -179.9999         estimate D2E/DX2                !
 ! D11   D(7,2,3,4)            179.9999         estimate D2E/DX2                !
 ! D12   D(7,2,3,20)            -0.0001         estimate D2E/DX2                !
 ! D13   D(2,3,4,5)             -0.0002         estimate D2E/DX2                !
 ! D14   D(2,3,4,10)           179.9998         estimate D2E/DX2                !
 ! D15   D(20,3,4,5)           179.9998         estimate D2E/DX2                !
 ! D16   D(20,3,4,10)           -0.0002         estimate D2E/DX2                !
 ! D17   D(3,4,5,6)              0.0001         estimate D2E/DX2                !
 ! D18   D(3,4,5,8)           -180.0            estimate D2E/DX2                !
 ! D19   D(10,4,5,6)          -179.9999         estimate D2E/DX2                !
 ! D20   D(10,4,5,8)             0.0            estimate D2E/DX2                !
 ! D21   D(3,4,10,11)           -5.2547         estimate D2E/DX2                !
 ! D22   D(5,4,10,11)          174.7453         estimate D2E/DX2                !
 ! D23   D(4,5,6,1)              0.0            estimate D2E/DX2                !
 ! D24   D(4,5,6,9)           -179.9999         estimate D2E/DX2                !
 ! D25   D(8,5,6,1)           -179.9999         estimate D2E/DX2                !
 ! D26   D(8,5,6,9)              0.0002         estimate D2E/DX2                !
 ! D27   D(4,10,11,12)           4.3564         estimate D2E/DX2                !
 ! D28   D(4,10,11,13)        -167.7268         estimate D2E/DX2                !
 ! D29   D(10,11,12,14)       -172.4167         estimate D2E/DX2                !
 ! D30   D(10,11,12,21)          7.5833         estimate D2E/DX2                !
 ! D31   D(13,11,12,14)          0.0002         estimate D2E/DX2                !
 ! D32   D(13,11,12,21)       -179.9998         estimate D2E/DX2                !
 ! D33   D(10,11,13,15)        171.7535         estimate D2E/DX2                !
 ! D34   D(10,11,13,16)         -8.2466         estimate D2E/DX2                !
 ! D35   D(12,11,13,15)          0.0            estimate D2E/DX2                !
 ! D36   D(12,11,13,16)        179.9999         estimate D2E/DX2                !
 ! D37   D(11,12,14,17)         -0.0002         estimate D2E/DX2                !
 ! D38   D(11,12,14,18)        179.9998         estimate D2E/DX2                !
 ! D39   D(21,12,14,17)        179.9998         estimate D2E/DX2                !
 ! D40   D(21,12,14,18)         -0.0002         estimate D2E/DX2                !
 ! D41   D(11,13,15,17)         -0.0001         estimate D2E/DX2                !
 ! D42   D(11,13,15,19)        179.9999         estimate D2E/DX2                !
 ! D43   D(16,13,15,17)        179.9999         estimate D2E/DX2                !
 ! D44   D(16,13,15,19)          0.0            estimate D2E/DX2                !
 ! D45   D(12,14,17,15)          0.0001         estimate D2E/DX2                !
 ! D46   D(12,14,17,23)       -179.9999         estimate D2E/DX2                !
 ! D47   D(18,14,17,15)       -179.9999         estimate D2E/DX2                !
 ! D48   D(18,14,17,23)          0.0001         estimate D2E/DX2                !
 ! D49   D(13,15,17,14)          0.0001         estimate D2E/DX2                !
 ! D50   D(13,15,17,23)       -179.9999         estimate D2E/DX2                !
 ! D51   D(19,15,17,14)       -180.0            estimate D2E/DX2                !
 ! D52   D(19,15,17,23)          0.0            estimate D2E/DX2                !
 ! D53   D(14,17,23,24)        113.4445         estimate D2E/DX2                !
 ! D54   D(15,17,23,24)        -66.5555         estimate D2E/DX2                !
 ! D55   D(17,23,24,25)         74.9451         estimate D2E/DX2                !
 ! D56   D(17,23,24,26)       -165.0549         estimate D2E/DX2                !
 ! D57   D(17,23,24,27)        -45.0549         estimate D2E/DX2                !
 --------------------------------------------------------------------------------
 Trust Radius=3.00D-01 FncErr=1.00D-07 GrdErr=1.00D-06 EigMax=2.50D+02 EigMin=1.00D-04
 Number of steps in this run=    139 maximum allowed number of steps=    162.
 GradGradGradGradGradGradGradGradGradGradGradGradGradGradGradGradGradGrad

                          Input orientation:                          
 ---------------------------------------------------------------------
 Center     Atomic      Atomic             Coordinates (Angstroms)
 Number     Number       Type             X           Y           Z
 ---------------------------------------------------------------------
      1          6           0       -4.749416   -0.230579   -0.400021
      2          6           0       -4.820199    0.238538   -1.718672
      3          6           0       -4.550247    1.584841   -1.998879
      4          6           0       -4.209510    2.462026   -0.960435
      5          6           0       -4.138728    1.992910    0.358216
      6          6           0       -4.408682    0.646607    0.638423
      7          1           0       -5.080361   -0.431212   -2.511547
      8          1           0       -3.878568    2.662660    1.151091
      9          1           0       -4.354640    0.288426    1.645243
     10          8           0       -3.910486    3.953296   -1.270814
     11          6           0       -3.817523    4.699853   -2.779363
     12          6           0       -4.131676    3.887607   -3.877310
     13          6           0       -3.303947    5.987511   -2.984541
     14          6           0       -3.932249    4.363019   -5.180435
     15          6           0       -3.104523    6.462923   -4.287666
     16          1           0       -3.064085    6.607679   -2.146234
     17          6           0       -3.418674    5.650677   -5.385613
     18          1           0       -4.172109    3.742850   -6.018741
     19          1           0       -2.712397    7.446079   -4.444324
     20          1           0       -4.604292    1.943023   -3.005698
     21          1           0       -4.523805    2.904453   -3.720651
     22          1           0       -4.955530   -1.258512   -0.186077
     23          8           0       -3.215179    6.135791   -6.715333
     24          6           0       -4.113538    7.218574   -6.971131
     25          1           0       -3.770519    8.094618   -6.461441
     26          1           0       -4.151208    7.409810   -8.023229
     27          1           0       -5.091086    6.961487   -6.620125
 ---------------------------------------------------------------------
                    Distance matrix (angstroms):
                    1          2          3          4          5
     1  C    0.000000
     2  C    1.401400   0.000000
     3  C    2.427296   1.401400   0.000000
     4  C    2.802800   2.427296   1.401400   0.000000
     5  C    2.427296   2.802800   2.427296   1.401400   0.000000
     6  C    1.401400   2.427296   2.802800   2.427296   1.401400
     7  H    2.146700   1.070000   2.146700   3.396345   3.872800
     8  H    3.396345   3.872800   3.396345   2.146700   1.070000
     9  H    2.146700   3.396345   3.872800   3.396345   2.146700
    10  O    4.355100   3.850660   2.559092   1.552300   2.559092
    11  C    5.553274   4.694012   3.293833   2.910330   4.156335
    12  C    5.425182   4.295286   3.001072   3.247537   4.640001
    13  C    6.887218   6.078827   4.680630   4.164864   5.275199
    14  C    6.679914   5.457435   4.268781   4.636706   6.027993
    15  C    7.913434   6.948831   5.578920   5.319647   6.529535
    16  H    7.256127   6.620627   5.240161   4.461452   5.359405
    17  C    7.824077   6.685954   5.411233   5.511362   6.847577
    18  H    6.905899   5.584874   4.578131   5.218081   6.612790
    19  H    8.912739   7.988783   6.611506   6.262556   7.405125
    20  H    3.396345   2.146700   1.070000   2.146700   3.396345
    21  H    4.572298   3.347069   2.169464   2.813062   4.197184
    22  H    1.070000   2.146700   3.396345   3.872800   3.396345
    23  O    9.097676   7.894321   6.688683   6.899571   8.249334
    24  C    9.953577   8.764051   7.526815   7.665665   9.001529
    25  H   10.344465   9.236540   7.930928   7.885421   9.158283
    26  H   10.809565   9.571944   8.389415   8.623631   9.979558
    27  H    9.514843   8.324401   7.110326   7.283846   8.619222
                    6          7          8          9         10
     6  C    0.000000
     7  H    3.396345   0.000000
     8  H    2.146700   4.942800   0.000000
     9  H    1.070000   4.280590   2.471400   0.000000
    10  O    3.850660   4.704459   2.744520   4.704459   0.000000
    11  C    5.334748   5.290965   4.427454   6.271070   1.685736
    12  C    5.565309   4.627906   5.181638   6.595635   2.616688
    13  C    6.547638   6.676779   5.337441   7.417441   2.728146
    14  C    6.920825   5.605869   6.556091   7.960565   3.931091
    15  C    7.732834   7.388345   6.679913   8.653706   4.006145
    16  H    6.715403   7.331085   5.205662   7.481563   2.920360
    17  C    7.893659   6.928985   7.201962   8.891721   4.478231
    18  H    7.345783   5.527036   7.256685   8.408509   4.759784
    19  H    8.657051   8.449532   7.453169   9.540010   4.868893
    20  H    3.872800   2.471400   4.280590   4.942800   2.744520
    21  H    4.910464   3.591427   4.920231   5.972021   2.734581
    22  H    2.146700   2.471400   4.280590   2.471400   5.425100
    23  O    9.253827   8.017247   8.624578  10.265928   5.906735
    24  C   10.058985   8.907404   9.315689  11.060153   6.572433
    25  H   10.309616   9.487208   9.352459  11.269257   6.641742
    26  H   10.992335   9.629309  10.333340  12.009781   7.589501
    27  H    9.645201   8.457690   8.963365  10.648399   6.249652
                   11         12         13         14         15
    11  C    0.000000
    12  C    1.401400   0.000000
    13  C    1.401400   2.427296   0.000000
    14  C    2.427296   1.401400   2.802800   0.000000
    15  C    2.427296   2.802800   1.401400   2.427296   0.000000
    16  H    2.146700   3.396345   1.070000   3.872800   2.146700
    17  C    2.802800   2.427296   2.427296   1.401400   1.401400
    18  H    3.396345   2.146700   3.872800   1.070000   3.396345
    19  H    3.396345   3.872800   2.146700   3.396345   1.070000
    20  H    2.875821   2.182769   4.248439   3.322273   4.931759
    21  H    2.146700   1.070000   3.396345   2.146700   3.872800
    22  H    6.597143   6.386429   7.941283   7.588960   8.936992
    23  O    4.232800   3.734792   3.734792   2.452106   2.452106
    24  C    4.899235   4.546141   4.250159   3.375449   2.964810
    25  H    5.008427   4.950465   4.092239   3.948666   2.798441
    26  H    5.912135   5.440123   5.303693   4.172812   3.993316
    27  H    4.635559   4.229922   4.166529   3.188675   3.104088
                   16         17         18         19         20
    16  H    0.000000
    17  C    3.396345   0.000000
    18  H    4.942800   2.146700   0.000000
    19  H    2.471400   2.146700   4.280590   0.000000
    20  H    4.986976   4.562498   3.536183   5.994376   0.000000
    21  H    4.280590   3.396345   2.471400   4.942800   1.200826
    22  H    8.324466   8.782596   7.723169   9.946568   4.280590
    23  O    4.595886   1.430000   2.669667   2.669667   5.768044
    24  C    4.975356   2.335595   3.604321   2.898225   6.617925
    25  H    4.618554   2.693334   4.392624   2.368329   7.104890
    26  H    6.030283   3.253947   4.179115   3.857466   7.434155
    27  H    4.924389   2.457480   3.400853   3.259923   6.203711
                   21         22         23         24         25
    21  H    0.000000
    22  H    5.478127   0.000000
    23  O    4.595886  10.016772   0.000000
    24  C    5.417156  10.890678   1.430000   0.000000
    25  H    5.917532  11.325435   2.051796   1.070000   0.000000
    26  H    6.240933  11.713568   2.051796   1.070000   1.747303
    27  H    5.018792  10.439526   2.051796   1.070000   1.747303
                   26         27
    26  H    0.000000
    27  H    1.747303   0.000000
 Stoichiometry    C13H12O2
 Framework group  C1[X(C13H12O2)]
 Deg. of freedom    75
 Full point group                 C1      NOp   1
 Largest Abelian subgroup         C1      NOp   1
 Largest concise Abelian subgroup C1      NOp   1
                         Standard orientation:                         
 ---------------------------------------------------------------------
 Center     Atomic      Atomic             Coordinates (Angstroms)
 Number     Number       Type             X           Y           Z
 ---------------------------------------------------------------------
      1          6           0        4.697500   -1.016419   -0.047317
      2          6           0        3.447370   -1.647432    0.006709
      3          6           0        2.276951   -0.879349    0.070661
      4          6           0        2.356662    0.519747    0.080586
      5          6           0        3.606793    1.150760    0.026562
      6          6           0        4.777212    0.382677   -0.037390
      7          1           0        3.386508   -2.715673   -0.000868
      8          1           0        3.667655    2.219001    0.034140
      9          1           0        5.731714    0.864469   -0.078637
     10          8           0        1.060215    1.370536    0.151421
     11          6           0       -0.536697    0.832898    0.101189
     12          6           0       -0.706852   -0.557916    0.076570
     13          6           0       -1.641068    1.677183   -0.076214
     14          6           0       -1.981377   -1.104445   -0.125454
     15          6           0       -2.915593    1.130653   -0.278234
     16          1           0       -1.511151    2.739100   -0.057416
     17          6           0       -3.085748   -0.260161   -0.302855
     18          1           0       -2.111294   -2.166362   -0.144253
     19          1           0       -3.758805    1.775283   -0.413684
     20          1           0        1.322449   -1.361141    0.111912
     21          1           0        0.136359   -1.202545    0.212023
     22          1           0        5.591141   -1.602868   -0.096147
     23          8           0       -4.386284   -0.817844   -0.509000
     24          6           0       -5.221345   -0.507983    0.609732
     25          1           0       -5.514024    0.520122    0.562409
     26          1           0       -6.092861   -1.128336    0.586926
     27          1           0       -4.681984   -0.683880    1.516953
 ---------------------------------------------------------------------
 Rotational constants (GHZ):           2.0470367           0.2359661           0.2142284
 Standard basis: 6-31+G(d) (6D, 7F)
 There are   309 symmetry adapted cartesian basis functions of A   symmetry.
 There are   309 symmetry adapted basis functions of A   symmetry.
   309 basis functions,   528 primitive gaussians,   309 cartesian basis functions
    53 alpha electrons       53 beta electrons
       nuclear repulsion energy       867.5901562209 Hartrees.
 NAtoms=   27 NActive=   27 NUniq=   27 SFac= 1.00D+00 NAtFMM=   60 NAOKFM=F Big=F
 Integral buffers will be    131072 words long.
 Raffenetti 2 integral format.
 Two-electron integral symmetry is turned on.
 Nuclear repulsion after empirical dispersion term =      867.5699705681 Hartrees.
 One-electron integrals computed using PRISM.
 NBasis=   309 RedAO= T EigKep=  1.46D-06  NBF=   309
 NBsUse=   308 1.00D-06 EigRej=  4.42D-07 NBFU=   308
 ExpMin= 4.38D-02 ExpMax= 5.48D+03 ExpMxC= 8.25D+02 IAcc=3 IRadAn=         5 AccDes= 0.00D+00
 Harris functional with IExCor=  402 and IRadAn=       5 diagonalized for initial guess.
 HarFok:  IExCor=  402 AccDes= 0.00D+00 IRadAn=         5 IDoV= 1 UseB2=F ITyADJ=14
 ICtDFT=  3500011 ScaDFX=  1.000000  1.000000  1.000000  1.000000
 FoFCou: FMM=F IPFlag=           0 FMFlag=      100000 FMFlg1=           0
         NFxFlg=           0 DoJE=T BraDBF=F KetDBF=T FulRan=T
         wScrn=  0.000000 ICntrl=       500 IOpCl=  0 I1Cent=   200000004 NGrid=           0
         NMat0=    1 NMatS0=      1 NMatT0=    0 NMatD0=    1 NMtDS0=    0 NMtDT0=    0
 Petite list used in FoFCou.
 Requested convergence on RMS density matrix=1.00D-08 within 128 cycles.
 Requested convergence on MAX density matrix=1.00D-06.
 Requested convergence on             energy=1.00D-06.
 No special actions if energy rises.
 SCF Done:  E(RB3LYP) =  -652.978802067     A.U. after   15 cycles
            NFock= 15  Conv=0.58D-08     -V/T= 2.0102

 **********************************************************************

            Population analysis using the SCF Density.

 **********************************************************************

 Orbital symmetries:
       Occupied  (A) (A) (A) (A) (A) (A) (A) (A) (A) (A) (A) (A)
                 (A) (A) (A) (A) (A) (A) (A) (A) (A) (A) (A) (A)
                 (A) (A) (A) (A) (A) (A) (A) (A) (A) (A) (A) (A)
                 (A) (A) (A) (A) (A) (A) (A) (A) (A) (A) (A) (A)
                 (A) (A) (A) (A) (A)
       Virtual   (A) (A) (A) (A) (A) (A) (A) (A) (A) (A) (A) (A)
                 (A) (A) (A) (A) (A) (A) (A) (A) (A) (A) (A) (A)
                 (A) (A) (A) (A) (A) (A) (A) (A) (A) (A) (A) (A)
                 (A) (A) (A) (A) (A) (A) (A) (A) (A) (A) (A) (A)
                 (A) (A) (A) (A) (A) (A) (A) (A) (A) (A) (A) (A)
                 (A) (A) (A) (A) (A) (A) (A) (A) (A) (A) (A) (A)
                 (A) (A) (A) (A) (A) (A) (A) (A) (A) (A) (A) (A)
                 (A) (A) (A) (A) (A) (A) (A) (A) (A) (A) (A) (A)
                 (A) (A) (A) (A) (A) (A) (A) (A) (A) (A) (A) (A)
                 (A) (A) (A) (A) (A) (A) (A) (A) (A) (A) (A) (A)
                 (A) (A) (A) (A) (A) (A) (A) (A) (A) (A) (A) (A)
                 (A) (A) (A) (A) (A) (A) (A) (A) (A) (A) (A) (A)
                 (A) (A) (A) (A) (A) (A) (A) (A) (A) (A) (A) (A)
                 (A) (A) (A) (A) (A) (A) (A) (A) (A) (A) (A) (A)
                 (A) (A) (A) (A) (A) (A) (A) (A) (A) (A) (A) (A)
                 (A) (A) (A) (A) (A) (A) (A) (A) (A) (A) (A) (A)
                 (A) (A) (A) (A) (A) (A) (A) (A) (A) (A) (A) (A)
                 (A) (A) (A) (A) (A) (A) (A) (A) (A) (A) (A) (A)
                 (A) (A) (A) (A) (A) (A) (A) (A) (A) (A) (A) (A)
                 (A) (A) (A) (A) (A) (A) (A) (A) (A) (A) (A) (A)
                 (A) (A) (A) (A) (A) (A) (A) (A) (A) (A) (A) (A)
                 (A) (A) (A)
 The electronic state is 1-A.
 Alpha  occ. eigenvalues --  -19.18382 -19.18076 -10.28054 -10.26878 -10.26336
 Alpha  occ. eigenvalues --  -10.23627 -10.22245 -10.21676 -10.21293 -10.21240
 Alpha  occ. eigenvalues --  -10.20556 -10.20439 -10.20404 -10.19991 -10.19768
 Alpha  occ. eigenvalues --   -1.05214  -0.96936  -0.87341  -0.85786  -0.77558
 Alpha  occ. eigenvalues --   -0.76551  -0.75816  -0.74438  -0.70009  -0.64576
 Alpha  occ. eigenvalues --   -0.61927  -0.61189  -0.60262  -0.54439  -0.53513
 Alpha  occ. eigenvalues --   -0.49454  -0.49348  -0.48613  -0.47071  -0.46371
 Alpha  occ. eigenvalues --   -0.45434  -0.45120  -0.44587  -0.42636  -0.42329
 Alpha  occ. eigenvalues --   -0.39856  -0.38854  -0.38174  -0.37234  -0.35733
 Alpha  occ. eigenvalues --   -0.34802  -0.32690  -0.31698  -0.29283  -0.27595
 Alpha  occ. eigenvalues --   -0.26358  -0.26029  -0.22993
 Alpha virt. eigenvalues --   -0.03494  -0.03326  -0.01935  -0.01816  -0.00761
 Alpha virt. eigenvalues --    0.00490   0.00784   0.01758   0.02275   0.02860
 Alpha virt. eigenvalues --    0.03419   0.04312   0.04814   0.05034   0.05837
 Alpha virt. eigenvalues --    0.06115   0.06659   0.07187   0.07430   0.07887
 Alpha virt. eigenvalues --    0.09026   0.09237   0.09549   0.10317   0.10413
 Alpha virt. eigenvalues --    0.11627   0.12238   0.12795   0.12838   0.13214
 Alpha virt. eigenvalues --    0.13373   0.13918   0.14042   0.14291   0.14760
 Alpha virt. eigenvalues --    0.15013   0.15517   0.16282   0.16704   0.17007
 Alpha virt. eigenvalues --    0.17551   0.17892   0.18885   0.19587   0.19732
 Alpha virt. eigenvalues --    0.19963   0.20546   0.20871   0.21350   0.21715
 Alpha virt. eigenvalues --    0.21942   0.22516   0.22625   0.23078   0.24167
 Alpha virt. eigenvalues --    0.24567   0.24925   0.25426   0.25830   0.26148
 Alpha virt. eigenvalues --    0.26732   0.27180   0.27341   0.27678   0.28399
 Alpha virt. eigenvalues --    0.28577   0.29724   0.30507   0.30858   0.31370
 Alpha virt. eigenvalues --    0.31744   0.32262   0.32634   0.33617   0.34159
 Alpha virt. eigenvalues --    0.34427   0.35471   0.35691   0.36612   0.37139
 Alpha virt. eigenvalues --    0.37980   0.38541   0.40026   0.40242   0.41663
 Alpha virt. eigenvalues --    0.42209   0.43538   0.45256   0.50481   0.56232
 Alpha virt. eigenvalues --    0.57861   0.59437   0.60518   0.61229   0.64849
 Alpha virt. eigenvalues --    0.65611   0.66601   0.67209   0.67309   0.68691
 Alpha virt. eigenvalues --    0.69402   0.71375   0.71636   0.72960   0.73139
 Alpha virt. eigenvalues --    0.73743   0.74102   0.74844   0.75948   0.76626
 Alpha virt. eigenvalues --    0.76983   0.77847   0.78313   0.79192   0.79836
 Alpha virt. eigenvalues --    0.81422   0.82314   0.83727   0.85411   0.88798
 Alpha virt. eigenvalues --    0.89997   0.93276   0.93565   0.93980   0.94469
 Alpha virt. eigenvalues --    0.95386   0.96746   0.97685   0.98518   1.00134
 Alpha virt. eigenvalues --    1.02268   1.03259   1.07546   1.09054   1.09604
 Alpha virt. eigenvalues --    1.10165   1.11791   1.12877   1.14100   1.14506
 Alpha virt. eigenvalues --    1.16060   1.17946   1.19540   1.19862   1.20553
 Alpha virt. eigenvalues --    1.21244   1.21734   1.23357   1.24220   1.25820
 Alpha virt. eigenvalues --    1.27887   1.28631   1.29797   1.30415   1.33432
 Alpha virt. eigenvalues --    1.34874   1.35933   1.37616   1.40768   1.42328
 Alpha virt. eigenvalues --    1.43242   1.43764   1.44627   1.46525   1.47136
 Alpha virt. eigenvalues --    1.48065   1.48241   1.48751   1.49668   1.50396
 Alpha virt. eigenvalues --    1.52171   1.55710   1.56467   1.61107   1.69544
 Alpha virt. eigenvalues --    1.73567   1.76978   1.78025   1.78423   1.80325
 Alpha virt. eigenvalues --    1.81615   1.84202   1.84766   1.87616   1.90849
 Alpha virt. eigenvalues --    1.95523   1.96283   1.97157   1.97769   1.98303
 Alpha virt. eigenvalues --    1.99417   2.01908   2.03331   2.06092   2.07538
 Alpha virt. eigenvalues --    2.09425   2.10797   2.11942   2.13523   2.13967
 Alpha virt. eigenvalues --    2.14552   2.16119   2.17271   2.20434   2.21723
 Alpha virt. eigenvalues --    2.24402   2.25975   2.27587   2.27972   2.29061
 Alpha virt. eigenvalues --    2.29221   2.30309   2.33122   2.38007   2.40522
 Alpha virt. eigenvalues --    2.41395   2.48781   2.56412   2.60264   2.61476
 Alpha virt. eigenvalues --    2.62050   2.62897   2.63100   2.64884   2.67014
 Alpha virt. eigenvalues --    2.72998   2.73183   2.74405   2.77818   2.78911
 Alpha virt. eigenvalues --    2.79796   2.80252   2.84740   2.92369   3.01487
 Alpha virt. eigenvalues --    3.04380   3.07196   3.10185   3.40317   3.41113
 Alpha virt. eigenvalues --    4.22279   4.24624   4.25808   4.28445   4.29450
 Alpha virt. eigenvalues --    4.31424   4.33487   4.37035   4.37821   4.39030
 Alpha virt. eigenvalues --    4.41408   4.46548   4.50276   4.73048   4.77886
          Condensed to atoms (all electrons):
               1          2          3          4          5          6
     1  C    5.354362   0.145556   0.147692  -0.703759   0.340881   0.406033
     2  C    0.145556   9.759470  -4.019611   0.531334  -0.380050   0.454344
     3  C    0.147692  -4.019611  11.628796  -0.648281  -1.100678  -0.700382
     4  C   -0.703759   0.531334  -0.648281   9.546371  -3.001876   0.086410
     5  C    0.340881  -0.380050  -1.100678  -3.001876  10.511027   0.179959
     6  C    0.406033   0.454344  -0.700382   0.086410   0.179959   5.447124
     7  H   -0.043437   0.358953  -0.033768   0.040602  -0.039598   0.011954
     8  H    0.019599  -0.036292   0.075950   0.012853   0.286521  -0.064698
     9  H   -0.010558   0.019644  -0.021267   0.026492  -0.038149   0.319502
    10  O   -0.019596   0.030042  -0.132689   0.322813  -0.204295   0.027771
    11  C    0.031184  -0.148385   0.066806  -0.435524   0.606246  -0.045614
    12  C   -0.013873   0.085393  -0.036386   0.299206  -0.403434   0.037849
    13  C    0.016266  -0.453005  -0.376326   0.308227   0.354541  -0.047611
    14  C   -0.025513   0.182229   0.483103  -0.266387  -0.574920   0.031381
    15  C    0.000352   0.018162   0.092712  -0.037758  -0.066840  -0.002368
    16  H    0.000039  -0.000271   0.002370  -0.002985  -0.002310  -0.000233
    17  C    0.001346  -0.077137  -0.085715  -0.000918   0.016507  -0.004674
    18  H    0.000130   0.003565   0.000125  -0.004728  -0.000841   0.000027
    19  H   -0.000003   0.000064   0.000443   0.000237  -0.000051   0.000007
    20  H    0.010155  -0.005114   0.114374   0.038695   0.054956   0.004888
    21  H   -0.008718  -0.003159  -0.033475   0.067177   0.009555   0.004459
    22  H    0.297952  -0.029358   0.053275  -0.010127   0.015543  -0.034893
    23  O    0.000001  -0.000242  -0.000994   0.000097  -0.000189  -0.000002
    24  C   -0.000017  -0.000131   0.000787  -0.001185  -0.000490   0.000011
    25  H    0.000000  -0.000003  -0.000089   0.000047   0.000003   0.000000
    26  H    0.000000   0.000001  -0.000001   0.000005   0.000000   0.000000
    27  H   -0.000001   0.000022   0.000347  -0.000087   0.000008   0.000001
               7          8          9         10         11         12
     1  C   -0.043437   0.019599  -0.010558  -0.019596   0.031184  -0.013873
     2  C    0.358953  -0.036292   0.019644   0.030042  -0.148385   0.085393
     3  C   -0.033768   0.075950  -0.021267  -0.132689   0.066806  -0.036386
     4  C    0.040602   0.012853   0.026492   0.322813  -0.435524   0.299206
     5  C   -0.039598   0.286521  -0.038149  -0.204295   0.606246  -0.403434
     6  C    0.011954  -0.064698   0.319502   0.027771  -0.045614   0.037849
     7  H    0.539508   0.000016  -0.000180  -0.000295  -0.003979  -0.002574
     8  H    0.000016   0.519638  -0.005355  -0.004441  -0.003341   0.001983
     9  H   -0.000180  -0.005355   0.529336  -0.000153   0.000333   0.000155
    10  O   -0.000295  -0.004441  -0.000153   8.388865   0.302810  -0.033334
    11  C   -0.003979  -0.003341   0.000333   0.302810  10.691017  -0.849521
    12  C   -0.002574   0.001983   0.000155  -0.033334  -0.849521  11.687742
    13  C   -0.000611   0.000087  -0.000099  -0.223403  -3.358338  -0.162883
    14  C    0.004443  -0.000003   0.000059   0.008025   0.885291  -4.499827
    15  C    0.000054  -0.000146   0.000003   0.021779   0.053084  -0.915387
    16  H    0.000000  -0.000001   0.000000  -0.002300  -0.002281   0.065610
    17  C    0.000084   0.000032  -0.000001  -0.027424  -1.706696   0.476203
    18  H    0.000000   0.000000   0.000000  -0.000170   0.013488  -0.070653
    19  H    0.000000   0.000000   0.000000  -0.000104   0.044438  -0.008921
    20  H   -0.008986  -0.000196   0.000015  -0.011973   0.061454  -0.032053
    21  H    0.000288   0.000005   0.000000  -0.011193   0.044246   0.092524
    22  H   -0.004644  -0.000152  -0.004817   0.000067   0.000608  -0.000406
    23  O    0.000000   0.000000   0.000000   0.000233  -0.015396  -0.014835
    24  C    0.000000   0.000000   0.000000   0.000078  -0.023928  -0.090550
    25  H    0.000000   0.000000   0.000000   0.000000  -0.007740   0.012402
    26  H    0.000000   0.000000   0.000000   0.000000   0.000926  -0.002357
    27  H    0.000000   0.000000   0.000000  -0.000002   0.007207   0.001581
              13         14         15         16         17         18
     1  C    0.016266  -0.025513   0.000352   0.000039   0.001346   0.000130
     2  C   -0.453005   0.182229   0.018162  -0.000271  -0.077137   0.003565
     3  C   -0.376326   0.483103   0.092712   0.002370  -0.085715   0.000125
     4  C    0.308227  -0.266387  -0.037758  -0.002985  -0.000918  -0.004728
     5  C    0.354541  -0.574920  -0.066840  -0.002310   0.016507  -0.000841
     6  C   -0.047611   0.031381  -0.002368  -0.000233  -0.004674   0.000027
     7  H   -0.000611   0.004443   0.000054   0.000000   0.000084   0.000000
     8  H    0.000087  -0.000003  -0.000146  -0.000001   0.000032   0.000000
     9  H   -0.000099   0.000059   0.000003   0.000000  -0.000001   0.000000
    10  O   -0.223403   0.008025   0.021779  -0.002300  -0.027424  -0.000170
    11  C   -3.358338   0.885291   0.053084  -0.002281  -1.706696   0.013488
    12  C   -0.162883  -4.499827  -0.915387   0.065610   0.476203  -0.070653
    13  C   10.724585  -1.261635  -0.455185   0.331423   1.195145  -0.035240
    14  C   -1.261635  13.542528  -0.362062  -0.039794  -2.118846   0.325379
    15  C   -0.455185  -0.362062   7.338581  -0.083754  -0.016588   0.038689
    16  H    0.331423  -0.039794  -0.083754   0.504953   0.027123   0.000015
    17  C    1.195145  -2.118846  -0.016588   0.027123   8.007879   0.025270
    18  H   -0.035240   0.325379   0.038689   0.000015   0.025270   0.519036
    19  H   -0.101336   0.026305   0.398341  -0.005190  -0.067166  -0.000156
    20  H    0.017629  -0.038223  -0.000117   0.000005  -0.007154   0.000297
    21  H    0.005358   0.060501   0.022051  -0.000209  -0.031964  -0.008336
    22  H    0.000058  -0.000137  -0.000003   0.000000   0.000000   0.000000
    23  O    0.048224  -0.181438  -0.183788  -0.000623   0.474363  -0.004549
    24  C    0.044465   0.016285   0.039509  -0.000036  -0.199761   0.000538
    25  H   -0.000019  -0.055667  -0.008729   0.000009   0.044712   0.000004
    26  H    0.000295   0.010805   0.000089   0.000000  -0.000303  -0.000029
    27  H   -0.003689   0.060049  -0.007400  -0.000002  -0.053539  -0.000004
              19         20         21         22         23         24
     1  C   -0.000003   0.010155  -0.008718   0.297952   0.000001  -0.000017
     2  C    0.000064  -0.005114  -0.003159  -0.029358  -0.000242  -0.000131
     3  C    0.000443   0.114374  -0.033475   0.053275  -0.000994   0.000787
     4  C    0.000237   0.038695   0.067177  -0.010127   0.000097  -0.001185
     5  C   -0.000051   0.054956   0.009555   0.015543  -0.000189  -0.000490
     6  C    0.000007   0.004888   0.004459  -0.034893  -0.000002   0.000011
     7  H    0.000000  -0.008986   0.000288  -0.004644   0.000000   0.000000
     8  H    0.000000  -0.000196   0.000005  -0.000152   0.000000   0.000000
     9  H    0.000000   0.000015   0.000000  -0.004817   0.000000   0.000000
    10  O   -0.000104  -0.011973  -0.011193   0.000067   0.000233   0.000078
    11  C    0.044438   0.061454   0.044246   0.000608  -0.015396  -0.023928
    12  C   -0.008921  -0.032053   0.092524  -0.000406  -0.014835  -0.090550
    13  C   -0.101336   0.017629   0.005358   0.000058   0.048224   0.044465
    14  C    0.026305  -0.038223   0.060501  -0.000137  -0.181438   0.016285
    15  C    0.398341  -0.000117   0.022051  -0.000003  -0.183788   0.039509
    16  H   -0.005190   0.000005  -0.000209   0.000000  -0.000623  -0.000036
    17  C   -0.067166  -0.007154  -0.031964   0.000000   0.474363  -0.199761
    18  H   -0.000156   0.000297  -0.008336   0.000000  -0.004549   0.000538
    19  H    0.519261   0.000000   0.000013   0.000000  -0.001847   0.002212
    20  H    0.000000   0.668928  -0.002451  -0.000199   0.000012  -0.000029
    21  H    0.000013  -0.002451   0.639582   0.000001  -0.000259   0.000377
    22  H    0.000000  -0.000199   0.000001   0.540292   0.000000   0.000000
    23  O   -0.001847   0.000012  -0.000259   0.000000   8.315720   0.096194
    24  C    0.002212  -0.000029   0.000377   0.000000   0.096194   5.291319
    25  H    0.000997   0.000000   0.000000   0.000000  -0.050486   0.404129
    26  H   -0.000041   0.000000   0.000000   0.000000  -0.044746   0.387348
    27  H    0.000179   0.000000   0.000007   0.000000  -0.051737   0.384130
              25         26         27
     1  C    0.000000   0.000000  -0.000001
     2  C   -0.000003   0.000001   0.000022
     3  C   -0.000089  -0.000001   0.000347
     4  C    0.000047   0.000005  -0.000087
     5  C    0.000003   0.000000   0.000008
     6  C    0.000000   0.000000   0.000001
     7  H    0.000000   0.000000   0.000000
     8  H    0.000000   0.000000   0.000000
     9  H    0.000000   0.000000   0.000000
    10  O    0.000000   0.000000  -0.000002
    11  C   -0.007740   0.000926   0.007207
    12  C    0.012402  -0.002357   0.001581
    13  C   -0.000019   0.000295  -0.003689
    14  C   -0.055667   0.010805   0.060049
    15  C   -0.008729   0.000089  -0.007400
    16  H    0.000009   0.000000  -0.000002
    17  C    0.044712  -0.000303  -0.053539
    18  H    0.000004  -0.000029  -0.000004
    19  H    0.000997  -0.000041   0.000179
    20  H    0.000000   0.000000   0.000000
    21  H    0.000000   0.000000   0.000007
    22  H    0.000000   0.000000   0.000000
    23  O   -0.050486  -0.044746  -0.051737
    24  C    0.404129   0.387348   0.384130
    25  H    0.551163  -0.033230  -0.046983
    26  H   -0.033230   0.503745  -0.027548
    27  H   -0.046983  -0.027548   0.531210
 Mulliken charges:
               1
     1  C    0.053928
     2  C   -0.436022
     3  C    0.522881
     4  C   -0.166951
     5  C   -0.562026
     6  C   -0.111247
     7  H    0.182170
     8  H    0.197941
     9  H    0.185039
    10  O   -0.431111
    11  C   -0.208395
    12  C    0.376348
    13  C   -0.566921
    14  C   -0.211930
    15  C    0.116715
    16  H    0.208443
    17  C    0.129223
    18  H    0.198142
    19  H    0.192319
    20  H    0.135087
    21  H    0.153620
    22  H    0.176941
    23  O   -0.383714
    24  C   -0.351254
    25  H    0.189483
    26  H    0.205042
    27  H    0.206249
 Sum of Mulliken charges =   0.00000
 Mulliken charges with hydrogens summed into heavy atoms:
               1
     1  C    0.230869
     2  C   -0.253852
     3  C    0.657968
     4  C   -0.166951
     5  C   -0.364086
     6  C    0.073792
    10  O   -0.431111
    11  C   -0.208395
    12  C    0.529968
    13  C   -0.358478
    14  C   -0.013788
    15  C    0.309034
    17  C    0.129223
    23  O   -0.383714
    24  C    0.249520
 Electronic spatial extent (au):  <R**2>=           4851.1884
 Charge=              0.0000 electrons
 Dipole moment (field-independent basis, Debye):
    X=             -0.8071    Y=             -0.6956    Z=              1.1205  Tot=              1.5462
 Quadrupole moment (field-independent basis, Debye-Ang):
   XX=            -72.3581   YY=            -82.2481   ZZ=            -95.4067
   XY=             -5.6453   XZ=             -6.9010   YZ=             -1.9870
 Traceless Quadrupole moment (field-independent basis, Debye-Ang):
   XX=             10.9795   YY=              1.0895   ZZ=            -12.0690
   XY=             -5.6453   XZ=             -6.9010   YZ=             -1.9870
 Octapole moment (field-independent basis, Debye-Ang**2):
  XXX=            -12.4484  YYY=             -1.2012  ZZZ=              0.6075  XYY=             -2.9416
  XXY=             19.1331  XXZ=             29.3742  XZZ=            -14.1856  YZZ=              0.4973
  YYZ=             -0.5471  XYZ=              7.6816
 Hexadecapole moment (field-independent basis, Debye-Ang**3):
 XXXX=          -5056.7570 YYYY=           -680.5240 ZZZZ=           -155.6034 XXXY=             -5.5561
 XXXZ=           -175.3742 YYYX=            -12.9353 YYYZ=             -1.6310 ZZZX=             -1.8851
 ZZZY=              0.6602 XXYY=          -1008.5779 XXZZ=          -1076.4192 YYZZ=           -162.3981
 XXYZ=            -34.7234 YYXZ=             -2.1045 ZZXY=             12.2460
 N-N= 8.675699705681D+02 E-N=-3.251638831262D+03  KE= 6.463790320970D+02
 Evaluate density.
 Using the total density.
 Monte-Carlo method of calculating molar volume:
 based on  0.001 e/bohr**3 density envelope.
 Number of points per bohr**3 =   20 CutOff= 1.00D-04
 Using the SCF density.
 There are       417 points.  Will hold       417 in memory.
 LenV=  4026305529 MDV=  4026531840.
 Box volume = 9090.684 fraction occupied=0.199
 Integrated density= 7.0525954761647583D+01 error=-3.5474045238352417D+01
 Molar volume = 1809.417 bohr**3/mol (161.470 cm**3/mol)
 Recommended a0 for SCRF calculation =  4.90 angstrom (  9.26 bohr)
 Calling FoFJK, ICntrl=      2127 FMM=F ISym2X=0 I1Cent= 0 IOpClX= 0 NMat=1 NMatS=1 NMatT=0.
 ***** Axes restored to original set *****
 -------------------------------------------------------------------
 Center     Atomic                   Forces (Hartrees/Bohr)
 Number     Number              X              Y              Z
 -------------------------------------------------------------------
      1        6           0.002034119    0.010479586   -0.003346673
      2        6           0.004614454    0.010340540    0.016732483
      3        6          -0.001252142   -0.011110122    0.014553501
      4        6           0.007083156    0.047103645   -0.040634700
      5        6           0.000878585    0.008616022   -0.007164263
      6        6          -0.001801497    0.005747527   -0.021222190
      7        1          -0.002861161   -0.006717648   -0.009583175
      8        1           0.003102774    0.008676921    0.007469315
      9        1           0.001066687   -0.002193419    0.011441430
     10        8          -0.002805407   -0.004617800   -0.024736236
     11        6          -0.003740307   -0.060168714    0.031346238
     12        6           0.004947063    0.020275368   -0.004299521
     13        6          -0.004841224   -0.013167763    0.015334354
     14        6           0.003414009    0.012848993    0.008491223
     15        6          -0.008965329   -0.017875294    0.000930782
     16        1           0.003993167    0.006061105    0.009434730
     17        6           0.006549896    0.005172194   -0.017837305
     18        1          -0.002320401   -0.005551426   -0.009730834
     19        1           0.004428171    0.009824386   -0.000187130
     20        1          -0.002277676   -0.021407115    0.012650699
     21        1           0.000836876    0.018122133   -0.016999849
     22        1          -0.002311848   -0.011596514    0.002500241
     23        8          -0.006620600   -0.016391850    0.027035022
     24        6           0.008727951   -0.008170559    0.002779086
     25        1           0.003516020    0.018160965    0.007416265
     26        1           0.003307383   -0.000054787   -0.016789589
     27        1          -0.018702721   -0.002406373    0.004416097
 -------------------------------------------------------------------
 Cartesian Forces:  Max     0.060168714 RMS     0.014505412

 GradGradGradGradGradGradGradGradGradGradGradGradGradGradGradGradGradGrad
 Berny optimization.
 FormGI is forming the generalized inverse of G from B-inverse, IUseBI=4.
 Internal  Forces:  Max     0.166458532 RMS     0.024615987
 Search for a local minimum.
 Step number   1 out of a maximum of  139
 All quantities printed in internal units (Hartrees-Bohrs-Radians)
 Mixed Optimization -- RFO/linear search
 Second derivative matrix not updated -- first step.
 ITU=  0
     Eigenvalues ---    0.00230   0.00230   0.01295   0.01295   0.01736
     Eigenvalues ---    0.01784   0.01932   0.02070   0.02070   0.02070
     Eigenvalues ---    0.02070   0.02070   0.02070   0.02070   0.02070
     Eigenvalues ---    0.02070   0.02070   0.02070   0.02070   0.02070
     Eigenvalues ---    0.02070   0.02070   0.10344   0.10344   0.16000
     Eigenvalues ---    0.16000   0.16000   0.16000   0.16000   0.16000
     Eigenvalues ---    0.16000   0.16000   0.16000   0.16000   0.16000
     Eigenvalues ---    0.16000   0.18708   0.22000   0.22000   0.22000
     Eigenvalues ---    0.22966   0.23485   0.23969   0.24759   0.25000
     Eigenvalues ---    0.25000   0.25000   0.25000   0.27457   0.37230
     Eigenvalues ---    0.37230   0.37230   0.37230   0.37230   0.37230
     Eigenvalues ---    0.37230   0.37230   0.37230   0.37230   0.37230
     Eigenvalues ---    0.37230   0.40989   0.40989   0.41268   0.41268
     Eigenvalues ---    0.41459   0.41631   0.45389   0.45389   0.45389
     Eigenvalues ---    0.45389   0.45389   0.45389   0.45389   0.45389
 RFO step:  Lambda=-1.81455936D-01 EMin= 2.30000000D-03
 Linear search not attempted -- first point.
 Maximum step size (   0.300) exceeded in Quadratic search.
    -- Step size scaled by   0.465
 Iteration  1 RMS(Cart)=  0.24092580 RMS(Int)=  0.01359084
 Iteration  2 RMS(Cart)=  0.15297256 RMS(Int)=  0.00363155
 Iteration  3 RMS(Cart)=  0.00868560 RMS(Int)=  0.00013102
 Iteration  4 RMS(Cart)=  0.00000392 RMS(Int)=  0.00013102
 Iteration  5 RMS(Cart)=  0.00000000 RMS(Int)=  0.00013102
 Variable       Old X    -DE/DX   Delta X   Delta X   Delta X     New X
                                 (Linear)    (Quad)   (Total)
    R1        2.64826  -0.00972   0.00000  -0.00714  -0.00715   2.64111
    R2        2.64826  -0.00948   0.00000  -0.00712  -0.00713   2.64114
    R3        2.02201   0.01209   0.00000   0.01014   0.01014   2.03215
    R4        2.64826  -0.00123   0.00000  -0.00075  -0.00075   2.64751
    R5        2.02201   0.01200   0.00000   0.01007   0.01007   2.03208
    R6        2.64826   0.00394   0.00000   0.00307   0.00307   2.65133
    R7        2.02201  -0.01895   0.00000  -0.01590  -0.01590   2.00611
    R8        2.64826  -0.00644   0.00000  -0.00468  -0.00467   2.64359
    R9        2.93342  -0.04136   0.00000  -0.04214  -0.04214   2.89129
   R10        2.64826  -0.00543   0.00000  -0.00412  -0.00412   2.64414
   R11        2.02201   0.01172   0.00000   0.00983   0.00983   2.03184
   R12        2.02201   0.01155   0.00000   0.00969   0.00969   2.03170
   R13        3.18558  -0.05205   0.00000  -0.06561  -0.06561   3.11997
   R14        2.64826  -0.00281   0.00000  -0.00195  -0.00195   2.64631
   R15        2.64826  -0.01159   0.00000  -0.00849  -0.00849   2.63978
   R16        2.64826  -0.00230   0.00000  -0.00157  -0.00157   2.64669
   R17        2.02201  -0.01945   0.00000  -0.01631  -0.01631   2.00569
   R18        2.64826  -0.00622   0.00000  -0.00466  -0.00466   2.64360
   R19        2.02201   0.01180   0.00000   0.00990   0.00990   2.03191
   R20        2.64826  -0.01364   0.00000  -0.00997  -0.00997   2.63830
   R21        2.02201   0.01136   0.00000   0.00953   0.00953   2.03154
   R22        2.64826  -0.01020   0.00000  -0.00756  -0.00756   2.64071
   R23        2.02201   0.01068   0.00000   0.00896   0.00896   2.03096
   R24        2.70231  -0.02751   0.00000  -0.02161  -0.02161   2.68070
   R25        2.70231   0.00807   0.00000   0.00634   0.00634   2.70865
   R26        2.02201   0.01953   0.00000   0.01638   0.01638   2.03839
   R27        2.02201   0.01638   0.00000   0.01374   0.01374   2.03575
   R28        2.02201   0.01911   0.00000   0.01603   0.01603   2.03804
    A1        2.09440  -0.00713   0.00000  -0.00879  -0.00880   2.08559
    A2        2.09440   0.00365   0.00000   0.00452   0.00452   2.09892
    A3        2.09440   0.00348   0.00000   0.00428   0.00428   2.09868
    A4        2.09440   0.00579   0.00000   0.00671   0.00670   2.10109
    A5        2.09440  -0.00183   0.00000  -0.00191  -0.00190   2.09249
    A6        2.09440  -0.00396   0.00000  -0.00480  -0.00480   2.08960
    A7        2.09440   0.00270   0.00000   0.00349   0.00349   2.09789
    A8        2.09440  -0.01776   0.00000  -0.02407  -0.02407   2.07032
    A9        2.09440   0.01506   0.00000   0.02058   0.02058   2.11497
   A10        2.09440  -0.01388   0.00000  -0.01478  -0.01477   2.07963
   A11        2.09440   0.10293   0.00000   0.11075   0.11074   2.20514
   A12        2.09440  -0.08906   0.00000  -0.09597  -0.09598   1.99842
   A13        2.09440   0.00909   0.00000   0.01014   0.01015   2.10455
   A14        2.09440  -0.00639   0.00000  -0.00758  -0.00758   2.08681
   A15        2.09440  -0.00270   0.00000  -0.00256  -0.00257   2.09183
   A16        2.09440   0.00343   0.00000   0.00323   0.00323   2.09762
   A17        2.09440   0.00014   0.00000   0.00091   0.00091   2.09530
   A18        2.09440  -0.00357   0.00000  -0.00413  -0.00414   2.09026
   A19        2.23319   0.16646   0.00000   0.17923   0.17923   2.41242
   A20        2.01758   0.10543   0.00000   0.11442   0.11449   2.13207
   A21        2.16295  -0.09669   0.00000  -0.10443  -0.10453   2.05842
   A22        2.09440  -0.00816   0.00000  -0.00847  -0.00847   2.08593
   A23        2.09440   0.00198   0.00000   0.00243   0.00242   2.09681
   A24        2.09440   0.01343   0.00000   0.01840   0.01840   2.11280
   A25        2.09440  -0.01541   0.00000  -0.02083  -0.02084   2.07356
   A26        2.09440   0.00596   0.00000   0.00649   0.00649   2.10088
   A27        2.09440  -0.00327   0.00000  -0.00364  -0.00364   2.09076
   A28        2.09440  -0.00269   0.00000  -0.00285  -0.00285   2.09155
   A29        2.09440   0.00188   0.00000   0.00216   0.00216   2.09655
   A30        2.09440   0.00041   0.00000   0.00075   0.00075   2.09515
   A31        2.09440  -0.00229   0.00000  -0.00292  -0.00291   2.09148
   A32        2.09440   0.00078   0.00000   0.00035   0.00035   2.09475
   A33        2.09440  -0.00179   0.00000  -0.00208  -0.00208   2.09231
   A34        2.09440   0.00101   0.00000   0.00173   0.00173   2.09613
   A35        2.09440  -0.00244   0.00000  -0.00296  -0.00296   2.09143
   A36        2.09440  -0.00436   0.00000  -0.00452  -0.00452   2.08987
   A37        2.09440   0.00680   0.00000   0.00748   0.00748   2.10188
   A38        1.91114   0.02092   0.00000   0.02253   0.02253   1.93366
   A39        1.91063   0.00679   0.00000   0.00947   0.00945   1.92009
   A40        1.91063  -0.01003   0.00000  -0.01413  -0.01412   1.89651
   A41        1.91063   0.00527   0.00000   0.00742   0.00740   1.91803
   A42        1.91063  -0.00071   0.00000  -0.00147  -0.00145   1.90918
   A43        1.91063  -0.00160   0.00000  -0.00122  -0.00127   1.90937
   A44        1.91063   0.00027   0.00000  -0.00008  -0.00008   1.91056
    D1        0.00000  -0.00006   0.00000  -0.00013  -0.00013  -0.00013
    D2       -3.14159  -0.00010   0.00000  -0.00023  -0.00023   3.14137
    D3       -3.14159  -0.00001   0.00000  -0.00001  -0.00002   3.14158
    D4        0.00000  -0.00005   0.00000  -0.00012  -0.00011  -0.00011
    D5        0.00000  -0.00001   0.00000  -0.00001  -0.00001  -0.00002
    D6        3.14159   0.00005   0.00000   0.00011   0.00012  -3.14148
    D7        3.14159  -0.00006   0.00000  -0.00013  -0.00013   3.14146
    D8        0.00000   0.00000   0.00000   0.00000   0.00000  -0.00001
    D9        0.00000   0.00003   0.00000   0.00007   0.00007   0.00007
   D10       -3.14159  -0.00032   0.00000  -0.00074  -0.00073   3.14086
   D11        3.14159   0.00007   0.00000   0.00017   0.00017  -3.14143
   D12        0.00000  -0.00028   0.00000  -0.00064  -0.00063  -0.00063
   D13        0.00000   0.00006   0.00000   0.00014   0.00014   0.00013
   D14        3.14159   0.00016   0.00000   0.00038   0.00039  -3.14121
   D15        3.14159   0.00041   0.00000   0.00095   0.00096  -3.14064
   D16        0.00000   0.00052   0.00000   0.00119   0.00121   0.00121
   D17        0.00000  -0.00012   0.00000  -0.00028  -0.00028  -0.00028
   D18       -3.14159  -0.00005   0.00000  -0.00011  -0.00011   3.14148
   D19       -3.14159  -0.00023   0.00000  -0.00052  -0.00051   3.14109
   D20        0.00000  -0.00015   0.00000  -0.00035  -0.00034  -0.00034
   D21       -0.09171   0.00105   0.00000   0.00267   0.00266  -0.08905
   D22        3.04988   0.00115   0.00000   0.00291   0.00291   3.05279
   D23        0.00000   0.00010   0.00000   0.00022   0.00022   0.00022
   D24       -3.14159   0.00004   0.00000   0.00009   0.00009  -3.14150
   D25       -3.14159   0.00002   0.00000   0.00005   0.00005  -3.14154
   D26        0.00000  -0.00003   0.00000  -0.00008  -0.00007  -0.00007
   D27        0.07603   0.01104   0.00000   0.02761   0.02730   0.10333
   D28       -2.92738   0.00551   0.00000   0.01422   0.01453  -2.91285
   D29       -3.00924   0.00343   0.00000  -0.00140  -0.00220  -3.01144
   D30        0.13235   0.00545   0.00000   0.00482   0.00421   0.13657
   D31        0.00000   0.00069   0.00000   0.00272   0.00283   0.00283
   D32       -3.14159   0.00271   0.00000   0.00894   0.00924  -3.13235
   D33        2.99766   0.01136   0.00000   0.01756   0.01692   3.01459
   D34       -0.14393   0.01062   0.00000   0.01753   0.01702  -0.12691
   D35        0.00000  -0.00241   0.00000  -0.00505  -0.00502  -0.00502
   D36        3.14159  -0.00315   0.00000  -0.00508  -0.00493   3.13667
   D37        0.00000   0.00123   0.00000   0.00106   0.00090   0.00090
   D38        3.14159   0.00039   0.00000   0.00080   0.00077  -3.14083
   D39        3.14159  -0.00079   0.00000  -0.00515  -0.00537   3.13622
   D40        0.00000  -0.00163   0.00000  -0.00542  -0.00550  -0.00551
   D41        0.00000   0.00221   0.00000   0.00360   0.00349   0.00349
   D42        3.14159   0.00108   0.00000   0.00258   0.00260  -3.13900
   D43        3.14159   0.00295   0.00000   0.00363   0.00339  -3.13820
   D44        0.00000   0.00182   0.00000   0.00261   0.00250   0.00250
   D45        0.00000  -0.00143   0.00000  -0.00252  -0.00245  -0.00245
   D46       -3.14159  -0.00181   0.00000  -0.00334  -0.00326   3.13833
   D47       -3.14159  -0.00059   0.00000  -0.00226  -0.00232   3.13927
   D48        0.00000  -0.00097   0.00000  -0.00308  -0.00313  -0.00313
   D49        0.00000  -0.00029   0.00000   0.00019   0.00027   0.00027
   D50       -3.14159   0.00009   0.00000   0.00101   0.00109  -3.14051
   D51       -3.14159   0.00084   0.00000   0.00121   0.00117  -3.14043
   D52        0.00000   0.00122   0.00000   0.00203   0.00198   0.00198
   D53        1.97998  -0.00047   0.00000  -0.00118  -0.00118   1.97880
   D54       -1.16161  -0.00086   0.00000  -0.00200  -0.00200  -1.16361
   D55        1.30804   0.00186   0.00000   0.00235   0.00241   1.31044
   D56       -2.88075  -0.00099   0.00000  -0.00229  -0.00230  -2.88305
   D57       -0.78636  -0.00357   0.00000  -0.00650  -0.00655  -0.79290
         Item               Value     Threshold  Converged?
 Maximum Force            0.166459     0.000450     NO 
 RMS     Force            0.024616     0.000300     NO 
 Maximum Displacement     1.355566     0.001800     NO 
 RMS     Displacement     0.386957     0.001200     NO 
 Predicted change in Energy=-7.305057D-02
 GradGradGradGradGradGradGradGradGradGradGradGradGradGradGradGradGradGrad

                          Input orientation:                          
 ---------------------------------------------------------------------
 Center     Atomic      Atomic             Coordinates (Angstroms)
 Number     Number       Type             X           Y           Z
 ---------------------------------------------------------------------
      1          6           0       -4.698223   -0.271361    0.041878
      2          6           0       -4.827266   -0.113942   -1.340837
      3          6           0       -4.618526    1.137996   -1.934038
      4          6           0       -4.277575    2.245636   -1.143235
      5          6           0       -4.149622    2.081810    0.240163
      6          6           0       -4.358573    0.830886    0.831217
      7          1           0       -5.088147   -0.957758   -1.954225
      8          1           0       -3.888477    2.926164    0.852479
      9          1           0       -4.256840    0.719899    1.895752
     10          8           0       -4.019537    3.669518   -1.640107
     11          6           0       -3.911645    4.470569   -3.079734
     12          6           0       -4.195206    3.848553   -4.301911
     13          6           0       -3.377878    5.761456   -3.072037
     14          6           0       -3.941443    4.516526   -5.506488
     15          6           0       -3.121764    6.428132   -4.274937
     16          1           0       -3.162719    6.245014   -2.136080
     17          6           0       -3.403721    5.804879   -5.493455
     18          1           0       -4.160371    4.037837   -6.443850
     19          1           0       -2.708772    7.420238   -4.259842
     20          1           0       -4.723247    1.225688   -2.986799
     21          1           0       -4.608835    2.871700   -4.336113
     22          1           0       -4.858913   -1.233225    0.495096
     23          8           0       -3.146222    6.472382   -6.718385
     24          6           0       -4.008217    7.607464   -6.870248
     25          1           0       -3.676323    8.411082   -6.231834
     26          1           0       -3.975595    7.930094   -7.897556
     27          1           0       -5.019519    7.337716   -6.610178
 ---------------------------------------------------------------------
                    Distance matrix (angstroms):
                    1          2          3          4          5
     1  C    0.000000
     2  C    1.397617   0.000000
     3  C    2.428350   1.401003   0.000000
     4  C    2.813665   2.430805   1.403026   0.000000
     5  C    2.424396   2.789281   2.416154   1.398928   0.000000
     6  C    1.397629   2.414578   2.794374   2.430337   1.399220
     7  H    2.146534   1.075328   2.147822   3.402420   3.864601
     8  H    3.396606   3.864480   3.390456   2.144153   1.075203
     9  H    2.148084   3.390602   3.869484   3.400550   2.146456
    10  O    4.338227   3.880278   2.617973   1.530002   2.464377
    11  C    5.731411   4.987972   3.594209   2.972249   4.096891
    12  C    6.007929   4.986865   3.623967   3.543072   4.873796
    13  C    6.916260   6.294289   4.920430   4.109833   5.010594
    14  C    7.367560   6.291150   4.963397   4.930305   6.244612
    15  C    8.124243   7.369967   5.975420   5.351330   6.350837
    16  H    7.040200   6.621136   5.314304   4.268919   4.894157
    17  C    8.320837   7.369067   5.993746   5.688255   6.876916
    18  H    7.805328   6.612319   5.381207   5.596628   6.964351
    19  H    9.034568   8.352993   6.965852   6.241066   7.129159
    20  H    3.378560   2.124764   1.061585   2.153519   3.387517
    21  H    5.390142   4.234791   2.962396   3.270499   4.666594
    22  H    1.075365   2.150452   3.403111   3.889030   3.399639
    23  O    9.674086   8.667387   7.315281   7.087147   8.288867
    24  C   10.503783   9.532331   8.160432   7.849868   9.006152
    25  H   10.760509   9.895582   8.500386   8.016737   9.064790
    26  H   11.437686  10.412609   9.061429   8.833182  10.022733
    27  H   10.111930   9.128533   7.775835   7.507811   8.678043
                    6          7          8          9         10
     6  C    0.000000
     7  H    3.389721   0.000000
     8  H    2.147471   4.939802   0.000000
     9  H    1.075129   4.281113   2.468140   0.000000
    10  O    3.778918   4.759441   2.604369   4.610734   0.000000
    11  C    5.361210   5.667245   4.224692   6.240364   1.651014
    12  C    5.956677   5.423062   5.245247   6.942859   2.673595
    13  C    6.364564   7.022988   4.868410   7.132237   2.615024
    14  C    7.343326   6.625805   6.555038   8.325083   3.958841
    15  C    7.676696   7.987724   6.256358   8.482318   3.918963
    16  H    6.288696   7.457900   4.524707   6.926736   2.759222
    17  C    8.102704   7.816437   6.985189   9.010283   4.448290
    18  H    7.953013   6.780374   7.385537   8.975911   4.819900
    19  H    8.488833   9.009335   6.908273   9.229432   4.759099
    20  H    3.855658   2.442703   4.281182   4.930787   2.877689
    21  H    5.561372   4.535183   5.238642   6.602295   2.872670
    22  H    2.150319   2.475399   4.286023   2.477705   5.412997
    23  O    9.502250   9.037438   8.393128  10.417672   5.865802
    24  C   10.264371   9.934614   9.031578  11.150924   6.546901
    25  H   10.383232  10.395496   8.961965  11.204862   6.609400
    26  H   11.257748  10.749645  10.080179  12.164493   7.570343
    27  H    9.907070   9.513017   8.742556  10.804074   6.257575
                   11         12         13         14         15
    11  C    0.000000
    12  C    1.400366   0.000000
    13  C    1.396909   2.416570   0.000000
    14  C    2.427372   1.400568   2.791775   0.000000
    15  C    2.425794   2.794143   1.398935   2.417195   0.000000
    16  H    2.144768   3.391147   1.075238   3.867006   2.147072
    17  C    2.804357   2.423517   2.421945   1.396126   1.397401
    18  H    3.400940   2.150569   3.866818   1.075044   3.390634
    19  H    3.397074   3.868875   2.147125   3.391924   1.074740
    20  H    3.346130   2.981236   4.731857   4.217780   5.593699
    21  H    2.149638   1.061367   3.385828   2.126180   3.855299
    22  H    6.797793   7.019704   7.990211   8.361842   9.190609
    23  O    4.222903   3.718091   3.722222   2.434429   2.443971
    24  C    4.921120   4.556394   4.269833   3.379082   2.985341
    25  H    5.051609   4.981015   4.134477   3.970388   2.840611
    26  H    5.931594   5.443884   5.324086   4.167831   4.013513
    27  H    4.681020   4.264018   4.206901   3.215508   3.143591
                   16         17         18         19         20
    16  H    0.000000
    17  C    3.394668   0.000000
    18  H    4.942046   2.144342   0.000000
    19  H    2.469329   2.148056   4.279914   0.000000
    20  H    5.324716   5.384557   4.491794   6.637108   0.000000
    21  H    4.279094   3.375688   2.450214   4.930036   2.131454
    22  H    8.107048   9.354957   8.741912  10.105196   4.264769
    23  O    4.587972   1.418563   2.651580   2.670997   6.628691
    24  C    4.998348   2.347400   3.598222   2.921956   7.504632
    25  H    4.661635   2.722464   4.405056   2.409705   7.953376
    26  H    6.057629   3.259338   4.158974   3.885583   8.344074
    27  H    4.965809   2.491478   3.413942   3.297035   7.111507
                   21         22         23         24         25
    21  H    0.000000
    22  H    6.344567   0.000000
    23  O    4.558439  10.693176   0.000000
    24  C    5.404631  11.538186   1.433355   0.000000
    25  H    5.928582  11.817900   2.067920   1.078670   0.000000
    26  H    6.218699  12.457258   2.050177   1.077273   1.759415
    27  H    5.028452  11.134260   2.066337   1.078485   1.760521
                   26         27
    26  H    0.000000
    27  H    1.760122   0.000000
 Stoichiometry    C13H12O2
 Framework group  C1[X(C13H12O2)]
 Deg. of freedom    75
 Full point group                 C1      NOp   1
 Largest Abelian subgroup         C1      NOp   1
 Largest concise Abelian subgroup C1      NOp   1
                         Standard orientation:                         
 ---------------------------------------------------------------------
 Center     Atomic      Atomic             Coordinates (Angstroms)
 Number     Number       Type             X           Y           Z
 ---------------------------------------------------------------------
      1          6           0        5.050556   -0.603935   -0.041083
      2          6           0        3.992104   -1.516233   -0.014172
      3          6           0        2.667562   -1.063373    0.043404
      4          6           0        2.392698    0.312114    0.074473
      5          6           0        3.456294    1.220415    0.047056
      6          6           0        4.778648    0.766643   -0.010273
      7          1           0        4.194020   -2.572169   -0.037830
      8          1           0        3.253220    2.276007    0.070490
      9          1           0        5.586022    1.476313   -0.030698
     10          8           0        1.007522    0.958792    0.137743
     11          6           0       -0.574288    0.487811    0.094132
     12          6           0       -0.950478   -0.861067    0.088120
     13          6           0       -1.545954    1.474084   -0.091575
     14          6           0       -2.291219   -1.216338   -0.106266
     15          6           0       -2.884879    1.119733   -0.288387
     16          1           0       -1.262749    2.511322   -0.083225
     17          6           0       -3.257831   -0.226960   -0.295892
     18          1           0       -2.578421   -2.252302   -0.109897
     19          1           0       -3.625584    1.884945   -0.432864
     20          1           0        1.885242   -1.780726    0.061968
     21          1           0       -0.233808   -1.629999    0.235180
     22          1           0        6.066473   -0.953752   -0.085267
     23          8           0       -4.612824   -0.596103   -0.496012
     24          6           0       -5.424293   -0.170083    0.606047
     25          1           0       -5.588468    0.894732    0.553667
     26          1           0       -6.371353   -0.680905    0.554517
     27          1           0       -4.935690   -0.411842    1.536611
 ---------------------------------------------------------------------
 Rotational constants (GHZ):           2.3461657           0.2154490           0.1995796
 Standard basis: 6-31+G(d) (6D, 7F)
 There are   309 symmetry adapted cartesian basis functions of A   symmetry.
 There are   309 symmetry adapted basis functions of A   symmetry.
   309 basis functions,   528 primitive gaussians,   309 cartesian basis functions
    53 alpha electrons       53 beta electrons
       nuclear repulsion energy       857.2076094604 Hartrees.
 NAtoms=   27 NActive=   27 NUniq=   27 SFac= 1.00D+00 NAtFMM=   60 NAOKFM=F Big=F
 Integral buffers will be    131072 words long.
 Raffenetti 2 integral format.
 Two-electron integral symmetry is turned on.
 Nuclear repulsion after empirical dispersion term =      857.1880855554 Hartrees.
 One-electron integrals computed using PRISM.
 NBasis=   309 RedAO= T EigKep=  1.92D-06  NBF=   309
 NBsUse=   308 1.00D-06 EigRej=  7.96D-07 NBFU=   308
 Initial guess from the checkpoint file:  "molecule_95.chk"
 B after Tr=     0.000000    0.000000    0.000000
         Rot=    0.999988   -0.000186    0.000250   -0.004839 Ang=  -0.56 deg.
 ExpMin= 4.38D-02 ExpMax= 5.48D+03 ExpMxC= 8.25D+02 IAcc=3 IRadAn=         5 AccDes= 0.00D+00
 Harris functional with IExCor=  402 and IRadAn=       5 diagonalized for initial guess.
 HarFok:  IExCor=  402 AccDes= 0.00D+00 IRadAn=         5 IDoV= 1 UseB2=F ITyADJ=14
 ICtDFT=  3500011 ScaDFX=  1.000000  1.000000  1.000000  1.000000
 FoFCou: FMM=F IPFlag=           0 FMFlag=      100000 FMFlg1=           0
         NFxFlg=           0 DoJE=T BraDBF=F KetDBF=T FulRan=T
         wScrn=  0.000000 ICntrl=       500 IOpCl=  0 I1Cent=   200000004 NGrid=           0
         NMat0=    1 NMatS0=      1 NMatT0=    0 NMatD0=    1 NMtDS0=    0 NMtDT0=    0
 Petite list used in FoFCou.
 Requested convergence on RMS density matrix=1.00D-08 within 128 cycles.
 Requested convergence on MAX density matrix=1.00D-06.
 Requested convergence on             energy=1.00D-06.
 No special actions if energy rises.
 SCF Done:  E(RB3LYP) =  -653.008227208     A.U. after   16 cycles
            NFock= 16  Conv=0.40D-08     -V/T= 2.0104
 Calling FoFJK, ICntrl=      2127 FMM=F ISym2X=0 I1Cent= 0 IOpClX= 0 NMat=1 NMatS=1 NMatT=0.
 ***** Axes restored to original set *****
 -------------------------------------------------------------------
 Center     Atomic                   Forces (Hartrees/Bohr)
 Number     Number              X              Y              Z
 -------------------------------------------------------------------
      1        6           0.000679585    0.005019075   -0.003915607
      2        6           0.003183065    0.009304357    0.009394636
      3        6           0.002504826    0.006472526    0.009113573
      4        6           0.005814843    0.039193037   -0.036140626
      5        6           0.000930311    0.005912153   -0.002295765
      6        6          -0.001402080    0.001918709   -0.013950301
      7        1          -0.001893364   -0.005417449   -0.005793786
      8        1           0.001983673    0.007135556    0.002700056
      9        1           0.001115535    0.000640520    0.008021694
     10        8          -0.001939727    0.002850150   -0.021171808
     11        6          -0.001397347   -0.054506577    0.032069003
     12        6           0.004671139    0.009871342    0.009341856
     13        6          -0.003217706   -0.008492290    0.013721966
     14        6           0.001272521    0.006313363    0.006922697
     15        6          -0.006788073   -0.010970957    0.000345460
     16        1           0.002770985    0.002015039    0.007180839
     17        6           0.005785140    0.008454466   -0.015569014
     18        1          -0.001442634   -0.002697141   -0.006864980
     19        1           0.003221095    0.006612306    0.000974933
     20        1          -0.001048715    0.003295745   -0.016332869
     21        1          -0.005429372   -0.015215219    0.000706422
     22        1          -0.001216584   -0.007206185    0.003288549
     23        8          -0.007659973   -0.014667138    0.018804582
     24        6           0.006670359   -0.006491319    0.001762950
     25        1           0.002255183    0.011411624    0.006718643
     26        1           0.003397849    0.001008923   -0.010981208
     27        1          -0.012820534   -0.001764616    0.001948105
 -------------------------------------------------------------------
 Cartesian Forces:  Max     0.054506577 RMS     0.011754998

 GradGradGradGradGradGradGradGradGradGradGradGradGradGradGradGradGradGrad
 Berny optimization.
 Using GEDIIS/GDIIS optimizer.
 FormGI is forming the generalized inverse of G from B-inverse, IUseBI=4.
 Internal  Forces:  Max     0.092597744 RMS     0.013217797
 Search for a local minimum.
 Step number   2 out of a maximum of  139
 All quantities printed in internal units (Hartrees-Bohrs-Radians)
 Mixed Optimization -- RFO/linear search
 Update second derivatives using D2CorX and points    1    2
 DE= -2.94D-02 DEPred=-7.31D-02 R= 4.03D-01
 Trust test= 4.03D-01 RLast= 3.03D-01 DXMaxT set to 3.00D-01
 ITU=  0  0
 Use linear search instead of GDIIS.
     Eigenvalues ---    0.00230   0.00232   0.01295   0.01295   0.01728
     Eigenvalues ---    0.01775   0.01932   0.02069   0.02070   0.02070
     Eigenvalues ---    0.02070   0.02070   0.02070   0.02070   0.02070
     Eigenvalues ---    0.02070   0.02070   0.02070   0.02070   0.02070
     Eigenvalues ---    0.02070   0.02073   0.10258   0.10404   0.15109
[...]
 4,0.00167933,0.00067219,-0.00185327,0.09153232,0.08535652,-0.27716686,
 0.00627724,0.00939601,-0.01484616,0.00313460,-0.00302189,-0.00010030,-
 0.00030503,-0.00069860,0.00033869,-0.00183731,-0.00013332,0.00008334,0
 .00027225,0.00051187,-0.00070377,-0.00030431,-0.00000983,-0.00018341,-
 0.00154102,0.00072328,-0.00010391,-0.00071218,0.00093731,0.00012403,-0
 .00018766,0.00100022,0.00017939,-0.00048708,-0.00007449,0.00034551,-0.
 00010741,0.00000185,0.00003153,-0.00007892,-0.00004664,-0.00002911,0.0
 0004556,-0.00014167,-0.00008755,0.00011988,-0.00004587,0.00009388,-0.0
 0000076,-0.00000143,-0.00002597,-0.00000201,0.00000780,0.00000032,-0.0
 9942711,-0.09569124,0.29152330,-0.00011234,0.00000088,0.00014845,0.000
 07648,0.00029493,-0.00003434,0.00036498,-0.00002421,0.00019179,-0.0001
 4729,-0.00015965,-0.00069701,0.00006070,0.00034251,-0.00019134,0.00008
 003,-0.00018450,-0.00002870,0.,-0.00000778,-0.00001266,-0.00003760,-0.
 00001037,0.00001203,-0.00000776,-0.00000387,0.00001765,0.00009065,0.00
 246866,0.00120795,-0.01176289,-0.01516713,0.00827682,-0.20924114,-0.14
 280003,0.04096129,-0.00024552,-0.00202085,-0.00463124,0.00284800,0.000
 14673,-0.00063670,0.00010628,0.00079696,-0.00039742,-0.00059181,-0.000
 79813,0.00028799,0.00372324,-0.00223365,-0.00171795,-0.00089986,0.0022
 3278,0.00114663,-0.00024369,0.00025178,0.00015867,-0.00032981,-0.00020
 420,0.00011889,0.21624886,0.00000470,-0.00001580,-0.00002065,0.0000593
 7,-0.00005064,-0.00005253,-0.00005647,-0.00011545,0.00019002,0.0000594
 6,0.00032127,0.00025209,-0.00009819,-0.00011235,-0.00001734,-0.0000017
 1,0.00005692,0.00002058,-0.00000350,-0.00001389,-0.00000005,-0.0000127
 4,-0.00000221,-0.00003875,0.00001983,0.00000330,-0.00000011,0.00270487
 ,-0.00194965,-0.00067423,-0.00553832,-0.00078331,0.00356139,-0.1436282
 6,-0.15769903,0.04367479,-0.00239169,0.00323299,-0.00033426,-0.0088227
 6,-0.00405041,0.00134873,0.00062842,-0.00018533,-0.00008060,-0.0002418
 0,0.00000708,0.00017176,-0.00207389,0.00489503,0.00314625,0.00240719,-
 0.00235251,-0.00109025,0.00025030,-0.00041327,-0.00014553,0.00008623,0
 .00010943,-0.00009225,0.15719228,0.15956261,0.00006608,-0.00004080,-0.
 00006600,-0.00005215,-0.00012061,-0.00000863,-0.00028691,0.00009829,0.
 00001447,-0.00046784,0.00070526,-0.00033439,0.00007888,-0.00008023,0.0
 0007527,-0.00004528,0.00012713,-0.00002220,0.00001767,-0.00003392,-0.0
 0000250,-0.00000732,-0.00000547,-0.00002740,-0.00000219,-0.00001107,0.
 00000791,0.00213893,-0.00122191,0.00185041,-0.01679435,-0.01388424,0.0
 0926258,0.04199888,0.04431506,-0.07087922,-0.00379484,0.00027794,-0.00
 286941,0.02252031,0.01836468,-0.00162488,-0.00007239,0.00010222,-0.000
 97072,-0.00090943,-0.00079782,0.00038640,-0.00232191,0.00275770,-0.003
 51292,0.00067257,-0.00150061,0.00033359,0.00016389,-0.00014697,0.00001
 929,0.00013639,0.00004970,-0.00004284,-0.04436165,-0.05017214,0.068999
 54,-0.04203709,0.03586687,0.00214998,0.00354815,-0.01066954,0.00154837
 ,0.00469655,0.00041685,0.00404300,-0.00057076,-0.00002424,0.00060854,0
 .00403248,0.00238361,0.00420654,0.00085803,0.01319978,-0.00470362,-0.0
 0300371,-0.00073846,-0.00176997,0.00031211,0.00073868,-0.00006609,-0.0
 0289069,-0.00096051,-0.00153973,-0.00048973,-0.00009785,-0.00037821,-0
 .00024066,-0.00009509,-0.00000002,0.00008296,-0.00002738,-0.00002087,0
 .00004290,0.00003436,-0.00000563,0.00000079,0.00000714,-0.00004682,0.0
 0000803,-0.00002067,0.00004162,-0.00000522,0.00000262,0.00000359,-0.00
 003493,-0.00000979,-0.00001886,0.00000164,0.00000468,-0.00000824,0.000
 00273,-0.00000702,0.00000153,0.00044884,-0.00039156,0.00024556,-0.0000
 1163,0.00000141,0.00001714,0.03524791,0.03583470,-0.31991928,0.0648881
 0,0.00186055,-0.00636671,-0.00002307,0.00015060,0.00146177,0.00223334,
 -0.00003819,0.00087425,-0.00050231,0.00269536,0.00001486,-0.00281182,0
 .00067442,-0.01450123,0.00670310,-0.00103819,0.00056976,0.00001948,0.0
 0007832,-0.00072575,0.00043498,-0.00063158,0.00054704,-0.00077944,-0.0
 0015169,-0.00028973,0.00025210,-0.00004049,0.00005547,-0.00023514,0.00
 000584,-0.00003624,0.00001711,0.00004072,0.00000185,0.00002737,-0.0000
 1330,-0.00001886,-0.00001058,0.00001783,-0.00001201,0.00004205,0.00000
 294,0.00001354,-0.00000224,-0.00001555,0.00004579,-0.00012278,0.000003
 43,-0.00000098,0.00000830,-0.00000517,-0.00000881,0.00000780,0.0002032
 2,-0.00034153,-0.00004035,-0.00002466,0.00000531,-0.00000959,-0.039612
 71,0.33867745,0.00201054,0.06477798,-0.07025644,-0.00465683,0.02826551
 ,-0.00210018,0.00426846,0.00117524,-0.00344195,0.00059295,-0.00047525,
 -0.00135146,0.00397472,-0.00171675,-0.00155089,0.00172579,-0.02145637,
 0.00871573,-0.00158924,-0.00071894,-0.00005630,0.00025701,-0.00100258,
 0.00040498,-0.00170038,-0.00002480,0.00002121,-0.00041379,0.00002618,0
 .00017952,-0.00010101,-0.00001686,-0.00005166,0.00004153,0.00004070,0.
 00002528,-0.00003888,-0.00001960,0.00003422,0.00000163,0.00000859,0.00
 000589,-0.00001545,-0.00000361,-0.00000084,0.00000364,-0.00000783,-0.0
 0000378,0.00000253,-0.00002839,0.00005157,-0.00000091,0.00000196,-0.00
 000537,0.00000306,-0.00000076,0.00000021,-0.00005723,0.00138897,-0.000
 08755,0.00001379,-0.00001055,0.00000272,-0.00432073,-0.07022180,0.0695
 1327,0.00001122,-0.00009237,0.00002163,0.00000690,0.00010450,0.0000199
 2,0.00008346,-0.00019927,-0.00005676,0.00001449,0.00109167,-0.00027380
 ,0.00001859,-0.00018663,0.00008241,-0.00000032,0.00006049,0.00001372,-
 0.00000222,-0.00003695,-0.00001872,-0.00001509,0.00001414,-0.00002691,
 -0.00000918,-0.00002368,0.00002236,-0.00022895,-0.00076255,0.00133581,
 0.00304838,0.00273116,0.00063001,-0.00422290,-0.00413881,-0.00505225,-
 0.00352209,-0.00782234,0.00034119,0.00288406,-0.01772296,0.03894134,0.
 00715457,0.01034411,-0.02675684,0.00024970,0.00048841,-0.00102729,-0.0
 8529985,-0.03269624,-0.00227259,0.00016450,0.00217294,0.00077305,-0.00
 007993,0.00120150,0.00231460,-0.00009733,0.00007787,0.00001492,0.00003
 756,-0.00072246,0.00129887,-0.00000753,-0.00003092,0.00000938,0.272677
 91,0.00003226,-0.00025014,0.00009387,-0.00003417,0.00024894,0.00000025
 ,0.00018035,-0.00062198,-0.00014065,0.00012833,0.00269254,-0.00066475,
 0.00006913,-0.00054561,0.00022509,-0.00006466,0.00011919,0.00003901,0.
 00002528,-0.00008886,-0.00003572,-0.00000607,0.00005689,-0.00004155,-0
 .00001891,-0.00007186,0.00006901,-0.00047974,-0.00316647,0.00386308,0.
 00398582,0.00158898,-0.00081080,-0.00539039,0.00158409,-0.00346200,-0.
 00633759,0.00054074,0.00248324,-0.00754162,-0.01565694,0.04088659,0.00
 180521,0.00918115,-0.00048819,0.00003273,0.00025271,-0.00015829,-0.020
 70430,-0.08887926,0.08365368,0.00232739,-0.00107518,-0.00088746,0.0016
 1183,-0.00181100,0.00039435,-0.00019734,0.00023861,0.00009155,-0.00029
 095,-0.00031854,0.00119026,-0.00000941,-0.00008121,0.00003120,0.163624
 53,0.25086784,-0.00003743,0.00052670,-0.00017166,0.00005762,-0.0004797
 6,-0.00000417,-0.00031203,0.00131714,0.00030504,-0.00044023,-0.0056271
 7,0.00119057,-0.00007168,0.00107100,-0.00044940,0.00008812,-0.00024392
 ,-0.00005746,-0.00007932,0.00018693,0.00005159,-0.00001151,-0.00010980
 ,0.00009033,0.00003059,0.00013299,-0.00012166,0.00207386,0.00612017,-0
 .00750392,-0.00222017,-0.00172887,0.00189768,-0.00168368,-0.00149515,0
 .00305751,-0.00304260,0.00022835,0.00151808,0.01299387,0.02185463,-0.0
 2438692,-0.00577007,0.01551605,-0.04200131,0.00012354,0.00069781,-0.00
 138017,-0.03211476,0.06099763,-0.25585278,0.00026661,-0.00118191,0.000
 42220,0.00125572,-0.00057282,0.00059577,0.00031886,-0.00042185,-0.0002
 0873,0.00019360,0.00033510,-0.00021988,0.00001562,0.00014786,-0.000056
 19,-0.02616495,-0.15575776,0.41205488,-0.00001330,0.00017272,-0.000063
 42,-0.00000271,-0.00018025,-0.00001297,-0.00013632,0.00043445,0.000071
 16,-0.00011058,-0.00181710,0.00037719,-0.00003621,0.00035156,-0.000138
 64,0.00001942,-0.00007835,-0.00002342,-0.00001214,0.00006801,0.0000247
 3,0.00000625,-0.00003453,0.00003517,0.00001486,0.00004479,-0.00003806,
 0.00026547,0.00208304,-0.00234034,0.00027190,-0.00040230,0.00116381,0.
 00013401,-0.00096401,-0.00076683,-0.00087114,-0.00066696,-0.00008914,0
 .00225046,0.00119026,-0.00323947,0.00199310,0.00464225,-0.00576563,-0.
 00005617,0.00015720,-0.00040989,-0.00258691,-0.00326443,0.01367025,-0.
 00019315,0.00029144,0.00017108,-0.00056643,0.00009403,-0.00113820,0.00
 015934,-0.00013826,-0.00005246,0.00005452,0.00025462,-0.00016950,0.000
 01234,0.00005180,-0.00001613,-0.15397032,-0.08053827,0.02619564,0.5130
 2083,-0.00000004,0.00014170,-0.00007178,0.00001653,-0.00016308,-0.0000
 0870,-0.00014834,0.00034142,0.00010617,-0.00008321,-0.00148562,0.00038
 832,-0.00003924,0.00025857,-0.00012740,0.00001065,-0.00004813,-0.00001
 229,-0.00001406,0.00003676,0.00002209,0.00000749,-0.00002923,0.0000202
 2,0.00001507,0.00003951,-0.00004023,0.00057232,0.00139202,-0.00219120,
 -0.00039120,0.00010946,0.00107881,-0.00144890,0.00031900,0.00007243,-0
 .00118503,-0.00039205,-0.00014960,0.00116896,0.00335091,-0.00009871,0.
 00184986,0.00211949,-0.00436296,-0.00000555,0.00010758,-0.00041482,-0.
 00998563,-0.01959470,0.01674718,0.00015963,-0.00046204,-0.00016567,-0.
 00058826,-0.00059281,-0.00000212,0.00011351,-0.00011097,-0.00004092,0.
 00021857,-0.00003150,-0.00008701,0.00000893,0.00004740,-0.00001762,-0.
 07078129,-0.12510378,0.03124273,-0.05905670,0.52418847,0.00000278,-0.0
 0006218,0.00002411,-0.00000643,0.00006701,0.00000196,0.00004496,-0.000
 15244,-0.00003998,0.00001637,0.00062701,-0.00013450,0.00000332,-0.0001
 2116,0.00005966,-0.00000830,0.00002983,0.00000679,0.00000767,-0.000020
 22,-0.00000963,0.00000186,0.00001307,-0.00001086,-0.00000432,-0.000016
 11,0.00001662,-0.00008444,-0.00074635,0.00070447,0.00041926,0.00043896
 ,-0.00007109,0.00098447,0.00145824,-0.00022380,0.00083045,0.00049930,0
 .00049259,-0.00335297,-0.00016699,-0.00336718,0.00102919,0.00064932,-0
 .00081981,0.00000078,-0.00011084,0.00022684,0.03080257,0.02965326,-0.0
 2221054,0.00044201,0.00003673,0.00007225,0.00067703,0.00139291,-0.0023
 1829,-0.00004311,0.00005693,0.00001960,-0.00003585,0.00003220,-0.00034
 942,-0.00000153,-0.00002072,0.00000750,0.00123988,0.01244990,-0.089249
 82,0.03672762,0.01113220,0.61415507,0.00000463,-0.00003864,0.00000906,
 0.00000192,0.00003346,0.00000514,0.00002540,-0.00009214,-0.00000993,0.
 00002117,0.00038393,-0.00009436,0.00000535,-0.00007173,0.00003121,-0.0
 0000330,0.00002214,0.00000232,0.00000240,-0.00001706,-0.00000430,-0.00
 000094,0.00000685,-0.00000894,-0.00000239,-0.00000855,0.00000667,-0.00
 007147,-0.00037517,0.00051073,0.00027656,0.00025641,-0.00007707,0.0001
 5562,0.00004719,-0.00044421,0.00016598,-0.00000258,0.00027094,-0.00041
 584,-0.00102129,0.00100433,-0.00001316,-0.00060033,0.00041111,0.000009
 35,-0.00003397,0.00007587,-0.00002930,0.00274104,-0.00597553,0.0000672
 3,0.00026854,0.00001053,0.00051455,0.00050224,0.00031888,-0.00003356,0
 .00002848,0.00001307,-0.00004460,-0.00000580,0.00005214,-0.00000254,-0
 .00000979,0.00000274,-0.03206907,-0.00623032,0.00634115,-0.24467001,0.
 10331911,-0.01731974,0.27866539,-0.00000176,-0.00000953,0.00000058,-0.
 00000167,0.00000925,0.00000087,0.00000300,-0.00001936,-0.00001090,-0.0
 0001581,0.00011203,-0.00002668,-0.00000285,-0.00002162,0.00000787,0.00
 000177,0.00000715,0.00000210,0.00000168,-0.00000276,-0.00000019,0.0000
 0095,0.00000133,-0.00000169,0.00000008,-0.00000210,0.00000236,-0.00010
 714,-0.00006830,0.00011722,0.00054987,0.00021290,0.00012931,-0.0000785
 4,-0.00011637,-0.00052592,-0.00032215,-0.00064830,0.00021009,-0.000187
 16,-0.00098086,0.00028953,0.00135546,0.00065560,0.00038231,-0.00000334
 ,0.00002286,0.00001171,-0.00091853,0.00244279,-0.00284811,-0.00003013,
 0.00014491,0.00004522,-0.00059603,0.00001397,0.00045421,-0.00000090,0.
 00000971,0.00000408,-0.00003354,0.00001707,0.00001559,0.00000067,-0.00
 000214,0.00000106,-0.03078350,0.00856500,0.00169187,0.10722601,-0.1077
 0020,0.00907991,-0.10519896,0.10966879,-0.00000177,-0.00001293,0.00000
 986,-0.00000294,0.00002135,-0.00000120,0.00001235,-0.00003936,-0.00000
 256,-0.00000085,0.00012556,-0.00000181,0.00000760,-0.00002858,0.000006
 08,-0.00000475,-0.00000061,0.00000095,0.00000368,-0.00000499,-0.000001
 48,0.00000052,0.00000306,-0.00000171,-0.00000130,-0.00000414,0.0000033
 5,0.00005025,-0.00023891,0.00011591,-0.00072269,-0.00028030,-0.0002600
 7,0.00022655,-0.00002334,0.00080281,-0.00008491,0.00072614,-0.00040638
 ,0.00025477,0.00081741,-0.00060726,-0.00009208,-0.00046283,-0.00004835
 ,0.00003927,-0.00002580,-0.00000197,0.00159066,-0.00185775,0.00243773,
 -0.00003796,-0.00010240,-0.00001662,0.00078221,-0.00047379,-0.00213534
 ,-0.00000994,0.00001034,0.00000809,0.00000811,-0.00001971,0.00000192,-
 0.00000041,-0.00000464,0.00000237,0.01196731,-0.00102159,0.00049818,-0
 .02018387,0.00974649,-0.05570510,0.01675545,-0.01157463,0.05286484,-0.
 00000110,-0.00000444,-0.00000096,0.00000210,0.00000105,0.00000122,-0.0
 0000101,-0.00000765,-0.00000102,0.00001901,0.00003761,-0.00001781,-0.0
 0000565,-0.00000534,-0.00000017,0.00000215,0.00000321,0.00000055,-0.00
 000047,-0.00000177,-0.00000010,-0.00000035,0.00000051,-0.00000037,0.00
 000011,-0.00000061,0.00000054,0.00000348,0.00000868,0.00007974,0.00011
 086,0.00012144,-0.00006890,-0.00033959,-0.00014194,-0.00024523,0.00035
 602,0.00000745,0.00025784,0.00026685,-0.00051682,0.00134421,-0.0007644
 0,-0.00057152,-0.00059666,-0.00000069,-0.00004063,0.00004148,-0.003056
 46,-0.00274631,-0.00000757,-0.00000189,0.00000170,-0.00004825,0.000413
 73,0.00066775,-0.00000021,-0.00000484,0.00000237,0.00000083,-0.0000150
 7,-0.00002172,0.00011649,-0.00000020,-0.00000038,0.00000008,-0.0005624
 7,-0.01384433,0.03282839,-0.06201814,0.01855461,-0.06353967,-0.0032455
 1,0.00536714,-0.02762943,0.06747828,0.00000059,-0.00001270,0.00000414,
 -0.00000356,0.00001487,0.00000089,0.00000958,-0.00003049,-0.00000626,0
 .00000569,0.00013173,-0.00003116,0.00000523,-0.00002473,0.00000917,-0.
 00000324,0.00000481,0.00000214,0.00000244,-0.00000541,-0.00000140,-0.0
 0000029,0.00000222,-0.00000222,-0.00000089,-0.00000313,0.00000283,0.00
 000264,-0.00013532,0.00015008,0.00010514,0.00008205,-0.00014915,-0.000
 29682,-0.00015841,-0.00016435,0.00010953,0.00016751,0.00023680,0.00008
 069,-0.00020718,0.00128253,-0.00071426,-0.00008601,-0.00034233,-0.0000
 1813,-0.00000237,0.00004959,-0.00312824,-0.00141704,-0.00081781,-0.000
 02184,0.00001465,-0.00003049,0.00054064,0.00000867,-0.00019773,-0.0000
 0907,0.00001448,0.00000533,0.00001694,-0.00006798,0.00008731,-0.000000
 24,-0.00000394,0.00000212,-0.00220941,-0.01234392,0.02833884,0.0145316
 4,-0.06241404,0.05080698,0.00374410,-0.00222562,0.01423671,-0.00714617
 ,0.06985394,0.00000079,0.00002536,-0.00001292,0.00000366,-0.00003261,-
 0.00000137,-0.00002350,0.00006256,0.00001876,0.00001157,-0.00026905,0.
 00005576,-0.00000572,0.00004863,-0.00002261,0.00000203,-0.00000921,-0.
 00000186,-0.00000379,0.00000716,0.00000389,0.00000006,-0.00000546,0.00
 000463,0.00000204,0.00000672,-0.00000738,0.00004843,0.00028922,-0.0002
 9395,0.00000309,-0.00007459,0.00021753,0.00012976,0.00009394,-0.000051
 69,0.00004814,0.00008912,0.00007897,-0.00016407,0.00016829,-0.00045485
 ,-0.00023779,-0.00006517,0.00005607,-0.00001416,0.00000557,-0.00001854
 ,0.00100422,-0.00004424,0.00263254,0.00001349,0.00001654,0.00000940,0.
 00031538,0.00003799,0.00001425,0.00001852,-0.00002035,-0.00000921,0.00
 001653,0.00001086,-0.00005144,0.00000076,0.00000881,-0.00000362,0.0034
 9156,0.00642017,-0.00913227,-0.05340453,0.05837223,-0.30031118,-0.0009
 5519,-0.00066342,0.00040929,0.05439975,-0.06826872,0.32210233,0.000003
 07,-0.00002376,0.00000719,-0.00000440,0.00002514,0.00000107,0.00002074
 ,-0.00005822,-0.00000987,-0.00001033,0.00025812,-0.00004698,0.00000663
 ,-0.00005635,0.00002130,-0.00000464,0.00001235,0.00000381,0.00000230,-
 0.00000974,-0.00000305,0.00000071,0.00000505,-0.00000434,-0.00000108,-
 0.00000647,0.00000588,-0.00005577,-0.00033018,0.00028650,0.00029781,0.
 00022425,0.00000879,-0.00017340,0.00024130,-0.00021063,-0.00029011,-0.
 00026002,0.00015546,-0.00076132,-0.00020849,0.00068170,0.00072109,0.00
 075280,0.00067393,0.00001491,-0.00000300,0.00003688,0.00077796,0.00107
 087,-0.00427122,0.00016579,-0.00006613,-0.00006387,-0.00008204,0.00004
 886,-0.00022001,-0.00001958,0.00002245,0.00000970,-0.00000029,-0.00004
 939,0.00000752,-0.00000078,-0.00000709,0.00000275,-0.00626411,-0.03213
 479,-0.01083475,-0.05295897,0.01771223,0.01116614,0.00068613,0.0237753
 7,0.01707417,0.00136528,-0.00560269,-0.00470104,0.05656441,0.00000456,
 -0.00001477,0.00000768,-0.00000430,0.00001496,-0.00000129,0.00001977,-
 0.00003399,-0.00001202,0.00002806,0.00017096,-0.00005496,0.00001109,-0
 .00003452,0.00001777,-0.00000811,0.00000680,0.00000316,-0.00000012,-0.
 00000332,-0.00000349,-0.00000196,0.00000417,-0.00000069,-0.00000208,-0
 .00000568,0.00000580,-0.00004907,-0.00019740,0.00032651,0.00052532,0.0
 0025784,0.00003068,-0.00016437,0.00036829,-0.00056774,0.00005829,0.000
 02189,0.00048793,-0.00074778,-0.00071533,0.00126306,-0.00032574,-0.000
 24490,0.00037380,0.00000141,-0.00003645,0.00005875,0.00024609,0.001689
 86,-0.00629812,0.00025194,0.00001841,-0.00008578,0.00103011,-0.0004877
 2,0.00073169,-0.00001434,0.00001792,0.00000089,0.00000050,-0.00004913,
 0.00002127,-0.00000114,-0.00000607,0.00000222,-0.01370196,-0.02592195,
 -0.00278680,0.01554735,-0.21432418,-0.11700675,0.00235285,-0.01008620,
 -0.00951079,0.00027610,0.00884337,0.00378963,-0.00533247,0.24074719,-0
 .00000417,-0.00001850,0.00001102,0.00000253,0.00002273,0.00000170,0.00
 001159,-0.00004872,-0.00002087,0.00005191,0.00020893,-0.00004808,-0.00
 000646,-0.00002963,0.00001000,0.00000399,0.00000364,0.00000152,0.00000
 205,-0.00000350,-0.00000239,-0.00000096,0.00000344,-0.00000262,-0.0000
 0245,-0.00000470,0.00000502,-0.00011546,-0.00012196,0.00033084,-0.0005
 7002,-0.00046709,-0.00038557,0.00037343,-0.00009360,0.00070859,0.00071
 207,0.00008949,-0.00064924,0.00064017,0.00012844,-0.00054686,-0.001008
 23,-0.00042073,0.00008690,-0.00002092,0.00003051,0.00004843,-0.0004598
 7,0.00122645,0.00242963,-0.00005515,0.00002510,0.00000533,-0.00044472,
 0.00181301,-0.00100115,-0.00001658,0.00000837,0.00000602,-0.00001533,0
 .00000518,0.00002774,-0.00000152,-0.00000594,0.00000177,-0.00086788,0.
 01157751,0.00911453,0.00941583,-0.12113783,-0.14096625,-0.00093205,0.0
 0320565,0.00202848,0.00308526,-0.02520382,-0.01523052,-0.00977705,0.12
 920757,0.14403601\\0.00000587,-0.00000420,-0.00000806,0.00000131,-0.00
 000838,-0.00000084,-0.00000359,-0.00000010,0.00000451,0.00000504,-0.00
 001107,0.00000624,-0.00000065,-0.00000941,0.00000099,-0.00000398,0.000
 00899,0.00000406,-0.00000063,0.00000243,0.00000070,0.00000089,0.000000
 01,0.00000031,0.00000133,-0.00000060,-0.00000240,-0.00000527,0.0000022
 7,0.00000521,0.00000795,0.00001646,0.00000045,-0.00000452,0.00000357,-
 0.00002059,-0.00000791,-0.00000345,-0.00000833,-0.00000396,-0.00000578
 ,0.00000304,0.00000291,0.00000034,0.00000615,0.00000243,0.00000237,-0.
 00000116,0.00000082,0.00000216,-0.00000401,-0.00000006,-0.00000139,0.0
 0000352,-0.00000146,-0.00000196,0.00000006,-0.00000095,-0.00000120,0.0
 0000584,0.00000530,0.00000363,0.00000125,-0.00000263,0.00000270,0.0000
 0135,0.00000436,0.00000314,0.00000375,0.00000177,-0.00000218,-0.000003
 86,-0.00000595,0.00000128,0.00000240,0.00000131,0.00000232,0.00000341,
 0.00000026,-0.00000196,-0.00000397\\\@


 OUR LITTLE SYSTEMS HAVE THEIR DAY,    
   THEY HAVE THEIR DAY AND CEASE TO BE.
   THEY ARE BUT BROKEN LIGHTS OF THEE, 
 AND THOU, OH LORD, ART MORE THAN THEY.
          -------------------          
 LET KNOWLEDGE GROW FROM MORE TO MORE, 
   BUT MORE OF REVERENCE IN US DWELL.  
   THAT MIND AND SOUL, ACCORDING WELL, 
 MAY MAKE ONE MUSIC AS BEFORE.....     
          -------------------          
                    LORD TENNYSON      
 Job cpu time:       0 days  2 hours  9 minutes 43.8 seconds.
 Elapsed time:       0 days  0 hours  4 minutes 19.9 seconds.
 File lengths (MBytes):  RWF=    273 Int=      0 D2E=      0 Chk=     11 Scr=      1
 Normal termination of Gaussian 16 at Fri Sep 15 06:42:33 2023.
