 Entering Gaussian System, Link 0=g16
 Input=/home/ubuntu/Downloads/molecule_84.gjf
 Output=/home/ubuntu/Downloads/molecule_84.log
 Initial command:
 /home/ubuntu/g16/l1.exe "/home/ubuntu/Scratch/Gau-372274.inp" -scrdir="/home/ubuntu/Scratch/"
 Entering Link 1 = /home/ubuntu/g16/l1.exe PID=    372278.
  
 Copyright (c) 1988-2017, Gaussian, Inc.  All Rights Reserved.
  
 This is part of the Gaussian(R) 16 program.  It is based on
 the Gaussian(R) 09 system (copyright 2009, Gaussian, Inc.),
 the Gaussian(R) 03 system (copyright 2003, Gaussian, Inc.),
 the Gaussian(R) 98 system (copyright 1998, Gaussian, Inc.),
 the Gaussian(R) 94 system (copyright 1995, Gaussian, Inc.),
 the Gaussian 92(TM) system (copyright 1992, Gaussian, Inc.),
 the Gaussian 90(TM) system (copyright 1990, Gaussian, Inc.),
 the Gaussian 88(TM) system (copyright 1988, Gaussian, Inc.),
 the Gaussian 86(TM) system (copyright 1986, Carnegie Mellon
 University), and the Gaussian 82(TM) system (copyright 1983,
 Carnegie Mellon University). Gaussian is a federally registered
 trademark of Gaussian, Inc.
  
 This software contains proprietary and confidential information,
 including trade secrets, belonging to Gaussian, Inc.
  
 This software is provided under written license and may be
 used, copied, transmitted, or stored only in accord with that
 written license.
  
 The following legend is applicable only to US Government
 contracts under FAR:
  
                    RESTRICTED RIGHTS LEGEND
  
 Use, reproduction and disclosure by the US Government is
 subject to restrictions as set forth in subparagraphs (a)
 and (c) of the Commercial Computer Software - Restricted
 Rights clause in FAR 52.227-19.
  
 Gaussian, Inc.
 340 Quinnipiac St., Bldg. 40, Wallingford CT 06492
  
  
 ---------------------------------------------------------------
 Warning -- This program may not be used in any manner that
 competes with the business of Gaussian, Inc. or will provide
 assistance to any competitor of Gaussian, Inc.  The licensee
 of this program is prohibited from giving any competitor of
 Gaussian, Inc. access to this program.  By using this program,
 the user acknowledges that Gaussian, Inc. is engaged in the
 business of creating and licensing software in the field of
 computational chemistry and represents and warrants to the
 licensee that it is not a competitor of Gaussian, Inc. and that
 it will not use this program in any manner prohibited above.
 ---------------------------------------------------------------
  

 Cite this work as:
 Gaussian 16, Revision B.01,
 M. J. Frisch, G. W. Trucks, H. B. Schlegel, G. E. Scuseria, 
 M. A. Robb, J. R. Cheeseman, G. Scalmani, V. Barone, 
 G. A. Petersson, H. Nakatsuji, X. Li, M. Caricato, A. V. Marenich, 
 J. Bloino, B. G. Janesko, R. Gomperts, B. Mennucci, H. P. Hratchian, 
 J. V. Ortiz, A. F. Izmaylov, J. L. Sonnenberg, D. Williams-Young, 
 F. Ding, F. Lipparini, F. Egidi, J. Goings, B. Peng, A. Petrone, 
 T. Henderson, D. Ranasinghe, V. G. Zakrzewski, J. Gao, N. Rega, 
 G. Zheng, W. Liang, M. Hada, M. Ehara, K. Toyota, R. Fukuda, 
 J. Hasegawa, M. Ishida, T. Nakajima, Y. Honda, O. Kitao, H. Nakai, 
 T. Vreven, K. Throssell, J. A. Montgomery, Jr., J. E. Peralta, 
 F. Ogliaro, M. J. Bearpark, J. J. Heyd, E. N. Brothers, K. N. Kudin, 
 V. N. Staroverov, T. A. Keith, R. Kobayashi, J. Normand, 
 K. Raghavachari, A. P. Rendell, J. C. Burant, S. S. Iyengar, 
 J. Tomasi, M. Cossi, J. M. Millam, M. Klene, C. Adamo, R. Cammi, 
 J. W. Ochterski, R. L. Martin, K. Morokuma, O. Farkas, 
 J. B. Foresman, and D. J. Fox, Gaussian, Inc., Wallingford CT, 2016.
 
 ******************************************
 Gaussian 16:  EM64L-G16RevB.01 20-Dec-2017
                23-Sep-2023 
 ******************************************
 %nprocshared=30
 Will use up to   30 processors via shared memory.
 %mem=30GB
 %chk=molecule_84.chk
 ---------------------------------------------------------
 # opt freq b3lyp/6-31+g(d) empiricaldispersion=gd3 volume
 ---------------------------------------------------------
 1/18=20,19=15,26=3,38=1/1,3;
 2/9=110,12=2,17=6,18=5,40=1/2;
 3/5=1,6=6,7=11,11=2,25=1,30=1,71=1,74=-5,124=31/1,2,3;
 4//1;
 5/5=2,38=5/2;
 6/7=2,8=2,9=2,10=2,28=1,44=1/1,4;
 7//1,2,3,16;
 1/18=20,19=15,26=3/3(2);
 2/9=110/2;
 99//99;
 2/9=110/2;
 3/5=1,6=6,7=11,11=2,25=1,30=1,71=1,74=-5,124=31/1,2,3;
 4/5=5,16=3,69=1/1;
 5/5=2,38=5/2;
 7//1,2,3,16;
 1/18=20,19=15,26=3/3(-5);
 2/9=110/2;
 6/7=2,8=2,9=2,10=2,19=2,28=1,44=1/1,4;
 99/9=1/99;
 -------------
 ML molecule84
 -------------
 Symbolic Z-matrix:
 Charge =  0 Multiplicity = 1
 O                    -0.67408   0.52847   1.23929 
 C                     0.56773   0.25049   0.73387 
 C                     0.78668  -0.57051  -0.38014 
 C                     1.64765   0.83775   1.40869 
 C                     2.08948  -0.79702  -0.81776 
 C                     2.94441   0.60789   0.97002 
 H                     1.44711   1.46798   2.26928 
 C                     3.17928  -0.21241  -0.15111 
 H                     2.26551  -1.43186  -1.68084 
 H                     3.78293   1.0615    1.48939 
 H                    -0.0513   -1.02703  -0.89527 
 C                     4.51653  -0.44812  -0.60711 
 N                     5.60391  -0.63865  -0.97778 
 C                    -1.80774   0.06941   0.56412 
 C                    -2.42677  -1.08817   1.0284 
 C                    -2.31827   0.82017  -0.50485 
 C                    -3.5964   -1.53512   0.40843 
 H                    -1.98695  -1.62041   1.86665 
 C                    -3.49201   0.34912  -1.10912 
 C                    -4.12703  -0.81449  -0.66455 
 H                    -4.08715  -2.43706   0.76355 
 H                    -3.91533   0.9104   -1.93908 
 H                    -5.03732  -1.15261  -1.15232 
 C                    -1.62176   2.07524  -0.96768 
 H                    -1.43129   2.75229  -0.12722 
 H                    -0.64783   1.84835  -1.41974 
 H                    -2.22375   2.60585  -1.71154 
 

 GradGradGradGradGradGradGradGradGradGradGradGradGradGradGradGradGradGrad
 Berny optimization.
 Initialization pass.
                           ----------------------------
                           !    Initial Parameters    !
                           ! (Angstroms and Degrees)  !
 --------------------------                            --------------------------
 ! Name  Definition              Value          Derivative Info.                !
 --------------------------------------------------------------------------------
 ! R1    R(1,2)                  1.3692         estimate D2E/DX2                !
 ! R2    R(1,14)                 1.3971         estimate D2E/DX2                !
 ! R3    R(2,3)                  1.4011         estimate D2E/DX2                !
 ! R4    R(2,4)                  1.4023         estimate D2E/DX2                !
 ! R5    R(3,5)                  1.3929         estimate D2E/DX2                !
 ! R6    R(3,11)                 1.0844         estimate D2E/DX2                !
 ! R7    R(4,6)                  1.3881         estimate D2E/DX2                !
 ! R8    R(4,7)                  1.0854         estimate D2E/DX2                !
 ! R9    R(5,8)                  1.4049         estimate D2E/DX2                !
 ! R10   R(5,9)                  1.0858         estimate D2E/DX2                !
 ! R11   R(6,8)                  1.4089         estimate D2E/DX2                !
 ! R12   R(6,10)                 1.0856         estimate D2E/DX2                !
 ! R13   R(8,12)                 1.4324         estimate D2E/DX2                !
 ! R14   R(12,13)                1.1645         estimate D2E/DX2                !
 ! R15   R(14,15)                1.3924         estimate D2E/DX2                !
 ! R16   R(14,16)                1.4025         estimate D2E/DX2                !
 ! R17   R(15,17)                1.3972         estimate D2E/DX2                !
 ! R18   R(15,18)                1.086          estimate D2E/DX2                !
 ! R19   R(16,19)                1.4017         estimate D2E/DX2                !
 ! R20   R(16,24)                1.5082         estimate D2E/DX2                !
 ! R21   R(17,20)                1.3972         estimate D2E/DX2                !
 ! R22   R(17,21)                1.0865         estimate D2E/DX2                !
 ! R23   R(19,20)                1.3982         estimate D2E/DX2                !
 ! R24   R(19,22)                1.0877         estimate D2E/DX2                !
 ! R25   R(20,23)                1.0867         estimate D2E/DX2                !
 ! R26   R(24,25)                1.0959         estimate D2E/DX2                !
 ! R27   R(24,26)                1.0974         estimate D2E/DX2                !
 ! R28   R(24,27)                1.0942         estimate D2E/DX2                !
 ! A1    A(2,1,14)             119.3957         estimate D2E/DX2                !
 ! A2    A(1,2,3)              123.6551         estimate D2E/DX2                !
 ! A3    A(1,2,4)              115.8348         estimate D2E/DX2                !
 ! A4    A(3,2,4)              120.509          estimate D2E/DX2                !
 ! A5    A(2,3,5)              119.4241         estimate D2E/DX2                !
 ! A6    A(2,3,11)             120.2403         estimate D2E/DX2                !
 ! A7    A(5,3,11)             120.3355         estimate D2E/DX2                !
 ! A8    A(2,4,6)              119.8677         estimate D2E/DX2                !
 ! A9    A(2,4,7)              118.8449         estimate D2E/DX2                !
 ! A10   A(6,4,7)              121.2873         estimate D2E/DX2                !
 ! A11   A(3,5,8)              120.5827         estimate D2E/DX2                !
 ! A12   A(3,5,9)              119.766          estimate D2E/DX2                !
 ! A13   A(8,5,9)              119.6513         estimate D2E/DX2                !
 ! A14   A(4,6,8)              120.2397         estimate D2E/DX2                !
 ! A15   A(4,6,10)             120.0775         estimate D2E/DX2                !
 ! A16   A(8,6,10)             119.6828         estimate D2E/DX2                !
 ! A17   A(5,8,6)              119.3764         estimate D2E/DX2                !
 ! A18   A(5,8,12)             120.3077         estimate D2E/DX2                !
 ! A19   A(6,8,12)             120.3158         estimate D2E/DX2                !
 ! A20   A(1,14,15)            118.2154         estimate D2E/DX2                !
 ! A21   A(1,14,16)            119.1989         estimate D2E/DX2                !
 ! A22   A(15,14,16)           122.5034         estimate D2E/DX2                !
 ! A23   A(14,15,17)           119.3507         estimate D2E/DX2                !
 ! A24   A(14,15,18)           118.9975         estimate D2E/DX2                !
 ! A25   A(17,15,18)           121.6517         estimate D2E/DX2                !
 ! A26   A(14,16,19)           116.9688         estimate D2E/DX2                !
 ! A27   A(14,16,24)           120.7484         estimate D2E/DX2                !
 ! A28   A(19,16,24)           122.2828         estimate D2E/DX2                !
 ! A29   A(15,17,20)           119.5837         estimate D2E/DX2                !
 ! A30   A(15,17,21)           119.9101         estimate D2E/DX2                !
 ! A31   A(20,17,21)           120.5061         estimate D2E/DX2                !
 ! A32   A(16,19,20)           121.5294         estimate D2E/DX2                !
 ! A33   A(16,19,22)           118.7794         estimate D2E/DX2                !
 ! A34   A(20,19,22)           119.6903         estimate D2E/DX2                !
 ! A35   A(17,20,19)           120.0618         estimate D2E/DX2                !
 ! A36   A(17,20,23)           120.1562         estimate D2E/DX2                !
 ! A37   A(19,20,23)           119.781          estimate D2E/DX2                !
 ! A38   A(16,24,25)           111.0406         estimate D2E/DX2                !
 ! A39   A(16,24,26)           111.3595         estimate D2E/DX2                !
 ! A40   A(16,24,27)           110.9837         estimate D2E/DX2                !
 ! A41   A(25,24,26)           106.8209         estimate D2E/DX2                !
 ! A42   A(25,24,27)           108.5046         estimate D2E/DX2                !
 ! A43   A(26,24,27)           107.9676         estimate D2E/DX2                !
 ! A44   L(8,12,13,10,-1)      179.9632         estimate D2E/DX2                !
 ! A45   L(8,12,13,10,-2)      180.0507         estimate D2E/DX2                !
 ! D1    D(14,1,2,3)            -5.3835         estimate D2E/DX2                !
 ! D2    D(14,1,2,4)           174.9915         estimate D2E/DX2                !
 ! D3    D(2,1,14,15)           99.4039         estimate D2E/DX2                !
 ! D4    D(2,1,14,16)          -83.8119         estimate D2E/DX2                !
 ! D5    D(1,2,3,5)           -179.8251         estimate D2E/DX2                !
 ! D6    D(1,2,3,11)             0.0399         estimate D2E/DX2                !
 ! D7    D(4,2,3,5)             -0.2168         estimate D2E/DX2                !
 ! D8    D(4,2,3,11)           179.6482         estimate D2E/DX2                !
 ! D9    D(1,2,4,6)            179.7757         estimate D2E/DX2                !
 ! D10   D(1,2,4,7)             -0.2813         estimate D2E/DX2                !
 ! D11   D(3,2,4,6)              0.138          estimate D2E/DX2                !
 ! D12   D(3,2,4,7)           -179.919          estimate D2E/DX2                !
 ! D13   D(2,3,5,8)              0.1138         estimate D2E/DX2                !
 ! D14   D(2,3,5,9)           -179.9644         estimate D2E/DX2                !
 ! D15   D(11,3,5,8)          -179.751          estimate D2E/DX2                !
 ! D16   D(11,3,5,9)             0.1708         estimate D2E/DX2                !
 ! D17   D(2,4,6,8)              0.0448         estimate D2E/DX2                !
 ! D18   D(2,4,6,10)           179.9482         estimate D2E/DX2                !
 ! D19   D(7,4,6,8)           -179.8968         estimate D2E/DX2                !
 ! D20   D(7,4,6,10)             0.0066         estimate D2E/DX2                !
 ! D21   D(3,5,8,6)              0.0659         estimate D2E/DX2                !
 ! D22   D(3,5,8,12)          -179.9298         estimate D2E/DX2                !
 ! D23   D(9,5,8,6)           -179.856          estimate D2E/DX2                !
 ! D24   D(9,5,8,12)             0.1484         estimate D2E/DX2                !
 ! D25   D(4,6,8,5)             -0.1459         estimate D2E/DX2                !
 ! D26   D(4,6,8,12)           179.8498         estimate D2E/DX2                !
 ! D27   D(10,6,8,5)           179.9503         estimate D2E/DX2                !
 ! D28   D(10,6,8,12)           -0.054          estimate D2E/DX2                !
 ! D29   D(1,14,15,17)         177.1451         estimate D2E/DX2                !
 ! D30   D(1,14,15,18)          -2.7544         estimate D2E/DX2                !
 ! D31   D(16,14,15,17)          0.4737         estimate D2E/DX2                !
 ! D32   D(16,14,15,18)       -179.4258         estimate D2E/DX2                !
 ! D33   D(1,14,16,19)        -177.1417         estimate D2E/DX2                !
 ! D34   D(1,14,16,24)           2.8161         estimate D2E/DX2                !
 ! D35   D(15,14,16,19)         -0.5018         estimate D2E/DX2                !
 ! D36   D(15,14,16,24)        179.456          estimate D2E/DX2                !
 ! D37   D(14,15,17,20)         -0.0816         estimate D2E/DX2                !
 ! D38   D(14,15,17,21)       -179.9764         estimate D2E/DX2                !
 ! D39   D(18,15,17,20)        179.8151         estimate D2E/DX2                !
 ! D40   D(18,15,17,21)         -0.0796         estimate D2E/DX2                !
 ! D41   D(14,16,19,20)          0.1514         estimate D2E/DX2                !
 ! D42   D(14,16,19,22)        179.8173         estimate D2E/DX2                !
 ! D43   D(24,16,19,20)       -179.8057         estimate D2E/DX2                !
 ! D44   D(24,16,19,22)         -0.1398         estimate D2E/DX2                !
 ! D45   D(14,16,24,25)        -51.3801         estimate D2E/DX2                !
 ! D46   D(14,16,24,26)         67.525          estimate D2E/DX2                !
 ! D47   D(14,16,24,27)       -172.1602         estimate D2E/DX2                !
 ! D48   D(19,16,24,25)        128.5755         estimate D2E/DX2                !
 ! D49   D(19,16,24,26)       -112.5195         estimate D2E/DX2                !
 ! D50   D(19,16,24,27)          7.7954         estimate D2E/DX2                !
 ! D51   D(15,17,20,19)         -0.2543         estimate D2E/DX2                !
 ! D52   D(15,17,20,23)       -179.8809         estimate D2E/DX2                !
 ! D53   D(21,17,20,19)        179.6398         estimate D2E/DX2                !
 ! D54   D(21,17,20,23)          0.0132         estimate D2E/DX2                !
 ! D55   D(16,19,20,17)          0.2184         estimate D2E/DX2                !
 ! D56   D(16,19,20,23)        179.8464         estimate D2E/DX2                !
 ! D57   D(22,19,20,17)       -179.4445         estimate D2E/DX2                !
 ! D58   D(22,19,20,23)          0.1835         estimate D2E/DX2                !
 --------------------------------------------------------------------------------
 Trust Radius=3.00D-01 FncErr=1.00D-07 GrdErr=1.00D-06 EigMax=2.50D+02 EigMin=1.00D-04
 Number of steps in this run=    141 maximum allowed number of steps=    162.
 GradGradGradGradGradGradGradGradGradGradGradGradGradGradGradGradGradGrad

                          Input orientation:                          
 ---------------------------------------------------------------------
 Center     Atomic      Atomic             Coordinates (Angstroms)
 Number     Number       Type             X           Y           Z
 ---------------------------------------------------------------------
      1          8           0       -0.674084    0.528471    1.239292
      2          6           0        0.567726    0.250489    0.733869
      3          6           0        0.786676   -0.570511   -0.380137
      4          6           0        1.647646    0.837752    1.408685
      5          6           0        2.089483   -0.797022   -0.817756
      6          6           0        2.944409    0.607886    0.970019
      7          1           0        1.447108    1.467982    2.269281
      8          6           0        3.179279   -0.212411   -0.151114
      9          1           0        2.265507   -1.431857   -1.680838
     10          1           0        3.782930    1.061495    1.489390
     11          1           0       -0.051297   -1.027025   -0.895268
     12          6           0        4.516534   -0.448116   -0.607112
     13          7           0        5.603914   -0.638647   -0.977775
     14          6           0       -1.807742    0.069412    0.564118
     15          6           0       -2.426770   -1.088172    1.028401
     16          6           0       -2.318270    0.820174   -0.504849
     17          6           0       -3.596404   -1.535120    0.408426
     18          1           0       -1.986953   -1.620411    1.866653
     19          6           0       -3.492006    0.349117   -1.109115
     20          6           0       -4.127030   -0.814490   -0.664547
     21          1           0       -4.087154   -2.437057    0.763545
     22          1           0       -3.915331    0.910395   -1.939080
     23          1           0       -5.037317   -1.152610   -1.152320
     24          6           0       -1.621758    2.075237   -0.967683
     25          1           0       -1.431285    2.752288   -0.127219
     26          1           0       -0.647825    1.848348   -1.419737
     27          1           0       -2.223747    2.605854   -1.711536
 ---------------------------------------------------------------------
                    Distance matrix (angstroms):
                    1          2          3          4          5
     1  O    0.000000
     2  C    1.369240   0.000000
     3  C    2.442157   1.401067   0.000000
     4  C    2.348357   1.402313   2.434000   0.000000
     5  C    3.691298   2.412584   1.392883   2.797275   0.000000
     6  C    3.629367   2.414979   2.804880   1.388114   2.429157
     7  H    2.538309   2.147811   3.407498   1.085371   3.882356
     8  C    4.162997   2.796012   2.430069   2.425225   1.404933
     9  H    4.583802   3.397581   2.149577   3.883044   1.085776
    10  H    4.495735   3.400894   3.890516   2.148491   3.412444
    11  H    2.713628   2.160861   1.084419   3.416431   2.154495
    12  C    5.595127   4.228400   3.738762   3.734623   2.461033
    13  N    6.759498   5.392910   4.854647   4.850464   3.521635
    14  C    1.397060   2.388400   2.834100   3.639141   4.224766
    15  C    2.393725   3.293291   3.546574   4.522683   4.887699
    16  C    2.414636   3.191855   3.404445   4.403454   4.705478
    17  C    3.672697   4.542498   4.556719   5.842183   5.863243
    18  H    2.595169   3.363012   3.720668   4.411645   4.949884
    19  C    3.672583   4.459567   4.436693   5.744049   5.705396
    20  C    4.165451   5.013031   4.927973   6.354139   6.218425
    21  H    4.546398   5.375099   5.342866   6.635398   6.583394
    22  H    4.555612   5.260982   5.170325   6.493036   6.342746
    23  H    5.252013   6.078067   5.903728   7.430277   7.143504
    24  C    2.856801   3.319462   3.625706   4.226996   4.695281
    25  H    2.717732   3.316099   4.003038   3.937546   5.046806
    26  H    2.968703   2.944272   2.998240   3.780273   3.853987
    27  H    3.927386   4.395460   4.574338   5.277277   5.566180
                    6          7          8          9         10
     6  C    0.000000
     7  H    2.160962   0.000000
     8  C    1.408897   3.417960   0.000000
     9  H    3.412990   4.968127   2.159186   0.000000
    10  H    1.085645   2.495902   2.162980   4.309260   0.000000
    11  H    3.889278   4.299378   3.413793   2.479635   4.974918
    12  C    2.464561   4.622385   1.432390   2.680999   2.685595
    13  N    3.524303   5.679815   2.596902   3.502633   3.506190
    14  C    4.799755   3.931619   5.045925   4.887228   5.752910
    15  C    5.632902   4.804231   5.795343   5.429140   6.587409
    16  C    5.469561   4.721602   5.604856   5.240764   6.423384
    17  C    6.905802   6.157793   6.926220   6.223961   7.897181
    18  H    5.485216   4.636060   5.722220   5.541088   6.373892
    19  C    6.768840   6.087714   6.763071   6.053734   7.757861
    20  C    7.395959   6.699854   7.349031   6.502193   8.409889
    21  H    7.665324   6.938633   7.654195   6.880533   8.643202
    22  H    7.457238   6.839368   7.402095   6.614801   8.428550
    23  H    8.444621   7.786053   8.330596   7.327247   9.469828
    24  C    5.172783   4.501626   5.380527   5.283855   6.022917
    25  H    4.994906   3.959520   5.481543   5.795435   5.714914
    26  H    4.489301   4.259375   4.528008   4.394931   5.358521
    27  H    6.155684   5.533248   6.290487   6.038001   6.979337
                   11         12         13         14         15
    11  H    0.000000
    12  C    4.613377   0.000000
    13  N    5.669132   1.164512   0.000000
    14  C    2.533196   6.452603   7.603383   0.000000
    15  C    3.057305   7.161986   8.289674   1.392392   0.000000
    16  C    2.950210   6.952234   8.069251   1.402488   2.450390
    17  C    3.811242   8.248191   9.347249   2.407919   1.397203
    18  H    3.424482   7.056141   8.165531   2.141078   1.085994
    19  C    3.711870   8.063765   9.150338   2.390542   2.787383
    20  C    4.087787   8.651516   9.737572   2.769476   2.414924
    21  H    4.585629   8.936332  10.009159   3.393800   2.155578
    22  H    4.446785   8.643844   9.692248   3.378636   3.875052
    23  H    4.994221   9.595292  10.655066   3.856119   3.402154
    24  C    3.477876   6.646499   7.718523   2.530679   3.826167
    25  H    4.096031   6.771221   7.855947   2.795978   4.132261
    26  H    2.983066   5.710053   6.742753   2.906149   4.216773
    27  H    4.310875   7.481836   8.505144   3.432958   4.603727
                   16         17         18         19         20
    16  C    0.000000
    17  C    2.831097   0.000000
    18  H    3.419100   2.173484   0.000000
    19  C    1.401673   2.421607   3.872909   0.000000
    20  C    2.443203   1.397191   3.411219   1.398169   0.000000
    21  H    3.917567   1.086478   2.508905   3.409373   2.161888
    22  H    2.148433   3.404856   4.960567   1.087694   2.155105
    23  H    3.421157   2.158349   4.317147   2.155235   1.086678
    24  C    1.508154   4.339076   4.671685   2.548984   3.836509
    25  H    2.159262   4.832859   4.837850   3.314502   4.503073
    26  H    2.164382   4.846045   4.962450   3.230100   4.445884
    27  H    2.157239   4.850370   5.542637   2.657866   4.051842
                   21         22         23         24         25
    21  H    0.000000
    22  H    4.305710   0.000000
    23  H    2.494625   2.476658   0.000000
    24  C    5.425507   2.749717   4.703098   0.000000
    25  H    5.897152   3.584117   5.413181   1.095928   0.000000
    26  H    5.912732   3.438905   5.323993   1.097441   1.761113
    27  H    5.918552   2.405788   4.728102   1.094195   1.777498
                   26         27
    26  H    0.000000
    27  H    1.772708   0.000000
 Stoichiometry    C14H11NO
 Framework group  C1[X(C14H11NO)]
 Deg. of freedom    75
 Full point group                 C1      NOp   1
 Largest Abelian subgroup         C1      NOp   1
 Largest concise Abelian subgroup C1      NOp   1
                         Standard orientation:                         
 ---------------------------------------------------------------------
 Center     Atomic      Atomic             Coordinates (Angstroms)
 Number     Number       Type             X           Y           Z
 ---------------------------------------------------------------------
      1          8           0       -0.674084    0.528471    1.239292
      2          6           0        0.567726    0.250489    0.733869
      3          6           0        0.786676   -0.570511   -0.380137
      4          6           0        1.647646    0.837752    1.408685
      5          6           0        2.089483   -0.797022   -0.817756
      6          6           0        2.944409    0.607886    0.970019
      7          1           0        1.447108    1.467982    2.269281
      8          6           0        3.179279   -0.212411   -0.151114
      9          1           0        2.265507   -1.431857   -1.680838
     10          1           0        3.782930    1.061495    1.489390
     11          1           0       -0.051297   -1.027025   -0.895268
     12          6           0        4.516534   -0.448116   -0.607112
     13          7           0        5.603914   -0.638647   -0.977775
     14          6           0       -1.807742    0.069412    0.564118
     15          6           0       -2.426770   -1.088172    1.028401
     16          6           0       -2.318270    0.820174   -0.504849
     17          6           0       -3.596404   -1.535120    0.408426
     18          1           0       -1.986953   -1.620411    1.866653
     19          6           0       -3.492006    0.349117   -1.109115
     20          6           0       -4.127030   -0.814490   -0.664547
     21          1           0       -4.087154   -2.437057    0.763545
     22          1           0       -3.915331    0.910395   -1.939080
     23          1           0       -5.037317   -1.152610   -1.152320
     24          6           0       -1.621758    2.075237   -0.967683
     25          1           0       -1.431285    2.752288   -0.127219
     26          1           0       -0.647825    1.848348   -1.419737
     27          1           0       -2.223747    2.605854   -1.711536
 ---------------------------------------------------------------------
 Rotational constants (GHZ):           1.4155033           0.2544189           0.2524047
 Standard basis: 6-31+G(d) (6D, 7F)
 There are   326 symmetry adapted cartesian basis functions of A   symmetry.
 There are   326 symmetry adapted basis functions of A   symmetry.
   326 basis functions,   556 primitive gaussians,   326 cartesian basis functions
    55 alpha electrons       55 beta electrons
       nuclear repulsion energy       958.0456584505 Hartrees.
 NAtoms=   27 NActive=   27 NUniq=   27 SFac= 1.00D+00 NAtFMM=   60 NAOKFM=F Big=F
 Integral buffers will be    131072 words long.
 Raffenetti 2 integral format.
 Two-electron integral symmetry is turned on.
 Nuclear repulsion after empirical dispersion term =      958.0224454903 Hartrees.
 One-electron integrals computed using PRISM.
 NBasis=   326 RedAO= T EigKep=  1.49D-06  NBF=   326
 NBsUse=   326 1.00D-06 EigRej= -1.00D+00 NBFU=   326
 ExpMin= 4.38D-02 ExpMax= 5.48D+03 ExpMxC= 8.25D+02 IAcc=3 IRadAn=         5 AccDes= 0.00D+00
 Harris functional with IExCor=  402 and IRadAn=       5 diagonalized for initial guess.
 HarFok:  IExCor=  402 AccDes= 0.00D+00 IRadAn=         5 IDoV= 1 UseB2=F ITyADJ=14
 ICtDFT=  3500011 ScaDFX=  1.000000  1.000000  1.000000  1.000000
 FoFCou: FMM=F IPFlag=           0 FMFlag=      100000 FMFlg1=           0
         NFxFlg=           0 DoJE=T BraDBF=F KetDBF=T FulRan=T
         wScrn=  0.000000 ICntrl=       500 IOpCl=  0 I1Cent=   200000004 NGrid=           0
         NMat0=    1 NMatS0=      1 NMatT0=    0 NMatD0=    1 NMtDS0=    0 NMtDT0=    0
 Petite list used in FoFCou.
 Requested convergence on RMS density matrix=1.00D-08 within 128 cycles.
 Requested convergence on MAX density matrix=1.00D-06.
 Requested convergence on             energy=1.00D-06.
 No special actions if energy rises.
 SCF Done:  E(RB3LYP) =  -670.121880550     A.U. after   15 cycles
            NFock= 15  Conv=0.92D-08     -V/T= 2.0097

 **********************************************************************

            Population analysis using the SCF Density.

 **********************************************************************

 Orbital symmetries:
       Occupied  (A) (A) (A) (A) (A) (A) (A) (A) (A) (A) (A) (A)
                 (A) (A) (A) (A) (A) (A) (A) (A) (A) (A) (A) (A)
                 (A) (A) (A) (A) (A) (A) (A) (A) (A) (A) (A) (A)
                 (A) (A) (A) (A) (A) (A) (A) (A) (A) (A) (A) (A)
                 (A) (A) (A) (A) (A) (A) (A)
       Virtual   (A) (A) (A) (A) (A) (A) (A) (A) (A) (A) (A) (A)
                 (A) (A) (A) (A) (A) (A) (A) (A) (A) (A) (A) (A)
                 (A) (A) (A) (A) (A) (A) (A) (A) (A) (A) (A) (A)
                 (A) (A) (A) (A) (A) (A) (A) (A) (A) (A) (A) (A)
                 (A) (A) (A) (A) (A) (A) (A) (A) (A) (A) (A) (A)
                 (A) (A) (A) (A) (A) (A) (A) (A) (A) (A) (A) (A)
                 (A) (A) (A) (A) (A) (A) (A) (A) (A) (A) (A) (A)
                 (A) (A) (A) (A) (A) (A) (A) (A) (A) (A) (A) (A)
                 (A) (A) (A) (A) (A) (A) (A) (A) (A) (A) (A) (A)
                 (A) (A) (A) (A) (A) (A) (A) (A) (A) (A) (A) (A)
                 (A) (A) (A) (A) (A) (A) (A) (A) (A) (A) (A) (A)
                 (A) (A) (A) (A) (A) (A) (A) (A) (A) (A) (A) (A)
                 (A) (A) (A) (A) (A) (A) (A) (A) (A) (A) (A) (A)
                 (A) (A) (A) (A) (A) (A) (A) (A) (A) (A) (A) (A)
                 (A) (A) (A) (A) (A) (A) (A) (A) (A) (A) (A) (A)
                 (A) (A) (A) (A) (A) (A) (A) (A) (A) (A) (A) (A)
                 (A) (A) (A) (A) (A) (A) (A) (A) (A) (A) (A) (A)
                 (A) (A) (A) (A) (A) (A) (A) (A) (A) (A) (A) (A)
                 (A) (A) (A) (A) (A) (A) (A) (A) (A) (A) (A) (A)
                 (A) (A) (A) (A) (A) (A) (A) (A) (A) (A) (A) (A)
                 (A) (A) (A) (A) (A) (A) (A) (A) (A) (A) (A) (A)
                 (A) (A) (A) (A) (A) (A) (A) (A) (A) (A) (A) (A)
                 (A) (A) (A) (A) (A) (A) (A)
 The electronic state is 1-A.
 Alpha  occ. eigenvalues --  -19.21711 -14.34282 -10.28673 -10.26776 -10.24412
 Alpha  occ. eigenvalues --  -10.23555 -10.23156 -10.23059 -10.22342 -10.22048
 Alpha  occ. eigenvalues --  -10.21910 -10.21427 -10.21372 -10.21301 -10.21188
 Alpha  occ. eigenvalues --  -10.20152  -1.10564  -0.91360  -0.88928  -0.87542
 Alpha  occ. eigenvalues --   -0.79957  -0.79335  -0.78307  -0.75887  -0.70899
 Alpha  occ. eigenvalues --   -0.67036  -0.64954  -0.62597  -0.60749  -0.57493
 Alpha  occ. eigenvalues --   -0.56153  -0.51538  -0.50721  -0.50019  -0.47547
 Alpha  occ. eigenvalues --   -0.46349  -0.45585  -0.44066  -0.43592  -0.43013
 Alpha  occ. eigenvalues --   -0.42754  -0.41861  -0.40985  -0.39342  -0.38575
 Alpha  occ. eigenvalues --   -0.37553  -0.36548  -0.36515  -0.36073  -0.33666
 Alpha  occ. eigenvalues --   -0.33214  -0.28666  -0.27101  -0.26290  -0.25102
 Alpha virt. eigenvalues --   -0.05409  -0.04160  -0.02827  -0.02763  -0.00680
 Alpha virt. eigenvalues --    0.00317   0.00857   0.01491   0.02047   0.02396
 Alpha virt. eigenvalues --    0.03099   0.03314   0.04016   0.04327   0.04820
 Alpha virt. eigenvalues --    0.05364   0.06008   0.06342   0.06558   0.06992
 Alpha virt. eigenvalues --    0.07574   0.08188   0.08720   0.08916   0.09559
 Alpha virt. eigenvalues --    0.09992   0.10136   0.11145   0.11232   0.12013
 Alpha virt. eigenvalues --    0.12453   0.12712   0.13003   0.13622   0.13942
 Alpha virt. eigenvalues --    0.14227   0.14621   0.14869   0.15527   0.16262
 Alpha virt. eigenvalues --    0.16458   0.16746   0.17349   0.17492   0.18379
 Alpha virt. eigenvalues --    0.18789   0.19306   0.19462   0.19915   0.19932
 Alpha virt. eigenvalues --    0.20181   0.20519   0.20998   0.21393   0.21542
 Alpha virt. eigenvalues --    0.21754   0.22317   0.22715   0.23142   0.23245
 Alpha virt. eigenvalues --    0.23699   0.24491   0.24864   0.25414   0.26007
 Alpha virt. eigenvalues --    0.26430   0.26826   0.26946   0.27380   0.27629
 Alpha virt. eigenvalues --    0.27957   0.28271   0.28648   0.29142   0.29457
 Alpha virt. eigenvalues --    0.30436   0.30954   0.31596   0.31793   0.32284
 Alpha virt. eigenvalues --    0.33154   0.33728   0.34483   0.34911   0.35904
 Alpha virt. eigenvalues --    0.36553   0.38056   0.38396   0.39447   0.39656
 Alpha virt. eigenvalues --    0.40901   0.41926   0.42501   0.46544   0.49198
 Alpha virt. eigenvalues --    0.55897   0.56965   0.59009   0.59472   0.63311
 Alpha virt. eigenvalues --    0.64442   0.66570   0.67527   0.68232   0.69128
 Alpha virt. eigenvalues --    0.69259   0.69849   0.70516   0.71246   0.72006
 Alpha virt. eigenvalues --    0.72246   0.72813   0.73273   0.73979   0.75148
 Alpha virt. eigenvalues --    0.75630   0.76551   0.77200   0.77858   0.79121
 Alpha virt. eigenvalues --    0.80011   0.81411   0.81660   0.83260   0.85160
 Alpha virt. eigenvalues --    0.87308   0.87565   0.88507   0.88950   0.89812
 Alpha virt. eigenvalues --    0.90997   0.91938   0.92296   0.93326   0.95027
 Alpha virt. eigenvalues --    0.96374   0.99381   0.99885   1.00111   1.01660
 Alpha virt. eigenvalues --    1.01803   1.02256   1.03736   1.04867   1.06310
 Alpha virt. eigenvalues --    1.07554   1.08032   1.11136   1.12816   1.13385
 Alpha virt. eigenvalues --    1.14531   1.16468   1.17655   1.18406   1.18767
 Alpha virt. eigenvalues --    1.21594   1.22239   1.23476   1.24669   1.26240
 Alpha virt. eigenvalues --    1.26782   1.28028   1.29626   1.31402   1.31869
 Alpha virt. eigenvalues --    1.32894   1.35476   1.38070   1.38380   1.39763
 Alpha virt. eigenvalues --    1.41132   1.42342   1.43375   1.43692   1.45990
 Alpha virt. eigenvalues --    1.46382   1.47519   1.48022   1.49676   1.51505
 Alpha virt. eigenvalues --    1.52644   1.53779   1.56315   1.60471   1.67013
 Alpha virt. eigenvalues --    1.73304   1.74869   1.78599   1.79367   1.80574
 Alpha virt. eigenvalues --    1.81317   1.83166   1.86547   1.87322   1.87798
 Alpha virt. eigenvalues --    1.90305   1.91737   1.93293   1.94802   1.95133
 Alpha virt. eigenvalues --    1.96168   1.96837   1.97671   1.98096   1.98414
 Alpha virt. eigenvalues --    2.01952   2.03697   2.09371   2.10882   2.11445
 Alpha virt. eigenvalues --    2.12045   2.13472   2.15463   2.17350   2.17947
 Alpha virt. eigenvalues --    2.19430   2.19884   2.22353   2.24743   2.26768
 Alpha virt. eigenvalues --    2.27802   2.28856   2.30369   2.31947   2.34750
 Alpha virt. eigenvalues --    2.36138   2.36922   2.46434   2.48380   2.50557
 Alpha virt. eigenvalues --    2.54478   2.55717   2.61200   2.61585   2.62821
 Alpha virt. eigenvalues --    2.64451   2.69816   2.71623   2.72402   2.75861
 Alpha virt. eigenvalues --    2.77108   2.78159   2.80461   2.80538   2.82958
 Alpha virt. eigenvalues --    2.88276   2.98209   3.03786   3.09327   3.10882
 Alpha virt. eigenvalues --    3.12281   3.21778   3.26556   3.40949   3.46652
 Alpha virt. eigenvalues --    4.23369   4.23542   4.25616   4.26358   4.28150
 Alpha virt. eigenvalues --    4.30576   4.35939   4.38005   4.38121   4.42882
 Alpha virt. eigenvalues --    4.45467   4.48651   4.61249   4.72378   4.78950
 Alpha virt. eigenvalues --    4.96859
          Condensed to atoms (all electrons):
               1          2          3          4          5          6
     1  O    8.390835   0.341807  -0.034856  -0.329966  -0.003841   0.012276
     2  C    0.341807  12.505568  -0.093700  -3.837078  -0.719026   0.856966
     3  C   -0.034856  -0.093700  15.411888  -4.420722  -6.521247   0.874935
     4  C   -0.329966  -3.837078  -4.420722  15.484748  -0.739307  -2.236696
     5  C   -0.003841  -0.719026  -6.521247  -0.739307  17.366082  -2.320651
     6  C    0.012276   0.856966   0.874935  -2.236696  -2.320651   9.966053
     7  H   -0.009114   0.063274   0.058839   0.298708  -0.028404  -0.075617
     8  C   -0.029170  -1.536602   1.119368   1.258439  -2.185541   0.149310
     9  H   -0.000848   0.005330  -0.043046  -0.026008   0.233064   0.069287
    10  H   -0.000432   0.020389  -0.026036  -0.078072   0.066361   0.281648
    11  H   -0.014182   0.132824   0.261874   0.063115  -0.140888  -0.018695
    12  C   -0.012207  -0.810793  -1.401378   0.845199   1.859473  -1.322678
    13  N   -0.000009   0.030399   0.025504  -0.042412  -0.110220   0.036972
    14  C    0.487280   0.178291  -0.506504  -0.184320   0.163747  -0.022132
    15  C   -0.140965  -0.546630   0.187285  -0.054030   0.026592   0.038777
    16  C   -0.280602   0.522518   0.079627   0.094996  -0.313592   0.039254
    17  C    0.006505  -0.166661   0.058111  -0.057591   0.106219   0.017860
    18  H    0.005494  -0.050749   0.065766  -0.027406   0.010796  -0.001659
    19  C   -0.119604  -0.040845   0.256530  -0.205961  -0.025780   0.039944
    20  C    0.000624  -0.118486   0.077350   0.007336  -0.002170  -0.002686
    21  H   -0.000741   0.003745  -0.002666   0.000864  -0.000351  -0.000019
    22  H   -0.000541  -0.000583   0.002262  -0.000509   0.000294   0.000010
    23  H    0.000024   0.000864  -0.001203  -0.000005  -0.000191   0.000002
    24  C    0.040961  -0.548953  -0.319509   0.502109   0.096225  -0.026728
    25  H    0.003346   0.017520  -0.006211  -0.029988   0.012419   0.004884
    26  H   -0.002428   0.055165  -0.012808   0.028656  -0.039482  -0.007328
    27  H    0.001404  -0.025102   0.018320  -0.004047   0.002427   0.000110
               7          8          9         10         11         12
     1  O   -0.009114  -0.029170  -0.000848  -0.000432  -0.014182  -0.012207
     2  C    0.063274  -1.536602   0.005330   0.020389   0.132824  -0.810793
     3  C    0.058839   1.119368  -0.043046  -0.026036   0.261874  -1.401378
     4  C    0.298708   1.258439  -0.026008  -0.078072   0.063115   0.845199
     5  C   -0.028404  -2.185541   0.233064   0.066361  -0.140888   1.859473
     6  C   -0.075617   0.149310   0.069287   0.281648  -0.018695  -1.322678
     7  H    0.508520  -0.007750   0.000014  -0.004264  -0.000149   0.000982
     8  C   -0.007750  10.105884   0.099733   0.088874  -0.029657  -4.174718
     9  H    0.000014   0.099733   0.507803  -0.000145  -0.004435  -0.050497
    10  H   -0.004264   0.088874  -0.000145   0.507396   0.000015  -0.067105
    11  H   -0.000149  -0.029657  -0.004435   0.000015   0.504860  -0.002244
    12  C    0.000982  -4.174718  -0.050497  -0.067105  -0.002244  11.815154
    13  N    0.000007   0.680845   0.001572   0.001364   0.000010  -0.439406
    14  C    0.001611  -0.026749   0.004924   0.002308  -0.002316  -0.000907
    15  C   -0.000378  -0.083931  -0.002272   0.000193   0.007037  -0.065618
    16  C   -0.010167   0.003512  -0.001508  -0.000443   0.041661   0.001487
    17  C    0.000031  -0.007736   0.000096   0.000005  -0.008627  -0.003734
    18  H    0.000006   0.000968   0.000000   0.000000  -0.000167  -0.000070
    19  C   -0.000696   0.030926   0.000552  -0.000049   0.004296   0.008439
    20  C   -0.000058  -0.004559  -0.000203   0.000002   0.006553  -0.002666
    21  H    0.000000   0.000052   0.000000   0.000000  -0.000005   0.000006
    22  H    0.000000   0.000074   0.000000   0.000000  -0.000008   0.000005
    23  H    0.000000  -0.000016   0.000000   0.000000   0.000000   0.000000
    24  C    0.001525   0.026484  -0.001243  -0.000201  -0.017446  -0.001626
    25  H    0.000028  -0.004144   0.000000   0.000000   0.000030  -0.000284
    26  H   -0.000007   0.002624  -0.000009   0.000000  -0.000190   0.001058
    27  H    0.000000   0.000017   0.000000   0.000000   0.000005  -0.000084
              13         14         15         16         17         18
     1  O   -0.000009   0.487280  -0.140965  -0.280602   0.006505   0.005494
     2  C    0.030399   0.178291  -0.546630   0.522518  -0.166661  -0.050749
     3  C    0.025504  -0.506504   0.187285   0.079627   0.058111   0.065766
     4  C   -0.042412  -0.184320  -0.054030   0.094996  -0.057591  -0.027406
     5  C   -0.110220   0.163747   0.026592  -0.313592   0.106219   0.010796
     6  C    0.036972  -0.022132   0.038777   0.039254   0.017860  -0.001659
     7  H    0.000007   0.001611  -0.000378  -0.010167   0.000031   0.000006
     8  C    0.680845  -0.026749  -0.083931   0.003512  -0.007736   0.000968
     9  H    0.001572   0.004924  -0.002272  -0.001508   0.000096   0.000000
    10  H    0.001364   0.002308   0.000193  -0.000443   0.000005   0.000000
    11  H    0.000010  -0.002316   0.007037   0.041661  -0.008627  -0.000167
    12  C   -0.439406  -0.000907  -0.065618   0.001487  -0.003734  -0.000070
    13  N    7.354914   0.000367   0.000333  -0.000022  -0.000002   0.000000
    14  C    0.000367  16.622016  -3.233636  -4.953134  -0.105854  -0.134955
    15  C    0.000333  -3.233636  12.610825  -0.377277  -0.434823   0.380216
    16  C   -0.000022  -4.953134  -0.377277  14.803010  -0.518697   0.099510
    17  C   -0.000002  -0.105854  -0.434823  -0.518697   6.063653  -0.049043
    18  H    0.000000  -0.134955   0.380216   0.099510  -0.049043   0.520252
    19  C   -0.000050  -0.668237  -3.392541  -3.432900   0.538985  -0.035548
    20  C    0.000006  -1.136700   0.672403   0.239981   0.478075   0.016879
    21  H    0.000000   0.047919  -0.036454  -0.033154   0.295964  -0.004276
    22  H    0.000000   0.088261  -0.035932  -0.028386   0.023031   0.000016
    23  H    0.000000  -0.011605   0.026267   0.054956  -0.028434  -0.000153
    24  C    0.000105  -0.502650   0.428489  -0.779209  -0.025698   0.007190
    25  H    0.000000   0.014643   0.015735  -0.098172   0.001026  -0.000001
    26  H   -0.000002  -0.020650  -0.002332  -0.002038  -0.000792  -0.000001
    27  H    0.000000   0.015015  -0.002345  -0.169357   0.003475   0.000002
              19         20         21         22         23         24
     1  O   -0.119604   0.000624  -0.000741  -0.000541   0.000024   0.040961
     2  C   -0.040845  -0.118486   0.003745  -0.000583   0.000864  -0.548953
     3  C    0.256530   0.077350  -0.002666   0.002262  -0.001203  -0.319509
     4  C   -0.205961   0.007336   0.000864  -0.000509  -0.000005   0.502109
     5  C   -0.025780  -0.002170  -0.000351   0.000294  -0.000191   0.096225
     6  C    0.039944  -0.002686  -0.000019   0.000010   0.000002  -0.026728
     7  H   -0.000696  -0.000058   0.000000   0.000000   0.000000   0.001525
     8  C    0.030926  -0.004559   0.000052   0.000074  -0.000016   0.026484
     9  H    0.000552  -0.000203   0.000000   0.000000   0.000000  -0.001243
    10  H   -0.000049   0.000002   0.000000   0.000000   0.000000  -0.000201
    11  H    0.004296   0.006553  -0.000005  -0.000008   0.000000  -0.017446
    12  C    0.008439  -0.002666   0.000006   0.000005   0.000000  -0.001626
    13  N   -0.000050   0.000006   0.000000   0.000000   0.000000   0.000105
    14  C   -0.668237  -1.136700   0.047919   0.088261  -0.011605  -0.502650
    15  C   -3.392541   0.672403  -0.036454  -0.035932   0.026267   0.428489
    16  C   -3.432900   0.239981  -0.033154  -0.028386   0.054956  -0.779209
    17  C    0.538985   0.478075   0.295964   0.023031  -0.028434  -0.025698
    18  H   -0.035548   0.016879  -0.004276   0.000016  -0.000153   0.007190
    19  C   14.997026  -0.273427   0.037701   0.284990  -0.050874  -0.986559
    20  C   -0.273427   5.840704  -0.015504  -0.011935   0.306062   0.038593
    21  H    0.037701  -0.015504   0.525511  -0.000171  -0.004287  -0.000251
    22  H    0.284990  -0.011935  -0.000171   0.537370  -0.004473  -0.041629
    23  H   -0.050874   0.306062  -0.004287  -0.004473   0.528817   0.000780
    24  C   -0.986559   0.038593  -0.000251  -0.041629   0.000780   7.495481
    25  H   -0.036038  -0.003011   0.000000   0.000141   0.000002   0.442550
    26  H   -0.038342  -0.001486   0.000000   0.000220   0.000002   0.367577
    27  H    0.020962   0.003179   0.000000   0.004073  -0.000007   0.470356
              25         26         27
     1  O    0.003346  -0.002428   0.001404
     2  C    0.017520   0.055165  -0.025102
     3  C   -0.006211  -0.012808   0.018320
     4  C   -0.029988   0.028656  -0.004047
     5  C    0.012419  -0.039482   0.002427
     6  C    0.004884  -0.007328   0.000110
     7  H    0.000028  -0.000007   0.000000
     8  C   -0.004144   0.002624   0.000017
     9  H    0.000000  -0.000009   0.000000
    10  H    0.000000   0.000000   0.000000
    11  H    0.000030  -0.000190   0.000005
    12  C   -0.000284   0.001058  -0.000084
    13  N    0.000000  -0.000002   0.000000
    14  C    0.014643  -0.020650   0.015015
    15  C    0.015735  -0.002332  -0.002345
    16  C   -0.098172  -0.002038  -0.169357
    17  C    0.001026  -0.000792   0.003475
    18  H   -0.000001  -0.000001   0.000002
    19  C   -0.036038  -0.038342   0.020962
    20  C   -0.003011  -0.001486   0.003179
    21  H    0.000000   0.000000   0.000000
    22  H    0.000141   0.000220   0.004073
    23  H    0.000002   0.000002  -0.000007
    24  C    0.442550   0.367577   0.470356
    25  H    0.481919  -0.030953  -0.024658
    26  H   -0.030953   0.491061  -0.025186
    27  H   -0.024658  -0.025186   0.504065
 Mulliken charges:
               1
     1  O   -0.311051
     2  C   -0.239450
     3  C    0.892229
     4  C   -0.310052
     5  C   -0.793007
     6  C   -0.353398
     7  H    0.203058
     8  C    0.523464
     9  H    0.207838
    10  H    0.208190
    11  H    0.216727
    12  C   -0.175788
    13  N   -0.540277
    14  C   -0.116034
    15  C    0.015013
    16  C    1.018151
    17  C   -0.185343
    18  H    0.196933
    19  C   -0.912898
    20  C   -0.114853
    21  H    0.186118
    22  H    0.183420
    23  H    0.183469
    24  C   -0.666724
    25  H    0.239217
    26  H    0.237672
    27  H    0.207376
 Sum of Mulliken charges =   0.00000
 Mulliken charges with hydrogens summed into heavy atoms:
               1
     1  O   -0.311051
     2  C   -0.239450
     3  C    1.108956
     4  C   -0.106993
     5  C   -0.585169
     6  C   -0.145208
     8  C    0.523464
    12  C   -0.175788
    13  N   -0.540277
    14  C   -0.116034
    15  C    0.211947
    16  C    1.018151
    17  C    0.000775
    19  C   -0.729478
    20  C    0.068617
    24  C    0.017541
 Electronic spatial extent (au):  <R**2>=           4373.0796
 Charge=              0.0000 electrons
 Dipole moment (field-independent basis, Debye):
    X=             -5.5807    Y=              0.5676    Z=              0.4912  Tot=              5.6310
 Quadrupole moment (field-independent basis, Debye-Ang):
   XX=           -122.2231   YY=            -90.0078   ZZ=            -91.6703
   XY=              8.2895   XZ=             12.6046   YZ=             -0.8200
 Traceless Quadrupole moment (field-independent basis, Debye-Ang):
   XX=            -20.9227   YY=             11.2926   ZZ=              9.6301
   XY=              8.2895   XZ=             12.6046   YZ=             -0.8200
 Octapole moment (field-independent basis, Debye-Ang**2):
  XXX=           -267.1623  YYY=              4.2928  ZZZ=              6.4446  XYY=            -14.9995
  XXY=             23.4235  XXZ=             41.8277  XZZ=             -8.4332  YZZ=              3.6713
  YYZ=              4.6835  XYZ=             12.0559
 Hexadecapole moment (field-independent basis, Debye-Ang**3):
 XXXX=          -6399.4334 YYYY=           -640.9088 ZZZZ=           -578.7702 XXXY=            295.0024
 XXXZ=            422.3759 YYYX=             14.5592 YYYZ=             -4.1442 ZZZX=             26.8531
 ZZZY=              4.8139 XXYY=           -921.1826 XXZZ=           -952.1149 YYZZ=           -187.1106
 XXYZ=            -31.3169 YYXZ=              0.3925 ZZXY=              8.8651
 N-N= 9.580224454903D+02 E-N=-3.469343739856D+03  KE= 6.636752742677D+02
 Evaluate density.
 Using the total density.
 Monte-Carlo method of calculating molar volume:
 based on  0.001 e/bohr**3 density envelope.
 Number of points per bohr**3 =   20 CutOff= 1.00D-04
 Using the SCF density.
 There are       441 points.  Will hold       441 in memory.
 LenV=  4026279708 MDV=  4026531840.
 Box volume =10724.852 fraction occupied=0.156
 Integrated density= 6.9746954886563344D+01 error=-4.0253045113436656D+01
 Molar volume = 1678.038 bohr**3/mol (149.746 cm**3/mol)
 Recommended a0 for SCRF calculation =  4.79 angstrom (  9.06 bohr)
 Calling FoFJK, ICntrl=      2127 FMM=F ISym2X=0 I1Cent= 0 IOpClX= 0 NMat=1 NMatS=1 NMatT=0.
 ***** Axes restored to original set *****
 -------------------------------------------------------------------
 Center     Atomic                   Forces (Hartrees/Bohr)
 Number     Number              X              Y              Z
 -------------------------------------------------------------------
      1        8           0.000016152   -0.000005957   -0.000012077
      2        6          -0.000024723   -0.000003943    0.000001027
      3        6          -0.000001049    0.000003176    0.000005517
      4        6           0.000020845    0.000001205    0.000001035
      5        6           0.000005167    0.000002953    0.000002195
      6        6          -0.000010009    0.000004099    0.000008259
      7        1          -0.000001157   -0.000001243   -0.000001216
      8        6           0.000002036   -0.000009308   -0.000011956
      9        1          -0.000000892    0.000000074   -0.000000312
     10        1           0.000001437   -0.000000806   -0.000001354
     11        1           0.000001311   -0.000001317   -0.000000790
     12        6           0.000000763    0.000005493    0.000007726
     13        7          -0.000002009   -0.000003000   -0.000003913
     14        6          -0.000009261    0.000009861   -0.000006477
     15        6          -0.000011371   -0.000005974    0.000000487
     16        6           0.000020679    0.000002523    0.000013589
     17        6           0.000005539    0.000000102   -0.000000752
     18        1           0.000001815    0.000001048   -0.000000008
     19        6          -0.000004647   -0.000005352   -0.000000565
     20        6          -0.000004176    0.000001651    0.000000361
     21        1           0.000001143    0.000000563    0.000002940
     22        1          -0.000000464   -0.000000490   -0.000000319
     23        1           0.000000775    0.000003723   -0.000000989
     24        6          -0.000003940   -0.000006946   -0.000006575
     25        1           0.000000367    0.000002987    0.000001316
     26        1          -0.000002512    0.000003177    0.000001002
     27        1          -0.000001820    0.000001701    0.000001849
 -------------------------------------------------------------------
 Cartesian Forces:  Max     0.000024723 RMS     0.000006504

 GradGradGradGradGradGradGradGradGradGradGradGradGradGradGradGradGradGrad
 Berny optimization.
 FormGI is forming the generalized inverse of G from B-inverse, IUseBI=4.
 Internal  Forces:  Max     0.000025250 RMS     0.000004277
 Search for a local minimum.
 Step number   1 out of a maximum of  141
 All quantities printed in internal units (Hartrees-Bohrs-Radians)
 Mixed Optimization -- En-DIIS/RFO-DIIS
 Second derivative matrix not updated -- first step.
 ITU=  0
     Eigenvalues ---    0.00658   0.01478   0.01731   0.01996   0.02025
     Eigenvalues ---    0.02060   0.02070   0.02072   0.02087   0.02090
     Eigenvalues ---    0.02095   0.02099   0.02115   0.02119   0.02120
     Eigenvalues ---    0.02126   0.02132   0.02144   0.02145   0.02161
     Eigenvalues ---    0.02174   0.04807   0.04807   0.07123   0.07175
     Eigenvalues ---    0.16000   0.16000   0.16000   0.16000   0.16000
     Eigenvalues ---    0.16000   0.16000   0.16000   0.16000   0.16000
     Eigenvalues ---    0.16000   0.22000   0.22000   0.22492   0.22973
     Eigenvalues ---    0.24000   0.24476   0.24961   0.24999   0.25000
     Eigenvalues ---    0.25000   0.25000   0.31537   0.33967   0.34136
     Eigenvalues ---    0.34332   0.35080   0.35199   0.35223   0.35280
     Eigenvalues ---    0.35305   0.35321   0.35353   0.35466   0.40648
     Eigenvalues ---    0.41167   0.41794   0.41854   0.41864   0.44814
     Eigenvalues ---    0.45029   0.45453   0.45718   0.45964   0.46034
     Eigenvalues ---    0.46111   0.46612   0.47316   0.51123   1.24886
 RFO step:  Lambda=-1.49607909D-08 EMin= 6.58090457D-03
 Linear search not attempted -- first point.
 Iteration  1 RMS(Cart)=  0.00034612 RMS(Int)=  0.00000002
 Iteration  2 RMS(Cart)=  0.00000004 RMS(Int)=  0.00000000
 Variable       Old X    -DE/DX   Delta X   Delta X   Delta X     New X
                                 (Linear)    (Quad)   (Total)
    R1        2.58749  -0.00001   0.00000  -0.00002  -0.00002   2.58747
    R2        2.64006   0.00000   0.00000   0.00001   0.00001   2.64007
    R3        2.64763   0.00000   0.00000  -0.00001  -0.00001   2.64763
    R4        2.64999   0.00001   0.00000   0.00003   0.00003   2.65002
    R5        2.63217   0.00000   0.00000   0.00001   0.00001   2.63218
    R6        2.04925   0.00000   0.00000   0.00000   0.00000   2.04925
    R7        2.62316  -0.00001   0.00000  -0.00002  -0.00002   2.62314
    R8        2.05105   0.00000   0.00000   0.00000   0.00000   2.05105
    R9        2.65494   0.00000   0.00000  -0.00001  -0.00001   2.65493
   R10        2.05182   0.00000   0.00000   0.00000   0.00000   2.05182
   R11        2.66243   0.00000   0.00000   0.00001   0.00001   2.66244
   R12        2.05157   0.00000   0.00000   0.00000   0.00000   2.05157
   R13        2.70683   0.00000   0.00000  -0.00001  -0.00001   2.70682
   R14        2.20061   0.00000   0.00000   0.00000   0.00000   2.20061
   R15        2.63124   0.00001   0.00000   0.00001   0.00001   2.63125
   R16        2.65032  -0.00001   0.00000  -0.00002  -0.00002   2.65030
   R17        2.64033  -0.00001   0.00000  -0.00001  -0.00001   2.64032
   R18        2.05223   0.00000   0.00000   0.00000   0.00000   2.05223
   R19        2.64878   0.00001   0.00000   0.00002   0.00002   2.64880
   R20        2.85000   0.00000   0.00000  -0.00001  -0.00001   2.84999
   R21        2.64031   0.00000   0.00000   0.00000   0.00000   2.64031
   R22        2.05315   0.00000   0.00000   0.00000   0.00000   2.05315
   R23        2.64216   0.00000   0.00000  -0.00001  -0.00001   2.64215
   R24        2.05544   0.00000   0.00000   0.00000   0.00000   2.05544
   R25        2.05352   0.00000   0.00000   0.00000   0.00000   2.05352
   R26        2.07100   0.00000   0.00000   0.00001   0.00001   2.07101
   R27        2.07386   0.00000   0.00000  -0.00001  -0.00001   2.07385
   R28        2.06773   0.00000   0.00000   0.00000   0.00000   2.06773
    A1        2.08385   0.00003   0.00000   0.00010   0.00010   2.08395
    A2        2.15819   0.00001   0.00000   0.00004   0.00004   2.15823
    A3        2.02170   0.00000   0.00000  -0.00002  -0.00002   2.02168
    A4        2.10328  -0.00001   0.00000  -0.00002  -0.00002   2.10326
    A5        2.08434   0.00000   0.00000   0.00000   0.00000   2.08435
    A6        2.09859   0.00000   0.00000   0.00001   0.00001   2.09860
    A7        2.10025   0.00000   0.00000  -0.00001  -0.00001   2.10024
    A8        2.09209   0.00000   0.00000   0.00002   0.00002   2.09210
    A9        2.07424   0.00000   0.00000  -0.00002  -0.00002   2.07422
   A10        2.11686   0.00000   0.00000   0.00000   0.00000   2.11687
   A11        2.10456   0.00000   0.00000   0.00001   0.00001   2.10458
   A12        2.09031   0.00000   0.00000  -0.00001  -0.00001   2.09030
   A13        2.08831   0.00000   0.00000   0.00000   0.00000   2.08831
   A14        2.09858   0.00000   0.00000   0.00000   0.00000   2.09858
   A15        2.09575   0.00000   0.00000   0.00001   0.00001   2.09576
   A16        2.08886   0.00000   0.00000  -0.00001  -0.00001   2.08885
   A17        2.08351   0.00000   0.00000  -0.00001  -0.00001   2.08350
   A18        2.09977   0.00000   0.00000   0.00001   0.00001   2.09978
   A19        2.09991   0.00000   0.00000   0.00000   0.00000   2.09990
   A20        2.06325  -0.00001   0.00000  -0.00003  -0.00003   2.06322
   A21        2.08041   0.00001   0.00000   0.00003   0.00003   2.08044
   A22        2.13809   0.00000   0.00000   0.00000   0.00000   2.13808
   A23        2.08306   0.00000   0.00000   0.00002   0.00002   2.08308
   A24        2.07690   0.00000   0.00000  -0.00002  -0.00002   2.07688
   A25        2.12322   0.00000   0.00000   0.00000   0.00000   2.12323
   A26        2.04149   0.00000   0.00000  -0.00002  -0.00002   2.04147
   A27        2.10746   0.00002   0.00000   0.00007   0.00007   2.10752
   A28        2.13424  -0.00001   0.00000  -0.00005  -0.00005   2.13419
   A29        2.08713   0.00000   0.00000  -0.00001  -0.00001   2.08712
   A30        2.09283   0.00000   0.00000  -0.00001  -0.00001   2.09281
   A31        2.10323   0.00000   0.00000   0.00002   0.00002   2.10325
   A32        2.12109   0.00000   0.00000   0.00002   0.00002   2.12111
   A33        2.07309   0.00000   0.00000  -0.00001  -0.00001   2.07309
   A34        2.08899   0.00000   0.00000  -0.00002  -0.00002   2.08897
   A35        2.09547   0.00000   0.00000  -0.00001  -0.00001   2.09546
   A36        2.09712   0.00000   0.00000   0.00003   0.00003   2.09715
   A37        2.09057   0.00000   0.00000  -0.00002  -0.00002   2.09056
   A38        1.93802   0.00000   0.00000   0.00000   0.00000   1.93803
   A39        1.94359   0.00000   0.00000   0.00003   0.00003   1.94362
   A40        1.93703   0.00000   0.00000  -0.00002  -0.00002   1.93702
   A41        1.86438   0.00000   0.00000   0.00000   0.00000   1.86437
   A42        1.89376   0.00000   0.00000  -0.00002  -0.00002   1.89374
   A43        1.88439   0.00000   0.00000   0.00001   0.00001   1.88440
   A44        3.14095   0.00001   0.00000   0.00020   0.00020   3.14115
   A45        3.14248   0.00000   0.00000   0.00001   0.00001   3.14248
    D1       -0.09396   0.00000   0.00000   0.00000   0.00000  -0.09396
    D2        3.05418   0.00000   0.00000   0.00004   0.00004   3.05422
    D3        1.73493   0.00000   0.00000  -0.00025  -0.00025   1.73468
    D4       -1.46279  -0.00001   0.00000  -0.00031  -0.00031  -1.46310
    D5       -3.13854   0.00000   0.00000   0.00001   0.00001  -3.13853
    D6        0.00070   0.00000   0.00000   0.00001   0.00001   0.00071
    D7       -0.00378   0.00000   0.00000  -0.00003  -0.00003  -0.00381
    D8        3.13545   0.00000   0.00000  -0.00003  -0.00003   3.13542
    D9        3.13768   0.00000   0.00000  -0.00003  -0.00003   3.13765
   D10       -0.00491   0.00000   0.00000  -0.00002  -0.00002  -0.00493
   D11        0.00241   0.00000   0.00000   0.00001   0.00001   0.00242
   D12       -3.14018   0.00000   0.00000   0.00002   0.00002  -3.14016
   D13        0.00199   0.00000   0.00000   0.00003   0.00003   0.00201
   D14       -3.14097   0.00000   0.00000   0.00001   0.00001  -3.14096
   D15       -3.13725   0.00000   0.00000   0.00003   0.00003  -3.13722
   D16        0.00298   0.00000   0.00000   0.00002   0.00002   0.00300
   D17        0.00078   0.00000   0.00000   0.00001   0.00001   0.00079
   D18        3.14069   0.00000   0.00000  -0.00001  -0.00001   3.14068
   D19       -3.13979   0.00000   0.00000   0.00000   0.00000  -3.13979
   D20        0.00012   0.00000   0.00000  -0.00001  -0.00001   0.00011
   D21        0.00115   0.00000   0.00000  -0.00001  -0.00001   0.00114
   D22       -3.14037   0.00000   0.00000  -0.00001  -0.00001  -3.14037
   D23       -3.13908   0.00000   0.00000   0.00001   0.00001  -3.13907
   D24        0.00259   0.00000   0.00000   0.00001   0.00001   0.00260
   D25       -0.00255   0.00000   0.00000  -0.00001  -0.00001  -0.00256
   D26        3.13897   0.00000   0.00000  -0.00001  -0.00001   3.13896
   D27        3.14073   0.00000   0.00000   0.00000   0.00000   3.14073
   D28       -0.00094   0.00000   0.00000   0.00000   0.00000  -0.00094
   D29        3.09177   0.00000   0.00000  -0.00002  -0.00002   3.09174
   D30       -0.04807   0.00000   0.00000  -0.00004  -0.00004  -0.04812
   D31        0.00827   0.00000   0.00000   0.00004   0.00004   0.00831
   D32       -3.13157   0.00000   0.00000   0.00002   0.00002  -3.13155
   D33       -3.09171   0.00000   0.00000   0.00003   0.00003  -3.09167
   D34        0.04915   0.00000   0.00000  -0.00008  -0.00008   0.04907
   D35       -0.00876   0.00000   0.00000  -0.00003  -0.00003  -0.00879
   D36        3.13210   0.00000   0.00000  -0.00015  -0.00015   3.13195
   D37       -0.00142   0.00000   0.00000  -0.00004  -0.00004  -0.00147
   D38       -3.14118   0.00000   0.00000   0.00001   0.00001  -3.14117
   D39        3.13837   0.00000   0.00000  -0.00002  -0.00002   3.13835
   D40       -0.00139   0.00000   0.00000   0.00004   0.00004  -0.00135
   D41        0.00264   0.00000   0.00000   0.00002   0.00002   0.00267
   D42        3.13840   0.00000   0.00000  -0.00001  -0.00001   3.13839
   D43       -3.13820   0.00000   0.00000   0.00014   0.00014  -3.13806
   D44       -0.00244   0.00000   0.00000   0.00010   0.00010  -0.00234
   D45       -0.89675   0.00000   0.00000   0.00013   0.00013  -0.89663
   D46        1.17853   0.00000   0.00000   0.00015   0.00015   1.17868
   D47       -3.00476   0.00000   0.00000   0.00017   0.00017  -3.00460
   D48        2.24407   0.00000   0.00000   0.00001   0.00001   2.24407
   D49       -1.96384   0.00000   0.00000   0.00003   0.00003  -1.96381
   D50        0.13605   0.00000   0.00000   0.00005   0.00005   0.13610
   D51       -0.00444   0.00000   0.00000   0.00003   0.00003  -0.00440
   D52       -3.13951   0.00000   0.00000   0.00003   0.00003  -3.13948
   D53        3.13531   0.00000   0.00000  -0.00002  -0.00002   3.13528
   D54        0.00023   0.00000   0.00000  -0.00002  -0.00002   0.00021
   D55        0.00381   0.00000   0.00000  -0.00003  -0.00003   0.00379
   D56        3.13891   0.00000   0.00000  -0.00003  -0.00003   3.13889
   D57       -3.13190   0.00000   0.00000   0.00001   0.00001  -3.13189
   D58        0.00320   0.00000   0.00000   0.00001   0.00001   0.00321
         Item               Value     Threshold  Converged?
 Maximum Force            0.000025     0.000450     YES
 RMS     Force            0.000004     0.000300     YES
 Maximum Displacement     0.001439     0.001800     YES
 RMS     Displacement     0.000346     0.001200     YES
 Predicted change in Energy=-7.480398D-09
 Optimization completed.
    -- Stationary point found.
                           ----------------------------
                           !   Optimized Parameters   !
                           ! (Angstroms and Degrees)  !
 --------------------------                            --------------------------
 ! Name  Definition              Value          Derivative Info.                !
 --------------------------------------------------------------------------------
 ! R1    R(1,2)                  1.3692         -DE/DX =    0.0                 !
 ! R2    R(1,14)                 1.3971         -DE/DX =    0.0                 !
 ! R3    R(2,3)                  1.4011         -DE/DX =    0.0                 !
 ! R4    R(2,4)                  1.4023         -DE/DX =    0.0                 !
 ! R5    R(3,5)                  1.3929         -DE/DX =    0.0                 !
 ! R6    R(3,11)                 1.0844         -DE/DX =    0.0                 !
 ! R7    R(4,6)                  1.3881         -DE/DX =    0.0                 !
 ! R8    R(4,7)                  1.0854         -DE/DX =    0.0                 !
 ! R9    R(5,8)                  1.4049         -DE/DX =    0.0                 !
 ! R10   R(5,9)                  1.0858         -DE/DX =    0.0                 !
 ! R11   R(6,8)                  1.4089         -DE/DX =    0.0                 !
 ! R12   R(6,10)                 1.0856         -DE/DX =    0.0                 !
 ! R13   R(8,12)                 1.4324         -DE/DX =    0.0                 !
 ! R14   R(12,13)                1.1645         -DE/DX =    0.0                 !
 ! R15   R(14,15)                1.3924         -DE/DX =    0.0                 !
 ! R16   R(14,16)                1.4025         -DE/DX =    0.0                 !
 ! R17   R(15,17)                1.3972         -DE/DX =    0.0                 !
 ! R18   R(15,18)                1.086          -DE/DX =    0.0                 !
 ! R19   R(16,19)                1.4017         -DE/DX =    0.0                 !
 ! R20   R(16,24)                1.5082         -DE/DX =    0.0                 !
 ! R21   R(17,20)                1.3972         -DE/DX =    0.0                 !
 ! R22   R(17,21)                1.0865         -DE/DX =    0.0                 !
 ! R23   R(19,20)                1.3982         -DE/DX =    0.0                 !
 ! R24   R(19,22)                1.0877         -DE/DX =    0.0                 !
 ! R25   R(20,23)                1.0867         -DE/DX =    0.0                 !
 ! R26   R(24,25)                1.0959         -DE/DX =    0.0                 !
 ! R27   R(24,26)                1.0974         -DE/DX =    0.0                 !
 ! R28   R(24,27)                1.0942         -DE/DX =    0.0                 !
 ! A1    A(2,1,14)             119.3957         -DE/DX =    0.0                 !
 ! A2    A(1,2,3)              123.6551         -DE/DX =    0.0                 !
 ! A3    A(1,2,4)              115.8348         -DE/DX =    0.0                 !
 ! A4    A(3,2,4)              120.509          -DE/DX =    0.0                 !
 ! A5    A(2,3,5)              119.4241         -DE/DX =    0.0                 !
 ! A6    A(2,3,11)             120.2403         -DE/DX =    0.0                 !
 ! A7    A(5,3,11)             120.3355         -DE/DX =    0.0                 !
 ! A8    A(2,4,6)              119.8677         -DE/DX =    0.0                 !
 ! A9    A(2,4,7)              118.8449         -DE/DX =    0.0                 !
 ! A10   A(6,4,7)              121.2873         -DE/DX =    0.0                 !
 ! A11   A(3,5,8)              120.5827         -DE/DX =    0.0                 !
 ! A12   A(3,5,9)              119.766          -DE/DX =    0.0                 !
 ! A13   A(8,5,9)              119.6513         -DE/DX =    0.0                 !
 ! A14   A(4,6,8)              120.2397         -DE/DX =    0.0                 !
 ! A15   A(4,6,10)             120.0775         -DE/DX =    0.0                 !
 ! A16   A(8,6,10)             119.6828         -DE/DX =    0.0                 !
 ! A17   A(5,8,6)              119.3764         -DE/DX =    0.0                 !
 ! A18   A(5,8,12)             120.3077         -DE/DX =    0.0                 !
 ! A19   A(6,8,12)             120.3158         -DE/DX =    0.0                 !
 ! A20   A(1,14,15)            118.2154         -DE/DX =    0.0                 !
 ! A21   A(1,14,16)            119.1989         -DE/DX =    0.0                 !
 ! A22   A(15,14,16)           122.5034         -DE/DX =    0.0                 !
 ! A23   A(14,15,17)           119.3507         -DE/DX =    0.0                 !
 ! A24   A(14,15,18)           118.9975         -DE/DX =    0.0                 !
 ! A25   A(17,15,18)           121.6517         -DE/DX =    0.0                 !
 ! A26   A(14,16,19)           116.9688         -DE/DX =    0.0                 !
 ! A27   A(14,16,24)           120.7484         -DE/DX =    0.0                 !
 ! A28   A(19,16,24)           122.2828         -DE/DX =    0.0                 !
 ! A29   A(15,17,20)           119.5837         -DE/DX =    0.0                 !
 ! A30   A(15,17,21)           119.9101         -DE/DX =    0.0                 !
 ! A31   A(20,17,21)           120.5061         -DE/DX =    0.0                 !
 ! A32   A(16,19,20)           121.5294         -DE/DX =    0.0                 !
 ! A33   A(16,19,22)           118.7794         -DE/DX =    0.0                 !
 ! A34   A(20,19,22)           119.6903         -DE/DX =    0.0                 !
 ! A35   A(17,20,19)           120.0618         -DE/DX =    0.0                 !
 ! A36   A(17,20,23)           120.1562         -DE/DX =    0.0                 !
 ! A37   A(19,20,23)           119.781          -DE/DX =    0.0                 !
 ! A38   A(16,24,25)           111.0406         -DE/DX =    0.0                 !
 ! A39   A(16,24,26)           111.3595         -DE/DX =    0.0                 !
 ! A40   A(16,24,27)           110.9837         -DE/DX =    0.0                 !
 ! A41   A(25,24,26)           106.8209         -DE/DX =    0.0                 !
 ! A42   A(25,24,27)           108.5046         -DE/DX =    0.0                 !
 ! A43   A(26,24,27)           107.9676         -DE/DX =    0.0                 !
 ! A44   L(8,12,13,10,-1)      179.9632         -DE/DX =    0.0                 !
 ! A45   L(8,12,13,10,-2)      180.0507         -DE/DX =    0.0                 !
 ! D1    D(14,1,2,3)            -5.3835         -DE/DX =    0.0                 !
 ! D2    D(14,1,2,4)           174.9915         -DE/DX =    0.0                 !
 ! D3    D(2,1,14,15)           99.4039         -DE/DX =    0.0                 !
 ! D4    D(2,1,14,16)          -83.8119         -DE/DX =    0.0                 !
 ! D5    D(1,2,3,5)           -179.8251         -DE/DX =    0.0                 !
 ! D6    D(1,2,3,11)             0.0399         -DE/DX =    0.0                 !
 ! D7    D(4,2,3,5)             -0.2168         -DE/DX =    0.0                 !
 ! D8    D(4,2,3,11)           179.6482         -DE/DX =    0.0                 !
 ! D9    D(1,2,4,6)            179.7757         -DE/DX =    0.0                 !
 ! D10   D(1,2,4,7)             -0.2813         -DE/DX =    0.0                 !
 ! D11   D(3,2,4,6)              0.138          -DE/DX =    0.0                 !
 ! D12   D(3,2,4,7)           -179.919          -DE/DX =    0.0                 !
 ! D13   D(2,3,5,8)              0.1138         -DE/DX =    0.0                 !
 ! D14   D(2,3,5,9)           -179.9644         -DE/DX =    0.0                 !
 ! D15   D(11,3,5,8)          -179.751          -DE/DX =    0.0                 !
 ! D16   D(11,3,5,9)             0.1708         -DE/DX =    0.0                 !
 ! D17   D(2,4,6,8)              0.0448         -DE/DX =    0.0                 !
 ! D18   D(2,4,6,10)           179.9482         -DE/DX =    0.0                 !
 ! D19   D(7,4,6,8)           -179.8968         -DE/DX =    0.0                 !
 ! D20   D(7,4,6,10)             0.0066         -DE/DX =    0.0                 !
 ! D21   D(3,5,8,6)              0.0659         -DE/DX =    0.0                 !
 ! D22   D(3,5,8,12)          -179.9298         -DE/DX =    0.0                 !
 ! D23   D(9,5,8,6)           -179.856          -DE/DX =    0.0                 !
 ! D24   D(9,5,8,12)             0.1484         -DE/DX =    0.0                 !
 ! D25   D(4,6,8,5)             -0.1459         -DE/DX =    0.0                 !
 ! D26   D(4,6,8,12)           179.8498         -DE/DX =    0.0                 !
 ! D27   D(10,6,8,5)           179.9503         -DE/DX =    0.0                 !
 ! D28   D(10,6,8,12)           -0.054          -DE/DX =    0.0                 !
 ! D29   D(1,14,15,17)         177.1451         -DE/DX =    0.0                 !
 ! D30   D(1,14,15,18)          -2.7544         -DE/DX =    0.0                 !
 ! D31   D(16,14,15,17)          0.4737         -DE/DX =    0.0                 !
 ! D32   D(16,14,15,18)       -179.4258         -DE/DX =    0.0                 !
 ! D33   D(1,14,16,19)        -177.1417         -DE/DX =    0.0                 !
 ! D34   D(1,14,16,24)           2.8161         -DE/DX =    0.0                 !
 ! D35   D(15,14,16,19)         -0.5018         -DE/DX =    0.0                 !
 ! D36   D(15,14,16,24)        179.456          -DE/DX =    0.0                 !
 ! D37   D(14,15,17,20)         -0.0816         -DE/DX =    0.0                 !
 ! D38   D(14,15,17,21)       -179.9764         -DE/DX =    0.0                 !
 ! D39   D(18,15,17,20)        179.8151         -DE/DX =    0.0                 !
 ! D40   D(18,15,17,21)         -0.0796         -DE/DX =    0.0                 !
 ! D41   D(14,16,19,20)          0.1514         -DE/DX =    0.0                 !
 ! D42   D(14,16,19,22)        179.8173         -DE/DX =    0.0                 !
 ! D43   D(24,16,19,20)       -179.8057         -DE/DX =    0.0                 !
 ! D44   D(24,16,19,22)         -0.1398         -DE/DX =    0.0                 !
 ! D45   D(14,16,24,25)        -51.3801         -DE/DX =    0.0                 !
 ! D46   D(14,16,24,26)         67.525          -DE/DX =    0.0                 !
 ! D47   D(14,16,24,27)       -172.1602         -DE/DX =    0.0                 !
 ! D48   D(19,16,24,25)        128.5755         -DE/DX =    0.0                 !
 ! D49   D(19,16,24,26)       -112.5195         -DE/DX =    0.0                 !
 ! D50   D(19,16,24,27)          7.7954         -DE/DX =    0.0                 !
 ! D51   D(15,17,20,19)         -0.2543         -DE/DX =    0.0                 !
 ! D52   D(15,17,20,23)       -179.8809         -DE/DX =    0.0                 !
 ! D53   D(21,17,20,19)        179.6398         -DE/DX =    0.0                 !
 ! D54   D(21,17,20,23)          0.0132         -DE/DX =    0.0                 !
 ! D55   D(16,19,20,17)          0.2184         -DE/DX =    0.0                 !
 ! D56   D(16,19,20,23)        179.8464         -DE/DX =    0.0                 !
 ! D57   D(22,19,20,17)       -179.4445         -DE/DX =    0.0                 !
 ! D58   D(22,19,20,23)          0.1835         -DE/DX =    0.0                 !
 --------------------------------------------------------------------------------
 GradGradGradGradGradGradGradGradGradGradGradGradGradGradGradGradGradGrad

                          Input orientation:                          
 ---------------------------------------------------------------------
 Center     Atomic      Atomic             Coordinates (Angstroms)
 Number     Number       Type             X           Y           Z
 ---------------------------------------------------------------------
      1          8           0       -0.674084    0.528471    1.239292
      2          6           0        0.567726    0.250489    0.733869
      3          6           0        0.786676   -0.570511   -0.380137
      4          6           0        1.647646    0.837752    1.408685
      5          6           0        2.089483   -0.797022   -0.817756
      6          6           0        2.944409    0.607886    0.970019
      7          1           0        1.447108    1.467982    2.269281
      8          6           0        3.179279   -0.212411   -0.151114
      9          1           0        2.265507   -1.431857   -1.680838
     10          1           0        3.782930    1.061495    1.489390
     11          1           0       -0.051297   -1.027025   -0.895268
     12          6           0        4.516534   -0.448116   -0.607112
     13          7           0        5.603914   -0.638647   -0.977775
     14          6           0       -1.807742    0.069412    0.564118
     15          6           0       -2.426770   -1.088172    1.028401
     16          6           0       -2.318270    0.820174   -0.504849
     17          6           0       -3.596404   -1.535120    0.408426
     18          1           0       -1.986953   -1.620411    1.866653
     19          6           0       -3.492006    0.349117   -1.109115
     20          6           0       -4.127030   -0.814490   -0.664547
     21          1           0       -4.087154   -2.437057    0.763545
     22          1           0       -3.915331    0.910395   -1.939080
     23          1           0       -5.037317   -1.152610   -1.152320
     24          6           0       -1.621758    2.075237   -0.967683
     25          1           0       -1.431285    2.752288   -0.127219
     26          1           0       -0.647825    1.848348   -1.419737
     27          1           0       -2.223747    2.605854   -1.711536
 ---------------------------------------------------------------------
                    Distance matrix (angstroms):
                    1          2          3          4          5
     1  O    0.000000
     2  C    1.369240   0.000000
     3  C    2.442157   1.401067   0.000000
     4  C    2.348357   1.402313   2.434000   0.000000
     5  C    3.691298   2.412584   1.392883   2.797275   0.000000
     6  C    3.629367   2.414979   2.804880   1.388114   2.429157
     7  H    2.538309   2.147811   3.407498   1.085371   3.882356
     8  C    4.162997   2.796012   2.430069   2.425225   1.404933
     9  H    4.583802   3.397581   2.149577   3.883044   1.085776
    10  H    4.495735   3.400894   3.890516   2.148491   3.412444
    11  H    2.713628   2.160861   1.084419   3.416431   2.154495
    12  C    5.595127   4.228400   3.738762   3.734623   2.461033
    13  N    6.759498   5.392910   4.854647   4.850464   3.521635
    14  C    1.397060   2.388400   2.834100   3.639141   4.224766
    15  C    2.393725   3.293291   3.546574   4.522683   4.887699
    16  C    2.414636   3.191855   3.404445   4.403454   4.705478
    17  C    3.672697   4.542498   4.556719   5.842183   5.863243
    18  H    2.595169   3.363012   3.720668   4.411645   4.949884
    19  C    3.672583   4.459567   4.436693   5.744049   5.705396
    20  C    4.165451   5.013031   4.927973   6.354139   6.218425
    21  H    4.546398   5.375099   5.342866   6.635398   6.583394
    22  H    4.555612   5.260982   5.170325   6.493036   6.342746
    23  H    5.252013   6.078067   5.903728   7.430277   7.143504
    24  C    2.856801   3.319462   3.625706   4.226996   4.695281
    25  H    2.717732   3.316099   4.003038   3.937546   5.046806
    26  H    2.968703   2.944272   2.998240   3.780273   3.853987
    27  H    3.927386   4.395460   4.574338   5.277277   5.566180
                    6          7          8          9         10
     6  C    0.000000
     7  H    2.160962   0.000000
     8  C    1.408897   3.417960   0.000000
[...]
 00008415,-0.00003693,-0.00001897,-0.00006333,0.00001859,0.00002251,-0.
 00096888,-0.04409684,0.03357809,0.03976675,0.04455894,0.00142817,-0.05
 545952,-0.00516533,-0.03981383,0.00110225,-0.16436441,0.09040496,-0.00
 447487,0.00180726,0.00036502,-0.07809045,-0.25265163,0.09544414,0.1770
 2727,0.51424558,-0.00086974,-0.00177879,-0.00053485,0.00082973,-0.0000
 1898,0.00016869,-0.00012179,-0.00003928,0.00010424,-0.00007635,-0.0000
 4678,0.00001222,0.00001154,-0.00003075,0.00003766,0.00003979,-0.000015
 80,-0.00004497,0.00000592,0.00000903,0.00000807,-0.00004004,0.00004339
 ,0.00002926,-0.00002571,-0.00001535,0.00002634,0.00000116,0.00000639,-
 0.00000789,-0.00013195,0.00001849,-0.00013055,0.00003875,0.00000577,-0
 .00001941,-0.00002715,0.00000257,0.00001339,0.00312712,0.03431981,-0.0
 2976579,-0.05179832,-0.02285136,-0.01799154,0.02564974,-0.01439079,0.0
 3936484,-0.06739851,0.12367231,-0.22553805,-0.00361458,0.00091193,0.00
 297254,-0.01084113,0.06133684,-0.12198487,0.21627871,-0.17517622,0.465
 50773,-0.00186580,-0.00116625,0.00029156,0.00079846,-0.00045576,-0.000
 37430,-0.00013820,0.00008849,0.00013199,-0.00025570,0.00002808,0.00002
 503,0.00005178,0.00002305,-0.00003160,0.00005303,-0.00001565,-0.000073
 21,0.00001523,-0.00000359,0.00001649,-0.00010166,0.00002289,0.00004659
 ,-0.00001519,0.00000074,0.00001212,-0.00001397,-0.00000158,0.00000544,
 0.00001423,-0.00003619,-0.00000442,0.00008048,-0.00002270,-0.00002095,
 -0.00005649,0.00001689,0.00001832,-0.00023689,-0.00147718,-0.00504861,
 -0.00803200,-0.02267596,0.01018494,-0.00078130,0.00044984,-0.00041593,
 -0.10988485,-0.11262292,0.03300056,-0.00062302,0.00167562,0.00142360,0
 .00147488,-0.00039479,-0.00418113,0.00949827,0.01132369,-0.00413529,0.
 11043049,-0.00075801,-0.00036452,0.00024094,0.00039571,-0.00014573,-0.
 00022224,-0.00001296,0.00003691,0.00005922,-0.00014377,0.00002769,0.00
 001703,0.00001836,0.00000289,-0.00001081,0.00002873,-0.00002622,-0.000
 05134,0.00000876,-0.00000376,0.00000576,-0.00004054,0.00001631,0.00003
 076,-0.00000454,0.00000053,0.00000549,-0.00001062,-0.00000370,0.000004
 21,0.00001392,-0.00002467,-0.00001088,0.00005405,-0.00000949,-0.000018
 03,-0.00004246,0.00000747,0.00001244,-0.00244912,0.00345945,0.00106646
 ,-0.00277841,-0.00439916,0.00391036,0.00043705,0.00019278,-0.00038088,
 -0.11255234,-0.24613299,0.08456108,0.00119899,-0.00069984,-0.00184259,
 0.00041740,0.00191023,0.00448885,-0.00844463,-0.00911949,0.00318767,0.
 12327324,0.25671085,-0.00078445,-0.00072878,0.00038417,0.00008230,-0.0
 0014845,-0.00016232,0.00004903,0.00000467,0.00002602,-0.00010742,0.000
 04477,-0.00000073,-0.00002235,0.00000557,0.00000410,0.00000924,-0.0000
 1933,-0.00004196,0.00000040,-0.00000410,0.00000183,0.00000529,0.000016
 26,0.00002303,0.00000297,0.00000367,-0.00000156,-0.00000685,-0.0000051
 0,0.00000531,-0.00001096,0.00001044,0.00000449,0.00000755,0.00000016,-
 0.00000282,-0.00000681,-0.00000225,0.00000035,-0.00440728,0.00164465,0
 .00184161,-0.00682675,-0.01304285,0.00821652,-0.00056658,-0.00037838,-
 0.00091822,0.03304223,0.08468340,-0.08013857,0.00188509,-0.00144171,-0
 .00116974,-0.00486621,0.00386348,-0.00069582,0.01289414,0.02003728,-0.
 00330051,-0.03277100,-0.09353237,0.07752698,-0.00190988,0.00065384,-0.
 00124743,0.00089027,-0.00014859,-0.00056415,-0.00012751,0.00004014,0.0
 0016766,-0.00025967,-0.00001802,0.00004246,0.00004293,-0.00003439,0.00
 001248,0.00006553,-0.00006479,-0.00003607,0.00001395,0.00002301,-0.000
 00535,-0.00010444,0.00004414,0.00004158,-0.00001749,0.00001124,0.00000
 465,-0.00001299,0.00000392,0.00000081,0.00002099,0.00001687,-0.0000420
 8,0.00007505,-0.00000471,-0.00002977,-0.00005168,0.00000597,0.00002419
 ,-0.00069912,-0.00449449,-0.00253131,-0.00084403,-0.00046491,0.0002950
 7,-0.00714942,0.01412565,-0.02109049,0.00094415,-0.00431358,-0.0010698
 2,-0.00013758,0.00030624,0.00023897,-0.09428284,0.04881090,-0.09035353
 ,0.00932647,-0.00810106,0.01215257,0.00038980,-0.00050047,0.00056518,0
 .09527378,-0.00042877,0.00050993,-0.00069816,0.00000768,-0.00005303,-0
 .00006908,0.00009210,0.00001795,-0.00001061,-0.00004481,-0.00004368,0.
 00002575,-0.00004907,0.00000662,0.00000726,0.00000833,-0.00002186,-0.0
 0002398,-0.00000285,0.00000249,-0.00000433,0.00003278,0.00001848,0.000
 01632,0.00000701,-0.00000424,0.00000073,-0.00000147,0.00000516,-0.0000
 0381,-0.00002701,0.00001077,0.00001599,-0.00001815,0.00000390,0.000010
 47,0.00001289,-0.00000409,-0.00000880,-0.00364847,0.00158615,0.0010863
 9,-0.00057484,-0.00049381,-0.00067822,-0.00514392,0.00747437,-0.007285
 98,-0.00506674,-0.00189538,0.00278506,0.00031029,-0.00018311,-0.000194
 02,0.04921590,-0.12600806,0.11692310,0.01205486,-0.00901348,0.02045622
 ,0.00055348,-0.00051825,0.00112312,-0.04882131,0.12964004,-0.00092796,
 0.00031052,-0.00056406,0.00053326,-0.00014787,-0.00027722,-0.00000481,
 0.00008571,0.00007209,-0.00018961,-0.00002042,0.00003177,0.00000883,-0
 .00001002,-0.00000477,0.00004492,-0.00004878,-0.00005370,0.00000917,0.
 00001049,-0.00000477,-0.00005047,0.00001886,0.00004951,-0.00000505,0.0
 0000635,0.00000263,-0.00001218,0.00000492,-0.00000252,0.00001365,-0.00
 000493,-0.00003446,0.00005710,-0.00000728,-0.00002157,-0.00004523,0.00
 000555,0.00001576,-0.00347139,0.00062955,0.00331127,0.00018367,-0.0007
 1126,0.00003156,-0.00504649,0.00854280,-0.00745446,-0.00035824,0.00335
 481,0.00342348,0.00024697,-0.00021864,-0.00034807,-0.09059416,0.116412
 64,-0.21072995,-0.00474290,0.00365260,-0.00404177,-0.00032690,0.000201
 68,-0.00021177,0.10043504,-0.12901798,0.21857971,-0.00065402,0.0003210
 6,0.00038255,0.00017844,-0.00009554,-0.00014317,-0.00007373,0.00003001
 ,0.00003759,-0.00008867,0.00001203,0.00001881,0.00004488,-0.00000719,-
 0.00001317,0.00002165,-0.00001778,-0.00002258,0.00000764,0.00000086,0.
 00000362,-0.00005041,0.00000909,0.00001343,-0.00001046,0.00000206,0.00
 000443,-0.00000649,-0.00000040,0.00000134,0.00003412,-0.00002973,-0.00
 003128,0.00005270,-0.00001159,-0.00001822,-0.00003876,0.00000984,0.000
 01599,0.00071626,0.00028824,0.00051227,0.00254252,-0.00007091,-0.00364
 474,0.00249182,-0.00370602,-0.00052249,-0.00602990,-0.00482815,-0.0033
 3692,-0.00029307,-0.00036512,-0.00017362,-0.00813280,-0.00237528,-0.00
 713563,-0.24920438,-0.08017395,-0.11379565,-0.00064697,0.00165425,0.00
 140003,-0.00061646,0.00108532,0.00188436,0.26022568,0.00020613,-0.0001
 0559,-0.00056875,0.00016438,0.00000394,0.00000892,-0.00000175,0.000031
 76,0.00001511,0.00000380,-0.00000665,-0.00001049,0.00001450,0.00000166
 ,-0.00001124,0.00000470,0.00000664,-0.00000121,0.00000084,-0.00000325,
 0.00000517,-0.00001120,-0.00001095,0.00000597,0.00000280,0.00000035,-0
 .00000010,0.00000006,-0.00000100,-0.00000064,-0.00001023,-0.00001863,0
 .00001423,0.00001489,-0.00000397,-0.00000663,-0.00001324,0.00000258,0.
 00000310,0.00016579,-0.00109814,0.00091002,-0.00054682,0.00062022,0.00
 488159,-0.00326054,-0.00179649,0.00458487,0.01500621,0.00909863,0.0073
 9564,0.00068752,0.00042043,0.00045932,-0.02241418,-0.00395049,-0.01340
 814,-0.08015175,-0.07985410,-0.03066492,0.00117605,-0.00065935,-0.0018
 1611,0.00153716,-0.00072417,-0.00140753,0.08843395,0.07828569,0.000122
 15,-0.00057927,-0.00027807,0.00031281,-0.00000062,-0.00005125,-0.00000
 291,0.00002238,0.00005492,-0.00002568,-0.00001470,-0.00000800,0.000020
 03,-0.00000648,-0.00000661,0.00001148,0.00000060,-0.00000736,0.0000017
 7,0.00000462,0.00000077,-0.00002440,0.00000224,0.00000489,0.00000206,0
 .00000038,0.00000126,-0.00000173,-0.00000072,-0.00000095,-0.00001287,0
 .00001065,-0.00001251,0.00002616,-0.00000421,-0.00001034,-0.00002214,0
 .00000268,0.00000652,0.00042694,0.00087970,-0.00055284,-0.00304857,0.0
 0541936,-0.00039848,-0.00106279,0.00402533,0.00247791,-0.02051720,-0.0
 0943365,-0.00661830,-0.00109011,-0.00043625,-0.00028277,0.00989665,0.0
 0363836,0.00801264,-0.11366654,-0.03076440,-0.10637347,0.00182404,-0.0
 0140660,-0.00118225,0.00148805,-0.00176859,-0.00115205,0.12495158,0.03
 019736,0.10607508,-0.00198376,0.00348852,0.00104228,0.00055996,0.00044
 385,-0.00149015,-0.00021628,0.00021803,0.00007066,-0.00016237,-0.00005
 525,0.00001973,0.00001319,0.00002042,0.00003962,0.00005748,-0.00001749
 ,-0.00002684,0.00000782,0.00001321,0.00003738,-0.00013121,-0.00005459,
 0.00005361,-0.00001968,0.00007678,-0.00002622,-0.00000197,-0.00000476,
 0.00001469,-0.00011150,0.00008334,-0.00001592,-0.00000204,0.00000405,0
 .00001331,0.00001287,-0.00000248,0.00000138,0.01122637,0.00550819,-0.0
 0054980,-0.00017887,0.00098198,-0.00550847,-0.10786028,-0.04734853,0.0
 0934125,-0.00114615,-0.00097318,0.00074769,0.00060805,0.00089495,-0.00
 044136,-0.01199328,-0.02620378,0.00756397,0.00033132,-0.00097077,-0.00
 519270,-0.00014011,0.00025245,0.00034459,-0.00084046,0.00055783,0.0023
 0613,-0.00028836,-0.00077441,0.00029635,0.54675624,-0.00227701,-0.0033
 4942,-0.00290390,0.00127270,0.00036078,0.00015211,0.00038293,-0.000004
 35,0.00052767,-0.00024887,-0.00010101,0.00000117,-0.00020569,-0.000094
 59,-0.00004452,0.00005525,-0.00006245,-0.00004473,-0.00003726,0.000044
 23,-0.00008552,0.00001485,0.00007517,0.00009269,-0.00000949,0.00003204
 ,-0.00002074,-0.00000184,-0.00001541,0.00000793,-0.00020903,-0.0000788
 7,-0.00008018,0.00000804,-0.00003669,-0.00000528,-0.00001380,0.0000138
 4,-0.00000214,-0.00508227,-0.01686311,0.01286842,-0.00009931,0.0028492
 5,0.00262679,-0.05364621,-0.16972029,0.03729471,0.00023291,-0.00081066
 ,0.00006046,-0.00032519,-0.00007352,0.00002031,-0.01127995,-0.00992108
 ,0.00326594,-0.00146891,0.00408909,0.00162079,0.00027608,-0.00029320,-
 0.00032600,0.00287038,-0.00028658,-0.00070353,0.00009055,0.00011095,0.
 00009340,-0.03069176,0.50920435,0.00347883,-0.00056122,-0.00083651,-0.
 00127545,0.00100638,0.00033758,-0.00034253,0.00003376,-0.00044357,0.00
 066248,0.00023758,0.00011686,0.00040331,0.00006188,-0.00013085,-0.0001
 9372,0.00010486,0.00020131,-0.00002886,-0.00000459,-0.00005128,-0.0000
 6263,-0.00014970,-0.00020506,-0.00000428,-0.00003399,0.00002357,-0.000
 00365,0.00000143,-0.00000042,0.00004785,-0.00009671,0.00001842,0.00005
 162,-0.00001784,-0.00003568,-0.00004350,0.00000518,0.00001747,0.010316
 83,0.02387443,-0.00667168,-0.00471339,0.00246443,-0.00107506,0.0132757
 5,0.03960980,-0.09435110,0.00010119,-0.00051383,-0.00037343,0.00053764
 ,0.00092465,-0.00015374,-0.00571913,-0.00978646,0.00939780,-0.00560459
 ,0.00222129,0.00203160,0.00043579,-0.00036057,-0.00032416,0.00096861,-
 0.00291089,-0.00167106,-0.00044340,-0.00074918,0.00029505,0.03254124,0
 .00536156,0.56321241,0.00072640,0.00012030,-0.00004210,-0.00027277,0.0
 0017059,0.00028849,-0.00008426,0.00013406,0.00000992,0.00015899,-0.000
 12724,0.00004206,0.00013138,0.00000887,-0.00003886,-0.00018128,0.00002
 265,0.00011980,-0.00001296,0.00002924,-0.00007969,0.00002736,-0.000066
 81,-0.00011711,0.00001616,-0.00002502,0.00000097,0.00000257,0.00001283
 ,-0.00001328,-0.00000914,-0.00010461,0.00001724,-0.00006832,0.00000433
 ,0.00000972,0.00004712,-0.00001028,-0.00001670,-0.00011295,0.00098188,
 -0.00102170,-0.00036836,-0.00009842,0.00023232,-0.00539846,-0.01197434
 ,-0.01157882,0.00005978,0.00007928,-0.00014200,0.00002592,-0.00000395,
 0.00001454,-0.00022360,-0.00206903,0.00106214,-0.00108233,0.00007915,0
 .00050252,0.00005886,-0.00008156,-0.00002745,0.00046951,-0.00029401,-0
 .00019387,-0.00011340,-0.00017354,0.00006150,-0.05216103,-0.02559346,-
 0.03571628,0.05591165,0.00088196,0.00132690,0.00031957,0.00115372,-0.0
 0033863,-0.00027392,-0.00011930,-0.00007525,0.00008339,-0.00018011,0.0
 0000504,-0.00011692,-0.00003465,0.00003627,0.00003674,0.00019199,-0.00
 000408,-0.00009409,0.00004065,-0.00000987,0.00007800,-0.00007081,0.000
 06757,0.00011074,-0.00001482,0.00000942,0.00000522,0.00000036,-0.00001
 038,0.00000410,-0.00008076,0.00009237,0.00003380,0.00010217,-0.0000059
 3,-0.00001316,-0.00006739,0.00001085,0.00002032,-0.00275216,-0.0004320
 7,-0.00095662,-0.00065507,0.00032365,0.00021212,-0.00553774,-0.0174662
 9,-0.01969557,0.00001627,-0.00032297,0.00001819,0.00003897,-0.00002521
 ,0.00003945,0.00029637,-0.00280536,0.00187128,-0.00100571,0.00047739,0
 .00029913,0.00006439,-0.00004854,-0.00001972,0.00012312,-0.00013666,-0
 .00030389,-0.00016212,-0.00019282,0.00010870,-0.02609321,-0.14652840,-
 0.12415745,0.03262173,0.15905805,0.00049883,0.00103290,0.00001299,-0.0
 0026495,-0.00036206,-0.00002101,0.00009313,-0.00007091,-0.00004630,0.0
 0009338,0.00006783,0.00002335,-0.00007574,-0.00001959,0.00001115,0.000
 01589,0.00002149,-0.00002029,-0.00001569,-0.00002251,0.00003279,0.0000
 4680,-0.00000280,-0.00000681,-0.00000259,0.00000923,-0.00000239,0.0000
 0692,-0.00000362,0.00000689,0.00002419,0.00004711,-0.00002612,-0.00003
 572,0.00000617,0.00001121,0.00002919,0.00000135,-0.00000568,-0.0008606
 1,0.00113890,-0.00047640,0.00037709,-0.00069282,-0.00007225,0.00099344
 ,0.00714382,0.01172815,0.00017099,0.00021324,-0.00001061,-0.00004655,-
 0.00004076,0.00001957,0.00076058,0.00088740,-0.00062403,0.00042240,-0.
 00023628,-0.00010873,-0.00003531,0.00001851,0.00004918,0.00020918,0.00
 003679,0.00017334,0.00004645,0.00007259,-0.00001064,-0.03478970,-0.124
 30078,-0.20646503,0.03662857,0.13569508,0.22257292,0.00083600,0.000437
 95,0.00053612,-0.00084607,0.00044422,-0.00013882,-0.00030777,0.0003470
 4,-0.00038341,0.00035421,0.00008800,0.00005839,0.00020120,0.00009357,-
 0.00007986,-0.00015409,0.00005305,0.00011654,-0.00000710,-0.00002863,0
 .00000540,-0.00003296,-0.00012517,-0.00010084,0.00002526,-0.00006249,0
 .00002599,0.00000062,0.00001043,-0.00000708,0.00009415,-0.00019226,0.0
 0005865,-0.00000739,-0.00000144,-0.00000957,0.00000337,0.00000302,-0.0
 0000590,-0.00085458,0.00064857,-0.00195907,-0.00013527,-0.00080931,-0.
 00016806,-0.01287074,-0.00169425,0.00566568,0.00010349,0.00012904,0.00
 014295,-0.00000618,-0.00005659,0.00002746,0.00029211,-0.00102520,0.001
 42603,0.00021576,-0.00080012,-0.00062455,-0.00006207,0.00004877,0.0001
 1975,-0.00025585,0.00033563,0.00048239,-0.00007631,-0.00013283,0.00003
 056,-0.24999081,0.05312606,0.09453586,0.00557512,-0.00067554,-0.002435
 82,0.27285450,0.00110993,0.00092566,0.00079399,-0.00035137,-0.00041887
 ,0.00096758,0.00008391,0.00027376,-0.00004229,0.00022387,-0.00006270,-
 0.00003851,0.00039170,0.00002463,-0.00013081,-0.00023659,0.00006591,0.
 00011286,-0.00002252,-0.00001633,-0.00003785,-0.00012587,-0.00018487,-
 0.00015344,0.00001353,0.00002635,-0.00001681,-0.00000559,0.00000258,-0
 .00001355,-0.00024426,-0.00040160,0.00012882,0.00006110,-0.00003100,-0
 .00004508,-0.00006424,0.00000676,0.00002964,-0.00098247,-0.00064463,-0
 .00083498,0.00032090,-0.00042696,-0.00088793,-0.02773343,0.00561170,0.
 01243827,-0.00032181,-0.00020341,0.00007439,0.00002528,0.00000201,0.00
 004745,-0.00000577,-0.00184021,0.00140573,0.00036022,-0.00105748,-0.00
 089445,-0.00005647,0.00006134,0.00008699,-0.00039836,0.00029074,0.0001
 6511,-0.00011244,-0.00017644,0.00003786,0.05076973,-0.05871320,-0.0218
 4584,0.01868528,-0.00473479,-0.00779323,-0.05414480,0.06548304,-0.0004
 3139,-0.00094906,-0.00004704,-0.00000038,0.00047372,-0.00059297,0.0001
 6239,0.00009962,0.00022009,-0.00026194,-0.00025438,-0.00004986,-0.0003
 4920,-0.00010342,0.00010156,-0.00001139,-0.00005624,-0.00003113,0.0000
 2364,0.00003994,-0.00003454,0.00016135,0.00012106,0.00005089,0.0000278
 6,-0.00001642,-0.00001262,0.00000894,0.00000450,-0.00000505,-0.0000185
 9,0.00013105,-0.00004178,-0.00018388,0.00003636,0.00006544,0.00013438,
 -0.00002643,-0.00005540,0.00148582,0.00169259,0.00040706,-0.00057028,-
 0.00012713,0.00045736,0.00724272,-0.00114998,-0.00369150,0.00048903,0.
 00007729,0.00017515,0.00001240,0.00002131,-0.00005398,-0.00064208,-0.0
 0045702,-0.00083074,0.00001201,0.00040450,-0.00029004,-0.00000508,-0.0
 0000112,0.00001196,-0.00000876,0.00002151,0.00018380,-0.00001507,0.000
 07367,0.00002595,0.09462076,-0.02208677,-0.09101988,0.02373476,-0.0062
 5175,-0.01107509,-0.10478217,0.02381377,0.09512658,-0.00000604,0.00030
 035,-0.00006547,0.00007582,-0.00003654,0.00006819,-0.00020620,0.000104
 21,-0.00018698,0.00014101,0.00012189,0.00002422,0.00026524,0.00003883,
 -0.00006613,-0.00001128,0.00002145,0.00002953,0.00000420,-0.00002033,0
 .00002294,-0.00012154,-0.00006942,-0.00003864,-0.00001270,0.00000633,0
 .00000919,-0.00001030,0.00000062,-0.00000279,-0.00001456,-0.00010120,0
 .00001819,0.00013589,-0.00003003,-0.00005304,-0.00010317,0.00001605,0.
 00004422,-0.00200903,-0.00294459,0.00018577,0.00046907,-0.00030191,0.0
 0058537,0.00904029,-0.00923569,0.01262003,0.00011381,-0.00004289,0.000
 02382,-0.00016466,-0.00015838,0.00015001,0.00049833,-0.00085183,0.0012
 3541,0.00022913,0.00015669,0.00005588,-0.00001128,0.00001774,-0.000003
 69,-0.00020300,-0.00015269,-0.00023622,0.00000848,0.00007169,0.0000028
 1,-0.13234513,0.07286029,-0.10320559,-0.00312196,0.00191771,-0.0018543
 4,-0.01494860,0.01276055,-0.02083586,0.14230819,0.00003717,0.00069648,
 -0.00062847,-0.00000679,0.00003087,-0.00005297,0.00011419,-0.00014100,
 -0.00002034,0.00000615,-0.00002764,-0.00005213,-0.00014502,-0.00000189
 ,0.00004967,0.00007127,-0.00000274,-0.00003585,0.00001181,-0.00000730,
 0.00003321,0.00007700,0.00004312,0.00005109,0.00000646,-0.00000433,-0.
 00000316,0.00000776,-0.00000601,0.00000225,-0.00003678,0.00008376,0.00
 004176,-0.00003211,0.00001194,0.00002180,0.00002531,-0.00000401,-0.000
 01525,-0.00435709,-0.00395359,0.00024490,0.00102286,0.00019253,0.00128
 757,0.01597248,-0.01438687,0.01940596,-0.00017673,0.00011566,-0.000285
 38,-0.00019161,-0.00037925,0.00010079,0.00185456,0.00109182,0.00072600
 ,-0.00011178,-0.00013574,0.00003318,-0.00004345,0.00002246,-0.00005929
 ,-0.00120791,-0.00018019,-0.00079944,0.00001897,0.00001916,-0.00002814
 ,0.06987687,-0.10982685,0.08528103,-0.01232793,0.01172975,-0.01284705,
 0.00398328,-0.00386200,0.00446886,-0.07444892,0.11888185,-0.00030134,0
 .00082472,0.00007564,0.00104052,-0.00029141,-0.00033177,0.00001098,-0.
 00007689,0.00019028,-0.00026976,-0.00006432,-0.00003330,-0.00007919,-0
 .00001633,0.00003385,0.00012328,-0.00004505,-0.00009492,0.00002737,0.0
 0000468,0.00003260,-0.00004434,0.00007390,0.00009422,-0.00000843,0.000
 01044,0.00000078,-0.00000837,-0.00000173,0.00000114,0.00000621,0.00003
 816,-0.00002013,0.00006101,-0.00000562,-0.00001545,-0.00004547,0.00000
 508,0.00001448,0.00058180,0.00126883,0.00074661,-0.00058863,0.00012587
 ,-0.00036081,-0.00477779,0.00438465,-0.00783408,0.00002349,-0.00013165
 ,0.00020594,0.00015067,0.00009049,-0.00009612,-0.00086234,-0.00171323,
 0.00030342,0.00041093,0.00004019,-0.00014414,0.00000726,0.00002696,0.0
 0005491,0.00033226,0.00016576,0.00069729,0.00002349,0.00001736,-0.0000
 0909,-0.10101349,0.08661014,-0.17184355,-0.01373669,0.01294727,-0.0156
 7013,0.00746340,-0.00736767,0.01100578,0.11147318,-0.09692061,0.182996
 56\\-0.00001617,0.00000595,0.00001207,0.00002474,0.00000397,-0.0000009
 8,0.00000102,-0.00000318,-0.00000552,-0.00002082,-0.00000122,-0.000001
 05,-0.00000514,-0.00000296,-0.00000220,0.00000999,-0.00000411,-0.00000
 827,0.00000115,0.00000124,0.00000121,-0.00000203,0.00000933,0.00001198
 ,0.00000089,-0.00000008,0.00000030,-0.00000144,0.00000080,0.00000135,-
 0.00000132,0.00000131,0.00000078,-0.00000078,-0.00000549,-0.00000772,0
 .00000202,0.00000300,0.00000391,0.00000924,-0.00000985,0.00000645,0.00
 001137,0.00000599,-0.00000050,-0.00002069,-0.00000256,-0.00001358,-0.0
 0000551,-0.00000012,0.00000078,-0.00000182,-0.00000105,0.,0.00000472,0
 .00000541,0.00000059,0.00000415,-0.00000165,-0.00000037,-0.00000115,-0
 .00000057,-0.00000294,0.00000046,0.00000049,0.00000031,-0.00000079,-0.
 00000373,0.00000098,0.00000392,0.00000693,0.00000658,-0.00000037,-0.00
 000299,-0.00000132,0.00000252,-0.00000318,-0.00000101,0.00000182,-0.00
 000170,-0.00000185\\\@


 UNLESS WE CHANGE DIRECTIONS, WE WILL WIND UP WHERE WE ARE HEADED.
     -- CONFUCIUS
 Job cpu time:       0 days  2 hours 32 minutes 22.2 seconds.
 Elapsed time:       0 days  0 hours  5 minutes  4.8 seconds.
 File lengths (MBytes):  RWF=    300 Int=      0 D2E=      0 Chk=     11 Scr=      1
 Normal termination of Gaussian 16 at Sat Sep 23 01:08:19 2023.
