 Entering Gaussian System, Link 0=/home/ubuntu/g16/g16
 Input=/home/ubuntu/ML products/molecule_112.gjf
 Output=/home/ubuntu/ML products/molecule_112.log
 Initial command:
 /home/ubuntu/g16/l1.exe "/home/ubuntu/Scratch/Gau-327121.inp" -scrdir="/home/ubuntu/Scratch/"
 Entering Link 1 = /home/ubuntu/g16/l1.exe PID=    327123.
  
 Copyright (c) 1988-2017, Gaussian, Inc.  All Rights Reserved.
  
 This is part of the Gaussian(R) 16 program.  It is based on
 the Gaussian(R) 09 system (copyright 2009, Gaussian, Inc.),
 the Gaussian(R) 03 system (copyright 2003, Gaussian, Inc.),
 the Gaussian(R) 98 system (copyright 1998, Gaussian, Inc.),
 the Gaussian(R) 94 system (copyright 1995, Gaussian, Inc.),
 the Gaussian 92(TM) system (copyright 1992, Gaussian, Inc.),
 the Gaussian 90(TM) system (copyright 1990, Gaussian, Inc.),
 the Gaussian 88(TM) system (copyright 1988, Gaussian, Inc.),
 the Gaussian 86(TM) system (copyright 1986, Carnegie Mellon
 University), and the Gaussian 82(TM) system (copyright 1983,
 Carnegie Mellon University). Gaussian is a federally registered
 trademark of Gaussian, Inc.
  
 This software contains proprietary and confidential information,
 including trade secrets, belonging to Gaussian, Inc.
  
 This software is provided under written license and may be
 used, copied, transmitted, or stored only in accord with that
 written license.
  
 The following legend is applicable only to US Government
 contracts under FAR:
  
                    RESTRICTED RIGHTS LEGEND
  
 Use, reproduction and disclosure by the US Government is
 subject to restrictions as set forth in subparagraphs (a)
 and (c) of the Commercial Computer Software - Restricted
 Rights clause in FAR 52.227-19.
  
 Gaussian, Inc.
 340 Quinnipiac St., Bldg. 40, Wallingford CT 06492
  
  
 ---------------------------------------------------------------
 Warning -- This program may not be used in any manner that
 competes with the business of Gaussian, Inc. or will provide
 assistance to any competitor of Gaussian, Inc.  The licensee
 of this program is prohibited from giving any competitor of
 Gaussian, Inc. access to this program.  By using this program,
 the user acknowledges that Gaussian, Inc. is engaged in the
 business of creating and licensing software in the field of
 computational chemistry and represents and warrants to the
 licensee that it is not a competitor of Gaussian, Inc. and that
 it will not use this program in any manner prohibited above.
 ---------------------------------------------------------------
  

 Cite this work as:
 Gaussian 16, Revision B.01,
 M. J. Frisch, G. W. Trucks, H. B. Schlegel, G. E. Scuseria, 
 M. A. Robb, J. R. Cheeseman, G. Scalmani, V. Barone, 
 G. A. Petersson, H. Nakatsuji, X. Li, M. Caricato, A. V. Marenich, 
 J. Bloino, B. G. Janesko, R. Gomperts, B. Mennucci, H. P. Hratchian, 
 J. V. Ortiz, A. F. Izmaylov, J. L. Sonnenberg, D. Williams-Young, 
 F. Ding, F. Lipparini, F. Egidi, J. Goings, B. Peng, A. Petrone, 
 T. Henderson, D. Ranasinghe, V. G. Zakrzewski, J. Gao, N. Rega, 
 G. Zheng, W. Liang, M. Hada, M. Ehara, K. Toyota, R. Fukuda, 
 J. Hasegawa, M. Ishida, T. Nakajima, Y. Honda, O. Kitao, H. Nakai, 
 T. Vreven, K. Throssell, J. A. Montgomery, Jr., J. E. Peralta, 
 F. Ogliaro, M. J. Bearpark, J. J. Heyd, E. N. Brothers, K. N. Kudin, 
 V. N. Staroverov, T. A. Keith, R. Kobayashi, J. Normand, 
 K. Raghavachari, A. P. Rendell, J. C. Burant, S. S. Iyengar, 
 J. Tomasi, M. Cossi, J. M. Millam, M. Klene, C. Adamo, R. Cammi, 
 J. W. Ochterski, R. L. Martin, K. Morokuma, O. Farkas, 
 J. B. Foresman, and D. J. Fox, Gaussian, Inc., Wallingford CT, 2016.
 
 ******************************************
 Gaussian 16:  EM64L-G16RevB.01 20-Dec-2017
                15-Sep-2023 
 ******************************************
 %nprocshared=30
 Will use up to   30 processors via shared memory.
 %mem=30GB
 %chk=molecule_112.chk
 ----------------------------------------------------------------------
 # opt freq b3lyp/6-31+g(d) geom=connectivity empiricaldispersion=gd3 v
 olume
 ----------------------------------------------------------------------
 1/18=20,19=15,26=3,38=1,57=2/1,3;
 2/9=110,12=2,17=6,18=5,40=1/2;
 3/5=1,6=6,7=11,11=2,25=1,30=1,71=1,74=-5,124=31/1,2,3;
 4//1;
 5/5=2,38=5/2;
 6/7=2,8=2,9=2,10=2,28=1,44=1/1,4;
 7//1,2,3,16;
 1/18=20,19=15,26=3/3(2);
 2/9=110/2;
 99//99;
 2/9=110/2;
 3/5=1,6=6,7=11,11=2,25=1,30=1,71=1,74=-5,124=31/1,2,3;
 4/5=5,16=3,69=1/1;
 5/5=2,38=5/2;
 7//1,2,3,16;
 1/18=20,19=15,26=3/3(-5);
 2/9=110/2;
 6/7=2,8=2,9=2,10=2,19=2,28=1,44=1/1,4;
 99/9=1/99;
 --------------
 ML molecule112
 --------------
 Symbolic Z-matrix:
 Charge =  0 Multiplicity = 1
 C                    -4.74942  -0.23058  -0.40002 
 C                    -4.8202    0.23854  -1.71867 
 C                    -4.55025   1.58484  -1.99888 
 C                    -4.20951   2.46203  -0.96044 
 C                    -4.13873   1.99291   0.35822 
 C                    -4.40868   0.64661   0.63842 
 H                    -5.08036  -0.43121  -2.51155 
 H                    -4.35464   0.28843   1.64524 
 O                    -3.91049   3.9533   -1.27081 
 C                    -3.81752   4.69985  -2.77936 
 C                    -4.13168   3.88761  -3.87731 
 C                    -3.30395   5.98751  -2.98454 
 C                    -3.93225   4.36302  -5.18043 
 C                    -3.10452   6.46292  -4.28767 
 C                    -3.41867   5.65068  -5.38561 
 H                    -4.17211   3.74285  -6.01874 
 H                    -2.7124    7.44608  -4.44432 
 H                    -4.60429   1.94302  -3.0057 
 H                    -4.5238    2.90445  -3.72065 
 N                    -5.03258  -1.64279  -0.1061 
 O                    -4.12167  -2.42275  -0.12371 
 O                    -6.16321  -1.95858   0.13958 
 H                    -3.06408   6.60768  -2.14623 
 H                    -3.26641   6.01366  -6.38058 
 C                    -3.76429   2.95685   1.49936 
 H                    -2.78278   3.34729   1.32882 
 H                    -4.46797   3.76228   1.53123 
 H                    -3.78197   2.43073   2.43091 
 

 GradGradGradGradGradGradGradGradGradGradGradGradGradGradGradGradGradGrad
 Berny optimization.
 Initialization pass.
                           ----------------------------
                           !    Initial Parameters    !
                           ! (Angstroms and Degrees)  !
 --------------------------                            --------------------------
 ! Name  Definition              Value          Derivative Info.                !
 --------------------------------------------------------------------------------
 ! R1    R(1,2)                  1.4014         estimate D2E/DX2                !
 ! R2    R(1,6)                  1.4014         estimate D2E/DX2                !
 ! R3    R(1,20)                 1.47           estimate D2E/DX2                !
 ! R4    R(2,3)                  1.4014         estimate D2E/DX2                !
 ! R5    R(2,7)                  1.07           estimate D2E/DX2                !
 ! R6    R(3,4)                  1.4014         estimate D2E/DX2                !
 ! R7    R(3,18)                 1.07           estimate D2E/DX2                !
 ! R8    R(4,5)                  1.4014         estimate D2E/DX2                !
 ! R9    R(4,9)                  1.5523         estimate D2E/DX2                !
 ! R10   R(5,6)                  1.4014         estimate D2E/DX2                !
 ! R11   R(5,25)                 1.54           estimate D2E/DX2                !
 ! R12   R(6,8)                  1.07           estimate D2E/DX2                !
 ! R13   R(9,10)                 1.6857         estimate D2E/DX2                !
 ! R14   R(10,11)                1.4014         estimate D2E/DX2                !
 ! R15   R(10,12)                1.4014         estimate D2E/DX2                !
 ! R16   R(11,13)                1.4014         estimate D2E/DX2                !
 ! R17   R(11,19)                1.07           estimate D2E/DX2                !
 ! R18   R(12,14)                1.4014         estimate D2E/DX2                !
 ! R19   R(12,23)                1.07           estimate D2E/DX2                !
 ! R20   R(13,15)                1.4014         estimate D2E/DX2                !
 ! R21   R(13,16)                1.07           estimate D2E/DX2                !
 ! R22   R(14,15)                1.4014         estimate D2E/DX2                !
 ! R23   R(14,17)                1.07           estimate D2E/DX2                !
 ! R24   R(15,24)                1.07           estimate D2E/DX2                !
 ! R25   R(20,21)                1.1993         estimate D2E/DX2                !
 ! R26   R(20,22)                1.1993         estimate D2E/DX2                !
 ! R27   R(25,26)                1.07           estimate D2E/DX2                !
 ! R28   R(25,27)                1.07           estimate D2E/DX2                !
 ! R29   R(25,28)                1.07           estimate D2E/DX2                !
 ! A1    A(2,1,6)              120.0            estimate D2E/DX2                !
 ! A2    A(2,1,20)             120.0            estimate D2E/DX2                !
 ! A3    A(6,1,20)             120.0            estimate D2E/DX2                !
 ! A4    A(1,2,3)              120.0            estimate D2E/DX2                !
 ! A5    A(1,2,7)              120.0            estimate D2E/DX2                !
 ! A6    A(3,2,7)              120.0            estimate D2E/DX2                !
 ! A7    A(2,3,4)              120.0            estimate D2E/DX2                !
 ! A8    A(2,3,18)             120.0            estimate D2E/DX2                !
 ! A9    A(4,3,18)             120.0            estimate D2E/DX2                !
 ! A10   A(3,4,5)              120.0            estimate D2E/DX2                !
 ! A11   A(3,4,9)              120.0            estimate D2E/DX2                !
 ! A12   A(5,4,9)              120.0            estimate D2E/DX2                !
 ! A13   A(4,5,6)              120.0            estimate D2E/DX2                !
 ! A14   A(4,5,25)             120.0            estimate D2E/DX2                !
 ! A15   A(6,5,25)             120.0            estimate D2E/DX2                !
 ! A16   A(1,6,5)              120.0            estimate D2E/DX2                !
 ! A17   A(1,6,8)              120.0            estimate D2E/DX2                !
 ! A18   A(5,6,8)              120.0            estimate D2E/DX2                !
 ! A19   A(4,9,10)             127.9526         estimate D2E/DX2                !
 ! A20   A(9,10,11)            115.5989         estimate D2E/DX2                !
 ! A21   A(9,10,12)            123.9281         estimate D2E/DX2                !
 ! A22   A(11,10,12)           120.0            estimate D2E/DX2                !
 ! A23   A(10,11,13)           120.0            estimate D2E/DX2                !
 ! A24   A(10,11,19)           120.0            estimate D2E/DX2                !
 ! A25   A(13,11,19)           120.0            estimate D2E/DX2                !
 ! A26   A(10,12,14)           120.0            estimate D2E/DX2                !
 ! A27   A(10,12,23)           120.0            estimate D2E/DX2                !
 ! A28   A(14,12,23)           120.0            estimate D2E/DX2                !
 ! A29   A(11,13,15)           120.0            estimate D2E/DX2                !
 ! A30   A(11,13,16)           120.0            estimate D2E/DX2                !
 ! A31   A(15,13,16)           120.0            estimate D2E/DX2                !
 ! A32   A(12,14,15)           120.0            estimate D2E/DX2                !
 ! A33   A(12,14,17)           120.0            estimate D2E/DX2                !
 ! A34   A(15,14,17)           120.0            estimate D2E/DX2                !
 ! A35   A(13,15,14)           120.0            estimate D2E/DX2                !
 ! A36   A(13,15,24)           120.0            estimate D2E/DX2                !
 ! A37   A(14,15,24)           120.0            estimate D2E/DX2                !
 ! A38   A(1,20,21)            118.3934         estimate D2E/DX2                !
 ! A39   A(1,20,22)            118.3927         estimate D2E/DX2                !
 ! A40   A(21,20,22)           123.2139         estimate D2E/DX2                !
 ! A41   A(5,25,26)            109.4712         estimate D2E/DX2                !
 ! A42   A(5,25,27)            109.4712         estimate D2E/DX2                !
 ! A43   A(5,25,28)            109.4712         estimate D2E/DX2                !
 ! A44   A(26,25,27)           109.4713         estimate D2E/DX2                !
 ! A45   A(26,25,28)           109.4712         estimate D2E/DX2                !
 ! A46   A(27,25,28)           109.4712         estimate D2E/DX2                !
 ! D1    D(6,1,2,3)              0.0001         estimate D2E/DX2                !
 ! D2    D(6,1,2,7)           -179.9998         estimate D2E/DX2                !
 ! D3    D(20,1,2,3)          -179.9999         estimate D2E/DX2                !
 ! D4    D(20,1,2,7)             0.0002         estimate D2E/DX2                !
 ! D5    D(2,1,6,5)             -0.0001         estimate D2E/DX2                !
 ! D6    D(2,1,6,8)            179.9998         estimate D2E/DX2                !
 ! D7    D(20,1,6,5)           179.9999         estimate D2E/DX2                !
 ! D8    D(20,1,6,8)            -0.0002         estimate D2E/DX2                !
 ! D9    D(2,1,20,21)           90.3367         estimate D2E/DX2                !
 ! D10   D(2,1,20,22)          -89.6634         estimate D2E/DX2                !
 ! D11   D(6,1,20,21)          -89.6633         estimate D2E/DX2                !
 ! D12   D(6,1,20,22)           90.3367         estimate D2E/DX2                !
 ! D13   D(1,2,3,4)              0.0001         estimate D2E/DX2                !
 ! D14   D(1,2,3,18)          -179.9999         estimate D2E/DX2                !
 ! D15   D(7,2,3,4)            179.9999         estimate D2E/DX2                !
 ! D16   D(7,2,3,18)            -0.0001         estimate D2E/DX2                !
 ! D17   D(2,3,4,5)             -0.0002         estimate D2E/DX2                !
 ! D18   D(2,3,4,9)            179.9998         estimate D2E/DX2                !
 ! D19   D(18,3,4,5)           179.9998         estimate D2E/DX2                !
 ! D20   D(18,3,4,9)            -0.0002         estimate D2E/DX2                !
 ! D21   D(3,4,5,6)              0.0001         estimate D2E/DX2                !
 ! D22   D(3,4,5,25)          -180.0            estimate D2E/DX2                !
 ! D23   D(9,4,5,6)           -179.9999         estimate D2E/DX2                !
 ! D24   D(9,4,5,25)             0.0            estimate D2E/DX2                !
 ! D25   D(3,4,9,10)            -5.2547         estimate D2E/DX2                !
 ! D26   D(5,4,9,10)           174.7453         estimate D2E/DX2                !
 ! D27   D(4,5,6,1)              0.0            estimate D2E/DX2                !
 ! D28   D(4,5,6,8)           -179.9999         estimate D2E/DX2                !
 ! D29   D(25,5,6,1)          -179.9999         estimate D2E/DX2                !
 ! D30   D(25,5,6,8)             0.0002         estimate D2E/DX2                !
 ! D31   D(4,5,25,26)          -61.2716         estimate D2E/DX2                !
 ! D32   D(4,5,25,27)           58.7285         estimate D2E/DX2                !
 ! D33   D(4,5,25,28)          178.7284         estimate D2E/DX2                !
 ! D34   D(6,5,25,26)          118.7284         estimate D2E/DX2                !
 ! D35   D(6,5,25,27)         -121.2716         estimate D2E/DX2                !
 ! D36   D(6,5,25,28)           -1.2716         estimate D2E/DX2                !
 ! D37   D(4,9,10,11)            4.3564         estimate D2E/DX2                !
 ! D38   D(4,9,10,12)         -167.7268         estimate D2E/DX2                !
 ! D39   D(9,10,11,13)        -172.4167         estimate D2E/DX2                !
 ! D40   D(9,10,11,19)           7.5833         estimate D2E/DX2                !
 ! D41   D(12,10,11,13)          0.0002         estimate D2E/DX2                !
 ! D42   D(12,10,11,19)       -179.9998         estimate D2E/DX2                !
 ! D43   D(9,10,12,14)         171.7535         estimate D2E/DX2                !
 ! D44   D(9,10,12,23)          -8.2465         estimate D2E/DX2                !
 ! D45   D(11,10,12,14)          0.0            estimate D2E/DX2                !
 ! D46   D(11,10,12,23)        180.0            estimate D2E/DX2                !
 ! D47   D(10,11,13,15)         -0.0002         estimate D2E/DX2                !
 ! D48   D(10,11,13,16)        179.9998         estimate D2E/DX2                !
 ! D49   D(19,11,13,15)        179.9998         estimate D2E/DX2                !
 ! D50   D(19,11,13,16)         -0.0002         estimate D2E/DX2                !
 ! D51   D(10,12,14,15)         -0.0001         estimate D2E/DX2                !
 ! D52   D(10,12,14,17)        179.9999         estimate D2E/DX2                !
 ! D53   D(23,12,14,15)        179.9999         estimate D2E/DX2                !
 ! D54   D(23,12,14,17)         -0.0001         estimate D2E/DX2                !
 ! D55   D(11,13,15,14)          0.0001         estimate D2E/DX2                !
 ! D56   D(11,13,15,24)       -179.9999         estimate D2E/DX2                !
 ! D57   D(16,13,15,14)       -179.9999         estimate D2E/DX2                !
 ! D58   D(16,13,15,24)          0.0001         estimate D2E/DX2                !
 ! D59   D(12,14,15,13)          0.0001         estimate D2E/DX2                !
 ! D60   D(12,14,15,24)       -179.9999         estimate D2E/DX2                !
 ! D61   D(17,14,15,13)       -180.0            estimate D2E/DX2                !
 ! D62   D(17,14,15,24)          0.0            estimate D2E/DX2                !
 --------------------------------------------------------------------------------
 Trust Radius=3.00D-01 FncErr=1.00D-07 GrdErr=1.00D-06 EigMax=2.50D+02 EigMin=1.00D-04
 Number of steps in this run=    147 maximum allowed number of steps=    168.
 GradGradGradGradGradGradGradGradGradGradGradGradGradGradGradGradGradGrad

                          Input orientation:                          
 ---------------------------------------------------------------------
 Center     Atomic      Atomic             Coordinates (Angstroms)
 Number     Number       Type             X           Y           Z
 ---------------------------------------------------------------------
      1          6           0       -4.749416   -0.230579   -0.400021
      2          6           0       -4.820199    0.238538   -1.718672
      3          6           0       -4.550247    1.584841   -1.998879
      4          6           0       -4.209510    2.462026   -0.960435
      5          6           0       -4.138728    1.992910    0.358216
      6          6           0       -4.408682    0.646607    0.638423
      7          1           0       -5.080361   -0.431212   -2.511547
      8          1           0       -4.354640    0.288426    1.645243
      9          8           0       -3.910486    3.953296   -1.270814
     10          6           0       -3.817523    4.699853   -2.779363
     11          6           0       -4.131676    3.887607   -3.877310
     12          6           0       -3.303947    5.987511   -2.984541
     13          6           0       -3.932249    4.363019   -5.180435
     14          6           0       -3.104523    6.462923   -4.287666
     15          6           0       -3.418674    5.650677   -5.385613
     16          1           0       -4.172109    3.742850   -6.018741
     17          1           0       -2.712397    7.446079   -4.444324
     18          1           0       -4.604292    1.943023   -3.005698
     19          1           0       -4.523805    2.904453   -3.720651
     20          7           0       -5.032581   -1.642786   -0.106098
     21          8           0       -4.121672   -2.422755   -0.123715
     22          8           0       -6.163210   -1.958585    0.139583
     23          1           0       -3.064084    6.607678   -2.146234
     24          1           0       -3.266408    6.013665   -6.380578
     25          6           0       -3.764292    2.956850    1.499364
     26          1           0       -2.782777    3.347291    1.328824
     27          1           0       -4.467973    3.762280    1.531229
     28          1           0       -3.781967    2.430728    2.430913
 ---------------------------------------------------------------------
                    Distance matrix (angstroms):
                    1          2          3          4          5
     1  C    0.000000
     2  C    1.401400   0.000000
     3  C    2.427296   1.401400   0.000000
     4  C    2.802800   2.427296   1.401400   0.000000
     5  C    2.427296   2.802800   2.427296   1.401400   0.000000
     6  C    1.401400   2.427296   2.802800   2.427296   1.401400
     7  H    2.146700   1.070000   2.146700   3.396345   3.872800
     8  H    2.146700   3.396345   3.872800   3.396345   2.146700
     9  O    4.355100   3.850660   2.559092   1.552300   2.559092
    10  C    5.553274   4.694012   3.293833   2.910330   4.156335
    11  C    5.425182   4.295286   3.001072   3.247537   4.640001
    12  C    6.887218   6.078827   4.680630   4.164864   5.275199
    13  C    6.679914   5.457435   4.268781   4.636706   6.027993
    14  C    7.913434   6.948831   5.578920   5.319647   6.529535
    15  C    7.824077   6.685954   5.411233   5.511362   6.847577
    16  H    6.905899   5.584874   4.578131   5.218081   6.612790
    17  H    8.912739   7.988783   6.611506   6.262556   7.405125
    18  H    3.396345   2.146700   1.070000   2.146700   3.396345
    19  H    4.572298   3.347069   2.169464   2.813062   4.197184
    20  N    1.470000   2.486942   3.772644   4.272800   3.772644
    21  O    2.296964   3.180300   4.445306   4.956703   4.441919
    22  O    2.296952   3.175553   4.441907   4.956691   4.445293
    23  H    7.256126   6.620627   5.240161   4.461452   5.359405
    24  H    8.772511   7.582857   6.360975   6.548399   7.895490
    25  C    3.838989   4.342800   3.838989   2.548270   1.540000
    26  H    4.433704   4.806524   4.159782   2.839008   2.148263
    27  H    4.444307   4.806524   4.148454   2.822384   2.148263
    28  H    4.004085   4.806524   4.574804   3.418335   2.148263
                    6          7          8          9         10
     6  C    0.000000
     7  H    3.396345   0.000000
     8  H    1.070000   4.280590   0.000000
     9  O    3.850660   4.704459   4.704459   0.000000
    10  C    5.334748   5.290965   6.271070   1.685736   0.000000
    11  C    5.565309   4.627906   6.595635   2.616688   1.401400
    12  C    6.547638   6.676779   7.417441   2.728146   1.401400
    13  C    6.920825   5.605869   7.960565   3.931091   2.427296
    14  C    7.732834   7.388345   8.653706   4.006145   2.427296
    15  C    7.893659   6.928985   8.891721   4.478231   2.802800
    16  H    7.345783   5.527036   8.408509   4.759784   3.396345
    17  H    8.657051   8.449532   9.540010   4.868893   3.396345
    18  H    3.872800   2.471400   4.942800   2.744520   2.875821
    19  H    4.910464   3.591427   5.972021   2.734581   2.146700
    20  N    2.486942   2.693767   2.693766   5.825100   6.989404
    21  O    3.175565   3.253778   3.245611   6.481856   7.607662
    22  O    3.180288   3.245600   3.253766   6.481845   7.639194
    23  H    6.715403   7.331085   7.481563   2.920360   2.146700
    24  H    8.909348   7.732804   9.918488   5.547039   3.872800
    25  C    2.548270   5.412800   2.736837   2.947569   4.620432
    26  H    3.227060   5.856998   3.453626   2.897773   4.447170
    27  H    3.241610   5.856999   3.477572   2.863342   4.459072
    28  H    2.605548   5.856999   2.352592   4.004687   5.683059
                   11         12         13         14         15
    11  C    0.000000
    12  C    2.427296   0.000000
    13  C    1.401400   2.802800   0.000000
    14  C    2.802800   1.401400   2.427296   0.000000
    15  C    2.427296   2.427296   1.401400   1.401400   0.000000
    16  H    2.146700   3.872800   1.070000   3.396345   2.146700
    17  H    3.872800   2.146700   3.396345   1.070000   2.146700
    18  H    2.182769   4.248439   3.322273   4.931759   4.562498
    19  H    1.070000   3.396345   2.146700   3.872800   3.396345
    20  N    6.754177   8.336368   7.939100   9.322309   9.147271
    21  O    7.342360   8.921075   8.464811   9.865514   9.662406
    22  O    7.378382   9.004220   8.558180   9.993893   9.795975
    23  H    3.396345   1.070000   3.872800   2.146700   3.396345
    24  H    3.396345   3.396345   2.146700   2.146700   1.070000
    25  C    5.468994   5.431595   6.828267   6.798350   7.401288
    26  H    5.405118   5.084044   6.687559   6.430836   7.126964
    27  H    5.420432   5.167087   6.759757   6.558354   7.246363
    28  H    6.483707   6.496641   7.854231   7.864911   8.461568
                   16         17         18         19         20
    16  H    0.000000
    17  H    4.280590   0.000000
    18  H    3.536183   5.994376   0.000000
    19  H    2.471400   4.942800   1.200826   0.000000
    20  N    8.043931  10.334937   4.631321   5.831057   0.000000
    21  O    8.530449  10.864972   5.253453   6.440404   1.199341
    22  O    8.625300  11.016716   5.248386   6.421697   1.199337
    23  H    4.942800   2.471400   4.986976   4.280590   8.723949
    24  H    2.471400   2.471400   5.454344   4.280590  10.055332
    25  C    7.570074   7.522439   4.693509   5.275240   5.034154
    26  H    7.488220   7.080555   4.906931   5.359523   5.658753
    27  H    7.555790   7.235997   4.889988   5.321769   5.675769
    28  H    8.559821   8.577098   5.520038   6.214216   4.959231
                   21         22         23         24         25
    21  O    0.000000
    22  O    2.110132   0.000000
    23  H    9.314387   9.392040   0.000000
    24  H   10.538168  10.698632   4.280590   0.000000
    25  C    5.630475   5.636072   5.206652   8.466728   0.000000
    26  H    6.098847   6.402651   4.773394   8.171801   1.070000
    27  H    6.411975   6.126892   4.857049   8.313193   1.070000
    28  H    5.495254   5.494231   6.237992   9.526049   1.070000
                   26         27         28
    26  H    0.000000
    27  H    1.747303   0.000000
    28  H    1.747303   1.747303   0.000000
 Stoichiometry    C13H11NO3
 Framework group  C1[X(C13H11NO3)]
 Deg. of freedom    78
 Full point group                 C1      NOp   1
 Largest Abelian subgroup         C1      NOp   1
 Largest concise Abelian subgroup C1      NOp   1
                         Standard orientation:                         
 ---------------------------------------------------------------------
 Center     Atomic      Atomic             Coordinates (Angstroms)
 Number     Number       Type             X           Y           Z
 ---------------------------------------------------------------------
      1          6           0       -2.777887   -0.323972    0.010390
      2          6           0       -1.694084   -1.206949   -0.087814
      3          6           0       -0.385860   -0.707336   -0.141283
      4          6           0       -0.161439    0.675255   -0.096545
      5          6           0       -1.245242    1.558232    0.001658
      6          6           0       -2.553466    1.058619    0.055125
      7          1           0       -1.865434   -2.262587   -0.121973
      8          1           0       -3.380974    1.732791    0.130103
      9          8           0        1.287652    1.228665   -0.155767
     10          6           0        2.730994    0.357770   -0.151831
     11          6           0        2.596777   -1.036839   -0.183030
     12          6           0        3.993009    0.936139    0.039819
     13          6           0        3.724574   -1.853079   -0.022575
     14          6           0        5.120807    0.119898    0.200271
     15          6           0        4.986589   -1.274711    0.169074
     16          1           0        3.622096   -2.917894   -0.046393
     17          1           0        6.084383    0.561495    0.346600
     18          1           0        0.441648   -1.381508   -0.216265
     19          1           0        1.633200   -1.478436   -0.329362
     20          7           0       -4.150150   -0.848041    0.066478
     21          8           0       -4.625017   -1.089324    1.141049
     22          8           0       -4.740059   -1.013398   -0.964576
     23          1           0        4.095486    2.000954    0.063640
     24          1           0        5.847688   -1.897929    0.291584
     25          6           0       -0.998626    3.077562    0.050819
     26          1           0       -0.413590    3.316176    0.914356
     27          1           0       -0.474259    3.382487   -0.830634
     28          1           0       -1.936679    3.589660    0.102893
 ---------------------------------------------------------------------
 Rotational constants (GHZ):           1.1327382           0.2011797           0.1756031
 Standard basis: 6-31+G(d) (6D, 7F)
 There are   345 symmetry adapted cartesian basis functions of A   symmetry.
 There are   345 symmetry adapted basis functions of A   symmetry.
   345 basis functions,   588 primitive gaussians,   345 cartesian basis functions
    60 alpha electrons       60 beta electrons
       nuclear repulsion energy      1073.1463117410 Hartrees.
 NAtoms=   28 NActive=   28 NUniq=   28 SFac= 1.00D+00 NAtFMM=   60 NAOKFM=F Big=F
 Integral buffers will be    131072 words long.
 Raffenetti 2 integral format.
 Two-electron integral symmetry is turned on.
 Nuclear repulsion after empirical dispersion term =     1073.1238619360 Hartrees.
 One-electron integrals computed using PRISM.
 NBasis=   345 RedAO= T EigKep=  1.39D-06  NBF=   345
 NBsUse=   343 1.00D-06 EigRej=  7.65D-07 NBFU=   343
 ExpMin= 4.38D-02 ExpMax= 5.48D+03 ExpMxC= 8.25D+02 IAcc=3 IRadAn=         5 AccDes= 0.00D+00
 Harris functional with IExCor=  402 and IRadAn=       5 diagonalized for initial guess.
 HarFok:  IExCor=  402 AccDes= 0.00D+00 IRadAn=         5 IDoV= 1 UseB2=F ITyADJ=14
 ICtDFT=  3500011 ScaDFX=  1.000000  1.000000  1.000000  1.000000
 FoFCou: FMM=F IPFlag=           0 FMFlag=      100000 FMFlg1=           0
         NFxFlg=           0 DoJE=T BraDBF=F KetDBF=T FulRan=T
         wScrn=  0.000000 ICntrl=       500 IOpCl=  0 I1Cent=   200000004 NGrid=           0
         NMat0=    1 NMatS0=      1 NMatT0=    0 NMatD0=    1 NMtDS0=    0 NMtDT0=    0
 Petite list used in FoFCou.
 Requested convergence on RMS density matrix=1.00D-08 within 128 cycles.
 Requested convergence on MAX density matrix=1.00D-06.
 Requested convergence on             energy=1.00D-06.
 No special actions if energy rises.
 SCF Done:  E(RB3LYP) =  -782.279099927     A.U. after   16 cycles
            NFock= 16  Conv=0.32D-08     -V/T= 2.0097

 **********************************************************************

            Population analysis using the SCF Density.

 **********************************************************************

 Orbital symmetries:
       Occupied  (A) (A) (A) (A) (A) (A) (A) (A) (A) (A) (A) (A)
                 (A) (A) (A) (A) (A) (A) (A) (A) (A) (A) (A) (A)
                 (A) (A) (A) (A) (A) (A) (A) (A) (A) (A) (A) (A)
                 (A) (A) (A) (A) (A) (A) (A) (A) (A) (A) (A) (A)
                 (A) (A) (A) (A) (A) (A) (A) (A) (A) (A) (A) (A)
       Virtual   (A) (A) (A) (A) (A) (A) (A) (A) (A) (A) (A) (A)
                 (A) (A) (A) (A) (A) (A) (A) (A) (A) (A) (A) (A)
                 (A) (A) (A) (A) (A) (A) (A) (A) (A) (A) (A) (A)
                 (A) (A) (A) (A) (A) (A) (A) (A) (A) (A) (A) (A)
                 (A) (A) (A) (A) (A) (A) (A) (A) (A) (A) (A) (A)
                 (A) (A) (A) (A) (A) (A) (A) (A) (A) (A) (A) (A)
                 (A) (A) (A) (A) (A) (A) (A) (A) (A) (A) (A) (A)
                 (A) (A) (A) (A) (A) (A) (A) (A) (A) (A) (A) (A)
                 (A) (A) (A) (A) (A) (A) (A) (A) (A) (A) (A) (A)
                 (A) (A) (A) (A) (A) (A) (A) (A) (A) (A) (A) (A)
                 (A) (A) (A) (A) (A) (A) (A) (A) (A) (A) (A) (A)
                 (A) (A) (A) (A) (A) (A) (A) (A) (A) (A) (A) (A)
                 (A) (A) (A) (A) (A) (A) (A) (A) (A) (A) (A) (A)
                 (A) (A) (A) (A) (A) (A) (A) (A) (A) (A) (A) (A)
                 (A) (A) (A) (A) (A) (A) (A) (A) (A) (A) (A) (A)
                 (A) (A) (A) (A) (A) (A) (A) (A) (A) (A) (A) (A)
                 (A) (A) (A) (A) (A) (A) (A) (A) (A) (A) (A) (A)
                 (A) (A) (A) (A) (A) (A) (A) (A) (A) (A) (A) (A)
                 (A) (A) (A) (A) (A) (A) (A) (A) (A) (A) (A) (A)
                 (A) (A) (A) (A) (A) (A) (A) (A) (A) (A) (A) (A)
                 (A) (A) (A) (A) (A) (A) (A) (A) (A) (A) (A) (A)
                 (A) (A) (A) (A) (A) (A) (A) (A) (A) (A) (A) (A)
                 (A) (A) (A) (A) (A) (A) (A) (A) (A) (A) (A) (A)
                 (A) (A) (A) (A) (A) (A) (A)
 The electronic state is 1-A.
 Alpha  occ. eigenvalues --  -19.20193 -19.20192 -19.19972 -14.59004 -10.29306
 Alpha  occ. eigenvalues --  -10.28574 -10.26513 -10.23626 -10.23126 -10.23098
 Alpha  occ. eigenvalues --  -10.22837 -10.22463 -10.22228 -10.22185 -10.22036
 Alpha  occ. eigenvalues --  -10.21728 -10.19402  -1.27163  -1.08746  -0.98592
 Alpha  occ. eigenvalues --   -0.89898  -0.88109  -0.82215  -0.79867  -0.77855
 Alpha  occ. eigenvalues --   -0.77017  -0.72041  -0.70300  -0.65723  -0.63238
 Alpha  occ. eigenvalues --   -0.62496  -0.59609  -0.57087  -0.55874  -0.54999
 Alpha  occ. eigenvalues --   -0.52965  -0.52419  -0.50105  -0.49106  -0.47870
 Alpha  occ. eigenvalues --   -0.47011  -0.44862  -0.44567  -0.43963  -0.43305
 Alpha  occ. eigenvalues --   -0.40648  -0.40596  -0.39361  -0.39326  -0.38919
 Alpha  occ. eigenvalues --   -0.36191  -0.35349  -0.33212  -0.33156  -0.32281
 Alpha  occ. eigenvalues --   -0.31406  -0.28314  -0.27947  -0.27843  -0.24663
 Alpha virt. eigenvalues --   -0.07944  -0.04718  -0.04457  -0.03843  -0.03208
 Alpha virt. eigenvalues --   -0.02465  -0.00317   0.00542   0.00948   0.02045
 Alpha virt. eigenvalues --    0.02606   0.03995   0.04228   0.04345   0.04635
 Alpha virt. eigenvalues --    0.05330   0.05846   0.06428   0.06856   0.07211
 Alpha virt. eigenvalues --    0.08126   0.08253   0.08789   0.09738   0.10139
 Alpha virt. eigenvalues --    0.10610   0.10992   0.11306   0.11597   0.11774
 Alpha virt. eigenvalues --    0.12189   0.12470   0.12856   0.13066   0.13698
 Alpha virt. eigenvalues --    0.14539   0.14912   0.15009   0.15490   0.15942
 Alpha virt. eigenvalues --    0.16467   0.17094   0.17339   0.17667   0.17966
 Alpha virt. eigenvalues --    0.18585   0.19212   0.19700   0.19909   0.20648
 Alpha virt. eigenvalues --    0.20826   0.20981   0.21458   0.21706   0.22089
 Alpha virt. eigenvalues --    0.22301   0.22761   0.24031   0.24129   0.24633
 Alpha virt. eigenvalues --    0.24700   0.25179   0.25726   0.26033   0.26266
 Alpha virt. eigenvalues --    0.27484   0.27598   0.28109   0.28562   0.28597
 Alpha virt. eigenvalues --    0.28863   0.29391   0.30107   0.30346   0.30773
 Alpha virt. eigenvalues --    0.31256   0.31537   0.31796   0.32651   0.34015
 Alpha virt. eigenvalues --    0.34143   0.34652   0.35506   0.36634   0.37201
 Alpha virt. eigenvalues --    0.38062   0.38508   0.38944   0.39515   0.40396
 Alpha virt. eigenvalues --    0.40946   0.41262   0.41984   0.44312   0.45547
 Alpha virt. eigenvalues --    0.46307   0.49009   0.49930   0.54766   0.56841
 Alpha virt. eigenvalues --    0.58522   0.59862   0.62032   0.63701   0.65623
 Alpha virt. eigenvalues --    0.66351   0.66949   0.67733   0.67868   0.70254
 Alpha virt. eigenvalues --    0.70938   0.71420   0.71804   0.72155   0.72735
 Alpha virt. eigenvalues --    0.72971   0.74571   0.75264   0.75541   0.76506
 Alpha virt. eigenvalues --    0.77307   0.78535   0.78933   0.79653   0.80062
 Alpha virt. eigenvalues --    0.82289   0.82800   0.83961   0.87041   0.88057
 Alpha virt. eigenvalues --    0.90249   0.91357   0.92593   0.92919   0.93844
 Alpha virt. eigenvalues --    0.94820   0.96380   0.98012   0.99457   1.00006
 Alpha virt. eigenvalues --    1.00807   1.03641   1.06253   1.07226   1.07642
 Alpha virt. eigenvalues --    1.09430   1.10381   1.12248   1.13957   1.15327
 Alpha virt. eigenvalues --    1.15722   1.16254   1.17395   1.17930   1.18443
 Alpha virt. eigenvalues --    1.19320   1.19724   1.20596   1.21211   1.22319
 Alpha virt. eigenvalues --    1.23096   1.23882   1.24164   1.27080   1.27776
 Alpha virt. eigenvalues --    1.28793   1.29480   1.30932   1.32224   1.34065
 Alpha virt. eigenvalues --    1.34548   1.37610   1.38281   1.39216   1.40436
 Alpha virt. eigenvalues --    1.41372   1.41934   1.43992   1.45201   1.45596
 Alpha virt. eigenvalues --    1.46128   1.46904   1.47681   1.48978   1.50106
 Alpha virt. eigenvalues --    1.53198   1.54949   1.63165   1.66356   1.66393
 Alpha virt. eigenvalues --    1.71045   1.73987   1.75838   1.77244   1.79215
 Alpha virt. eigenvalues --    1.79863   1.80089   1.80541   1.81635   1.82940
 Alpha virt. eigenvalues --    1.84172   1.84634   1.86900   1.87177   1.89398
 Alpha virt. eigenvalues --    1.90400   1.93304   1.94395   1.96226   1.97267
 Alpha virt. eigenvalues --    1.97655   2.00338   2.02358   2.04119   2.06086
 Alpha virt. eigenvalues --    2.07482   2.08720   2.10700   2.11812   2.12494
 Alpha virt. eigenvalues --    2.14029   2.14456   2.14654   2.17125   2.18270
 Alpha virt. eigenvalues --    2.20604   2.23395   2.25054   2.26318   2.27262
 Alpha virt. eigenvalues --    2.27558   2.29137   2.30383   2.31966   2.33043
 Alpha virt. eigenvalues --    2.38661   2.41680   2.43324   2.44687   2.47155
 Alpha virt. eigenvalues --    2.53926   2.58549   2.59167   2.60671   2.61378
 Alpha virt. eigenvalues --    2.67560   2.69199   2.70140   2.71316   2.71629
 Alpha virt. eigenvalues --    2.72994   2.76561   2.78670   2.80309   2.81875
 Alpha virt. eigenvalues --    2.86806   2.88784   2.92557   2.98957   2.99075
 Alpha virt. eigenvalues --    3.02625   3.04950   3.11369   3.17709   3.38010
 Alpha virt. eigenvalues --    3.40560   4.15080   4.20733   4.24153   4.25456
 Alpha virt. eigenvalues --    4.28599   4.28845   4.32905   4.35480   4.38107
 Alpha virt. eigenvalues --    4.39721   4.41491   4.44114   4.46312   4.52993
 Alpha virt. eigenvalues --    4.55964   4.68650   4.76813
          Condensed to atoms (all electrons):
               1          2          3          4          5          6
     1  C   13.840820  -2.704610  -0.577108  -0.700126  -1.779978  -1.586387
     2  C   -2.704610  22.308550  -5.020232  -1.530783   1.215077  -8.264128
     3  C   -0.577108  -5.020232  13.154816   1.363679  -3.047008  -0.352178
     4  C   -0.700126  -1.530783   1.363679  10.805858  -0.386196  -2.932892
     5  C   -1.779978   1.215077  -3.047008  -0.386196  11.226283  -0.285099
     6  C   -1.586387  -8.264128  -0.352178  -2.932892  -0.285099  20.052111
     7  H   -0.002237   0.333259  -0.037249  -0.004046  -0.000282   0.006711
     8  H    0.022267  -0.020301   0.012998   0.041862  -0.014530   0.259517
     9  O   -0.023621   0.014462  -0.022698   0.246611  -0.199725  -0.035685
    10  C   -0.103417  -0.100658  -0.711381   0.046460   0.687389   0.256468
    11  C   -0.019716  -0.041439   0.264996   0.045884  -0.359328   0.041507
    12  C    0.025733  -0.484660  -0.640654   0.646297   0.385577  -0.019931
    13  C    0.168746   0.221299   0.954114  -1.104719  -0.519586  -0.091063
    14  C    0.005475   0.015509   0.055144  -0.061692  -0.017329   0.002414
    15  C    0.001665  -0.009717  -0.017879   0.004207   0.020875  -0.003645
    16  H    0.000221   0.004888  -0.002131  -0.005037  -0.000496   0.000025
    17  H    0.000003   0.000047   0.000328   0.000176  -0.000125  -0.000008
    18  H   -0.008630   0.056651   0.117780  -0.012281   0.046690   0.011195
    19  H    0.003037   0.010971  -0.023525   0.017884   0.002798  -0.002441
    20  N   -0.255005   0.151485  -0.044750   0.077816  -0.037259  -0.324633
    21  O    0.270608  -0.160396   0.032085   0.017005  -0.008110  -0.124293
    22  O    0.267685  -0.175933   0.028469   0.002314   0.023289  -0.123221
    23  H   -0.000001   0.000002   0.003343  -0.000613  -0.003493  -0.000227
    24  H   -0.000004  -0.000122  -0.000411   0.000450   0.000005   0.000000
    25  C   -0.569091   0.472041   0.097279  -0.510848  -0.947796  -0.356838
    26  H   -0.011842   0.006262   0.000815  -0.011783  -0.067354  -0.017626
    27  H   -0.010363   0.006502  -0.004495  -0.021451  -0.064069  -0.011620
    28  H    0.010172   0.001246  -0.007557  -0.024351  -0.134451   0.034467
               7          8          9         10         11         12
     1  C   -0.002237   0.022267  -0.023621  -0.103417  -0.019716   0.025733
     2  C    0.333259  -0.020301   0.014462  -0.100658  -0.041439  -0.484660
     3  C   -0.037249   0.012998  -0.022698  -0.711381   0.264996  -0.640654
     4  C   -0.004046   0.041862   0.246611   0.046460   0.045884   0.646297
     5  C   -0.000282  -0.014530  -0.199725   0.687389  -0.359328   0.385577
     6  C    0.006711   0.259517  -0.035685   0.256468   0.041507  -0.019931
     7  H    0.514686  -0.000163  -0.000252  -0.002536  -0.002369  -0.000495
     8  H   -0.000163   0.512907  -0.000205   0.000459   0.000323  -0.000031
     9  O   -0.000252  -0.000205   8.391496   0.292319  -0.084231  -0.197131
    10  C   -0.002536   0.000459   0.292319   9.828605  -0.865919  -3.057471
    11  C   -0.002369   0.000323  -0.084231  -0.865919  11.662661   0.204441
    12  C   -0.000495  -0.000031  -0.197131  -3.057471   0.204441  10.513859
    13  C    0.002780   0.000033   0.013557   0.403583  -4.880104  -1.393083
    14  C    0.000018  -0.000002   0.014199   0.256663  -0.827805   0.013724
    15  C    0.000133   0.000000  -0.014794  -0.738300   0.097945   0.457913
    16  H    0.000000   0.000000  -0.000203   0.038237  -0.054344  -0.043188
    17  H    0.000000   0.000000  -0.000143   0.027822  -0.017023  -0.035101
    18  H   -0.008092   0.000017  -0.010205   0.048147  -0.007455   0.006987
    19  H    0.000280   0.000000  -0.010869   0.000672   0.100231   0.020112
    20  N   -0.001575  -0.003172   0.000328   0.000458  -0.000145  -0.000606
    21  O    0.000262   0.000922  -0.000007   0.000048   0.000449   0.000034
    22  O    0.000614   0.000739  -0.000012  -0.000416   0.000841  -0.000021
    23  H    0.000000   0.000000  -0.002150   0.001006   0.051904   0.290377
    24  H    0.000000   0.000000   0.000051  -0.010208   0.040579   0.013938
    25  C    0.001807  -0.018540   0.047424  -0.162967   0.153992  -0.164305
    26  H    0.000000   0.000203   0.001127  -0.002151   0.001766  -0.003937
    27  H    0.000000   0.000199   0.001204  -0.001357   0.002044  -0.003247
    28  H    0.000000   0.004084   0.001064   0.000128  -0.000599   0.000743
              13         14         15         16         17         18
     1  C    0.168746   0.005475   0.001665   0.000221   0.000003  -0.008630
     2  C    0.221299   0.015509  -0.009717   0.004888   0.000047   0.056651
     3  C    0.954114   0.055144  -0.017879  -0.002131   0.000328   0.117780
     4  C   -1.104719  -0.061692   0.004207  -0.005037   0.000176  -0.012281
     5  C   -0.519586  -0.017329   0.020875  -0.000496  -0.000125   0.046690
     6  C   -0.091063   0.002414  -0.003645   0.000025  -0.000008   0.011195
     7  H    0.002780   0.000018   0.000133   0.000000   0.000000  -0.008092
     8  H    0.000033  -0.000002   0.000000   0.000000   0.000000   0.000017
     9  O    0.013557   0.014199  -0.014794  -0.000203  -0.000143  -0.010205
    10  C    0.403583   0.256663  -0.738300   0.038237   0.027822   0.048147
    11  C   -4.880104  -0.827805   0.097945  -0.054344  -0.017023  -0.007455
    12  C   -1.393083   0.013724   0.457913  -0.043188  -0.035101   0.006987
    13  C   11.367085   0.581533   0.149862   0.377224   0.016275  -0.032362
    14  C    0.581533   5.410698   0.394879   0.015240   0.315383   0.001595
    15  C    0.149862   0.394879   5.389174  -0.036235  -0.009099  -0.004658
    16  H    0.377224   0.015240  -0.036235   0.528855  -0.000174   0.000301
    17  H    0.016275   0.315383  -0.009099  -0.000174   0.518311   0.000000
    18  H   -0.032362   0.001595  -0.004658   0.000301   0.000000   0.645642
    19  H    0.070853   0.009339   0.010985  -0.008979   0.000013  -0.001413
    20  N    0.001304  -0.000033   0.000047   0.000000   0.000000   0.001145
    21  O   -0.000172  -0.000007   0.000009   0.000000   0.000000  -0.000044
    22  O    0.000212   0.000003  -0.000005   0.000000   0.000000  -0.000063
    23  H   -0.020516  -0.045975   0.014384   0.000015  -0.005417   0.000004
    24  H   -0.017220  -0.030278   0.297544  -0.004538  -0.004634   0.000001
    25  C    0.086220  -0.010714  -0.004177   0.000021   0.000008   0.004919
    26  H    0.000197  -0.000377  -0.000013   0.000000   0.000000   0.000001
    27  H    0.000136  -0.000434   0.000004   0.000000   0.000000  -0.000001
    28  H   -0.000046   0.000054   0.000001   0.000000   0.000000   0.000003
              19         20         21         22         23         24
     1  C    0.003037  -0.255005   0.270608   0.267685  -0.000001  -0.000004
     2  C    0.010971   0.151485  -0.160396  -0.175933   0.000002  -0.000122
     3  C   -0.023525  -0.044750   0.032085   0.028469   0.003343  -0.000411
     4  C    0.017884   0.077816   0.017005   0.002314  -0.000613   0.000450
     5  C    0.002798  -0.037259  -0.008110   0.023289  -0.003493   0.000005
     6  C   -0.002441  -0.324633  -0.124293  -0.123221  -0.000227   0.000000
     7  H    0.000280  -0.001575   0.000262   0.000614   0.000000   0.000000
     8  H    0.000000  -0.003172   0.000922   0.000739   0.000000   0.000000
     9  O   -0.010869   0.000328  -0.000007  -0.000012  -0.002150   0.000051
    10  C    0.000672   0.000458   0.000048  -0.000416   0.001006  -0.010208
    11  C    0.100231  -0.000145   0.000449   0.000841   0.051904   0.040579
    12  C    0.020112  -0.000606   0.000034  -0.000021   0.290377   0.013938
    13  C    0.070853   0.001304  -0.000172   0.000212  -0.020516  -0.017220
    14  C    0.009339  -0.000033  -0.000007   0.000003  -0.045975  -0.030278
    15  C    0.010985   0.000047   0.000009  -0.000005   0.014384   0.297544
    16  H   -0.008979   0.000000   0.000000   0.000000   0.000015  -0.004538
    17  H    0.000013   0.000000   0.000000   0.000000  -0.005417  -0.004634
    18  H   -0.001413   0.001145  -0.000044  -0.000063   0.000004   0.000001
    19  H    0.647862   0.000079  -0.000004  -0.000002  -0.000201  -0.000187
    20  N    0.000079   7.313924   0.239173   0.244199   0.000000   0.000000
    21  O   -0.000004   0.239173   7.838709  -0.113403   0.000000   0.000000
    22  O   -0.000002   0.244199  -0.113403   7.835790   0.000000   0.000000
    23  H   -0.000201   0.000000   0.000000   0.000000   0.509769  -0.000145
    24  H   -0.000187   0.000000   0.000000   0.000000  -0.000145   0.529943
    25  C    0.000678  -0.034869   0.004448   0.006621   0.000700  -0.000003
    26  H    0.000000  -0.000014  -0.000001   0.000006  -0.000001   0.000000
    27  H    0.000001  -0.000016   0.000006  -0.000001   0.000000   0.000000
    28  H    0.000000  -0.000188   0.000016   0.000013   0.000000   0.000000
              25         26         27         28
     1  C   -0.569091  -0.011842  -0.010363   0.010172
     2  C    0.472041   0.006262   0.006502   0.001246
     3  C    0.097279   0.000815  -0.004495  -0.007557
     4  C   -0.510848  -0.011783  -0.021451  -0.024351
     5  C   -0.947796  -0.067354  -0.064069  -0.134451
     6  C   -0.356838  -0.017626  -0.011620   0.034467
     7  H    0.001807   0.000000   0.000000   0.000000
     8  H   -0.018540   0.000203   0.000199   0.004084
     9  O    0.047424   0.001127   0.001204   0.001064
    10  C   -0.162967  -0.002151  -0.001357   0.000128
    11  C    0.153992   0.001766   0.002044  -0.000599
    12  C   -0.164305  -0.003937  -0.003247   0.000743
    13  C    0.086220   0.000197   0.000136  -0.000046
    14  C   -0.010714  -0.000377  -0.000434   0.000054
    15  C   -0.004177  -0.000013   0.000004   0.000001
    16  H    0.000021   0.000000   0.000000   0.000000
    17  H    0.000008   0.000000   0.000000   0.000000
    18  H    0.004919   0.000001  -0.000001   0.000003
    19  H    0.000678   0.000000   0.000001   0.000000
    20  N   -0.034869  -0.000014  -0.000016  -0.000188
    21  O    0.004448  -0.000001   0.000006   0.000016
    22  O    0.006621   0.000006  -0.000001   0.000013
    23  H    0.000700  -0.000001   0.000000   0.000000
    24  H   -0.000003   0.000000   0.000000   0.000000
    25  C    7.314700   0.443848   0.446784   0.456488
    26  H    0.443848   0.473135  -0.025828  -0.027187
    27  H    0.446784  -0.025828   0.472048  -0.027200
    28  H    0.456488  -0.027187  -0.027200   0.508519
 Mulliken charges:
               1
     1  C   -0.264297
     2  C   -0.305272
     3  C    0.423409
     4  C   -0.009684
     5  C    0.264228
     6  C   -0.132499
     7  H    0.198746
     8  H    0.200415
     9  O   -0.421913
    10  C   -0.131683
    11  C    0.490913
    12  C   -0.535873
    13  C   -0.356144
    14  C   -0.097223
    15  C   -0.001107
    16  H    0.190297
    17  H    0.193357
    18  H    0.144125
    19  H    0.151826
    20  N   -0.327692
    21  O    0.002661
    22  O    0.002280
    23  H    0.207233
    24  H    0.185239
    25  C   -0.757832
    26  H    0.240753
    27  H    0.241155
    28  H    0.204580
 Sum of Mulliken charges =   0.00000
 Mulliken charges with hydrogens summed into heavy atoms:
               1
     1  C   -0.264297
     2  C   -0.106525
     3  C    0.567534
     4  C   -0.009684
     5  C    0.264228
     6  C    0.067916
     9  O   -0.421913
    10  C   -0.131683
    11  C    0.642739
    12  C   -0.328640
    13  C   -0.165846
    14  C    0.096134
    15  C    0.184132
    20  N   -0.327692
    21  O    0.002661
    22  O    0.002280
    25  C   -0.071344
 Electronic spatial extent (au):  <R**2>=           5771.7587
 Charge=              0.0000 electrons
 Dipole moment (field-independent basis, Debye):
    X=              5.5192    Y=              0.4501    Z=              0.1025  Tot=              5.5385
 Quadrupole moment (field-independent basis, Debye-Ang):
   XX=           -106.3376   YY=            -88.2653   ZZ=           -107.6591
   XY=            -12.1604   XZ=              1.7066   YZ=              1.2516
 Traceless Quadrupole moment (field-independent basis, Debye-Ang):
   XX=             -5.5836   YY=             12.4887   ZZ=             -6.9051
   XY=            -12.1604   XZ=              1.7066   YZ=              1.2516
 Octapole moment (field-independent basis, Debye-Ang**2):
  XXX=            201.9182  YYY=             -7.3699  ZZZ=             -0.1097  XYY=             -1.5878
  XXY=             45.1359  XXZ=             10.3834  XZZ=             -6.6480  YZZ=              5.4662
  YYZ=              0.0620  XYZ=             -1.8735
 Hexadecapole moment (field-independent basis, Debye-Ang**3):
 XXXX=          -6411.7609 YYYY=          -1149.2591 ZZZZ=           -212.3279 XXXY=           -218.2714
 XXXZ=             66.5125 YYYX=              3.5859 YYYZ=              2.4402 ZZZX=             -1.3943
 ZZZY=             -0.4663 XXYY=          -1174.3892 XXZZ=          -1230.7667 YYZZ=           -250.6202
 XXYZ=              5.7874 YYXZ=              4.1206 ZZXY=              7.4971
 N-N= 1.073123861936D+03 E-N=-3.965264186931D+03  KE= 7.747631257134D+02
 Evaluate density.
 Using the total density.
 Monte-Carlo method of calculating molar volume:
 based on  0.001 e/bohr**3 density envelope.
 Number of points per bohr**3 =   20 CutOff= 1.00D-04
 Using the SCF density.
 There are       422 points.  Will hold       422 in memory.
 LenV=  4026265192 MDV=  4026531840.
 Box volume = 9411.276 fraction occupied=0.173
 Integrated density= 6.4379639125704017D+01 error=-5.5620360874295983D+01
 Molar volume = 1628.017 bohr**3/mol (145.282 cm**3/mol)
 Recommended a0 for SCRF calculation =  4.75 angstrom (  8.98 bohr)
 Calling FoFJK, ICntrl=      2127 FMM=F ISym2X=0 I1Cent= 0 IOpClX= 0 NMat=1 NMatS=1 NMatT=0.
 ***** Axes restored to original set *****
 -------------------------------------------------------------------
 Center     Atomic                   Forces (Hartrees/Bohr)
 Number     Number              X              Y              Z
 -------------------------------------------------------------------
      1        6           0.004500955    0.023162827   -0.006778898
      2        6           0.002185137    0.001976143    0.013076102
      3        6          -0.000797612   -0.012856766    0.020154954
      4        6           0.006240704    0.047112693   -0.046305399
      5        6           0.007864913    0.024966569    0.017288693
      6        6          -0.003388847   -0.001578624   -0.021053114
      7        1          -0.002876718   -0.007115233   -0.008797036
      8        1           0.000922497   -0.002582447    0.011069592
      9        8          -0.003376782   -0.008900053   -0.022313764
     10        6          -0.002811506   -0.057988807    0.026510518
     11        6           0.002607594    0.016333804   -0.003711113
     12        6          -0.004144468   -0.011660607    0.018946502
     13        6           0.003415197    0.014746340    0.013282257
     14        6          -0.010621558   -0.020494701   -0.001005871
     15        6          -0.001473800   -0.004900027    0.011501810
     16        1          -0.003128171   -0.007763443   -0.008436198
     17        1           0.004040049    0.010772788    0.000765159
     18        1          -0.002479508   -0.022250476    0.012400561
     19        1           0.000694191    0.018348692   -0.016911429
     20        7           0.004697480    0.023554547   -0.004978464
     21        8           0.047276819   -0.024706751   -0.003576269
     22        8          -0.052624882   -0.002024730    0.009215326
     23        1           0.003706354    0.005909438    0.009895035
     24        1           0.002140203    0.004020870   -0.011001830
     25        6          -0.008688934   -0.023009305   -0.024104221
     26        1           0.014914314    0.008872825   -0.001744750
     27        1          -0.009062207    0.014704256    0.001161218
     28        1           0.000268585   -0.006649821    0.015450628
 -------------------------------------------------------------------
 Cartesian Forces:  Max     0.057988807 RMS     0.016993047

 GradGradGradGradGradGradGradGradGradGradGradGradGradGradGradGradGradGrad
 Berny optimization.
 FormGI is forming the generalized inverse of G from B-inverse, IUseBI=4.
 Internal  Forces:  Max     0.166428301 RMS     0.024584083
 Search for a local minimum.
 Step number   1 out of a maximum of  147
 All quantities printed in internal units (Hartrees-Bohrs-Radians)
 Mixed Optimization -- RFO/linear search
 Second derivative matrix not updated -- first step.
 ITU=  0
     Eigenvalues ---    0.00230   0.00230   0.00237   0.00766   0.00766
     Eigenvalues ---    0.01335   0.01656   0.01754   0.01786   0.02070
     Eigenvalues ---    0.02070   0.02070   0.02070   0.02070   0.02070
     Eigenvalues ---    0.02070   0.02070   0.02070   0.02070   0.02070
     Eigenvalues ---    0.02070   0.02070   0.02070   0.07243   0.07243
     Eigenvalues ---    0.16000   0.16000   0.16000   0.16000   0.16000
     Eigenvalues ---    0.16000   0.16000   0.16000   0.16000   0.16000
     Eigenvalues ---    0.16000   0.18708   0.22000   0.22000   0.22375
     Eigenvalues ---    0.23439   0.23491   0.24610   0.24759   0.25000
     Eigenvalues ---    0.25000   0.25000   0.25000   0.25000   0.25000
     Eigenvalues ---    0.27457   0.28519   0.35740   0.37230   0.37230
     Eigenvalues ---    0.37230   0.37230   0.37230   0.37230   0.37230
     Eigenvalues ---    0.37230   0.37230   0.37230   0.37230   0.41268
     Eigenvalues ---    0.41393   0.41450   0.41697   0.45389   0.45389
     Eigenvalues ---    0.45389   0.45389   0.45389   0.45389   0.45389
     Eigenvalues ---    0.45389   1.05155   1.05157
 RFO step:  Lambda=-1.83452397D-01 EMin= 2.30000000D-03
 Linear search not attempted -- first point.
 Maximum step size (   0.300) exceeded in Quadratic search.
    -- Step size scaled by   0.467
 Iteration  1 RMS(Cart)=  0.23977428 RMS(Int)=  0.01304513
 Iteration  2 RMS(Cart)=  0.14616096 RMS(Int)=  0.00314000
 Iteration  3 RMS(Cart)=  0.00742506 RMS(Int)=  0.00013520
 Iteration  4 RMS(Cart)=  0.00000480 RMS(Int)=  0.00013520
 Iteration  5 RMS(Cart)=  0.00000000 RMS(Int)=  0.00013520
 Variable       Old X    -DE/DX   Delta X   Delta X   Delta X     New X
                                 (Linear)    (Quad)   (Total)
    R1        2.64826  -0.01695   0.00000  -0.01274  -0.01274   2.63552
    R2        2.64826  -0.01428   0.00000  -0.01081  -0.01081   2.63745
    R3        2.77790   0.00331   0.00000   0.00286   0.00286   2.78075
    R4        2.64826  -0.00566   0.00000  -0.00412  -0.00412   2.64414
    R5        2.02201   0.01167   0.00000   0.00980   0.00980   2.03181
    R6        2.64826   0.00423   0.00000   0.00345   0.00345   2.65172
    R7        2.02201  -0.01899   0.00000  -0.01594  -0.01594   2.00606
    R8        2.64826  -0.00190   0.00000  -0.00106  -0.00106   2.64720
    R9        2.93342  -0.04517   0.00000  -0.04602  -0.04602   2.88741
   R10        2.64826  -0.00711   0.00000  -0.00523  -0.00523   2.64304
   R11        2.91018  -0.01128   0.00000  -0.01123  -0.01123   2.89895
   R12        2.02201   0.01133   0.00000   0.00951   0.00951   2.03152
   R13        3.18558  -0.05043   0.00000  -0.06350  -0.06350   3.12208
   R14        2.64826  -0.00323   0.00000  -0.00234  -0.00235   2.64592
   R15        2.64826  -0.01244   0.00000  -0.00922  -0.00922   2.63904
   R16        2.64826  -0.00191   0.00000  -0.00127  -0.00127   2.64699
   R17        2.02201  -0.01959   0.00000  -0.01645  -0.01645   2.00556
   R18        2.64826  -0.00487   0.00000  -0.00369  -0.00369   2.64457
   R19        2.02201   0.01201   0.00000   0.01008   0.01008   2.03209
   R20        2.64826  -0.00917   0.00000  -0.00661  -0.00661   2.64166
   R21        2.02201   0.01181   0.00000   0.00992   0.00992   2.03192
   R22        2.64826  -0.00940   0.00000  -0.00690  -0.00690   2.64137
   R23        2.02201   0.01127   0.00000   0.00946   0.00946   2.03147
   R24        2.02201   0.01190   0.00000   0.00999   0.00999   2.03200
   R25        2.26643   0.05203   0.00000   0.01966   0.01966   2.28608
   R26        2.26642   0.05203   0.00000   0.01966   0.01966   2.28608
   R27        2.02201   0.01720   0.00000   0.01444   0.01444   2.03645
   R28        2.02201   0.01706   0.00000   0.01433   0.01433   2.03633
   R29        2.02201   0.01672   0.00000   0.01403   0.01403   2.03604
    A1        2.09440   0.00453   0.00000   0.00382   0.00382   2.09821
    A2        2.09440  -0.00223   0.00000  -0.00187  -0.00187   2.09253
    A3        2.09440  -0.00230   0.00000  -0.00195  -0.00195   2.09245
    A4        2.09440  -0.00167   0.00000  -0.00245  -0.00245   2.09194
    A5        2.09440   0.00107   0.00000   0.00155   0.00155   2.09595
    A6        2.09440   0.00060   0.00000   0.00090   0.00090   2.09530
    A7        2.09440   0.00410   0.00000   0.00532   0.00531   2.09971
    A8        2.09440  -0.01937   0.00000  -0.02619  -0.02619   2.06821
    A9        2.09440   0.01527   0.00000   0.02087   0.02087   2.11527
   A10        2.09440  -0.01077   0.00000  -0.01060  -0.01060   2.08380
   A11        2.09440   0.10161   0.00000   0.10888   0.10888   2.20328
   A12        2.09440  -0.09084   0.00000  -0.09828  -0.09828   1.99611
   A13        2.09440   0.00334   0.00000   0.00401   0.00402   2.09841
   A14        2.09440  -0.00424   0.00000  -0.00477  -0.00477   2.08962
   A15        2.09440   0.00090   0.00000   0.00076   0.00075   2.09515
   A16        2.09440   0.00047   0.00000  -0.00010  -0.00010   2.09430
   A17        2.09440   0.00110   0.00000   0.00187   0.00187   2.09626
   A18        2.09440  -0.00158   0.00000  -0.00177  -0.00177   2.09263
   A19        2.23319   0.16643   0.00000   0.17915   0.17915   2.41235
   A20        2.01758   0.10466   0.00000   0.11368   0.11376   2.13134
   A21        2.16295  -0.09787   0.00000  -0.10556  -0.10567   2.05728
   A22        2.09440  -0.00617   0.00000  -0.00653  -0.00653   2.08787
   A23        2.09440   0.00043   0.00000   0.00058   0.00057   2.09496
   A24        2.09440   0.01409   0.00000   0.01914   0.01914   2.11354
   A25        2.09440  -0.01452   0.00000  -0.01972  -0.01973   2.07467
   A26        2.09440   0.00471   0.00000   0.00490   0.00490   2.09930
   A27        2.09440  -0.00313   0.00000  -0.00351  -0.00351   2.09089
   A28        2.09440  -0.00158   0.00000  -0.00140  -0.00140   2.09300
   A29        2.09440   0.00416   0.00000   0.00505   0.00505   2.09944
   A30        2.09440  -0.00341   0.00000  -0.00433  -0.00433   2.09006
   A31        2.09440  -0.00075   0.00000  -0.00072  -0.00072   2.09368
   A32        2.09440   0.00323   0.00000   0.00335   0.00335   2.09774
   A33        2.09440  -0.00408   0.00000  -0.00503  -0.00503   2.08937
   A34        2.09440   0.00085   0.00000   0.00168   0.00168   2.09608
   A35        2.09440  -0.00635   0.00000  -0.00735  -0.00735   2.08704
   A36        2.09440   0.00334   0.00000   0.00390   0.00390   2.09829
   A37        2.09440   0.00301   0.00000   0.00345   0.00345   2.09785
   A38        2.06635  -0.00931   0.00000  -0.01002  -0.01002   2.05634
   A39        2.06634  -0.00928   0.00000  -0.00999  -0.00999   2.05635
   A40        2.15049   0.01859   0.00000   0.02001   0.02001   2.17050
   A41        1.91063   0.00209   0.00000   0.00270   0.00270   1.91333
   A42        1.91063   0.00214   0.00000   0.00278   0.00278   1.91341
   A43        1.91063   0.00232   0.00000   0.00342   0.00341   1.91404
   A44        1.91063  -0.00355   0.00000  -0.00536  -0.00536   1.90527
   A45        1.91063  -0.00151   0.00000  -0.00179  -0.00180   1.90883
   A46        1.91063  -0.00149   0.00000  -0.00174  -0.00175   1.90888
    D1        0.00000  -0.00004   0.00000  -0.00010  -0.00010  -0.00010
    D2       -3.14159  -0.00009   0.00000  -0.00021  -0.00020   3.14139
    D3       -3.14159  -0.00001   0.00000  -0.00002  -0.00002   3.14157
    D4        0.00000  -0.00005   0.00000  -0.00012  -0.00012  -0.00012
    D5        0.00000   0.00000   0.00000   0.00000   0.00000   0.00000
    D6        3.14159   0.00005   0.00000   0.00011   0.00011  -3.14148
    D7        3.14159  -0.00003   0.00000  -0.00008  -0.00008   3.14151
    D8        0.00000   0.00001   0.00000   0.00003   0.00003   0.00003
    D9        1.57667   0.00007   0.00000   0.00017   0.00017   1.57684
   D10       -1.56492  -0.00001   0.00000  -0.00002  -0.00002  -1.56494
   D11       -1.56492   0.00010   0.00000   0.00025   0.00025  -1.56467
   D12        1.57667   0.00003   0.00000   0.00007   0.00006   1.57674
   D13        0.00000   0.00001   0.00000   0.00002   0.00002   0.00002
   D14       -3.14159  -0.00035   0.00000  -0.00080  -0.00079   3.14081
   D15        3.14159   0.00005   0.00000   0.00012   0.00012  -3.14147
   D16        0.00000  -0.00030   0.00000  -0.00069  -0.00068  -0.00069
   D17        0.00000   0.00007   0.00000   0.00016   0.00016   0.00016
   D18        3.14159   0.00014   0.00000   0.00032   0.00033  -3.14127
   D19        3.14159   0.00043   0.00000   0.00098   0.00099  -3.14061
   D20        0.00000   0.00050   0.00000   0.00114   0.00115   0.00115
   D21        0.00000  -0.00011   0.00000  -0.00026  -0.00026  -0.00026
   D22       -3.14159  -0.00009   0.00000  -0.00020  -0.00020   3.14140
   D23       -3.14159  -0.00018   0.00000  -0.00042  -0.00040   3.14119
   D24        0.00000  -0.00015   0.00000  -0.00035  -0.00034  -0.00034
   D25       -0.09171   0.00122   0.00000   0.00308   0.00308  -0.08864
   D26        3.04988   0.00129   0.00000   0.00323   0.00323   3.05311
   D27        0.00000   0.00008   0.00000   0.00018   0.00018   0.00018
   D28       -3.14159   0.00003   0.00000   0.00007   0.00007  -3.14152
   D29       -3.14159   0.00005   0.00000   0.00011   0.00012  -3.14148
   D30        0.00000   0.00000   0.00000   0.00000   0.00001   0.00001
   D31       -1.06939   0.00087   0.00000   0.00160   0.00160  -1.06779
   D32        1.02500  -0.00089   0.00000  -0.00161  -0.00161   1.02339
   D33        3.11940   0.00002   0.00000   0.00005   0.00005   3.11945
   D34        2.07220   0.00090   0.00000   0.00166   0.00166   2.07386
   D35       -2.11659  -0.00086   0.00000  -0.00155  -0.00155  -2.11814
   D36       -0.02219   0.00005   0.00000   0.00011   0.00011  -0.02208
   D37        0.07603   0.01139   0.00000   0.02815   0.02783   0.10386
   D38       -2.92738   0.00537   0.00000   0.01397   0.01429  -2.91309
   D39       -3.00924   0.00355   0.00000  -0.00112  -0.00197  -3.01121
   D40        0.13235   0.00558   0.00000   0.00507   0.00442   0.13678
   D41        0.00000   0.00103   0.00000   0.00350   0.00361   0.00362
   D42       -3.14159   0.00305   0.00000   0.00969   0.01001  -3.13158
   D43        2.99766   0.01145   0.00000   0.01771   0.01703   3.01469
   D44       -0.14393   0.01043   0.00000   0.01704   0.01650  -0.12743
   D45        0.00000  -0.00261   0.00000  -0.00551  -0.00548  -0.00548
   D46        3.14159  -0.00363   0.00000  -0.00617  -0.00600   3.13559
   D47        0.00000   0.00123   0.00000   0.00106   0.00089   0.00089
   D48        3.14159   0.00049   0.00000   0.00102   0.00099  -3.14060
   D49        3.14159  -0.00080   0.00000  -0.00513  -0.00536   3.13622
   D50        0.00000  -0.00154   0.00000  -0.00516  -0.00526  -0.00526
   D51        0.00000   0.00194   0.00000   0.00296   0.00284   0.00284
   D52        3.14159   0.00050   0.00000   0.00124   0.00126  -3.14034
   D53        3.14159   0.00295   0.00000   0.00362   0.00337  -3.13823
   D54        0.00000   0.00152   0.00000   0.00191   0.00179   0.00179
   D55        0.00000  -0.00190   0.00000  -0.00361  -0.00354  -0.00353
   D56       -3.14159  -0.00080   0.00000  -0.00100  -0.00093   3.14067
   D57       -3.14159  -0.00116   0.00000  -0.00357  -0.00364   3.13795
   D58        0.00000  -0.00006   0.00000  -0.00097  -0.00103  -0.00103
   D59        0.00000   0.00032   0.00000   0.00160   0.00168   0.00168
   D60       -3.14159  -0.00078   0.00000  -0.00100  -0.00093   3.14067
   D61       -3.14159   0.00175   0.00000   0.00332   0.00327  -3.13833
   D62        0.00000   0.00065   0.00000   0.00071   0.00066   0.00066
         Item               Value     Threshold  Converged?
 Maximum Force            0.166428     0.000450     NO 
 RMS     Force            0.024584     0.000300     NO 
 Maximum Displacement     1.180095     0.001800     NO 
 RMS     Displacement     0.379974     0.001200     NO 
 Predicted change in Energy=-7.405275D-02
 GradGradGradGradGradGradGradGradGradGradGradGradGradGradGradGradGradGrad

                          Input orientation:                          
 ---------------------------------------------------------------------
 Center     Atomic      Atomic             Coordinates (Angstroms)
 Number     Number       Type             X           Y           Z
 ---------------------------------------------------------------------
      1          6           0       -4.766059   -0.361778   -0.179514
      2          6           0       -4.894530   -0.111196   -1.545446
      3          6           0       -4.653045    1.173810   -2.043707
      4          6           0       -4.282111    2.211800   -1.175357
      5          6           0       -4.155596    1.949703    0.194916
      6          6           0       -4.397458    0.664699    0.691347
      7          1           0       -5.178424   -0.903551   -2.214476
      8          1           0       -4.298860    0.469519    1.743905
      9          8           0       -3.987773    3.658155   -1.570391
     10          6           0       -3.861134    4.556777   -2.950966
     11          6           0       -4.163906    4.030004   -4.212427
     12          6           0       -3.293650    5.828970   -2.852171
     13          6           0       -3.893741    4.775867   -5.366871
     14          6           0       -3.022219    6.572154   -4.006491
     15          6           0       -3.320686    6.046995   -5.266980
     16          1           0       -4.128927    4.367329   -6.333277
     17          1           0       -2.584199    7.550045   -3.919859
     18          1           0       -4.756445    1.340241   -3.087030
     19          1           0       -4.603806    3.069544   -4.314178
     20          7           0       -5.019866   -1.712891    0.345289
     21          8           0       -4.085213   -2.478211    0.409996
     22          8           0       -6.149224   -1.984280    0.683469
     23          1           0       -3.065118    6.238507   -1.884495
     24          1           0       -3.112955    6.618298   -6.153942
     25          6           0       -3.750236    3.078749    1.151094
     26          1           0       -2.774965    3.449147    0.880982
     27          1           0       -4.464667    3.882771    1.085387
     28          1           0       -3.723617    2.706038    2.161651
 ---------------------------------------------------------------------
                    Distance matrix (angstroms):
                    1          2          3          4          5
     1  C    0.000000
     2  C    1.394657   0.000000
     3  C    2.417854   1.399221   0.000000
     4  C    2.801644   2.430707   1.403227   0.000000
     5  C    2.419877   2.796818   2.420929   1.400838   0.000000
     6  C    1.395679   2.419161   2.793750   2.427223   1.398634
     7  H    2.145842   1.075186   2.149562   3.404198   3.872003
     8  H    2.146827   3.392917   3.868782   3.399693   2.147286
     9  O    4.324365   3.876963   2.615069   1.527950   2.462373
    10  C    5.717693   4.983308   3.590920   2.971351   4.096354
    11  C    5.992890   4.979572   3.619454   3.541700   4.873643
    12  C    6.901916   6.289349   4.916511   4.107636   5.007634
    13  C    7.352891   6.283968   4.959312   4.928901   6.244137
    14  C    8.109632   7.364065   5.971116   5.349330   6.348496
    15  C    8.309259   7.365468   5.992712   5.689854   6.878748
    16  H    7.787117   6.600505   5.373423   5.592308   6.961532
    17  H    9.019292   8.346860   6.961066   6.237953   7.124920
    18  H    3.369067   2.121843   1.061562   2.153858   3.391701
    19  H    5.375476   4.226997   2.958255   3.269772   4.667640
    20  N    1.471511   2.481132   3.764958   4.273154   3.766188
    21  O    2.300079   3.175139   4.436254   4.954626   4.433694
    22  O    2.300087   3.170295   4.432784   4.954638   4.437282
    23  H    7.025946   6.616678   5.310180   4.265948   4.889471
    24  H    9.335309   8.348553   6.993451   6.750590   7.949269
    25  C    3.826178   4.330876   3.827611   2.539067   1.534059
    26  H    4.428572   4.801682   4.154293   2.833910   2.150618
    27  H    4.439257   4.801858   4.143089   2.817167   2.150631
    28  H    3.997403   4.801085   4.571279   3.419329   2.150976
                    6          7          8          9         10
     6  C    0.000000
     7  H    3.393100   0.000000
     8  H    1.075032   4.281091   0.000000
     9  O    3.774133   4.758326   4.609635   0.000000
    10  C    5.357458   5.665055   6.240120   1.652134   0.000000
    11  C    5.952044   5.418581   6.940689   2.673883   1.400158
    12  C    6.359608   7.020389   7.131485   2.614805   1.396522
    13  C    7.338763   6.621465   8.322974   3.958710   2.426038
    14  C    7.671961   7.984153   8.481687   3.918962   2.424800
    15  C    8.101248   7.815309   9.012079   4.451554   2.806555
    16  H    7.945246   6.771126   8.970099   4.817462   3.398180
    17  H    8.482872   9.005644   9.227791   4.757817   3.395434
    18  H    3.855044   2.444181   4.930059   2.874679   3.341586
    19  H    5.557080   4.530388   6.599507   2.873035   2.149830
    20  N    2.481951   2.689344   2.690518   5.795100   7.177513
    21  O    3.170889   3.250003   3.242540   6.448753   7.799829
    22  O    3.175821   3.241684   3.251077   6.448941   7.824954
    23  H    6.283107   7.455464   6.925939   2.758291   2.144579
    24  H    9.162602   8.738636  10.079179   5.526002   3.881842
    25  C    2.541240   5.406061   2.731391   2.792600   4.361624
    26  H    3.228250   5.857001   3.456165   2.742958   4.134058
    27  H    3.242803   5.857254   3.480148   2.707588   4.136506
    28  H    2.604404   5.856286   2.346792   3.860627   5.439026
                   11         12         13         14         15
    11  C    0.000000
    12  C    2.417420   0.000000
    13  C    1.400729   2.791568   0.000000
    14  C    2.794348   1.399447   2.415954   0.000000
    15  C    2.427211   2.424782   1.397904   1.397751   0.000000
    16  H    2.147793   3.866805   1.075247   3.391164   2.147445
    17  H    3.869335   2.146014   3.391874   1.075006   2.148560
    18  H    2.975306   4.726903   4.212536   5.588010   5.382111
    19  H    1.061297   3.386504   2.126945   3.855434   3.379267
    20  N    7.381483   8.371573   8.717851   9.569250   9.726285
    21  O    7.983098   8.959775   9.275263  10.126422  10.270915
    22  O    8.005180   9.038912   9.348445  10.246290  10.387967
    23  H    3.391768   1.075335   3.866895   2.148494   3.397529
    24  H    3.401947   3.399615   2.150269   2.149863   1.075287
    25  C    5.462908   4.878352   6.736815   6.271727   7.084255
    26  H    5.311250   4.457469   6.484406   5.805316   6.696571
    27  H    5.308387   4.545694   6.538747   5.936384   6.807725
    28  H    6.525000   5.922499   7.809724   7.313329   8.155300
                   16         17         18         19         20
    16  H    0.000000
    17  H    4.282575   0.000000
    18  H    4.482763   6.631283   0.000000
    19  H    2.446736   4.930435   2.125954   0.000000
    20  N    9.075577  10.484557   4.601285   6.689950   0.000000
    21  O    9.609114  11.025724   5.221142   7.305090   1.209743
    22  O    9.677772  11.171544   5.216219   7.273647   1.209739
    23  H    4.942131   2.468628   5.319745   4.279399   8.486325
    24  H    2.476130   2.477673   6.321779   4.266266  10.737087
    25  C    7.603924   6.860517   4.690050   5.531534   5.022061
    26  H    7.397419   6.316790   4.911097   5.520729   5.654483
    27  H    7.442049   6.483636   4.894759   5.462234   5.671634
    28  H    8.665332   7.857954   5.520941   6.545475   4.950390
                   21         22         23         24         25
    21  O    0.000000
    22  O    2.139836   0.000000
    23  H    9.071188   9.149884   0.000000
    24  H   11.259531  11.400591   4.286574   0.000000
    25  C    5.616159   5.622107   4.434891   8.142364   0.000000
    26  H    6.088690   6.398966   3.938602   7.723207   1.077640
    27  H    6.407982   6.117317   4.040844   7.856088   1.077581
    28  H    5.484112   5.483400   5.411401   9.210200   1.077427
                   26         27         28
    26  H    0.000000
    27  H    1.756389   0.000000
    28  H    1.758484   1.758466   0.000000
 Stoichiometry    C13H11NO3
 Framework group  C1[X(C13H11NO3)]
 Deg. of freedom    78
 Full point group                 C1      NOp   1
 Largest Abelian subgroup         C1      NOp   1
 Largest concise Abelian subgroup C1      NOp   1
                         Standard orientation:                         
 ---------------------------------------------------------------------
 Center     Atomic      Atomic             Coordinates (Angstroms)
 Number     Number       Type             X           Y           Z
 ---------------------------------------------------------------------
      1          6           0       -2.945818   -0.278830    0.018648
      2          6           0       -2.009031   -1.309974   -0.046459
      3          6           0       -0.644045   -1.008310   -0.106726
      4          6           0       -0.213144    0.327110   -0.101944
      5          6           0       -1.162058    1.355494   -0.036086
      6          6           0       -2.526097    1.052232    0.023985
      7          1           0       -2.334681   -2.334651   -0.050259
      8          1           0       -3.249736    1.845647    0.074320
      9          8           0        1.235535    0.808989   -0.163200
     10          6           0        2.752811    0.155309   -0.152128
     11          6           0        2.967793   -1.227728   -0.189986
     12          6           0        3.833358    1.016638    0.049872
     13          6           0        4.260074   -1.741200   -0.021469
     14          6           0        5.123601    0.502168    0.220299
     15          6           0        5.340098   -0.878290    0.186064
     16          1           0        4.420157   -2.804018   -0.052270
     17          1           0        5.948586    1.173500    0.376341
     18          1           0        0.050214   -1.809929   -0.154962
     19          1           0        2.165058   -1.903028   -0.351040
     20          7           0       -4.381510   -0.595237    0.082030
     21          8           0       -4.882033   -0.730822    1.174995
     22          8           0       -4.982701   -0.702253   -0.962281
     23          1           0        3.672251    2.079565    0.073903
     24          1           0        6.331564   -1.273655    0.316151
     25          6           0       -0.699470    2.818133   -0.030131
     26          1           0       -0.081406    2.998767    0.833973
     27          1           0       -0.129181    3.021087   -0.921624
     28          1           0       -1.557085    3.469551    0.001507
 ---------------------------------------------------------------------
 Rotational constants (GHZ):           1.3307321           0.1838065           0.1658930
 Standard basis: 6-31+G(d) (6D, 7F)
 There are   345 symmetry adapted cartesian basis functions of A   symmetry.
 There are   345 symmetry adapted basis functions of A   symmetry.
   345 basis functions,   588 primitive gaussians,   345 cartesian basis functions
    60 alpha electrons       60 beta electrons
       nuclear repulsion energy      1064.2052679901 Hartrees.
 NAtoms=   28 NActive=   28 NUniq=   28 SFac= 1.00D+00 NAtFMM=   60 NAOKFM=F Big=F
 Integral buffers will be    131072 words long.
 Raffenetti 2 integral format.
 Two-electron integral symmetry is turned on.
 Nuclear repulsion after empirical dispersion term =     1064.1831957669 Hartrees.
 One-electron integrals computed using PRISM.
 NBasis=   345 RedAO= T EigKep=  1.72D-06  NBF=   345
 NBsUse=   343 1.00D-06 EigRej=  9.96D-07 NBFU=   343
 Initial guess from the checkpoint file:  "molecule_112.chk"
 B after Tr=     0.000000    0.000000    0.000000
         Rot=    0.999847    0.017379    0.000294    0.002143 Ang=   2.01 deg.
 ExpMin= 4.38D-02 ExpMax= 5.48D+03 ExpMxC= 8.25D+02 IAcc=3 IRadAn=         5 AccDes= 0.00D+00
 Harris functional with IExCor=  402 and IRadAn=       5 diagonalized for initial guess.
 HarFok:  IExCor=  402 AccDes= 0.00D+00 IRadAn=         5 IDoV= 1 UseB2=F ITyADJ=14
 ICtDFT=  3500011 ScaDFX=  1.000000  1.000000  1.000000  1.000000
 FoFCou: FMM=F IPFlag=           0 FMFlag=      100000 FMFlg1=           0
         NFxFlg=           0 DoJE=T BraDBF=F KetDBF=T FulRan=T
[...]
 63,-0.00006295,0.00003487,0.00001992,-0.00005665,-0.00006234,0.0003220
 9,-0.00007417,0.00005961,-0.00008053,0.00002214,0.05783730,0.10708282,
 -0.47106615,-0.08294345,-0.11714177,0.60478785,0.01742875,0.00112176,0
 .00011477,0.00154092,-0.00125358,0.00134076,-0.00069398,0.00036483,-0.
 00031815,0.00031756,-0.00027588,-0.00004829,-0.00091054,0.00003656,-0.
 00040698,0.00378840,-0.00047488,0.00066138,0.00000816,-0.00048946,-0.0
 0031099,0.00033942,-0.00017538,-0.00007895,0.00003411,0.00011237,-0.00
 008572,-0.00000959,-0.00002364,0.00006463,-0.00000870,0.00000719,-0.00
 001219,-0.00000739,-0.00000719,-0.00001704,-0.00000316,-0.00000342,0.0
 0000667,0.00000819,-0.00000177,-0.00001022,0.00000715,-0.00000098,-0.0
 0000395,0.00000102,-0.00000170,0.00000172,0.00000352,0.00000926,-0.000
 00298,-0.00005142,0.00002679,-0.00000839,0.00000515,-0.00000231,-0.000
 00011,-0.07775797,0.01765541,0.02690483,0.02367532,0.00713721,0.017182
 89,0.03286175,0.00262174,-0.05726577,-0.03751384,0.00052251,-0.0009284
 0,-0.00447981,0.00012950,-0.00264407,-0.00141245,0.00052393,0.00471854
 ,-0.00274835,-0.00029973,-0.00397635,0.00144950,-0.00133997,-0.0008844
 2,0.00861892,-0.00033975,-0.00428478,0.00143427,0.00002452,0.00070243,
 -0.00008804,-0.00054962,-0.00551019,0.00265758,0.00043142,0.00117712,-
 0.00286289,-0.00013063,-0.00019647,0.00049813,-0.00002052,-0.00019974,
 0.00051340,0.00006509,0.00001599,-0.00006140,-0.00004527,0.00001968,-0
 .00007593,-0.00002310,-0.00002659,0.00016083,0.00003473,-0.00006148,0.
 00008547,-0.00006056,-0.00005863,0.00007260,-0.00002314,-0.00007887,0.
 00016304,-0.00009233,0.00006554,-0.00008465,0.01840353,-0.32043501,-0.
 19488644,0.00382387,0.03741701,-0.02508039,-0.02373417,0.35340076,0.00
 048345,-0.02655262,0.00734738,0.00177725,0.00849752,-0.00913354,-0.000
 37602,-0.00313142,0.00122851,0.00014843,0.00309740,-0.00000272,-0.0004
 8973,-0.00100684,0.00236353,0.00044876,0.00229570,0.00117952,-0.000274
 24,0.00252843,0.00260744,-0.00002969,0.00137190,0.00088967,-0.00024850
 ,-0.00218043,0.00129843,0.00017652,0.00046212,-0.00117598,-0.00004268,
 -0.00004494,0.00022010,-0.00002371,-0.00004759,0.00022203,0.00004685,0
 .00002107,0.00000597,-0.00004426,0.00002445,-0.00000904,-0.00000938,-0
 .00000104,0.00007504,0.00001221,-0.00004421,0.00002875,-0.00002168,-0.
 00004156,0.00002342,-0.00002069,-0.00020207,0.00004792,-0.00002572,-0.
 00000481,-0.00004746,0.02708894,-0.18941957,-0.31916868,0.01636829,-0.
 04929158,-0.10592965,-0.04489166,0.25352907,0.41785670,0.00000812,0.00
 015248,-0.00005591,0.00000427,-0.00009983,0.00008499,0.00015143,0.0001
 3573,-0.00001115,-0.00038493,-0.00068906,0.00032717,0.00000516,0.00001
 534,-0.00005396,-0.00000820,-0.00007002,0.00000023,-0.00000585,0.00000
 603,-0.00000609,0.00000367,-0.00000520,-0.00000019,0.00281473,0.000677
 65,-0.00048281,-0.01863441,0.00785872,-0.02064093,-0.00394018,-0.00170
 388,0.00342530,-0.23148130,0.04793452,-0.12878006,0.00000745,-0.000388
 52,0.00098972,0.00865812,-0.00166102,0.00434107,0.00109699,-0.00085271
 ,0.00156531,0.00002513,0.00006334,-0.00009526,0.00075383,0.00027136,-0
 .00028245,-0.00010497,0.00006305,-0.00007580,-0.00095042,0.00040505,-0
 .00094754,-0.00002210,-0.00026946,0.00004846,0.00001390,0.00008314,-0.
 00006809,0.00000255,0.00011555,0.00003818,0.24168130,0.00000087,0.0000
 6597,-0.00006055,0.00002880,-0.00012868,-0.00001168,0.00012089,0.00000
 874,0.00019287,-0.00034431,-0.00017560,0.00045968,0.00002880,-0.000126
 50,0.00006616,0.00000283,0.00001438,0.00001390,-0.00000499,-0.00001506
 ,0.00000130,-0.00001053,-0.00000515,-0.00000191,0.00027539,-0.00351664
 ,-0.00196042,-0.00396879,0.00582644,-0.00282491,-0.00121613,0.00444855
 ,0.00218041,0.04832632,-0.05256688,0.04533191,-0.00035226,-0.00081815,
 -0.00000722,0.00993393,0.00052472,0.00581407,-0.00109083,0.00527620,0.
 00429273,0.00006103,-0.00074742,-0.00034675,-0.00001144,-0.00338065,-0
 .00174845,-0.00009823,0.00014156,-0.00019888,-0.00029114,0.00043516,-0
 .00008946,-0.00001990,-0.00016650,0.00005962,0.00001508,0.00006758,-0.
 00007556,0.00000762,0.00005820,-0.00000562,-0.05191582,0.04462449,-0.0
 0004358,-0.00010652,-0.00002778,0.00007402,-0.00004083,-0.00002953,0.0
 0008251,-0.00005753,0.00008144,0.00010234,0.00061650,0.00031097,-0.000
 06298,-0.00018649,0.00011678,0.00001440,0.00011089,0.00002696,-0.00000
 642,-0.00001686,0.00000374,0.00000147,-0.00000520,-0.00000025,-0.00073
 116,-0.00263343,0.00092705,0.00952519,-0.00109867,0.00821611,0.0024530
 3,0.00211232,0.00048148,-0.13082200,0.04515007,-0.15320204,0.00073344,
 -0.00011003,-0.00054569,-0.02356333,0.00515302,-0.01104767,0.00238322,
 0.00423222,-0.00306405,-0.00009924,-0.00033729,-0.00006940,0.00036351,
 -0.00171039,0.00006783,-0.00010576,0.00003344,-0.00012969,0.00053580,-
 0.00004429,0.00050743,-0.00000181,0.00011366,-0.00000085,0.00000215,-0
 .00002150,0.00000557,0.00000817,-0.00005649,-0.00003754,0.14034961,-0.
 05139846,0.15806364,-0.00001705,-0.00001364,0.00000185,0.00002133,0.00
 000771,-0.00000072,-0.00001057,-0.00001372,-0.00000702,0.00004307,0.00
 005666,-0.00000692,-0.00001854,-0.00000890,0.00000350,0.00000601,0.000
 00639,0.00000380,0.00000145,-0.00000024,0.00000058,0.00000003,-0.00000
 014,0.00000003,0.00038808,-0.00004297,0.00009635,-0.00174995,0.0001166
 5,-0.00036959,-0.00517117,-0.00067338,0.00106633,-0.00380740,0.0007686
 7,-0.00255388,0.00072372,-0.01175009,0.02810523,0.00793068,0.01015693,
 -0.02410493,-0.06515058,-0.01528698,0.03522320,0.00069059,0.00020799,-
 0.00025421,0.00071477,-0.00002135,0.00031977,-0.00002866,0.00000528,-0
 .00000062,-0.00001105,-0.00059274,0.00138759,0.00000106,0.00002382,-0.
 00000429,-0.00000045,-0.00000751,0.00000650,-0.00000035,-0.00001017,-0
 .00000344,0.00031922,0.00050941,-0.00119719,0.06512936,-0.00000268,-0.
 00004976,0.00001139,0.00000248,0.00002331,-0.00001758,-0.00000589,-0.0
 0005768,0.00003164,-0.00001561,0.00004579,0.00011547,-0.00000458,-0.00
 007658,0.00001904,-0.00000170,0.00002579,0.00001720,-0.00000122,-0.000
 00772,0.00000661,-0.00000013,-0.00000311,0.00000021,-0.00001051,-0.001
 07327,-0.00028767,0.00013979,0.00006272,-0.00056097,-0.00101262,0.0060
 0112,0.00208756,0.00109544,0.00587962,0.00250439,0.00032884,0.00100388
 ,0.00398726,-0.00189158,0.00033092,0.00547918,-0.01529878,-0.08041372,
 0.10671992,-0.00007342,-0.00324845,-0.00166775,0.00025928,-0.00325188,
 -0.00164145,0.00000260,0.00005642,0.00000201,0.00005711,0.00015487,0.0
 0024842,0.00000112,0.00007784,0.00001100,-0.00000097,-0.00001916,0.000
 00221,0.00000215,-0.00003920,-0.00002523,-0.00013562,0.00012380,0.0003
 1083,0.01656342,0.07444945,0.00000454,0.00009143,-0.00002705,-0.000002
 01,-0.00005582,0.00002192,-0.00000508,0.00008879,0.00004799,-0.0000247
 1,-0.00041256,0.00011929,0.00000456,0.00005047,-0.00003862,0.00000181,
 -0.00004189,-0.00001720,0.00000034,-0.00000051,-0.00000105,0.00000003,
 0.00000027,-0.00000014,0.00010431,-0.00005008,-0.00037229,-0.00036386,
 -0.00039192,0.00075796,0.00189089,0.00205957,0.00203038,-0.00338150,0.
 00244115,0.00078791,-0.00071974,0.00342040,-0.00555344,0.00472731,0.00
 626736,-0.01208716,0.03522057,0.10663476,-0.29089584,0.00039345,-0.001
 65419,0.00006681,-0.00032816,-0.00166104,0.00004614,-0.00000129,-0.000
 01757,-0.00002388,-0.00012598,0.00022861,-0.00030865,-0.00000987,-0.00
 015484,0.00003374,0.00000811,0.00005003,-0.00004626,-0.00000041,0.0000
 6481,0.00001842,0.00031758,0.00036597,-0.00060782,-0.03770923,-0.11733
 340,0.30603805,0.00823291,-0.00068474,0.00120518,-0.00088930,-0.000139
 82,-0.00007923,0.00469275,-0.00059744,0.00125995,0.00359041,0.00285211
 ,0.00426417,-0.07163131,0.00631294,0.00936901,0.00487948,-0.00093454,-
 0.00113373,-0.00059058,0.00003379,-0.00008495,-0.00504471,-0.00006729,
 -0.00085901,-0.00351484,0.00077000,-0.00022445,-0.00026916,0.00007702,
 0.00000750,0.00012600,0.00012652,-0.00017350,0.00007057,-0.00013476,0.
 00017391,-0.00009003,-0.00001845,-0.00001024,-0.00008048,0.00002028,-0
 .00002226,0.00006106,-0.00000390,0.00000610,-0.00000847,-0.00000052,-0
 .00000500,-0.00000775,0.00000414,0.,-0.00009447,0.00015940,0.00010152,
 -0.00005366,-0.00001601,-0.00004417,0.00122540,-0.00005825,-0.00002605
 ,0.00000430,-0.00002657,0.00004433,-0.00063300,-0.00008027,-0.00007386
 ,-0.00006073,0.00002358,0.00003226,-0.00000993,0.00000192,-0.00000153,
 0.54257857,-0.00071434,-0.00059688,0.00300220,0.00005570,-0.00184183,-
 0.00063993,-0.00084349,-0.00018760,0.00491702,0.00052655,0.01020619,-0
 .00234198,0.00536653,-0.14622835,-0.05783700,0.00221298,-0.02707274,-0
 .02400534,0.00002697,0.00007349,-0.00003052,0.00037577,0.00086795,-0.0
 0126338,-0.00036051,-0.00044426,0.00340571,0.00007027,0.00025415,-0.00
 038459,-0.00014356,-0.00008794,0.00016584,0.00008303,-0.00008672,0.000
 18490,0.00008584,-0.00002940,0.00000387,-0.00007981,-0.00002513,-0.000
 01833,-0.00000137,0.00001067,-0.00000269,-0.00000300,-0.00000651,0.000
 02727,-0.00000428,-0.00000662,0.00002693,-0.00008855,0.00078416,0.0008
 6115,0.00001068,0.00002328,0.00002856,0.00010781,-0.00048294,-0.001207
 93,-0.00000688,0.00011918,0.00007689,-0.00001705,-0.00046679,0.0001674
 7,-0.00001224,0.00002273,0.00002283,-0.00000005,0.00000229,0.00000343,
 0.00690953,0.53207575,0.00119811,0.00278764,0.00035006,-0.00003112,0.0
 0078815,-0.00047400,0.00119915,0.00311897,-0.00311254,0.00369215,-0.01
 933912,-0.02766666,0.00913602,-0.06475484,-0.15326984,-0.00035956,-0.0
 0099766,0.00713859,-0.00008666,-0.00008044,0.00001012,-0.00075007,0.00
 197435,0.00080752,-0.00050269,-0.00485794,-0.00109170,0.00000593,-0.00
 043376,-0.00042060,-0.00002674,0.00000299,0.00011322,0.00001421,-0.000
 03439,0.00016737,0.00002810,0.00000401,0.00003635,-0.00005956,0.000012
 33,0.00002252,0.00000672,0.00001578,0.00001685,0.00000081,-0.00001322,
 0.00001674,-0.00000850,-0.00001226,0.00001613,0.00004056,-0.00095078,-
 0.00061603,0.00000376,-0.00001071,-0.00001209,0.00001477,0.00000612,0.
 00111719,0.00004917,0.00022058,-0.00029379,-0.00005834,0.00062930,-0.0
 0005928,-0.00001793,-0.00000459,-0.00000446,-0.00000202,-0.00001094,0.
 00000183,-0.00271432,-0.05297283,0.54878011,-0.00032707,0.00008543,-0.
 00022015,-0.00006416,0.00000008,0.00009728,-0.00022530,0.00015279,-0.0
 0022916,0.00055794,-0.00167154,0.00089373,0.00619371,0.00257908,-0.001
 16008,-0.00037199,0.00097264,0.00013969,0.00005269,0.00000802,0.000000
 79,0.00013616,0.00010168,-0.00000406,0.00006910,0.00093321,0.00061434,
 -0.00004291,0.00028062,-0.00014086,-0.00000439,-0.00002788,0.00004303,
 -0.00000890,-0.00000104,0.00004182,0.00000758,0.00000240,-0.00002943,0
 .00001408,-0.00000734,-0.00000718,-0.00001604,-0.00000722,0.00001595,0
 .00000130,-0.00000263,0.00000255,-0.00000052,-0.00000554,0.00000103,0.
 00001325,-0.00005236,-0.00003636,0.00000549,-0.00000781,0.00001267,-0.
 00002714,0.00011167,0.00004567,0.00000696,-0.00002603,-0.00002167,0.00
 002727,-0.00003627,-0.00001981,0.00001403,-0.00001376,-0.00000449,0.00
 000101,-0.00000030,0.00000033,-0.22725192,-0.12234493,-0.00480888,0.24
 582058,0.00130039,-0.00077608,-0.00005904,-0.00012984,-0.00010853,0.00
 010541,0.00040600,-0.00032992,-0.00007966,0.00007968,-0.00127184,0.001
 77526,-0.01755930,-0.01666842,-0.00319582,-0.00016321,-0.00044037,-0.0
 0260848,-0.00005619,0.00001530,-0.00003615,-0.00075914,0.00018265,-0.0
 0023412,0.00008340,0.00140216,-0.00031553,-0.00007311,0.00002282,0.000
 30901,0.00003904,-0.00000095,-0.00005882,-0.00005858,0.00000697,-0.000
 07307,-0.00000868,-0.00000436,0.00000322,0.00002919,-0.00000490,0.0000
 1026,-0.00000136,-0.00000499,-0.00000577,0.00000003,0.00000488,-0.0000
 0649,0.00000311,0.00000462,-0.00000955,-0.00002557,0.00000040,-0.00003
 073,0.00000886,-0.00000128,-0.00000014,0.00024173,0.00024661,-0.000318
 79,0.00000068,-0.00015052,0.00011513,-0.00010016,-0.00029705,-0.000044
 04,0.00001327,0.00001340,-0.00001646,0.00000272,0.00000230,-0.00000059
 ,-0.12359269,-0.12617320,-0.00239632,0.13378867,0.13972719,0.00081476,
 -0.00020049,-0.00009874,-0.00016782,-0.00074714,0.00010016,0.00072235,
 0.00050489,0.00070909,-0.00002206,-0.00292189,-0.00055847,-0.02019132,
 -0.01340557,-0.00091006,0.00004354,-0.00037578,-0.00186306,-0.00001449
 ,0.00003530,0.00001167,-0.00022550,-0.00016050,0.00007833,-0.00042242,
 0.00139699,0.00019981,0.00030632,0.00035294,-0.00026255,-0.00005659,-0
 .00004451,0.00011777,-0.00011443,-0.00001632,0.00004662,0.00002428,-0.
 00003430,0.00003114,0.00001738,0.00002939,-0.00003587,0.00002385,-0.00
 001639,0.00002538,0.00000518,-0.00000702,0.00001699,-0.00000686,-0.000
 00477,0.00000776,-0.00006357,0.00002813,-0.00001770,0.00000771,-0.0000
 0838,-0.00000086,0.00028385,0.00006710,-0.00030055,-0.00004525,-0.0000
 6618,0.00009148,-0.00010722,-0.00019799,0.00002981,0.00004826,-0.00002
 457,-0.00003946,0.00000333,-0.00000563,0.00000933,-0.00482848,-0.00367
 035,-0.04903309,0.00458114,0.00727659,0.04964062,-0.00024259,-0.000065
 35,0.00017609,-0.00005111,0.00019828,-0.00013378,-0.00007428,-0.000299
 97,0.00000773,0.00081564,0.00226146,-0.00040839,0.00132143,-0.00008424
 ,0.00156057,-0.00043087,-0.00083720,0.00008861,0.00004911,-0.00001952,
 0.00000734,0.00012172,-0.00005073,0.00000055,0.00005014,-0.00117909,-0
 .00066515,-0.00004072,-0.00036311,0.00022692,-0.00001820,0.00000766,-0
 .00006487,0.00000206,0.00003935,-0.00007957,0.00001094,-0.00000207,0.0
 0002094,0.00000885,0.00000583,0.00002331,-0.00000180,0.00001137,-0.000
 02399,-0.00000099,0.00000703,-0.00000419,0.00000484,0.00000449,-0.0000
 0641,-0.00000981,0.00004322,0.00003596,0.00002222,0.00001909,0.0000203
 5,0.00002138,-0.00011091,0.00002330,-0.00000415,0.00003316,0.00000256,
 0.00000623,0.00006801,0.00000954,0.00001035,0.00000909,-0.00000962,0.0
 0000251,0.00000180,-0.00000229,-0.20074611,0.12412080,-0.03879255,-0.0
 2222619,0.01714989,-0.00597995,0.21635298,-0.00126417,-0.00068483,-0.0
 0042277,0.00009226,-0.00012266,0.00014364,-0.00037837,-0.00028843,-0.0
 0019429,-0.00069405,-0.00137848,0.00171443,0.01640318,-0.01771675,0.00
 133773,0.00085525,-0.00041384,-0.00246789,0.00006136,0.00001227,-0.000
 02031,0.00079617,0.00013549,-0.00002156,0.00008945,0.00147302,-0.00027
 156,-0.00000648,0.00004233,0.00030570,0.00007689,0.00000210,-0.0000509
 7,-0.00002218,-0.00000116,-0.00006302,-0.00003190,-0.00000302,0.000000
 93,0.00000691,-0.00000501,0.00000358,0.00000295,-0.00000577,-0.0000037
 6,-0.00000010,0.00000430,-0.00000981,0.00000180,0.00000458,-0.00000593
 ,0.00003296,-0.00000477,-0.00002526,-0.00000864,0.00001304,-0.00002024
 ,-0.00013051,0.00026656,-0.00036875,-0.00004144,-0.00015108,0.00010849
 ,0.00008749,-0.00030684,-0.00001945,-0.00000921,-0.00000124,-0.0000018
 4,-0.00000242,0.00000240,-0.00000119,0.12498055,-0.14287968,0.03288314
 ,-0.01443654,0.01206477,-0.00342227,-0.13629280,0.15795663,-0.00085486
 ,-0.00016457,-0.00027441,0.00007324,-0.00072803,0.00010128,-0.00090073
 ,0.00049827,0.00051660,0.00021104,-0.00239041,-0.00070946,0.01969317,-
 0.01513541,0.00501124,0.00032175,-0.00063327,-0.00183114,0.00002674,0.
 00003012,0.00001828,0.00021859,-0.00019638,0.00014000,0.00047487,0.001
 07766,0.00014749,-0.00021958,0.00028262,-0.00028422,0.00009425,-0.0000
 2222,0.00006076,0.00002139,-0.00003789,0.00011156,-0.00000197,0.000030
 75,-0.00003463,-0.00003286,-0.00003190,0.00003053,-0.00003254,-0.00001
 187,0.00001193,0.00000408,-0.00000342,0.00000856,-0.00000905,-0.000005
 56,0.00001375,0.00006723,0.00003670,0.00001053,-0.00003257,-0.00001730
 ,-0.00004728,-0.00018771,0.00005271,-0.00036905,0.00001436,-0.00006013
 ,0.00010316,0.00008603,-0.00019031,0.00006066,-0.00000506,-0.00000562,
 -0.00000575,-0.00000559,-0.00000503,0.00000772,-0.03886885,0.03132296,
 -0.05883729,-0.00017141,0.00070409,-0.00054936,0.04364700,-0.03113102,
 0.06088306,-0.00012420,0.00009208,-0.00001157,0.00002947,0.00000655,-0
 .00003755,0.00027417,-0.00013045,0.00012643,0.00097571,0.00029501,0.00
 026835,-0.00160405,-0.00094985,0.00190059,-0.00027862,-0.00031112,-0.0
 0024932,0.00002611,0.00000201,-0.00000409,0.00038821,0.00012446,-0.000
 02192,0.00020471,0.00005885,0.00005450,0.00013019,0.00003457,-0.000045
 21,-0.00004535,-0.00002950,0.00004462,-0.00003032,0.00002252,-0.000031
 50,0.00002371,-0.00001059,0.00000066,0.00002418,0.00000775,0.00000149,
 -0.00000560,-0.00000150,0.00000314,0.00000018,-0.00000031,0.00000471,-
 0.00000100,-0.00000106,-0.00000085,-0.00014180,0.00003386,0.00000306,0
 .00001428,0.00000774,0.00001569,-0.00005634,-0.00006696,0.00004895,-0.
 00003098,0.00001924,-0.00005149,0.00002063,0.00002109,-0.00000334,0.00
 002285,-0.00000550,-0.00001357,0.00000280,-0.00000035,0.00000181,-0.05
 448500,-0.01533242,0.03282945,-0.00235462,-0.01061884,0.02536402,0.005
 04641,0.00983159,-0.02363096,0.05197425,0.00002311,0.00009582,-0.00011
 353,-0.00001516,0.00001940,0.00010976,0.00015558,0.00091219,-0.0009858
 0,0.00015135,-0.00497727,-0.00257733,0.00367188,0.00964130,-0.02413915
 ,0.00024889,0.00117556,-0.00145568,-0.00000652,-0.00001729,0.00003709,
 -0.00006149,-0.00080343,0.00015794,-0.00016764,0.00030456,0.00124868,0
 .00005420,0.00037297,-0.00033450,0.00002430,-0.00002186,0.00007319,-0.
 00004241,-0.00002137,0.00006669,-0.00000429,-0.00000777,-0.00001634,0.
 00000638,-0.00000875,-0.00001490,-0.00000420,-0.00001279,0.00002878,0.
 00000468,-0.00000519,0.00000972,-0.00000747,-0.00000475,0.00000824,0.0
 0003094,-0.00026750,-0.00025682,-0.00001441,-0.00000282,-0.00001885,0.
 00001722,0.00002398,-0.00010832,-0.00000783,0.00007598,0.00008547,-0.0
 0000708,0.00008537,0.00006790,0.00001736,-0.00000346,-0.00001348,-0.00
 000134,-0.00000200,0.00000855,-0.01591654,-0.09782322,0.10442640,-0.00
 037509,-0.00746168,0.01563869,-0.00467553,-0.00801394,0.01673446,0.016
 90112,0.10674795,-0.00002859,-0.00061763,-0.00007215,-0.00004286,-0.00
 004880,0.00032543,0.00019681,0.00110482,-0.00087107,0.00023304,-0.0036
 2741,-0.00159268,0.00303827,0.00963726,-0.02114495,-0.00011161,0.00263
 754,0.00116200,-0.00000618,-0.00002523,0.00006452,-0.00006762,-0.00120
 093,0.00058011,-0.00000114,-0.00040673,0.00011876,-0.00004042,-0.00019
 139,0.00037095,0.00002279,0.00002513,-0.00005988,-0.00001237,0.0000335
 1,-0.00007539,0.00000018,0.00000119,0.00001219,0.00000318,0.00000360,0
 .00001271,0.00000248,0.00000911,-0.00002102,-0.00000364,0.00000406,-0.
 00001241,0.00000716,0.00000358,-0.00001167,0.00000234,-0.00027825,-0.0
 0022808,0.00001494,-0.00001314,0.00001093,0.00006966,0.00050690,-0.000
 43173,-0.00005816,-0.00011245,0.00035870,-0.00001027,-0.00013791,0.000
 06058,-0.00001265,-0.00001398,0.00000299,0.00000157,0.00000132,-0.0000
 0810,0.03268569,0.10015784,-0.26370321,0.00036352,-0.00080941,0.002553
 81,0.00032000,0.00202426,-0.00429452,-0.03656611,-0.10866686,0.2868931
 8\\0.00000112,0.00001051,-0.00000247,-0.00000156,-0.00000371,0.0000013
 4,0.00000144,0.00000468,0.00000142,-0.00000094,-0.00000087,-0.00000097
 ,0.00000024,0.00000217,-0.00000231,0.00000055,-0.00000579,-0.00000027,
 0.00000027,0.00000068,-0.00000093,-0.00000038,-0.00000005,0.00000053,0
 .00000021,-0.00000289,0.00000338,-0.00000168,0.00000037,-0.00000129,-0
 .00000060,-0.00000035,0.00000179,0.00000103,-0.00000005,-0.00000038,0.
 00000163,-0.00000004,-0.00000114,-0.00000028,-0.00000059,0.00000072,-0
 .00000111,0.00000074,0.00000168,-0.00000019,0.00000065,-0.00000034,0.0
 0000031,0.00000041,0.00000003,-0.00000014,-0.00000057,-0.00000037,0.00
 000057,0.00000011,-0.00000039,-0.00000026,-0.00000534,0.00000184,0.,0.
 00000101,-0.00000121,0.00000007,-0.00000071,-0.00000006,0.00000005,0.0
 0000013,0.00000013,-0.00000033,0.00000041,-0.00000059,-0.00000130,-0.0
 0000124,-0.00000114,0.00000098,0.00000038,0.00000013,0.00000010,0.0000
 0028,0.,0.00000022,-0.00000034,0.00000089\\\@


 NOTHING PUZZLES ME MORE THAN TIME AND SPACE; AND YET NOTHING TROUBLES ME LESS
                                                          -- CHARLES LAMB (1810)
 Job cpu time:       0 days  2 hours 44 minutes 47.6 seconds.
 Elapsed time:       0 days  0 hours  5 minutes 29.6 seconds.
 File lengths (MBytes):  RWF=    351 Int=      0 D2E=      0 Chk=     12 Scr=      1
 Normal termination of Gaussian 16 at Fri Sep 15 12:19:58 2023.
