 Entering Gaussian System, Link 0=/home/ubuntu/g16/g16
 Input=/home/ubuntu/products/MOLECULE_4.gjf
 Output=/home/ubuntu/products/MOLECULE_4.log
 Initial command:
 /home/ubuntu/g16/l1.exe "/home/ubuntu/Scratch/Gau-11189.inp" -scrdir="/home/ubuntu/Scratch/"
 Entering Link 1 = /home/ubuntu/g16/l1.exe PID=     11191.
  
 Copyright (c) 1988-2017, Gaussian, Inc.  All Rights Reserved.
  
 This is part of the Gaussian(R) 16 program.  It is based on
 the Gaussian(R) 09 system (copyright 2009, Gaussian, Inc.),
 the Gaussian(R) 03 system (copyright 2003, Gaussian, Inc.),
 the Gaussian(R) 98 system (copyright 1998, Gaussian, Inc.),
 the Gaussian(R) 94 system (copyright 1995, Gaussian, Inc.),
 the Gaussian 92(TM) system (copyright 1992, Gaussian, Inc.),
 the Gaussian 90(TM) system (copyright 1990, Gaussian, Inc.),
 the Gaussian 88(TM) system (copyright 1988, Gaussian, Inc.),
 the Gaussian 86(TM) system (copyright 1986, Carnegie Mellon
 University), and the Gaussian 82(TM) system (copyright 1983,
 Carnegie Mellon University). Gaussian is a federally registered
 trademark of Gaussian, Inc.
  
 This software contains proprietary and confidential information,
 including trade secrets, belonging to Gaussian, Inc.
  
 This software is provided under written license and may be
 used, copied, transmitted, or stored only in accord with that
 written license.
  
 The following legend is applicable only to US Government
 contracts under FAR:
  
                    RESTRICTED RIGHTS LEGEND
  
 Use, reproduction and disclosure by the US Government is
 subject to restrictions as set forth in subparagraphs (a)
 and (c) of the Commercial Computer Software - Restricted
 Rights clause in FAR 52.227-19.
  
 Gaussian, Inc.
 340 Quinnipiac St., Bldg. 40, Wallingford CT 06492
  
  
 ---------------------------------------------------------------
 Warning -- This program may not be used in any manner that
 competes with the business of Gaussian, Inc. or will provide
 assistance to any competitor of Gaussian, Inc.  The licensee
 of this program is prohibited from giving any competitor of
 Gaussian, Inc. access to this program.  By using this program,
 the user acknowledges that Gaussian, Inc. is engaged in the
 business of creating and licensing software in the field of
 computational chemistry and represents and warrants to the
 licensee that it is not a competitor of Gaussian, Inc. and that
 it will not use this program in any manner prohibited above.
 ---------------------------------------------------------------
  

 Cite this work as:
 Gaussian 16, Revision B.01,
 M. J. Frisch, G. W. Trucks, H. B. Schlegel, G. E. Scuseria, 
 M. A. Robb, J. R. Cheeseman, G. Scalmani, V. Barone, 
 G. A. Petersson, H. Nakatsuji, X. Li, M. Caricato, A. V. Marenich, 
 J. Bloino, B. G. Janesko, R. Gomperts, B. Mennucci, H. P. Hratchian, 
 J. V. Ortiz, A. F. Izmaylov, J. L. Sonnenberg, D. Williams-Young, 
 F. Ding, F. Lipparini, F. Egidi, J. Goings, B. Peng, A. Petrone, 
 T. Henderson, D. Ranasinghe, V. G. Zakrzewski, J. Gao, N. Rega, 
 G. Zheng, W. Liang, M. Hada, M. Ehara, K. Toyota, R. Fukuda, 
 J. Hasegawa, M. Ishida, T. Nakajima, Y. Honda, O. Kitao, H. Nakai, 
 T. Vreven, K. Throssell, J. A. Montgomery, Jr., J. E. Peralta, 
 F. Ogliaro, M. J. Bearpark, J. J. Heyd, E. N. Brothers, K. N. Kudin, 
 V. N. Staroverov, T. A. Keith, R. Kobayashi, J. Normand, 
 K. Raghavachari, A. P. Rendell, J. C. Burant, S. S. Iyengar, 
 J. Tomasi, M. Cossi, J. M. Millam, M. Klene, C. Adamo, R. Cammi, 
 J. W. Ochterski, R. L. Martin, K. Morokuma, O. Farkas, 
 J. B. Foresman, and D. J. Fox, Gaussian, Inc., Wallingford CT, 2016.
 
 ******************************************
 Gaussian 16:  EM64L-G16RevB.01 20-Dec-2017
                17-Sep-2023 
 ******************************************
 %nprocshared=30
 Will use up to   30 processors via shared memory.
 %mem=30GB
 %chk=MOLECULE_4.chk
 ---------------------------------------------------------
 # opt freq b3lyp/6-31+g(d) empiricaldispersion=gd3 volume
 ---------------------------------------------------------
 1/18=20,19=15,26=3,38=1/1,3;
 2/9=110,12=2,17=6,18=5,40=1/2;
 3/5=1,6=6,7=11,11=2,25=1,30=1,71=1,74=-5,124=31/1,2,3;
 4//1;
 5/5=2,38=5/2;
 6/7=2,8=2,9=2,10=2,28=1,44=1/1,4;
 7//1,2,3,16;
 1/18=20,19=15,26=3/3(2);
 2/9=110/2;
 99//99;
 2/9=110/2;
 3/5=1,6=6,7=11,11=2,25=1,30=1,71=1,74=-5,124=31/1,2,3;
 4/5=5,16=3,69=1/1;
 5/5=2,38=5/2;
 7//1,2,3,16;
 1/18=20,19=15,26=3/3(-5);
 2/9=110/2;
 6/7=2,8=2,9=2,10=2,19=2,28=1,44=1/1,4;
 99/9=1/99;
 -------------------
 Title Card Required
 -------------------
 Symbolic Z-matrix:
 Charge =  0 Multiplicity = 1
 C                     4.98542  -1.28676   0.00007 
 C                     3.59215  -1.25074   0.00015 
 C                     2.91273  -0.01435   0.00008 
 C                     3.66398   1.17969  -0.00012 
 C                     5.05695   1.13367  -0.00023 
 C                     5.72234  -0.09727  -0.00013 
 H                     5.49816  -2.24506   0.00014 
 H                     3.01695  -2.17204   0.00026 
 H                     3.14419   2.13335  -0.00018 
 H                     5.62532   2.06006  -0.00039 
 H                     6.80862  -0.12941  -0.00022 
 C                     1.48867   0.02749   0.00004 
 C                     0.27155   0.06319   0.00043 
 C                    -1.15005   0.10119   0.00006 
 C                    -1.83439   1.33566   0.00004 
 C                    -1.89866  -1.10028  -0.00007 
 C                    -3.22497   1.36239  -0.00003 
 H                    -1.26377   2.25937   0.00006 
 C                    -3.28523  -1.06443  -0.00006 
 H                    -1.37195  -2.04988  -0.0002 
 C                    -3.96265   0.16806   0.00003 
 H                    -3.74714   2.31732  -0.00012 
 H                    -3.86889  -1.98043  -0.00008 
 C                    -5.43984   0.21718   0.00035 
 O                    -6.16928  -0.76025  -0.00048 
 H                    -5.87523   1.24058   0.00086 
 

 GradGradGradGradGradGradGradGradGradGradGradGradGradGradGradGradGradGrad
 Berny optimization.
 Initialization pass.
                           ----------------------------
                           !    Initial Parameters    !
                           ! (Angstroms and Degrees)  !
 --------------------------                            --------------------------
 ! Name  Definition              Value          Derivative Info.                !
 --------------------------------------------------------------------------------
 ! R1    R(1,2)                  1.3937         estimate D2E/DX2                !
 ! R2    R(1,6)                  1.3993         estimate D2E/DX2                !
 ! R3    R(1,7)                  1.0868         estimate D2E/DX2                !
 ! R4    R(2,3)                  1.4108         estimate D2E/DX2                !
 ! R5    R(2,8)                  1.0861         estimate D2E/DX2                !
 ! R6    R(3,4)                  1.4107         estimate D2E/DX2                !
 ! R7    R(3,12)                 1.4247         estimate D2E/DX2                !
 ! R8    R(4,5)                  1.3937         estimate D2E/DX2                !
 ! R9    R(4,9)                  1.0861         estimate D2E/DX2                !
 ! R10   R(5,6)                  1.3993         estimate D2E/DX2                !
 ! R11   R(5,10)                 1.0869         estimate D2E/DX2                !
 ! R12   R(6,11)                 1.0868         estimate D2E/DX2                !
 ! R13   R(12,13)                1.2176         estimate D2E/DX2                !
 ! R14   R(13,14)                1.4221         estimate D2E/DX2                !
 ! R15   R(14,15)                1.4115         estimate D2E/DX2                !
 ! R16   R(14,16)                1.4156         estimate D2E/DX2                !
 ! R17   R(15,17)                1.3908         estimate D2E/DX2                !
 ! R18   R(15,18)                1.0858         estimate D2E/DX2                !
 ! R19   R(16,19)                1.387          estimate D2E/DX2                !
 ! R20   R(16,20)                1.0859         estimate D2E/DX2                !
 ! R21   R(17,21)                1.4038         estimate D2E/DX2                !
 ! R22   R(17,22)                1.0884         estimate D2E/DX2                !
 ! R23   R(19,21)                1.4064         estimate D2E/DX2                !
 ! R24   R(19,23)                1.0861         estimate D2E/DX2                !
 ! R25   R(21,24)                1.478          estimate D2E/DX2                !
 ! R26   R(24,25)                1.2196         estimate D2E/DX2                !
 ! R27   R(24,26)                1.1122         estimate D2E/DX2                !
 ! A1    A(2,1,6)              120.298          estimate D2E/DX2                !
 ! A2    A(2,1,7)              119.6298         estimate D2E/DX2                !
 ! A3    A(6,1,7)              120.0723         estimate D2E/DX2                !
 ! A4    A(1,2,3)              120.2706         estimate D2E/DX2                !
 ! A5    A(1,2,8)              120.4969         estimate D2E/DX2                !
 ! A6    A(3,2,8)              119.2325         estimate D2E/DX2                !
 ! A7    A(2,3,4)              119.0337         estimate D2E/DX2                !
 ! A8    A(2,3,12)             120.4724         estimate D2E/DX2                !
 ! A9    A(4,3,12)             120.4939         estimate D2E/DX2                !
 ! A10   A(3,4,5)              120.2845         estimate D2E/DX2                !
 ! A11   A(3,4,9)              119.2306         estimate D2E/DX2                !
 ! A12   A(5,4,9)              120.4849         estimate D2E/DX2                !
 ! A13   A(4,5,6)              120.2858         estimate D2E/DX2                !
 ! A14   A(4,5,10)             119.6381         estimate D2E/DX2                !
 ! A15   A(6,5,10)             120.0761         estimate D2E/DX2                !
 ! A16   A(1,6,5)              119.8276         estimate D2E/DX2                !
 ! A17   A(1,6,11)             120.0841         estimate D2E/DX2                !
 ! A18   A(5,6,11)             120.0883         estimate D2E/DX2                !
 ! A19   A(13,14,15)           120.5332         estimate D2E/DX2                !
 ! A20   A(13,14,16)           120.3947         estimate D2E/DX2                !
 ! A21   A(15,14,16)           119.072          estimate D2E/DX2                !
 ! A22   A(14,15,17)           120.1031         estimate D2E/DX2                !
 ! A23   A(14,15,18)           119.2928         estimate D2E/DX2                !
 ! A24   A(17,15,18)           120.6041         estimate D2E/DX2                !
 ! A25   A(14,16,19)           120.4451         estimate D2E/DX2                !
 ! A26   A(14,16,20)           119.0582         estimate D2E/DX2                !
 ! A27   A(19,16,20)           120.4967         estimate D2E/DX2                !
 ! A28   A(15,17,21)           120.6007         estimate D2E/DX2                !
 ! A29   A(15,17,22)           119.7721         estimate D2E/DX2                !
 ! A30   A(21,17,22)           119.6272         estimate D2E/DX2                !
 ! A31   A(16,19,21)           120.2758         estimate D2E/DX2                !
 ! A32   A(16,19,23)           121.0237         estimate D2E/DX2                !
 ! A33   A(21,19,23)           118.7004         estimate D2E/DX2                !
 ! A34   A(17,21,19)           119.5032         estimate D2E/DX2                !
 ! A35   A(17,21,24)           119.7973         estimate D2E/DX2                !
 ! A36   A(19,21,24)           120.6995         estimate D2E/DX2                !
 ! A37   A(21,24,25)           124.8289         estimate D2E/DX2                !
 ! A38   A(21,24,26)           114.9515         estimate D2E/DX2                !
 ! A39   A(25,24,26)           120.2197         estimate D2E/DX2                !
 ! A40   L(3,12,13,8,-1)       179.9973         estimate D2E/DX2                !
 ! A41   L(12,13,14,20,-1)     179.8512         estimate D2E/DX2                !
 ! A42   L(3,12,13,8,-2)       179.9753         estimate D2E/DX2                !
 ! A43   L(12,13,14,20,-2)     180.0413         estimate D2E/DX2                !
 ! D1    D(6,1,2,3)             -0.0017         estimate D2E/DX2                !
 ! D2    D(6,1,2,8)            179.9972         estimate D2E/DX2                !
 ! D3    D(7,1,2,3)            179.9991         estimate D2E/DX2                !
 ! D4    D(7,1,2,8)             -0.0021         estimate D2E/DX2                !
 ! D5    D(2,1,6,5)              0.0009         estimate D2E/DX2                !
 ! D6    D(2,1,6,11)          -179.9987         estimate D2E/DX2                !
 ! D7    D(7,1,6,5)           -179.9999         estimate D2E/DX2                !
 ! D8    D(7,1,6,11)             0.0005         estimate D2E/DX2                !
 ! D9    D(1,2,3,4)              0.0014         estimate D2E/DX2                !
 ! D10   D(1,2,3,12)           179.9941         estimate D2E/DX2                !
 ! D11   D(8,2,3,4)           -179.9975         estimate D2E/DX2                !
 ! D12   D(8,2,3,12)            -0.0047         estimate D2E/DX2                !
 ! D13   D(2,3,4,5)             -0.0003         estimate D2E/DX2                !
 ! D14   D(2,3,4,9)            179.9997         estimate D2E/DX2                !
 ! D15   D(12,3,4,5)          -179.993          estimate D2E/DX2                !
 ! D16   D(12,3,4,9)             0.0069         estimate D2E/DX2                !
 ! D17   D(2,3,14,15)          179.9975         estimate D2E/DX2                !
 ! D18   D(2,3,14,16)           -0.0095         estimate D2E/DX2                !
 ! D19   D(4,3,14,15)           -0.0084         estimate D2E/DX2                !
 ! D20   D(4,3,14,16)          179.9847         estimate D2E/DX2                !
 ! D21   D(3,4,5,6)             -0.0005         estimate D2E/DX2                !
 ! D22   D(3,4,5,10)           179.9989         estimate D2E/DX2                !
 ! D23   D(9,4,5,6)            179.9996         estimate D2E/DX2                !
 ! D24   D(9,4,5,10)            -0.001          estimate D2E/DX2                !
 ! D25   D(4,5,6,1)              0.0002         estimate D2E/DX2                !
 ! D26   D(4,5,6,11)           179.9998         estimate D2E/DX2                !
 ! D27   D(10,5,6,1)          -179.9992         estimate D2E/DX2                !
 ! D28   D(10,5,6,11)            0.0004         estimate D2E/DX2                !
 ! D29   D(13,14,15,17)       -179.9862         estimate D2E/DX2                !
 ! D30   D(13,14,15,18)          0.0155         estimate D2E/DX2                !
 ! D31   D(16,14,15,17)          0.0036         estimate D2E/DX2                !
 ! D32   D(16,14,15,18)       -179.9947         estimate D2E/DX2                !
 ! D33   D(13,14,16,19)        179.9823         estimate D2E/DX2                !
 ! D34   D(13,14,16,20)         -0.019          estimate D2E/DX2                !
 ! D35   D(15,14,16,19)         -0.0075         estimate D2E/DX2                !
 ! D36   D(15,14,16,20)        179.9912         estimate D2E/DX2                !
 ! D37   D(14,15,17,21)          0.0053         estimate D2E/DX2                !
 ! D38   D(14,15,17,22)       -179.9959         estimate D2E/DX2                !
 ! D39   D(18,15,17,21)       -179.9964         estimate D2E/DX2                !
 ! D40   D(18,15,17,22)          0.0023         estimate D2E/DX2                !
 ! D41   D(14,16,19,21)          0.0025         estimate D2E/DX2                !
 ! D42   D(14,16,19,23)       -179.995          estimate D2E/DX2                !
 ! D43   D(20,16,19,21)       -179.9962         estimate D2E/DX2                !
 ! D44   D(20,16,19,23)          0.0063         estimate D2E/DX2                !
 ! D45   D(15,17,21,19)         -0.0103         estimate D2E/DX2                !
 ! D46   D(15,17,21,24)        179.982          estimate D2E/DX2                !
 ! D47   D(22,17,21,19)        179.991          estimate D2E/DX2                !
 ! D48   D(22,17,21,24)         -0.0168         estimate D2E/DX2                !
 ! D49   D(16,19,21,17)          0.0063         estimate D2E/DX2                !
 ! D50   D(16,19,21,24)       -179.9859         estimate D2E/DX2                !
 ! D51   D(23,19,21,17)       -179.9961         estimate D2E/DX2                !
 ! D52   D(23,19,21,24)          0.0118         estimate D2E/DX2                !
 ! D53   D(17,21,24,25)        179.9487         estimate D2E/DX2                !
 ! D54   D(17,21,24,26)         -0.0187         estimate D2E/DX2                !
 ! D55   D(19,21,24,25)         -0.0592         estimate D2E/DX2                !
 ! D56   D(19,21,24,26)        179.9734         estimate D2E/DX2                !
 --------------------------------------------------------------------------------
 Trust Radius=3.00D-01 FncErr=1.00D-07 GrdErr=1.00D-06 EigMax=2.50D+02 EigMin=1.00D-04
 Number of steps in this run=    136 maximum allowed number of steps=    156.
 GradGradGradGradGradGradGradGradGradGradGradGradGradGradGradGradGradGrad

                          Input orientation:                          
 ---------------------------------------------------------------------
 Center     Atomic      Atomic             Coordinates (Angstroms)
 Number     Number       Type             X           Y           Z
 ---------------------------------------------------------------------
      1          6           0        4.985424   -1.286760    0.000065
      2          6           0        3.592147   -1.250739    0.000153
      3          6           0        2.912729   -0.014351    0.000078
      4          6           0        3.663981    1.179692   -0.000116
      5          6           0        5.056949    1.133671   -0.000226
      6          6           0        5.722335   -0.097268   -0.000134
      7          1           0        5.498159   -2.245062    0.000139
      8          1           0        3.016951   -2.172036    0.000261
      9          1           0        3.144187    2.133353   -0.000180
     10          1           0        5.625320    2.060065   -0.000393
     11          1           0        6.808615   -0.129410   -0.000223
     12          6           0        1.488671    0.027487    0.000042
     13          6           0        0.271548    0.063187    0.000433
     14          6           0       -1.150054    0.101190    0.000063
     15          6           0       -1.834385    1.335658    0.000042
     16          6           0       -1.898661   -1.100280   -0.000069
     17          6           0       -3.224967    1.362388   -0.000032
     18          1           0       -1.263768    2.259374    0.000056
     19          6           0       -3.285226   -1.064433   -0.000061
     20          1           0       -1.371950   -2.049875   -0.000198
     21          6           0       -3.962653    0.168062    0.000025
     22          1           0       -3.747144    2.317317   -0.000115
     23          1           0       -3.868886   -1.980431   -0.000081
     24          6           0       -5.439837    0.217184    0.000348
     25          8           0       -6.169283   -0.760250   -0.000475
     26          1           0       -5.875230    1.240578    0.000859
 ---------------------------------------------------------------------
                    Distance matrix (angstroms):
                    1          2          3          4          5
     1  C    0.000000
     2  C    1.393743   0.000000
     3  C    2.432096   1.410767   0.000000
     4  C    2.798142   2.431492   1.410716   0.000000
     5  C    2.421488   2.798402   2.432208   1.393728   0.000000
     6  C    1.399260   2.422436   2.810829   2.422282   1.399267
     7  H    1.086849   2.149781   3.414750   3.884990   3.407419
     8  H    2.158379   1.086112   2.160201   3.413609   3.884494
     9  H    3.884241   3.413612   2.160140   1.086119   2.158245
    10  H    3.407448   3.885256   3.414872   2.149862   1.086854
    11  H    2.159510   3.406324   3.897585   3.406240   2.159562
    12  C    3.735576   2.461397   1.424672   2.461615   3.735807
    13  C    4.903365   3.571103   2.642319   3.571440   4.903672
    14  C    6.290508   4.931144   4.064426   4.933366   6.292289
    15  C    7.306632   6.011381   4.935344   5.500578   6.894294
    16  C    6.886610   5.492869   4.932415   6.011760   7.305549
    17  C    8.627196   7.300786   6.290208   6.891370   8.285074
    18  H    7.185226   5.991728   4.755308   5.044643   6.420177
    19  C    8.273638   6.879896   6.286280   7.302573   8.626908
    20  H    6.403011   5.028009   4.743610   5.982533   7.173960
    21  C    9.065572   7.686872   6.877801   7.693435   9.071142
    22  H    9.447069   8.160650   7.056244   7.497931   8.883303
    23  H    8.881440   7.496630   7.060862   8.168872   9.453474
    24  C   10.533182   9.150494   8.355774   9.154558  10.536720
    25  O   11.167126   9.773745   9.112591  10.022797  11.384868
    26  H   11.150840   9.789683   8.877109   9.539405  10.932702
                    6          7          8          9         10
     6  C    0.000000
     7  H    2.159462   0.000000
     8  H    3.409364   2.482282   0.000000
     9  H    3.409181   4.971087   4.307269   0.000000
    10  H    2.159513   4.307005   4.971345   2.482215   0.000000
    11  H    1.086755   2.488630   4.306859   4.306754   2.488772
    12  C    4.235502   4.608739   2.678347   2.678695   4.609039
    13  C    5.453148   5.713622   3.540263   3.540853   5.714053
    14  C    6.875254   7.050080   4.746734   4.750810   7.052864
    15  C    7.691378   8.160132   5.986600   5.042073   7.494796
    16  C    7.686717   7.484883   5.031094   5.990551   8.160764
    17  C    9.065584   9.439630   7.173123   6.415646   8.877744
    18  H    7.372883   8.124875   6.161327   4.409756   6.891971
    19  C    9.059336   8.862378   6.398767   7.180751   9.442474
    20  H    7.358094   6.872881   4.390601   6.155883   8.115010
    21  C    9.688622   9.763715   7.361449   7.373571   9.772866
    22  H    9.772474  10.309749   8.118329   6.893786   9.375994
    23  H    9.774345   9.370782   6.888502   8.130585  10.318215
    24  C   11.166600  11.211709   8.787812   8.795293  11.217572
    25  O   11.910085  11.761542   9.294086   9.752623  12.127112
    26  H   11.674474  11.895531   9.524538   9.063494  11.529710
                   11         12         13         14         15
    11  H    0.000000
    12  C    5.322257   0.000000
    13  C    6.539904   1.217647   0.000000
    14  C    7.962009   2.639754   1.422110   0.000000
    15  C    8.766292   3.571276   2.460515   1.411460   0.000000
    16  C    8.761235   3.570137   2.462410   1.415607   2.436786
    17  C   10.143876   4.899015   3.730086   2.428144   1.390839
    18  H    8.418412   3.543620   2.679633   2.161178   1.085751
    19  C   10.137055   4.897181   3.731242   2.432619   2.804528
    20  H    8.402966   3.535334   2.676960   2.162480   3.416969
    21  C   10.775375   5.453136   4.235500   2.813394   2.427510
    22  H   10.835614   5.714637   4.607710   3.414102   2.149954
    23  H   10.836757   5.721464   4.617312   3.424207   3.890455
    24  C   12.253355   6.931104   5.713461   4.291351   3.774953
    25  O   12.993221   7.698363   6.493254   5.092616   4.814994
    26  H   12.757617   7.463151   6.258525   4.860606   4.041964
                   16         17         18         19         20
    16  C    0.000000
    17  C    2.797109   0.000000
    18  H    3.419117   2.156591   0.000000
    19  C    1.387028   2.427569   3.890242   0.000000
    20  H    1.085889   3.882938   4.310607   2.152143   0.000000
    21  C    2.422551   1.403779   3.414318   1.406397   3.410423
    22  H    3.885468   1.088374   2.484052   3.413151   4.971309
    23  H    2.157881   3.404272   4.976202   1.086145   2.497901
    24  C    3.778312   2.493420   4.648666   2.506968   4.656958
    25  O    4.284137   3.629682   5.760400   2.900054   4.967649
    26  H    4.614403   2.653061   4.722661   3.467160   5.577330
                   21         22         23         24         25
    21  C    0.000000
    22  H    2.160033   0.000000
    23  H    2.150538   4.299472   0.000000
    24  C    1.478001   2.697363   2.701370   0.000000
    25  O    2.393946   3.916398   2.603972   1.219619   0.000000
    26  H    2.192770   2.384978   3.794775   1.112161   2.022321
                   26
    26  H    0.000000
 Stoichiometry    C15H10O
 Framework group  C1[X(C15H10O)]
 Deg. of freedom    72
 Full point group                 C1      NOp   1
 Largest Abelian subgroup         C1      NOp   1
 Largest concise Abelian subgroup C1      NOp   1
                         Standard orientation:                         
 ---------------------------------------------------------------------
 Center     Atomic      Atomic             Coordinates (Angstroms)
 Number     Number       Type             X           Y           Z
 ---------------------------------------------------------------------
      1          6           0        4.985424   -1.286760    0.000065
      2          6           0        3.592147   -1.250739    0.000153
      3          6           0        2.912729   -0.014351    0.000078
      4          6           0        3.663981    1.179692   -0.000116
      5          6           0        5.056949    1.133671   -0.000226
      6          6           0        5.722335   -0.097268   -0.000134
      7          1           0        5.498159   -2.245062    0.000139
      8          1           0        3.016951   -2.172036    0.000261
      9          1           0        3.144187    2.133353   -0.000180
     10          1           0        5.625320    2.060065   -0.000393
     11          1           0        6.808615   -0.129410   -0.000223
     12          6           0        1.488671    0.027487    0.000042
     13          6           0        0.271548    0.063187    0.000433
     14          6           0       -1.150054    0.101190    0.000063
     15          6           0       -1.834385    1.335658    0.000042
     16          6           0       -1.898661   -1.100280   -0.000069
     17          6           0       -3.224967    1.362388   -0.000032
     18          1           0       -1.263768    2.259374    0.000056
     19          6           0       -3.285226   -1.064433   -0.000061
     20          1           0       -1.371950   -2.049875   -0.000198
     21          6           0       -3.962653    0.168062    0.000025
     22          1           0       -3.747144    2.317317   -0.000115
     23          1           0       -3.868886   -1.980431   -0.000081
     24          6           0       -5.439837    0.217184    0.000348
     25          8           0       -6.169283   -0.760250   -0.000475
     26          1           0       -5.875230    1.240578    0.000859
 ---------------------------------------------------------------------
 Rotational constants (GHZ):           2.6324145           0.1606980           0.1514525
 Standard basis: 6-31+G(d) (6D, 7F)
 There are   324 symmetry adapted cartesian basis functions of A   symmetry.
 There are   324 symmetry adapted basis functions of A   symmetry.
   324 basis functions,   552 primitive gaussians,   324 cartesian basis functions
    54 alpha electrons       54 beta electrons
       nuclear repulsion energy       851.4212070936 Hartrees.
 NAtoms=   26 NActive=   26 NUniq=   26 SFac= 1.00D+00 NAtFMM=   60 NAOKFM=F Big=F
 Integral buffers will be    131072 words long.
 Raffenetti 2 integral format.
 Two-electron integral symmetry is turned on.
 Nuclear repulsion after empirical dispersion term =      851.4038096158 Hartrees.
 One-electron integrals computed using PRISM.
 NBasis=   324 RedAO= T EigKep=  1.99D-06  NBF=   324
 NBsUse=   320 1.00D-06 EigRej=  5.22D-07 NBFU=   320
 ExpMin= 4.38D-02 ExpMax= 5.48D+03 ExpMxC= 8.25D+02 IAcc=3 IRadAn=         5 AccDes= 0.00D+00
 Harris functional with IExCor=  402 and IRadAn=       5 diagonalized for initial guess.
 HarFok:  IExCor=  402 AccDes= 0.00D+00 IRadAn=         5 IDoV= 1 UseB2=F ITyADJ=14
 ICtDFT=  3500011 ScaDFX=  1.000000  1.000000  1.000000  1.000000
 FoFCou: FMM=F IPFlag=           0 FMFlag=      100000 FMFlg1=           0
         NFxFlg=           0 DoJE=T BraDBF=F KetDBF=T FulRan=T
         wScrn=  0.000000 ICntrl=       500 IOpCl=  0 I1Cent=   200000004 NGrid=           0
         NMat0=    1 NMatS0=      1 NMatT0=    0 NMatD0=    1 NMtDS0=    0 NMtDT0=    0
 Petite list used in FoFCou.
 Requested convergence on RMS density matrix=1.00D-08 within 128 cycles.
 Requested convergence on MAX density matrix=1.00D-06.
 Requested convergence on             energy=1.00D-06.
 No special actions if energy rises.
 SCF Done:  E(RB3LYP) =  -652.830360494     A.U. after   16 cycles
            NFock= 16  Conv=0.37D-08     -V/T= 2.0099

 **********************************************************************

            Population analysis using the SCF Density.

 **********************************************************************

 Orbital symmetries:
       Occupied  (A) (A) (A) (A) (A) (A) (A) (A) (A) (A) (A) (A)
                 (A) (A) (A) (A) (A) (A) (A) (A) (A) (A) (A) (A)
                 (A) (A) (A) (A) (A) (A) (A) (A) (A) (A) (A) (A)
                 (A) (A) (A) (A) (A) (A) (A) (A) (A) (A) (A) (A)
                 (A) (A) (A) (A) (A) (A)
       Virtual   (A) (A) (A) (A) (A) (A) (A) (A) (A) (A) (A) (A)
                 (A) (A) (A) (A) (A) (A) (A) (A) (A) (A) (A) (A)
                 (A) (A) (A) (A) (A) (A) (A) (A) (A) (A) (A) (A)
                 (A) (A) (A) (A) (A) (A) (A) (A) (A) (A) (A) (A)
                 (A) (A) (A) (A) (A) (A) (A) (A) (A) (A) (A) (A)
                 (A) (A) (A) (A) (A) (A) (A) (A) (A) (A) (A) (A)
                 (A) (A) (A) (A) (A) (A) (A) (A) (A) (A) (A) (A)
                 (A) (A) (A) (A) (A) (A) (A) (A) (A) (A) (A) (A)
                 (A) (A) (A) (A) (A) (A) (A) (A) (A) (A) (A) (A)
                 (A) (A) (A) (A) (A) (A) (A) (A) (A) (A) (A) (A)
                 (A) (A) (A) (A) (A) (A) (A) (A) (A) (A) (A) (A)
                 (A) (A) (A) (A) (A) (A) (A) (A) (A) (A) (A) (A)
                 (A) (A) (A) (A) (A) (A) (A) (A) (A) (A) (A) (A)
                 (A) (A) (A) (A) (A) (A) (A) (A) (A) (A) (A) (A)
                 (A) (A) (A) (A) (A) (A) (A) (A) (A) (A) (A) (A)
                 (A) (A) (A) (A) (A) (A) (A) (A) (A) (A) (A) (A)
                 (A) (A) (A) (A) (A) (A) (A) (A) (A) (A) (A) (A)
                 (A) (A) (A) (A) (A) (A) (A) (A) (A) (A) (A) (A)
                 (A) (A) (A) (A) (A) (A) (A) (A) (A) (A) (A) (A)
                 (A) (A) (A) (A) (A) (A) (A) (A) (A) (A) (A) (A)
                 (A) (A) (A) (A) (A) (A) (A) (A) (A) (A) (A) (A)
                 (A) (A) (A) (A) (A) (A) (A) (A) (A) (A) (A) (A)
                 (A) (A)
 The electronic state is 1-A.
 Alpha  occ. eigenvalues --  -19.15965 -10.28555 -10.24459 -10.23499 -10.22371
 Alpha  occ. eigenvalues --  -10.22044 -10.21919 -10.21896 -10.21736 -10.21539
 Alpha  occ. eigenvalues --  -10.21528 -10.21358 -10.21301 -10.21245 -10.21230
 Alpha  occ. eigenvalues --  -10.20944  -1.05156  -0.88787  -0.87917  -0.81491
 Alpha  occ. eigenvalues --   -0.79102  -0.77417  -0.76675  -0.74026  -0.67805
 Alpha  occ. eigenvalues --   -0.63795  -0.63268  -0.62551  -0.59078  -0.56415
 Alpha  occ. eigenvalues --   -0.54491  -0.51030  -0.49742  -0.48073  -0.47264
 Alpha  occ. eigenvalues --   -0.46058  -0.45200  -0.44723  -0.44166  -0.43960
 Alpha  occ. eigenvalues --   -0.41922  -0.39876  -0.39874  -0.38420  -0.37674
 Alpha  occ. eigenvalues --   -0.37125  -0.36709  -0.33339  -0.28947  -0.28890
 Alpha  occ. eigenvalues --   -0.27999  -0.27309  -0.26819  -0.23327
 Alpha virt. eigenvalues --   -0.09254  -0.04154  -0.03228  -0.02774  -0.00490
 Alpha virt. eigenvalues --    0.00481   0.00924   0.01335   0.01742   0.02523
 Alpha virt. eigenvalues --    0.03131   0.03438   0.04211   0.04545   0.04838
 Alpha virt. eigenvalues --    0.04889   0.05655   0.06246   0.06579   0.06756
 Alpha virt. eigenvalues --    0.07920   0.08050   0.08794   0.09005   0.09193
 Alpha virt. eigenvalues --    0.09324   0.09898   0.11097   0.12026   0.12448
 Alpha virt. eigenvalues --    0.12878   0.13071   0.13905   0.14055   0.14378
 Alpha virt. eigenvalues --    0.14394   0.14590   0.14990   0.15211   0.15896
 Alpha virt. eigenvalues --    0.16189   0.16779   0.16873   0.17094   0.17871
 Alpha virt. eigenvalues --    0.18950   0.19062   0.19231   0.19933   0.20809
 Alpha virt. eigenvalues --    0.21058   0.21452   0.21907   0.22176   0.22545
 Alpha virt. eigenvalues --    0.22560   0.23070   0.23418   0.23797   0.24193
 Alpha virt. eigenvalues --    0.24909   0.25031   0.25495   0.26589   0.26742
 Alpha virt. eigenvalues --    0.27111   0.27448   0.27496   0.28384   0.28591
 Alpha virt. eigenvalues --    0.28905   0.29361   0.30520   0.31745   0.31927
 Alpha virt. eigenvalues --    0.32539   0.32973   0.33108   0.33664   0.34004
 Alpha virt. eigenvalues --    0.35296   0.36804   0.37894   0.39042   0.39736
 Alpha virt. eigenvalues --    0.40837   0.41239   0.42492   0.45560   0.48950
 Alpha virt. eigenvalues --    0.49845   0.55049   0.56628   0.58749   0.59339
 Alpha virt. eigenvalues --    0.62878   0.64732   0.65802   0.65843   0.67456
 Alpha virt. eigenvalues --    0.68221   0.69040   0.69153   0.69678   0.70260
 Alpha virt. eigenvalues --    0.70515   0.72006   0.72406   0.72526   0.72700
 Alpha virt. eigenvalues --    0.74359   0.74434   0.74568   0.75803   0.75817
 Alpha virt. eigenvalues --    0.76946   0.77376   0.78688   0.79327   0.80031
 Alpha virt. eigenvalues --    0.80313   0.82193   0.83495   0.83903   0.85282
 Alpha virt. eigenvalues --    0.86785   0.87726   0.88991   0.89353   0.90811
 Alpha virt. eigenvalues --    0.92756   0.93706   0.95667   0.97547   0.97816
 Alpha virt. eigenvalues --    0.98323   1.00088   1.00321   1.01723   1.04915
 Alpha virt. eigenvalues --    1.07218   1.08058   1.08658   1.11821   1.13198
 Alpha virt. eigenvalues --    1.14154   1.16228   1.17669   1.19448   1.19908
 Alpha virt. eigenvalues --    1.21778   1.22527   1.22570   1.22872   1.23736
 Alpha virt. eigenvalues --    1.24949   1.25672   1.27970   1.30065   1.30387
 Alpha virt. eigenvalues --    1.32042   1.32639   1.33043   1.33975   1.38000
 Alpha virt. eigenvalues --    1.39081   1.41525   1.41796   1.42929   1.43237
 Alpha virt. eigenvalues --    1.43814   1.44978   1.45130   1.47024   1.47915
 Alpha virt. eigenvalues --    1.48854   1.51603   1.52716   1.55109   1.56876
 Alpha virt. eigenvalues --    1.59268   1.66541   1.70546   1.74580   1.75282
 Alpha virt. eigenvalues --    1.80274   1.81684   1.83463   1.84092   1.86188
 Alpha virt. eigenvalues --    1.88125   1.89132   1.89521   1.89737   1.90708
 Alpha virt. eigenvalues --    1.94425   1.97263   1.97642   1.97895   1.98184
 Alpha virt. eigenvalues --    2.02801   2.05616   2.08267   2.08725   2.09061
 Alpha virt. eigenvalues --    2.10461   2.12895   2.13583   2.13839   2.15268
 Alpha virt. eigenvalues --    2.16670   2.20126   2.22021   2.23170   2.25753
 Alpha virt. eigenvalues --    2.28475   2.29051   2.29164   2.31887   2.36969
 Alpha virt. eigenvalues --    2.37109   2.37717   2.45343   2.49601   2.50904
 Alpha virt. eigenvalues --    2.56652   2.57349   2.60063   2.60528   2.61123
 Alpha virt. eigenvalues --    2.62510   2.65210   2.67983   2.71010   2.73411
 Alpha virt. eigenvalues --    2.73452   2.75021   2.80313   2.82592   2.84798
 Alpha virt. eigenvalues --    2.90732   2.92837   2.98478   2.99996   3.07300
 Alpha virt. eigenvalues --    3.17027   3.27706   3.32859   3.39779   3.59110
 Alpha virt. eigenvalues --    4.15720   4.20844   4.22519   4.22638   4.23903
 Alpha virt. eigenvalues --    4.24135   4.28504   4.33197   4.36568   4.38544
 Alpha virt. eigenvalues --    4.39708   4.44526   4.55647   4.63922   4.76580
 Alpha virt. eigenvalues --    4.98214
          Condensed to atoms (all electrons):
               1          2          3          4          5          6
     1  C    8.720286  -6.936065   1.288013   4.256226  -1.521371   0.522710
     2  C   -6.936065  24.273286  -3.187815 -13.026348   4.095608  -0.281115
     3  C    1.288013  -3.187815  10.257739  -2.276643   0.974643   0.278411
     4  C    4.256226 -13.026348  -2.276643  23.678453  -6.579672  -0.447689
     5  C   -1.521371   4.095608   0.974643  -6.579672   8.548546   0.585846
     6  C    0.522710  -0.281115   0.278411  -0.447689   0.585846   5.389669
     7  H    0.292009  -0.023288   0.008946   0.003499   0.001063   0.017009
     8  H   -0.062875   0.318097  -0.024503   0.021462  -0.005615   0.006941
     9  H   -0.006030   0.023033  -0.021029   0.312629  -0.061516   0.006795
    10  H    0.001313   0.003255   0.008761  -0.024806   0.293103   0.017374
    11  H   -0.006648   0.011858   0.002009   0.009608  -0.005560   0.282133
    12  C   -0.435439   1.294066  -1.850700   0.658119  -0.240651  -0.203720
    13  C   -0.033174  -0.097847   0.028859  -0.097012  -0.035096   0.031192
    14  C    0.077845  -0.131082   0.403187  -0.246603   0.118702  -0.018384
    15  C    0.062081  -0.335794  -0.164073   0.426885  -0.083943  -0.000225
    16  C   -0.086340   0.424457  -0.262679  -0.319749   0.060581   0.000853
    17  C   -0.022694   0.099135   0.078075  -0.133988   0.022869   0.000942
    18  H    0.000004  -0.000265  -0.000139   0.003170  -0.000028   0.000043
    19  C    0.032958  -0.157480   0.155007   0.105662  -0.026614   0.000803
    20  H   -0.000110   0.000157   0.003380   0.000794  -0.000019   0.000039
    21  C    0.002971  -0.005949  -0.017640   0.008314   0.002889  -0.000632
    22  H   -0.000002  -0.000042  -0.000158   0.000115   0.000005   0.000000
    23  H    0.000005   0.000071  -0.000102  -0.000022  -0.000001   0.000000
    24  C    0.000150  -0.000414   0.003430  -0.000153   0.000359  -0.000044
    25  O    0.000000  -0.000007  -0.000024   0.000010   0.000001   0.000000
    26  H    0.000000   0.000000   0.000001   0.000001   0.000000   0.000000
               7          8          9         10         11         12
     1  C    0.292009  -0.062875  -0.006030   0.001313  -0.006648  -0.435439
     2  C   -0.023288   0.318097   0.023033   0.003255   0.011858   1.294066
     3  C    0.008946  -0.024503  -0.021029   0.008761   0.002009  -1.850700
     4  C    0.003499   0.021462   0.312629  -0.024806   0.009608   0.658119
     5  C    0.001063  -0.005615  -0.061516   0.293103  -0.005560  -0.240651
     6  C    0.017009   0.006941   0.006795   0.017374   0.282133  -0.203720
     7  H    0.529779  -0.004563   0.000016  -0.000158  -0.004690  -0.004875
     8  H   -0.004563   0.526301  -0.000142   0.000016  -0.000141   0.025659
     9  H    0.000016  -0.000142   0.527456  -0.004578  -0.000141   0.024185
    10  H   -0.000158   0.000016  -0.004578   0.530146  -0.004690  -0.004711
    11  H   -0.004690  -0.000141  -0.000141  -0.004690   0.532454  -0.000688
    12  C   -0.004875   0.025659   0.024185  -0.004711  -0.000688   7.629580
    13  C   -0.000430   0.002451   0.003622  -0.000415   0.000216  -0.019699
    14  C   -0.000136  -0.000520  -0.000626  -0.000117  -0.000036  -0.797573
    15  C   -0.000040   0.000267   0.001328   0.000108  -0.000001   0.113706
    16  C    0.000110   0.001325   0.000261  -0.000040  -0.000002   0.189069
    17  C   -0.000001  -0.000037   0.000144   0.000005   0.000000  -0.016725
    18  H    0.000000   0.000000   0.000002   0.000000   0.000000  -0.000475
    19  C    0.000006   0.000111  -0.000042  -0.000001   0.000000  -0.176968
    20  H    0.000000   0.000003   0.000000   0.000000   0.000000  -0.006830
    21  C    0.000000  -0.000032  -0.000052   0.000000   0.000000  -0.072178
    22  H    0.000000   0.000000   0.000000   0.000000   0.000000   0.000766
    23  H    0.000000   0.000000   0.000000   0.000000   0.000000   0.000703
    24  C    0.000000  -0.000003  -0.000003   0.000000   0.000000  -0.035175
    25  O    0.000000   0.000000   0.000000   0.000000   0.000000   0.000012
    26  H    0.000000   0.000000   0.000000   0.000000   0.000000  -0.000009
              13         14         15         16         17         18
     1  C   -0.033174   0.077845   0.062081  -0.086340  -0.022694   0.000004
     2  C   -0.097847  -0.131082  -0.335794   0.424457   0.099135  -0.000265
     3  C    0.028859   0.403187  -0.164073  -0.262679   0.078075  -0.000139
     4  C   -0.097012  -0.246603   0.426885  -0.319749  -0.133988   0.003170
     5  C   -0.035096   0.118702  -0.083943   0.060581   0.022869  -0.000028
     6  C    0.031192  -0.018384  -0.000225   0.000853   0.000942   0.000043
     7  H   -0.000430  -0.000136  -0.000040   0.000110  -0.000001   0.000000
     8  H    0.002451  -0.000520   0.000267   0.001325  -0.000037   0.000000
     9  H    0.003622  -0.000626   0.001328   0.000261   0.000144   0.000002
    10  H   -0.000415  -0.000117   0.000108  -0.000040   0.000005   0.000000
    11  H    0.000216  -0.000036  -0.000001  -0.000002   0.000000   0.000000
    12  C   -0.019699  -0.797573   0.113706   0.189069  -0.016725  -0.000475
    13  C    6.152067   0.350993  -0.097840  -0.388306   0.079819   0.028582
    14  C    0.350993   6.447432  -0.625737  -0.367324   0.820283  -0.018436
    15  C   -0.097840  -0.625737  10.666122  -1.793548  -2.973634   0.377393
    16  C   -0.388306  -0.367324  -1.793548  11.791801   0.288613   0.023526
    17  C    0.079819   0.820283  -2.973634   0.288613  10.250293  -0.117032
    18  H    0.028582  -0.018436   0.377393   0.023526  -0.117032   0.517222
    19  C    0.227329   0.503212   0.093810  -4.330146  -1.084840  -0.008541
    20  H    0.031248  -0.058861   0.018253   0.363494  -0.019297  -0.000138
    21  C   -0.187927  -0.016508  -0.084050   0.041193  -0.982149  -0.003503
    22  H   -0.007642   0.033990  -0.036257   0.009862   0.237861  -0.003903
    23  H   -0.005609   0.019729   0.004998  -0.102266   0.040344   0.000014
    24  C    0.054004  -0.414570   0.389472   0.321435   0.299548   0.003582
    25  O   -0.001623  -0.020753   0.053401   0.136914   0.000964   0.000029
    26  H    0.000516  -0.005998   0.071898   0.003362   0.132722   0.000005
              19         20         21         22         23         24
     1  C    0.032958  -0.000110   0.002971  -0.000002   0.000005   0.000150
     2  C   -0.157480   0.000157  -0.005949  -0.000042   0.000071  -0.000414
     3  C    0.155007   0.003380  -0.017640  -0.000158  -0.000102   0.003430
     4  C    0.105662   0.000794   0.008314   0.000115  -0.000022  -0.000153
     5  C   -0.026614  -0.000019   0.002889   0.000005  -0.000001   0.000359
     6  C    0.000803   0.000039  -0.000632   0.000000   0.000000  -0.000044
     7  H    0.000006   0.000000   0.000000   0.000000   0.000000   0.000000
     8  H    0.000111   0.000003  -0.000032   0.000000   0.000000  -0.000003
     9  H   -0.000042   0.000000  -0.000052   0.000000   0.000000  -0.000003
    10  H   -0.000001   0.000000   0.000000   0.000000   0.000000   0.000000
    11  H    0.000000   0.000000   0.000000   0.000000   0.000000   0.000000
    12  C   -0.176968  -0.006830  -0.072178   0.000766   0.000703  -0.035175
    13  C    0.227329   0.031248  -0.187927  -0.007642  -0.005609   0.054004
    14  C    0.503212  -0.058861  -0.016508   0.033990   0.019729  -0.414570
    15  C    0.093810   0.018253  -0.084050  -0.036257   0.004998   0.389472
    16  C   -4.330146   0.363494   0.041193   0.009862  -0.102266   0.321435
    17  C   -1.084840  -0.019297  -0.982149   0.237861   0.040344   0.299548
    18  H   -0.008541  -0.000138  -0.003503  -0.003903   0.000014   0.003582
    19  C   10.806741  -0.059170   0.795030   0.018667   0.290785  -0.703157
    20  H   -0.059170   0.516328   0.012056   0.000016  -0.003638   0.001921
    21  C    0.795030   0.012056   7.981159   0.060305   0.061675  -1.733650
    22  H    0.018667   0.000016   0.060305   0.526709  -0.000140  -0.036998
    23  H    0.290785  -0.003638   0.061675  -0.000140   0.489214  -0.023523
    24  C   -0.703157   0.001921  -1.733650  -0.036998  -0.023523   6.799814
    25  O   -0.229743   0.000138  -0.200278   0.000512   0.006587   0.533414
    26  H   -0.082251   0.000003  -0.377730   0.005941   0.000101   0.528363
              25         26
     1  C    0.000000   0.000000
     2  C   -0.000007   0.000000
     3  C   -0.000024   0.000001
     4  C    0.000010   0.000001
     5  C    0.000001   0.000000
     6  C    0.000000   0.000000
     7  H    0.000000   0.000000
     8  H    0.000000   0.000000
     9  H    0.000000   0.000000
    10  H    0.000000   0.000000
    11  H    0.000000   0.000000
    12  C    0.000012  -0.000009
    13  C   -0.001623   0.000516
    14  C   -0.020753  -0.005998
    15  C    0.053401   0.071898
    16  C    0.136914   0.003362
    17  C    0.000964   0.132722
    18  H    0.000029   0.000005
    19  C   -0.229743  -0.082251
    20  H    0.000138   0.000003
    21  C   -0.200278  -0.377730
    22  H    0.000512   0.005941
    23  H    0.006587   0.000101
    24  C    0.533414   0.528363
    25  O    8.166237  -0.063792
    26  H   -0.063792   0.631434
 Mulliken charges:
               1
     1  C   -0.145823
     2  C   -0.359512
     3  C    0.315043
     4  C   -0.332263
     5  C   -0.144126
     6  C   -0.188950
     7  H    0.185745
     8  H    0.195799
     9  H    0.194690
    10  H    0.185437
    11  H    0.184321
    12  C   -0.069454
    13  C   -0.018278
    14  C   -0.052110
    15  C   -0.084580
    16  C   -0.006457
    17  C   -1.001219
    18  H    0.198887
    19  C   -0.171167
    20  H    0.200232
    21  C    0.716688
    22  H    0.190393
    23  H    0.221074
    24  C    0.012198
    25  O   -0.382000
    26  H    0.155433
 Sum of Mulliken charges =   0.00000
 Mulliken charges with hydrogens summed into heavy atoms:
               1
     1  C    0.039923
     2  C   -0.163713
     3  C    0.315043
     4  C   -0.137573
     5  C    0.041311
     6  C   -0.004630
    12  C   -0.069454
    13  C   -0.018278
    14  C   -0.052110
    15  C    0.114307
    16  C    0.193775
    17  C   -0.810827
    19  C    0.049907
    21  C    0.716688
    24  C    0.167631
    25  O   -0.382000
 Electronic spatial extent (au):  <R**2>=           6583.3601
 Charge=              0.0000 electrons
 Dipole moment (field-independent basis, Debye):
    X=              4.2918    Y=              1.7133    Z=              0.0009  Tot=              4.6211
 Quadrupole moment (field-independent basis, Debye-Ang):
   XX=           -103.7526   YY=            -82.3293   ZZ=            -98.6457
   XY=            -11.5718   XZ=             -0.0096   YZ=             -0.0017
 Traceless Quadrupole moment (field-independent basis, Debye-Ang):
   XX=             -8.8434   YY=             12.5799   ZZ=             -3.7365
   XY=            -11.5718   XZ=             -0.0096   YZ=             -0.0017
 Octapole moment (field-independent basis, Debye-Ang**2):
  XXX=            274.3208  YYY=             -0.8013  ZZZ=             -0.0028  XYY=              3.8497
  XXY=             70.6533  XXZ=              0.0439  XZZ=            -19.8106  YZZ=             -1.4671
  YYZ=             -0.0018  XYZ=              0.0013
 Hexadecapole moment (field-independent basis, Debye-Ang**3):
 XXXX=          -9156.3355 YYYY=           -599.3981 ZZZZ=           -118.3930 XXXY=           -446.1777
 XXXZ=             -0.3617 YYYX=              0.3647 YYYZ=             -0.0057 ZZZX=              0.0117
 ZZZY=              0.0016 XXYY=          -1392.7489 XXZZ=          -1506.0383 YYZZ=           -142.6145
 XXYZ=             -0.0543 YYXZ=             -0.0016 ZZXY=              8.5365
 N-N= 8.514038096158D+02 E-N=-3.215752146733D+03  KE= 6.464533266354D+02
 Evaluate density.
 Using the total density.
 Monte-Carlo method of calculating molar volume:
 based on  0.001 e/bohr**3 density envelope.
 Number of points per bohr**3 =   20 CutOff= 1.00D-04
 Using the SCF density.
 There are       400 points.  Will hold       400 in memory.
 LenV=  4026295340 MDV=  4026531840.
 Box volume = 8014.338 fraction occupied=0.248
 Integrated density= 1.1406033036126804D+02 error= 6.0603303612680435D+00
 Molar volume = 1983.549 bohr**3/mol (177.010 cm**3/mol)
 Recommended a0 for SCRF calculation =  5.04 angstrom (  9.52 bohr)
 Calling FoFJK, ICntrl=      2127 FMM=F ISym2X=0 I1Cent= 0 IOpClX= 0 NMat=1 NMatS=1 NMatT=0.
 ***** Axes restored to original set *****
 -------------------------------------------------------------------
 Center     Atomic                   Forces (Hartrees/Bohr)
 Number     Number              X              Y              Z
 -------------------------------------------------------------------
      1        6           0.000039771   -0.000035625    0.000000750
      2        6          -0.000068041    0.000019694   -0.000000378
      3        6          -0.000043021   -0.000033533   -0.000014900
      4        6          -0.000069594    0.000052531    0.000000787
      5        6           0.000053270   -0.000018105    0.000001328
      6        6          -0.000052795    0.000007237    0.000000098
      7        1           0.000004550    0.000000550   -0.000000264
      8        1           0.000022766    0.000008317    0.000000889
      9        1           0.000009057   -0.000004694   -0.000000933
     10        1           0.000005018   -0.000000794    0.000000676
     11        1           0.000010042    0.000001236    0.000000143
     12        6           0.000204469    0.000016410    0.000036645
     13        6          -0.000153521    0.000014015   -0.000047729
     14        6          -0.000015569   -0.000044150    0.000023902
     15        6           0.000051401   -0.000004293   -0.000009477
     16        6           0.000100592   -0.000010614   -0.000004784
     17        6          -0.000042122    0.000029749    0.000007912
     18        1          -0.000023613   -0.000008112    0.000001600
     19        6          -0.000111280   -0.000002966   -0.000002978
     20        1          -0.000014052    0.000002645    0.000006147
     21        6           0.000105203    0.000019478    0.000024933
     22        1           0.000002578   -0.000002774    0.000005855
     23        1           0.000000725    0.000015554   -0.000000272
     24        6           0.000026963   -0.000025298   -0.000078538
     25        8          -0.000025606    0.000010227    0.000029836
     26        1          -0.000017192   -0.000006683    0.000018751
 -------------------------------------------------------------------
 Cartesian Forces:  Max     0.000204469 RMS     0.000043703

 GradGradGradGradGradGradGradGradGradGradGradGradGradGradGradGradGradGrad
 Berny optimization.
 FormGI is forming the generalized inverse of G from B-inverse, IUseBI=4.
 Internal  Forces:  Max     0.000115043 RMS     0.000021638
 Search for a local minimum.
 Step number   1 out of a maximum of  136
 All quantities printed in internal units (Hartrees-Bohrs-Radians)
 Mixed Optimization -- En-DIIS/RFO-DIIS
 Second derivative matrix not updated -- first step.
 ITU=  0
     Eigenvalues ---    0.00230   0.01031   0.01057   0.01057   0.01395
     Eigenvalues ---    0.01727   0.01796   0.01870   0.01946   0.01971
     Eigenvalues ---    0.02044   0.02047   0.02051   0.02066   0.02097
     Eigenvalues ---    0.02098   0.02109   0.02111   0.02120   0.02137
     Eigenvalues ---    0.02141   0.02142   0.02160   0.03786   0.04501
     Eigenvalues ---    0.16000   0.16000   0.16000   0.16000   0.16000
     Eigenvalues ---    0.16000   0.16000   0.16000   0.16000   0.16000
     Eigenvalues ---    0.22000   0.22000   0.22000   0.22000   0.22963
     Eigenvalues ---    0.23473   0.24000   0.25000   0.25000   0.25000
     Eigenvalues ---    0.32372   0.34800   0.35001   0.35179   0.35179
     Eigenvalues ---    0.35190   0.35262   0.35265   0.35266   0.35292
     Eigenvalues ---    0.35308   0.40481   0.40831   0.41393   0.41492
     Eigenvalues ---    0.41764   0.42144   0.44153   0.44223   0.44567
     Eigenvalues ---    0.44989   0.45880   0.45985   0.46675   0.47553
     Eigenvalues ---    0.95552   0.96434
 RFO step:  Lambda=-4.73362259D-07 EMin= 2.30000000D-03
 Linear search not attempted -- first point.
 Iteration  1 RMS(Cart)=  0.00094729 RMS(Int)=  0.00000084
 Iteration  2 RMS(Cart)=  0.00000139 RMS(Int)=  0.00000043
 Iteration  3 RMS(Cart)=  0.00000000 RMS(Int)=  0.00000043
 Variable       Old X    -DE/DX   Delta X   Delta X   Delta X     New X
                                 (Linear)    (Quad)   (Total)
    R1        2.63379   0.00002   0.00000   0.00004   0.00004   2.63383
    R2        2.64422  -0.00001   0.00000  -0.00002  -0.00002   2.64420
    R3        2.05385   0.00000   0.00000   0.00000   0.00000   2.05385
    R4        2.66596  -0.00002   0.00000  -0.00004  -0.00004   2.66593
    R5        2.05245  -0.00002   0.00000  -0.00005  -0.00005   2.05240
    R6        2.66587   0.00002   0.00000   0.00004   0.00004   2.66590
    R7        2.69224  -0.00009   0.00000  -0.00021  -0.00021   2.69203
    R8        2.63376   0.00004   0.00000   0.00009   0.00009   2.63386
    R9        2.05247  -0.00001   0.00000  -0.00002  -0.00002   2.05244
   R10        2.64423  -0.00001   0.00000  -0.00002  -0.00002   2.64421
   R11        2.05386   0.00000   0.00000   0.00001   0.00001   2.05386
   R12        2.05367   0.00001   0.00000   0.00003   0.00003   2.05370
   R13        2.30102   0.00012   0.00000   0.00012   0.00012   2.30114
   R14        2.68740  -0.00004   0.00000  -0.00009  -0.00009   2.68731
   R15        2.66727   0.00000   0.00000   0.00000   0.00000   2.66727
   R16        2.67511  -0.00001   0.00000  -0.00002  -0.00002   2.67509
   R17        2.62830   0.00000   0.00000  -0.00001  -0.00001   2.62830
   R18        2.05177  -0.00002   0.00000  -0.00006  -0.00006   2.05172
   R19        2.62110   0.00006   0.00000   0.00014   0.00014   2.62124
   R20        2.05203  -0.00001   0.00000  -0.00003  -0.00003   2.05201
   R21        2.65276  -0.00002   0.00000  -0.00006  -0.00006   2.65270
   R22        2.05673   0.00000   0.00000  -0.00001  -0.00001   2.05672
   R23        2.65770  -0.00003   0.00000  -0.00006  -0.00006   2.65764
   R24        2.05252  -0.00001   0.00000  -0.00004  -0.00004   2.05248
   R25        2.79302   0.00002   0.00000   0.00004   0.00004   2.79306
   R26        2.30475   0.00001   0.00000   0.00001   0.00001   2.30475
   R27        2.10168   0.00000   0.00000   0.00000   0.00000   2.10168
    A1        2.09960  -0.00002   0.00000  -0.00012  -0.00012   2.09947
    A2        2.08793   0.00002   0.00000   0.00009   0.00009   2.08802
    A3        2.09566   0.00001   0.00000   0.00003   0.00003   2.09569
    A4        2.09912   0.00001   0.00000   0.00002   0.00002   2.09914
    A5        2.10307  -0.00002   0.00000  -0.00011  -0.00011   2.10296
    A6        2.08100   0.00001   0.00000   0.00008   0.00008   2.08108
    A7        2.07753   0.00003   0.00000   0.00011   0.00011   2.07764
    A8        2.10264  -0.00003   0.00000  -0.00011  -0.00011   2.10253
    A9        2.10302   0.00000   0.00000  -0.00001  -0.00001   2.10301
   A10        2.09936  -0.00004   0.00000  -0.00015  -0.00015   2.09921
   A11        2.08097   0.00002   0.00000   0.00011   0.00011   2.08108
   A12        2.10286   0.00001   0.00000   0.00004   0.00004   2.10290
   A13        2.09938   0.00000   0.00000   0.00001   0.00001   2.09939
   A14        2.08808   0.00000   0.00000   0.00002   0.00002   2.08810
   A15        2.09572   0.00000   0.00000  -0.00003  -0.00003   2.09569
   A16        2.09139   0.00003   0.00000   0.00012   0.00012   2.09151
   A17        2.09586  -0.00001   0.00000  -0.00005  -0.00005   2.09582
   A18        2.09594  -0.00002   0.00000  -0.00007  -0.00007   2.09586
   A19        2.10370  -0.00006   0.00000  -0.00024  -0.00024   2.10346
   A20        2.10128   0.00003   0.00000   0.00013   0.00013   2.10141
   A21        2.07820   0.00003   0.00000   0.00011   0.00011   2.07831
   A22        2.09620   0.00001   0.00000   0.00003   0.00003   2.09623
   A23        2.08205   0.00001   0.00000   0.00009   0.00009   2.08214
   A24        2.10494  -0.00002   0.00000  -0.00012  -0.00012   2.10482
   A25        2.10216  -0.00004   0.00000  -0.00014  -0.00014   2.10203
   A26        2.07796   0.00003   0.00000   0.00014   0.00014   2.07810
   A27        2.10306   0.00001   0.00000   0.00000   0.00000   2.10306
   A28        2.10488  -0.00003   0.00000  -0.00015  -0.00015   2.10473
   A29        2.09042   0.00001   0.00000   0.00007   0.00007   2.09049
   A30        2.08789   0.00002   0.00000   0.00008   0.00008   2.08797
   A31        2.09921  -0.00001   0.00000  -0.00004  -0.00004   2.09917
   A32        2.11226   0.00001   0.00000   0.00007   0.00007   2.11233
   A33        2.07171   0.00000   0.00000  -0.00003  -0.00003   2.07169
   A34        2.08572   0.00005   0.00000   0.00018   0.00018   2.08591
   A35        2.09086   0.00000   0.00000   0.00000   0.00000   2.09085
   A36        2.10660  -0.00005   0.00000  -0.00018  -0.00018   2.10642
   A37        2.17867   0.00003   0.00000   0.00013   0.00012   2.17880
   A38        2.00628   0.00001   0.00000   0.00006   0.00006   2.00634
   A39        2.09823  -0.00003   0.00000  -0.00018  -0.00019   2.09804
   A40        3.14154  -0.00003   0.00000  -0.00070  -0.00070   3.14084
   A41        3.13900   0.00001   0.00000   0.00078   0.00078   3.13977
   A42        3.14116   0.00002   0.00000   0.00037   0.00037   3.14153
   A43        3.14231  -0.00003   0.00000  -0.00163  -0.00163   3.14068
    D1       -0.00003   0.00000   0.00000   0.00002   0.00002  -0.00001
    D2        3.14154   0.00000   0.00000   0.00006   0.00006  -3.14158
    D3        3.14158   0.00000   0.00000   0.00000   0.00000   3.14157
    D4       -0.00004   0.00000   0.00000   0.00004   0.00004   0.00000
    D5        0.00002   0.00000   0.00000  -0.00001  -0.00001   0.00001
    D6       -3.14157   0.00000   0.00000  -0.00002  -0.00002  -3.14159
    D7       -3.14159   0.00000   0.00000   0.00002   0.00002  -3.14157
    D8        0.00001   0.00000   0.00000   0.00000   0.00000   0.00001
    D9        0.00002   0.00000   0.00000  -0.00001  -0.00001   0.00001
   D10        3.14149   0.00000   0.00000   0.00013   0.00013  -3.14156
   D11       -3.14155   0.00000   0.00000  -0.00005  -0.00005   3.14158
   D12       -0.00008   0.00000   0.00000   0.00009   0.00009   0.00001
   D13        0.00000   0.00000   0.00000  -0.00001  -0.00001  -0.00001
   D14        3.14159   0.00000   0.00000   0.00002   0.00002  -3.14158
   D15       -3.14147   0.00000   0.00000  -0.00015  -0.00015   3.14156
   D16        0.00012   0.00000   0.00000  -0.00012  -0.00012   0.00000
   D17        3.14155   0.00000   0.00000  -0.00052  -0.00052   3.14103
   D18       -0.00017   0.00000   0.00000   0.00015   0.00015  -0.00002
   D19       -0.00015   0.00000   0.00000  -0.00006  -0.00006  -0.00020
   D20        3.14132   0.00000   0.00000   0.00061   0.00061  -3.14125
   D21       -0.00001   0.00000   0.00000   0.00002   0.00002   0.00001
   D22        3.14157   0.00000   0.00000   0.00003   0.00003  -3.14158
   D23        3.14159   0.00000   0.00000  -0.00001  -0.00001   3.14158
   D24       -0.00002   0.00000   0.00000   0.00000   0.00000  -0.00002
   D25        0.00000   0.00000   0.00000  -0.00001  -0.00001  -0.00001
   D26        3.14159   0.00000   0.00000   0.00000   0.00000   3.14159
   D27       -3.14158   0.00000   0.00000  -0.00002  -0.00002   3.14158
   D28        0.00001   0.00000   0.00000  -0.00001  -0.00001   0.00000
   D29       -3.14135   0.00000   0.00000  -0.00022  -0.00022  -3.14157
   D30        0.00027  -0.00001   0.00000  -0.00027  -0.00027   0.00000
   D31        0.00006   0.00000   0.00000   0.00000   0.00000   0.00006
   D32       -3.14150   0.00000   0.00000  -0.00005  -0.00005  -3.14155
   D33        3.14128   0.00001   0.00000   0.00034   0.00034  -3.14156
   D34       -0.00033   0.00001   0.00000   0.00032   0.00032  -0.00001
   D35       -0.00013   0.00000   0.00000   0.00012   0.00012  -0.00001
   D36        3.14144   0.00000   0.00000   0.00010   0.00010   3.14154
   D37        0.00009   0.00000   0.00000  -0.00019  -0.00019  -0.00009
   D38       -3.14152   0.00000   0.00000  -0.00008  -0.00008   3.14159
   D39       -3.14153   0.00000   0.00000  -0.00013  -0.00013   3.14152
   D40        0.00004   0.00000   0.00000  -0.00002  -0.00002   0.00002
   D41        0.00004   0.00000   0.00000  -0.00006  -0.00006  -0.00002
   D42       -3.14151   0.00000   0.00000  -0.00013  -0.00013   3.14155
   D43       -3.14153   0.00000   0.00000  -0.00004  -0.00004  -3.14156
   D44        0.00011   0.00000   0.00000  -0.00011  -0.00011   0.00000
   D45       -0.00018   0.00001   0.00000   0.00025   0.00025   0.00007
   D46        3.14128   0.00001   0.00000   0.00038   0.00038  -3.14153
   D47        3.14143   0.00000   0.00000   0.00014   0.00014   3.14157
   D48       -0.00029   0.00001   0.00000   0.00027   0.00027  -0.00002
   D49        0.00011   0.00000   0.00000  -0.00012  -0.00012  -0.00001
   D50       -3.14135  -0.00001   0.00000  -0.00026  -0.00026   3.14158
   D51       -3.14152   0.00000   0.00000  -0.00006  -0.00006  -3.14158
   D52        0.00021   0.00000   0.00000  -0.00019  -0.00019   0.00001
   D53        3.14070   0.00003   0.00000   0.00260   0.00260  -3.13989
   D54       -0.00033  -0.00002   0.00000  -0.00176  -0.00176  -0.00209
   D55       -0.00103   0.00003   0.00000   0.00274   0.00274   0.00171
   D56        3.14113  -0.00002   0.00000  -0.00162  -0.00162   3.13951
         Item               Value     Threshold  Converged?
 Maximum Force            0.000115     0.000450     YES
 RMS     Force            0.000022     0.000300     YES
 Maximum Displacement     0.005343     0.001800     NO 
 RMS     Displacement     0.000947     0.001200     YES
 Predicted change in Energy=-2.367076D-07
 GradGradGradGradGradGradGradGradGradGradGradGradGradGradGradGradGradGrad

                          Input orientation:                          
 ---------------------------------------------------------------------
 Center     Atomic      Atomic             Coordinates (Angstroms)
 Number     Number       Type             X           Y           Z
 ---------------------------------------------------------------------
      1          6           0        4.985303   -1.286632    0.000545
      2          6           0        3.592009   -1.250494   -0.000073
      3          6           0        2.912674   -0.014081   -0.000489
      4          6           0        3.663873    1.180019   -0.000284
      5          6           0        5.056886    1.133866    0.000336
      6          6           0        5.722165   -0.097120    0.000746
      7          1           0        5.498045   -2.244933    0.000878
      8          1           0        3.016850   -2.171780   -0.000219
      9          1           0        3.144139    2.133699   -0.000587
     10          1           0        5.625367    2.060197    0.000499
     11          1           0        6.808459   -0.129273    0.001226
     12          6           0        1.488727    0.027689   -0.001084
     13          6           0        0.271515    0.062479   -0.001532
     14          6           0       -1.150038    0.100522   -0.001008
     15          6           0       -1.834032    1.335174   -0.000741
     16          6           0       -1.898830   -1.100819   -0.000798
     17          6           0       -3.224601    1.362323   -0.000201
     18          1           0       -1.263260    2.258760   -0.000938
     19          6           0       -3.285456   -1.064561   -0.000324
     20          1           0       -1.372407   -2.050558   -0.001056
     21          6           0       -3.962453    0.168134   -0.000028
     22          1           0       -3.746555    2.317368    0.000008
     23          1           0       -3.869439   -1.980330   -0.000198
     24          6           0       -5.439652    0.217487    0.000462
     25          8           0       -6.169372   -0.759747    0.002352
     26          1           0       -5.874946    1.240921    0.002770
 ---------------------------------------------------------------------
                    Distance matrix (angstroms):
                    1          2          3          4          5
     1  C    0.000000
     2  C    1.393763   0.000000
     3  C    2.432113   1.410749   0.000000
     4  C    2.798311   2.431575   1.410736   0.000000
     5  C    2.421557   2.798399   2.432165   1.393777   0.000000
     6  C    1.399252   2.422362   2.810717   2.422323   1.399258
     7  H    1.086851   2.149856   3.414797   3.885162   3.407478
     8  H    2.158308   1.086083   2.160212   3.413678   3.884462
     9  H    3.884398   3.413700   2.160216   1.086107   2.158302
    10  H    3.407484   3.885256   3.414869   2.149923   1.086857
    11  H    2.159486   3.406272   3.897488   3.406269   2.159521
    12  C    3.735436   2.461208   1.424560   2.461530   3.735691
    13  C    4.903050   3.570655   2.642269   3.571694   4.903841
    14  C    6.290199   4.930745   4.064328   4.933463   6.292353
    15  C    7.305970   6.010624   4.934745   5.500094   6.893858
    16  C    6.886640   5.492878   4.932704   6.012145   7.305874
    17  C    8.626673   7.300205   6.289725   6.890887   8.284638
    18  H    7.184312   5.990701   4.754391   5.043840   6.419473
    19  C    8.273740   6.879978   6.286520   7.302830   8.627153
    20  H    6.403442   5.028472   4.744383   5.983373   7.174704
    21  C    9.065246   7.686508   6.877542   7.693164   9.070894
    22  H    9.446383   8.159911   7.055565   7.497200   8.882638
    23  H    8.881873   7.497057   7.061387   8.169369   9.453967
    24  C   10.532904   9.150184   8.355536   9.154270  10.536464
    25  O   11.167111   9.773709   9.112606  10.022745  11.384843
    26  H   11.150494   9.789299   8.876785   9.539014  10.932356
                    6          7          8          9         10
     6  C    0.000000
     7  H    2.159475   0.000000
     8  H    3.409244   2.482273   0.000000
     9  H    3.409218   4.971246   4.307360   0.000000
    10  H    2.159487   4.307012   4.971316   2.482316   0.000000
    11  H    1.086770   2.488614   4.306754   4.306772   2.488672
    12  C    4.235277   4.608627   2.678212   2.678744   4.609000
    13  C    5.452987   5.713210   3.539602   3.541458   5.714422
    14  C    6.875044   7.049692   4.746189   4.751185   7.053115
    15  C    7.690746   8.159443   5.985798   5.041808   7.494551
    16  C    7.686805   7.484835   5.030991   5.991130   8.161223
    17  C    9.065021   9.439113   7.172559   6.415285   8.877441
    18  H    7.371996   8.123945   6.160278   4.409173   6.891488
    19  C    9.059425   8.862458   6.398828   7.181126   9.442822
    20  H    7.358592   6.873201   4.390931   6.156882   8.115858
    21  C    9.688250   9.763397   7.361105   7.373405   9.772727
    22  H    9.771715  10.309084   8.117641   6.893142   9.375450
    23  H    9.774729   9.371220   6.888949   8.131144  10.318778
    24  C   11.166250  11.211455   8.787550   8.795075  11.217408
    25  O   11.909984  11.761564   9.294112   9.752616  12.127157
    26  H   11.674045  11.895213   9.524210   9.063165  11.529458
                   11         12         13         14         15
    11  H    0.000000
    12  C    5.322048   0.000000
    13  C    6.539757   1.217710   0.000000
    14  C    7.961814   2.639770   1.422061   0.000000
    15  C    8.765687   3.570749   2.460301   1.411458   0.000000
    16  C    8.761323   3.570584   2.462449   1.415595   2.436854
    17  C   10.143331   4.898644   3.729936   2.428159   1.390834
    18  H    8.417563   3.542755   2.679400   2.161206   1.085722
    19  C   10.137154   4.897534   3.731255   2.432577   2.804525
    20  H    8.403447   3.536270   2.677201   2.162544   3.417057
    21  C   10.775018   5.452989   4.235286   2.813228   2.427377
    22  H   10.834869   5.714089   4.607539   3.414134   2.149988
    23  H   10.837154   5.722069   4.617419   3.424191   3.890430
    24  C   12.253019   6.930979   5.713271   4.291209   3.774881
    25  O   12.993137   7.698477   6.493157   5.092523   4.814964
    26  H   12.757202   7.462950   6.258412   4.860584   4.042014
                   16         17         18         19         20
    16  C    0.000000
    17  C    2.797273   0.000000
    18  H    3.419169   2.156492   0.000000
    19  C    1.387101   2.427647   3.890211   0.000000
    20  H    1.085876   3.883089   4.310700   2.152196   0.000000
    21  C    2.422557   1.403750   3.414141   1.406365   3.410416
    22  H    3.885626   1.088368   2.483987   3.413217   4.971454
    23  H    2.157971   3.404283   4.976148   1.086125   2.498019
    24  C    3.778274   2.493412   4.648554   2.506832   4.656878
    25  O    4.284142   3.629719   5.760324   2.899980   4.967602
    26  H    4.614462   2.653125   4.722675   3.467090   5.577338
                   21         22         23         24         25
    21  C    0.000000
    22  H    2.160050   0.000000
    23  H    2.150476   4.299454   0.000000
    24  C    1.478024   2.697421   2.701105   0.000000
    25  O    2.394046   3.916463   2.603751   1.219623   0.000000
    26  H    2.192831   2.385119   3.794539   1.112162   2.022216
                   26
    26  H    0.000000
 Stoichiometry    C15H10O
 Framework group  C1[X(C15H10O)]
 Deg. of freedom    72
 Full point group                 C1      NOp   1
 Largest Abelian subgroup         C1      NOp   1
 Largest concise Abelian subgroup C1      NOp   1
                         Standard orientation:                         
 ---------------------------------------------------------------------
 Center     Atomic      Atomic             Coordinates (Angstroms)
 Number     Number       Type             X           Y           Z
 ---------------------------------------------------------------------
      1          6           0        4.985275   -1.286745    0.000597
      2          6           0        3.591982   -1.250575   -0.000021
      3          6           0        2.912676   -0.014147   -0.000437
      4          6           0        3.663902    1.179936   -0.000232
      5          6           0        5.056913    1.133752    0.000388
      6          6           0        5.722164   -0.097249    0.000798
      7          1           0        5.497996   -2.245057    0.000930
      8          1           0        3.016803   -2.171848   -0.000167
      9          1           0        3.144189    2.133627   -0.000535
     10          1           0        5.625415    2.060070    0.000551
     11          1           0        6.808458   -0.129428    0.001278
     12          6           0        1.488729    0.027655   -0.001031
     13          6           0        0.271518    0.062472   -0.001480
     14          6           0       -1.150034    0.100548   -0.000956
     15          6           0       -1.834000    1.335215   -0.000689
     16          6           0       -1.898853   -1.100776   -0.000746
     17          6           0       -3.224569    1.362396   -0.000148
     18          1           0       -1.263207    2.258788   -0.000886
     19          6           0       -3.285479   -1.064487   -0.000271
     20          1           0       -1.372452   -2.050527   -0.001004
     21          6           0       -3.962448    0.168224    0.000024
     22          1           0       -3.746501    2.317452    0.000060
     23          1           0       -3.869482   -1.980242   -0.000146
     24          6           0       -5.439646    0.217610    0.000515
     25          8           0       -6.169387   -0.759608    0.002405
     26          1           0       -5.874916    1.241054    0.002822
 ---------------------------------------------------------------------
 Rotational constants (GHZ):           2.6325440           0.1607041           0.1514584
 Standard basis: 6-31+G(d) (6D, 7F)
 There are   324 symmetry adapted cartesian basis functions of A   symmetry.
 There are   324 symmetry adapted basis functions of A   symmetry.
   324 basis functions,   552 primitive gaussians,   324 cartesian basis functions
    54 alpha electrons       54 beta electrons
       nuclear repulsion energy       851.4289628384 Hartrees.
 NAtoms=   26 NActive=   26 NUniq=   26 SFac= 1.00D+00 NAtFMM=   60 NAOKFM=F Big=F
 Integral buffers will be    131072 words long.
 Raffenetti 2 integral format.
 Two-electron integral symmetry is turned on.
 Nuclear repulsion after empirical dispersion term =      851.4115649095 Hartrees.
 One-electron integrals computed using PRISM.
 NBasis=   324 RedAO= T EigKep=  1.99D-06  NBF=   324
 NBsUse=   320 1.00D-06 EigRej=  5.22D-07 NBFU=   320
 Initial guess from the checkpoint file:  "MOLECULE_4.chk"
 B after Tr=     0.000000    0.000000    0.000000
         Rot=    1.000000    0.000074   -0.000022    0.000010 Ang=   0.01 deg.
 Requested convergence on RMS density matrix=1.00D-08 within 128 cycles.
 Requested convergence on MAX density matrix=1.00D-06.
 Requested convergence on             energy=1.00D-06.
 No special actions if energy rises.
 SCF Done:  E(RB3LYP) =  -652.830360072     A.U. after   10 cycles
            NFock= 10  Conv=0.99D-08     -V/T= 2.0099
 Calling FoFJK, ICntrl=      2127 FMM=F ISym2X=0 I1Cent= 0 IOpClX= 0 NMat=1 NMatS=1 NMatT=0.
 ***** Axes restored to original set *****
 -------------------------------------------------------------------
 Center     Atomic                   Forces (Hartrees/Bohr)
 Number     Number              X              Y              Z
 -------------------------------------------------------------------
      1        6           0.000008291   -0.000008718    0.000000535
      2        6          -0.000009420    0.000003415    0.000000959
      3        6          -0.000003776    0.000001874   -0.000010223
      4        6          -0.000003185    0.000005674    0.000001838
      5        6           0.000008836   -0.000004711   -0.000000363
      6        6          -0.000009597    0.000004870    0.000000339
      7        1          -0.000000322    0.000002580   -0.000000494
      8        1           0.000000016   -0.000000575   -0.000000751
      9        1           0.000002037   -0.000002721   -0.000001043
     10        1           0.000002093   -0.000001830   -0.000000081
     11        1           0.000002554    0.000002026    0.000000050
     12        6          -0.000000620   -0.000011486   -0.000006876
     13        6           0.000005052    0.000027764    0.000039113
     14        6          -0.000009297   -0.000044080   -0.000025241
     15        6           0.000007930    0.000005478    0.000011120
     16        6           0.000021527    0.000011057    0.000002238
     17        6          -0.000011056    0.000012462   -0.000012625
     18        1           0.000000380   -0.000000026    0.000001308
     19        6          -0.000024613    0.000002937   -0.000008864
     20        1          -0.000003202    0.000000790    0.000002049
     21        6           0.000022872   -0.000003857   -0.000121935
     22        1           0.000000433   -0.000002861   -0.000001891
     23        1          -0.000001637    0.000002380    0.000000617
     24        6          -0.000002314   -0.000001854    0.000431178
     25        8          -0.000001593   -0.000002707   -0.000151160
     26        1          -0.000001389    0.000002119   -0.000149794
 -------------------------------------------------------------------
 Cartesian Forces:  Max     0.000431178 RMS     0.000057116

 GradGradGradGradGradGradGradGradGradGradGradGradGradGradGradGradGradGrad
 Berny optimization.
 Using GEDIIS/GDIIS optimizer.
 FormGI is forming the generalized inverse of G from B-inverse, IUseBI=4.
 Internal  Forces:  Max     0.000144944 RMS     0.000026156
 Search for a local minimum.
 Step number   2 out of a maximum of  136
 All quantities printed in internal units (Hartrees-Bohrs-Radians)
 Mixed Optimization -- En-DIIS/RFO-DIIS
 Swapping is turned off.
 Update second derivatives using D2CorX and points    1    2
 DE=  4.22D-07 DEPred=-2.37D-07 R=-1.78D+00
 Trust test=-1.78D+00 RLast= 5.11D-03 DXMaxT set to 1.50D-01
 ITU= -1  0
     Eigenvalues ---    0.00230   0.00978   0.01046   0.01390   0.01666
     Eigenvalues ---    0.01739   0.01824   0.01938   0.01970   0.02038
     Eigenvalues ---    0.02046   0.02047   0.02066   0.02093   0.02098
     Eigenvalues ---    0.02108   0.02111   0.02120   0.02137   0.02138
     Eigenvalues ---    0.02142   0.02157   0.03632   0.04300   0.06957
     Eigenvalues ---    0.15254   0.16000   0.16000   0.16000   0.16000
     Eigenvalues ---    0.16000   0.16000   0.16000   0.16000   0.16006
     Eigenvalues ---    0.19827   0.22000   0.22000   0.22004   0.22738
     Eigenvalues ---    0.23043   0.23651   0.24664   0.25000   0.25002
     Eigenvalues ---    0.32372   0.34726   0.34994   0.35094   0.35179
     Eigenvalues ---    0.35180   0.35205   0.35263   0.35266   0.35287
     Eigenvalues ---    0.35299   0.40029   0.40601   0.40843   0.41409
     Eigenvalues ---    0.41518   0.42098   0.43995   0.44177   0.44562
     Eigenvalues ---    0.44981   0.45733   0.45980   0.46466   0.47342
     Eigenvalues ---    0.94623   0.95563
 En-DIIS/RFO-DIIS/Sim-DIIS IScMMF=       -3 using points:     2    1
 RFO step:  Lambda=-1.26393571D-06.
 DidBck=T Rises=T En-DIIS coefs:    0.38212    0.61788
 Iteration  1 RMS(Cart)=  0.00054691 RMS(Int)=  0.00000070
 Iteration  2 RMS(Cart)=  0.00000074 RMS(Int)=  0.00000018
 Variable       Old X    -DE/DX   Delta X   Delta X   Delta X     New X
                                 (Linear)    (Quad)   (Total)
    R1        2.63383   0.00001  -0.00002   0.00005   0.00003   2.63386
    R2        2.64420   0.00000   0.00001  -0.00002  -0.00001   2.64419
    R3        2.05385   0.00000   0.00000   0.00000   0.00000   2.05385
    R4        2.66593   0.00000   0.00002  -0.00004  -0.00002   2.66591
    R5        2.05240   0.00000   0.00003  -0.00007  -0.00003   2.05236
    R6        2.66590   0.00000  -0.00002   0.00005   0.00003   2.66593
    R7        2.69203   0.00000   0.00013  -0.00027  -0.00013   2.69189
    R8        2.63386   0.00001  -0.00006   0.00012   0.00006   2.63392
    R9        2.05244   0.00000   0.00001  -0.00003  -0.00002   2.05243
   R10        2.64421  -0.00001   0.00001  -0.00003  -0.00002   2.64420
   R11        2.05386   0.00000   0.00000   0.00001   0.00000   2.05387
   R12        2.05370   0.00000  -0.00002   0.00004   0.00002   2.05372
   R13        2.30114   0.00000  -0.00007   0.00015   0.00007   2.30121
   R14        2.68731   0.00000   0.00006  -0.00011  -0.00006   2.68725
   R15        2.66727   0.00001   0.00000   0.00000   0.00000   2.66727
   R16        2.67509  -0.00001   0.00001  -0.00004  -0.00002   2.67507
   R17        2.62830   0.00000   0.00001  -0.00001   0.00000   2.62829
   R18        2.05172   0.00000   0.00003  -0.00007  -0.00003   2.05168
   R19        2.62124   0.00001  -0.00008   0.00018   0.00009   2.62133
   R20        2.05201   0.00000   0.00002  -0.00003  -0.00002   2.05199
   R21        2.65270   0.00000   0.00003  -0.00007  -0.00003   2.65267
   R22        2.05672   0.00000   0.00001  -0.00002  -0.00001   2.05671
   R23        2.65764  -0.00001   0.00004  -0.00008  -0.00004   2.65760
   R24        2.05248   0.00000   0.00002  -0.00005  -0.00002   2.05245
   R25        2.79306   0.00001  -0.00003   0.00006   0.00003   2.79309
   R26        2.30475   0.00000   0.00000   0.00001   0.00001   2.30476
   R27        2.10168   0.00000   0.00000   0.00000   0.00000   2.10168
[...]
 00009045,0.00000211,0.00000001,-0.00008688,0.00017541,-0.00000001,0.00
 053012,0.00030366,-0.00000008,0.00003880,-0.00030245,0.,0.00013802,0.0
 0005030,0.,-0.00008038,0.00002121,0.,0.00001713,-0.00000332,0.,-0.0000
 3399,0.00003264,0.,-0.00000325,0.00000584,0.,0.00003289,0.00000265,0.,
 0.00000907,0.00000402,0.,-0.00056688,0.00009697,0.00000021,0.00447946,
 -0.00520365,-0.00000023,0.02867146,0.02847980,0.00000078,0.03347872,-0
 .12879900,0.00000010,-0.02520645,-0.01341355,-0.00000045,-0.03281542,0
 .70714304,0.00000002,0.,-0.00004287,0.,0.,0.00002423,0.00000002,-0.000
 00002,-0.00046623,-0.00000001,-0.00000003,-0.00025046,0.00000001,0.000
 00003,0.00021895,0.,0.,-0.00003795,0.,0.,-0.00000598,0.,0.,0.00001764,
 0.,0.,-0.00004751,0.,0.,0.00000979,0.,0.,-0.00000191,-0.00000017,-0.00
 000003,0.00049090,0.00000023,0.,0.00630780,-0.00000013,0.00000114,0.00
 429869,-0.00000416,-0.00000087,-0.05997758,-0.00000080,-0.00000028,-0.
 00435845,0.00000672,0.00000484,0.13613194,0.00000867,-0.00002570,0.,0.
 00007154,0.00002827,0.,-0.00010664,-0.00003688,0.00000003,0.00002872,0
 .00003993,0.,0.00000316,-0.00001072,0.,0.00001463,-0.00000038,0.,0.000
 01263,-0.00000578,0.,-0.00000846,0.00000270,0.,-0.00003388,-0.00002529
 ,0.,0.00001024,0.00000549,0.,0.00000915,-0.00000349,0.,0.00001094,-0.0
 0014711,-0.00000009,0.00107744,0.00094388,0.00000013,0.01066883,0.0151
 3171,0.00000019,-0.13713017,-0.12776725,-0.00000195,-0.00146115,0.0028
 9216,-0.00000009,-0.01169662,-0.02828457,-0.00000033,0.14339422,-0.000
 00664,0.00003300,0.,-0.00005238,-0.00004826,0.,0.00005424,-0.00001640,
 0.,0.00000265,-0.00003574,-0.00000001,0.00000133,0.00000641,0.,0.00000
 078,-0.00000140,0.,-0.00001174,0.00000405,0.,0.00000416,0.00000180,0.,
 0.00002773,0.00003837,0.,-0.00000721,-0.00000239,0.,-0.00000728,0.0000
 0384,0.,0.00070574,0.00021229,-0.00000005,-0.00097799,0.00046973,0.000
 00008,-0.01623575,-0.01904368,-0.00000034,-0.12593606,-0.26533492,-0.0
 0000278,0.00411091,-0.00283085,0.00000002,0.00270563,0.00546326,0.0000
 0005,0.13495413,0.27944830,0.,0.,0.00000825,0.,0.,-0.00002772,0.000000
 01,0.,0.00017769,0.,0.,0.00001938,0.,0.,-0.00004540,0.,0.,0.00000761,0
 .,0.,0.00000392,0.,0.,0.00000399,0.,0.,0.00004453,0.,0.,0.00000415,0.,
 0.,0.00000104,0.00000004,0.00000001,-0.00001388,-0.00000003,0.,-0.0035
 6911,0.00000002,0.00000007,0.00334254,-0.00000176,-0.00000267,-0.03613
 926,-0.00000007,-0.00000003,0.00598553,-0.00000035,-0.00000048,0.00306
 805,0.00000222,0.00000301,0.02498119,0.00030364,0.00028164,-0.00000007
 ,-0.00040083,0.00056114,0.00000007,0.00157471,0.00002243,0.,-0.0003091
 9,-0.00055981,0.00000005,0.00021025,-0.00025247,-0.00000002,0.00007218
 ,-0.00004359,0.00000002,0.00003096,-0.00003327,0.,-0.00001579,-0.00001
 314,0.,-0.00001100,0.00002081,0.,0.00003310,0.00003080,0.,0.00002885,-
 0.00000079,0.,-0.00503776,0.00085920,0.,0.00978253,-0.00264563,-0.0000
 0012,-0.03528225,-0.06791178,-0.00000083,-0.04421032,0.02368975,-0.000
 00048,-0.36019935,0.03775373,-0.00000402,0.05771176,0.01541920,0.00000
 065,-0.00048880,0.00079062,0.00000003,0.71538376,-0.00015803,0.0000285
 5,-0.00000001,-0.00004874,-0.00035737,0.00000002,-0.00059909,0.0003496
 1,0.00000007,0.00010822,0.00022687,0.,-0.00010491,0.00003556,0.,0.0000
 5665,0.00001949,0.,-0.00003898,0.00000975,0.,0.00000671,0.00000642,0.,
 0.00003823,0.00002836,0.,-0.00002308,-0.00000684,0.,-0.00001299,0.0000
 0467,0.,0.00088017,0.00001887,-0.00000013,-0.00551648,-0.00498882,0.,-
 0.02582225,0.03469190,-0.00000022,0.02804140,-0.01578154,0.00000039,-0
 .02432053,-0.13109238,-0.00000056,-0.02200603,-0.05421975,-0.00000067,
 0.00077259,0.00011574,0.,0.04310876,0.70248284,0.00000001,0.,0.0002325
 5,-0.00000004,-0.00000001,-0.00024455,0.00000002,0.00000002,-0.0005402
 8,0.,0.,0.00001731,0.,-0.00000002,-0.00002675,0.,0.,-0.00004947,0.,0.,
 0.00000971,0.00000001,0.,-0.00004489,0.,0.,0.00001748,0.,0.,-0.0000054
 6,0.,0.,-0.00000118,-0.00000014,0.00000007,0.00066513,0.00000012,-0.00
 000020,0.00580899,-0.00000072,-0.00000059,0.00431277,-0.00000036,0.000
 00029,-0.00386046,-0.00000442,0.00000006,-0.06000562,0.00000057,-0.000
 00013,0.00591423,0.00000001,0.00000002,-0.00062114,0.00000898,0.000004
 05,0.13791399,0.00000393,0.00001062,0.,0.00002563,-0.00004227,0.000000
 01,-0.00010518,0.00004060,0.00000003,0.00007141,-0.00003461,0.,0.00001
 096,0.00002644,-0.00000001,0.00001423,-0.00000074,0.,0.00001036,-0.000
 00610,0.,-0.00003371,0.00002884,0.,-0.00000864,-0.00000195,0.,0.000013
 41,0.00000518,0.,0.00000962,0.00000307,0.,-0.00002159,0.00016840,-0.00
 000007,0.00108836,-0.00099416,0.00000010,0.01052573,-0.01669429,0.0000
 0010,-0.00178541,-0.00297851,-0.00000013,-0.12513267,0.12098296,-0.000
 00143,-0.00064587,-0.00077664,0.,0.00060718,-0.00086016,-0.00000002,-0
 .01058246,0.02900493,-0.00000017,0.13088612,-0.00000113,0.00000552,0.,
 -0.00000643,-0.00003524,0.00000001,-0.00005331,-0.00001506,0.,0.000047
 05,-0.00004906,0.,0.00000775,0.00003216,0.,-0.00000211,-0.00000135,0.,
 0.00000672,-0.00000246,0.,-0.00002439,0.00003937,0.,-0.00000379,0.0000
 0208,0.,0.00001137,0.00000307,0.,0.00000707,0.00000325,0.,-0.00069045,
 0.00025705,0.00000005,0.00095332,0.00042933,-0.00000006,0.01465247,-0.
 01905740,0.00000018,-0.00413069,-0.00248935,-0.00000005,0.11901017,-0.
 27695997,0.00000192,-0.00075797,0.00026015,-0.00000002,0.00076842,-0.0
 0097588,0.,-0.00170084,0.00425716,-0.00000002,-0.12771334,0.29182617,0
 .,0.,-0.00004286,0.,0.,0.00001560,0.00000001,0.,0.00016236,0.,0.,-0.00
 002560,0.,0.,0.00000748,0.,0.,0.00000788,0.,0.,0.00000430,0.,0.,0.0000
 4415,0.,0.,0.00000388,0.,0.,0.00000381,0.,0.,0.00000098,0.00000003,-0.
 00000001,-0.00002047,0.00000001,0.00000004,-0.00333222,0.00000015,-0.0
 0000046,0.00328432,-0.00000013,-0.00000011,0.00573619,-0.00000160,0.00
 000223,-0.03704303,0.,0.,-0.00052457,0.,-0.00000002,0.00033213,-0.0000
 0012,0.00000035,0.00366016,0.00000170,-0.00000202,0.02531393,-0.000280
 67,-0.00052088,0.00000005,0.00001849,-0.00087875,-0.00000004,-0.000922
 06,0.00002293,0.00000016,0.00008011,0.00087483,-0.00000005,-0.00025603
 ,0.00054215,-0.00000003,-0.00052170,0.00000967,0.00000003,-0.00011971,
 0.00011149,0.,0.00009575,-0.00000887,0.,0.00009675,0.00000218,0.,-0.00
 012596,-0.00010450,0.,-0.00010447,0.00000272,0.,0.00539366,-0.00014417
 ,-0.00000057,-0.00963375,0.00027144,0.00000062,0.00863550,-0.00124494,
 -0.00000008,-0.03477237,-0.02383404,-0.00000077,-0.03144022,0.02681316
 ,-0.00000046,-0.16779714,-0.10652638,-0.00000157,-0.00530961,0.0008494
 6,-0.00000017,-0.15445801,0.09538531,-0.00000092,-0.00549981,-0.000550
 16,-0.00000016,0.62937560,0.00007102,0.00010353,0.,-0.00002279,0.00012
 519,0.,0.00003993,0.00002178,0.,0.00006687,-0.00012818,0.,-0.00002004,
 -0.00007134,0.00000002,0.00010709,-0.00004786,0.,0.00002050,-0.0000179
 5,0.,-0.00001448,-0.00000097,0.,-0.00001430,0.00000025,0.,0.00002063,0
 .00001926,0.,0.00001721,0.00000004,0.,-0.00051403,0.00072592,0.0000000
 7,0.00111138,-0.00097723,-0.00000004,-0.00181306,-0.05863550,-0.000000
 35,-0.06626923,0.03024657,-0.00000098,0.06986164,0.02740223,0.00000098
 ,-0.05801777,-0.27224601,-0.00000201,0.00231399,0.00149317,0.00000005,
 0.04910705,-0.27426966,-0.00000039,-0.00157951,0.00160285,-0.00000006,
 0.00554534,0.69656121,0.,-0.00000001,0.00002018,0.,-0.00000001,0.00006
 950,0.,0.,-0.00034848,0.,0.00000002,0.00007494,0.,0.00000001,0.0000154
 4,0.,0.,-0.00000940,0.,0.,-0.00000072,0.,0.,-0.00000454,0.,0.,-0.00000
 034,0.,0.,-0.00000511,0.,0.,0.00000659,0.00000008,-0.00000003,0.000413
 66,-0.00000013,0.00000003,-0.00118327,0.00000015,-0.00000036,-0.005830
 05,-0.00000102,-0.00000033,0.00766168,-0.00000006,0.00000056,0.0069347
 4,-0.00000146,-0.00000260,-0.06145320,-0.00000018,-0.00000002,0.007404
 84,-0.00000121,0.00000016,-0.06379740,-0.00000025,0.00000002,0.0079640
 9,0.00000808,0.00000427,0.13381976,-0.00000216,-0.00000124,0.,-0.00005
 152,-0.00002643,0.,0.00012756,-0.00009463,0.00000001,-0.00009579,0.000
 05648,0.,-0.00000261,-0.00001525,0.,-0.00002937,0.00000206,0.,-0.00001
 122,0.00000532,0.,0.00001319,-0.00001143,0.,0.00001106,0.00000467,0.,-
 0.00001825,-0.00000566,0.,-0.00000706,-0.00000038,0.,-0.00037116,-0.00
 003102,-0.00000003,-0.00030030,0.00135912,0.00000002,-0.00510346,-0.00
 142246,-0.00000017,-0.01046431,0.02961571,0.00000010,-0.00060665,-0.00
 062700,-0.00000003,-0.12294290,0.11357221,0.00000049,0.00067109,-0.000
 34711,0.00000005,-0.00184143,-0.00291791,-0.00000009,0.00005687,0.0000
 8596,0.00000001,0.01295297,-0.01289658,-0.00000003,0.12761568,0.000000
 76,0.00000904,0.,0.00001530,0.00000827,0.,-0.00002900,-0.00001012,0.,0
 .00001294,-0.00001451,0.,0.00000267,-0.00000713,0.,0.00001788,-0.00000
 042,0.,0.00000399,-0.00000360,0.,-0.00000491,0.00000293,0.,-0.00000503
 ,-0.00000133,0.,0.00000477,0.00000366,0.,0.00000416,-0.00000012,0.,-0.
 00007546,-0.00003619,0.00000001,0.00004481,0.00007923,-0.00000002,-0.0
 0092912,0.00179041,-0.00000011,-0.00161909,0.00360661,-0.00000002,-0.0
 0069466,0.00023488,0.,0.11518039,-0.27255368,-0.00000162,0.00026046,0.
 00084516,0.00000007,-0.00428525,-0.00291967,-0.00000017,0.00011156,-0.
 00000620,0.00000001,0.01360643,-0.01993052,-0.00000008,-0.12391539,0.2
 8914327,0.,0.,0.00000134,0.,0.,-0.00002455,0.,0.,0.00000732,0.,0.,0.00
 001671,0.,0.,-0.00001027,0.,0.,0.00000051,0.,0.,0.00000226,0.,0.,0.000
 00239,0.,0.,0.00000794,0.,0.,0.00000099,0.,0.,0.00000160,0.,0.,-0.0001
 3945,-0.00000002,0.00000003,0.00011901,-0.00000022,-0.00000004,0.00744
 215,-0.00000032,0.00000049,0.00385506,-0.00000002,-0.00000002,-0.00068
 288,0.00000072,-0.00000200,-0.03724042,0.00000007,0.00000002,-0.004169
 69,-0.00000009,-0.00000009,0.00597993,0.00000002,0.,-0.00104354,0.0000
 0016,-0.00000014,0.00305239,-0.00000037,0.00000181,0.02565785,-0.00000
 160,0.00001825,0.,-0.00007966,-0.00004331,0.,0.00009611,0.00007903,0.,
 -0.00003550,0.00002130,0.,-0.00000228,-0.00000146,0.,-0.00001867,-0.00
 000068,0.,-0.00001370,0.00000384,0.,0.00000570,-0.00000213,0.,0.000009
 46,0.00000771,0.,-0.00000787,-0.00000226,0.,-0.00000374,0.00000076,0.,
 -0.00031335,0.00003829,0.00000004,-0.00036045,-0.00118544,-0.00000004,
 -0.00462546,0.00155113,-0.00000018,-0.00055125,0.00076028,0.,-0.011351
 65,-0.02704117,-0.00000042,-0.00165958,0.00290957,-0.00000008,0.000053
 10,-0.00008007,0.00000002,-0.13997869,-0.12784928,-0.00000237,0.000741
 24,0.00030050,0.00000009,0.01395521,0.01225456,0.00000021,0.00039503,0
 .00099057,0.,0.14435820,-0.00000236,-0.00000304,0.,0.00000870,0.000001
 12,0.,-0.00000850,-0.00002331,-0.00000002,0.00000072,-0.00000244,0.,0.
 00000048,0.00000290,0.,-0.00000308,0.00000014,0.,0.00000075,0.00000061
 ,0.,0.00000022,0.00000116,0.,0.00000019,-0.00000062,0.,-0.00000004,-0.
 00000070,0.,-0.00000062,-0.00000005,0.,0.00011781,-0.00003324,0.000000
 04,0.00001423,0.00023549,-0.00000003,0.00152336,0.00132835,-0.00000004
 ,0.00058300,0.00022204,0.00000002,0.00299773,0.00634214,0.00000007,0.0
 0403997,-0.00304739,-0.00000003,-0.00010403,0.00001885,0.,-0.12753125,
 -0.26300074,-0.00000354,-0.00028522,0.00078248,0.00000004,-0.01484033,
 -0.02019084,-0.00000034,-0.00087724,-0.00098062,-0.00000002,0.13701733
 ,0.27790016,0.,0.,-0.00001705,0.,0.,0.00002733,-0.00000001,0.,0.000025
 84,0.,0.,-0.00002807,0.,0.,0.00000310,0.,0.,0.00000129,0.,0.,0.0000006
 3,0.,0.,0.00000907,0.,0.,0.00000163,0.,0.,0.00000235,0.,0.,0.00000183,
 0.00000002,0.,-0.00020942,-0.00000003,-0.00000001,0.00008849,-0.000000
 14,-0.00000006,0.00793053,-0.00000002,0.00000005,-0.00079685,-0.000000
 07,-0.00000031,0.00443190,-0.00000011,0.,0.00594919,0.00000001,0.,-0.0
 0103711,-0.00000260,-0.00000357,-0.03970648,0.00000009,0.,-0.00449832,
 0.00000018,0.,0.00379383,0.,0.00000002,0.00050197,0.00000270,0.0000038
 9,0.02700915,0.00018532,0.00048834,-0.00000004,0.00024674,0.00074261,0
 .00000002,0.00001363,0.00000283,0.00000003,0.00018977,-0.00074733,0.00
 000003,0.00016594,-0.00050469,0.00000003,0.00063513,-0.00001341,-0.000
 00004,0.00014666,-0.00013182,0.,-0.00013032,0.00004419,0.,-0.00013277,
 -0.00003873,0.,0.00015069,0.00012238,-0.00000001,0.00013282,-0.0000039
 9,0.,-0.00304115,0.00008852,0.00000014,0.00606725,-0.00019981,-0.00000
 027,-0.00608904,-0.00030422,0.00000014,0.00764009,-0.00391479,0.000000
 07,0.00864095,0.00465622,0.,-0.02784396,-0.01694184,-0.00000091,0.0007
 1967,0.00038708,0.,-0.03025377,0.01965587,-0.00000035,0.00047393,-0.00
 038257,0.,-0.19593004,0.01972504,-0.00000180,0.00002297,0.00361139,0.0
 0000015,0.00012295,-0.00288597,0.00000001,0.65730413,0.00007830,0.0000
 8564,0.,-0.00006703,0.00018363,-0.00000002,0.00038621,0.00000333,0.000
 00002,-0.00008916,-0.00016554,0.,0.00008544,-0.00008352,0.,0.00003493,
 -0.00000029,0.,0.00002226,-0.00001918,0.,-0.00002147,0.,0.,-0.00000933
 ,-0.00000315,0.,0.00001275,0.00001121,0.,0.00001592,-0.00000076,0.,-0.
 00130274,0.00010105,0.00000007,0.00220841,-0.00009779,-0.00000007,-0.0
 0275902,-0.00462066,-0.00000009,-0.00371633,-0.00592184,-0.00000007,0.
 00772360,-0.00536414,0.00000018,-0.03531521,0.00100180,-0.00000061,-0.
 00155670,0.00017575,-0.00000002,0.02627663,0.01218037,0.00000044,0.001
 96310,-0.00002764,0.00000002,0.04953079,-0.11371848,0.00000037,-0.0033
 9968,-0.00054484,-0.00000004,0.00100711,-0.00236691,-0.00000002,0.1642
 6539,0.84790511,0.,0.00000001,-0.00002247,0.,0.00000002,0.00000605,0.,
 0.,0.00017160,0.,-0.00000002,0.00002488,0.,-0.00000001,-0.00003375,0.0
 0000001,0.,0.00001711,0.,0.,0.00000238,0.,0.,0.00000353,0.,0.,0.000004
 52,0.,0.,0.00000269,0.,0.,-0.00000287,-0.00000008,0.00000003,-0.000280
 98,0.00000015,-0.00000005,-0.00087555,-0.00000014,-0.00000002,-0.00085
 705,-0.00000002,-0.00000014,0.00783397,0.00000016,-0.00000006,0.006800
 03,-0.00000057,-0.00000030,-0.00008934,0.,0.,0.00054093,-0.00000038,0.
 00000051,0.00232315,0.00000005,0.,0.00024514,-0.00000155,-0.00000013,-
 0.07349014,-0.00000004,0.00000010,-0.00427200,0.00000006,-0.00000008,-
 0.00355239,0.00001346,0.00001937,0.18530424,-0.00008695,-0.00023519,0.
 00000002,-0.00015664,-0.00036819,0.,0.00008707,-0.00000500,-0.00000002
 ,-0.00011747,0.00036071,-0.00000001,-0.00008031,0.00025057,-0.00000002
 ,-0.00032370,0.00000475,0.00000002,-0.00007958,0.00007014,0.,0.0000733
 0,-0.00002783,0.,0.00007607,0.00002882,0.,-0.00007871,-0.00006438,0.,-
 0.00007222,0.00000240,0.,0.00131309,-0.00000163,-0.00000008,-0.0027647
 0,0.00011340,0.00000014,0.00253661,-0.00151935,-0.00000007,-0.00458220
 ,-0.00031124,-0.00000002,-0.00115012,-0.00216596,0.00000001,-0.0017938
 1,0.00955291,0.,-0.00103218,-0.00005441,0.,0.00390741,-0.00551239,-0.0
 0000003,-0.00016805,0.00016923,-0.00000002,-0.05289115,-0.04748869,-0.
 00000249,0.00054179,-0.00075449,-0.00000004,-0.00093444,0.00017501,-0.
 00000003,-0.30816166,-0.29147290,-0.00001241,0.34723690,-0.00010787,-0
 .00018377,0.00000001,-0.00002445,-0.00034840,0.,-0.00028069,-0.0000172
 8,-0.00000002,0.00001796,0.00031144,-0.00000001,-0.00010303,0.00020840
 ,0.,-0.00019884,0.00000153,0.00000001,-0.00005706,0.00004892,0.,0.0000
 4603,-0.00000604,0.,0.00004620,0.00001615,0.,-0.00004836,-0.00004122,0
 .,-0.00004654,0.00000169,0.,0.00173346,-0.00005540,-0.00000007,-0.0031
 6609,0.00037883,0.00000010,0.00337459,0.00076274,0.,-0.00196392,0.0021
 0477,0.,-0.00442159,0.00015971,-0.00000009,0.00551839,0.00613480,0.000
 00012,-0.00025519,-0.00006627,0.,0.00673037,-0.00910090,0.00000012,-0.
 00051496,0.00010636,-0.00000001,-0.04567445,0.00530334,-0.00000120,0.0
 0143125,0.00061180,0.,-0.00028165,0.00263836,0.00000002,-0.28391861,-0
 .51449806,-0.00001709,0.35008752,0.55399728,0.,0.,-0.00000072,0.,-0.00
 000001,0.00000478,0.,0.,-0.00000231,0.,0.00000001,-0.00001771,0.,0.,0.
 00001207,-0.00000001,0.,0.,0.,0.,-0.00000413,0.,0.,-0.00000544,0.,0.,-
 0.00000558,0.,0.,-0.00000184,0.,0.,-0.00000200,0.00000005,-0.00000001,
 0.00003335,-0.00000011,0.00000003,0.00023576,0.00000011,-0.00000003,-0
 .00010818,-0.00000009,0.,-0.00178410,-0.00000008,-0.00000003,-0.000613
 11,-0.00000012,0.00000033,0.00338545,-0.00000003,0.,-0.00034550,0.0000
 0020,-0.00000026,-0.00053114,-0.00000002,0.,0.00013807,-0.00000235,-0.
 00000136,0.01793656,0.00000005,-0.00000001,0.00076293,0.,0.00000005,-0
 .00015785,-0.00001224,-0.00001713,-0.06129714,0.00001539,0.00002038,0.
 02336106,0.00000336,-0.00001324,0.,-0.00002526,-0.00000073,0.,0.000073
 27,0.00000777,0.,-0.00003036,0.00001375,0.,0.00000230,0.00000715,0.,-0
 .00002636,0.00000132,0.,-0.00000491,0.00000438,0.,0.00000690,-0.000005
 62,0.,0.00000565,0.00000149,0.,-0.00000696,-0.00000487,0.,-0.00000524,
 -0.00000026,0.,-0.00006850,-0.00001461,0.00000002,0.00008102,-0.000092
 13,-0.00000001,0.00018225,-0.00016706,0.,0.00001720,-0.00061304,0.,0.0
 0008265,0.00201133,0.,0.00026961,0.00238269,0.00000004,-0.00009368,-0.
 00001767,0.,-0.00596949,-0.00212815,-0.00000012,-0.00055558,-0.0000028
 6,0.,-0.01054134,0.02838821,0.00000009,-0.00056003,-0.00155568,-0.0000
 0003,0.00020089,0.00005915,0.,-0.11127591,0.08609874,0.00000127,0.0187
 0166,-0.02792248,-0.00000073,0.10953687,0.00001002,0.00003498,-0.00000
 001,0.00003077,0.00003856,0.00000002,-0.00005469,-0.00000485,0.0000000
 1,0.00003394,-0.00005190,0.00000002,0.00000646,-0.00003104,0.,0.000052
 96,-0.00000204,0.,0.00000982,-0.00000973,0.,-0.00001103,0.00000710,0.,
 -0.00001120,-0.00000168,0.,0.00001410,0.00001060,0.,0.00001083,-0.0000
 0011,0.,-0.00008663,-0.00001350,-0.00000008,0.00022152,0.00012261,0.00
 000006,-0.00029836,0.00021994,0.00000003,0.00073551,0.00026338,0.00000
 001,-0.00015766,-0.00009897,-0.00000003,-0.00074818,0.00061114,0.00000
 002,0.00010936,0.00002608,0.,0.00032573,0.00128151,-0.00000002,0.00013
 677,0.00001261,0.00000001,0.00075957,-0.00337080,-0.00000046,0.0004566
 1,0.00067369,0.,-0.00047277,0.00017611,-0.00000002,0.09619792,-0.21421
 509,-0.00000214,-0.01083380,-0.04846878,-0.00000195,-0.08643759,0.2627
 9019,0.,0.,0.00000156,0.,0.,-0.00000985,0.,0.,-0.00000394,0.,0.,-0.000
 00219,0.,0.,-0.00000265,0.,0.,-0.00000105,0.,0.,0.00000067,0.,0.,0.000
 00262,0.,0.,0.00000284,0.,0.,0.00000040,0.,0.,0.00000101,0.00000001,0.
 ,0.00006762,0.,0.,-0.00011703,0.,0.00000003,0.00036476,0.00000003,-0.0
 0000001,-0.00043339,-0.00000004,0.00000001,-0.00085947,-0.00000004,0.0
 0000004,-0.00132038,0.,0.,0.00004301,-0.00000007,-0.00000003,0.0025794
 2,0.,0.,-0.00039385,-0.00000058,0.00000012,0.01695445,0.,-0.00000001,0
 .00017045,-0.00000002,0.,0.00022541,0.00000157,-0.00000239,-0.05850653
 ,-0.00000035,-0.00000228,0.01900673,-0.00000052,0.00000452,0.02222939\
 \0.00000113,0.00000016,-0.00000067,-0.00000326,0.00000061,0.00000052,-
 0.00000195,0.00000199,0.00000169,-0.00000061,0.00000215,0.00000062,0.0
 0000250,-0.00000004,-0.00000084,-0.00000130,0.00000170,0.00000064,0.00
 000015,0.00000050,-0.00000018,0.00000056,0.00000032,-0.00000026,0.0000
 0040,-0.00000024,-0.00000031,0.00000016,0.00000026,-0.00000013,0.00000
 030,0.00000041,0.00000004,0.00000431,-0.00000325,-0.00000279,-0.000004
 35,-0.00000904,0.00000255,0.00000236,0.00001327,-0.00000048,0.00000258
 ,-0.00000360,0.00000046,0.00000004,-0.00000440,-0.00000092,-0.00000377
 ,-0.00000088,-0.00000137,-0.00000121,0.00000013,-0.00000013,0.00000035
 ,-0.00000114,0.00000034,0.00000020,0.00000043,0.00000039,-0.00000007,0
 .00000237,0.00000069,-0.00000008,-0.00000022,0.00000048,0.00000010,-0.
 00000004,-0.00000012,0.00000267,0.,-0.00000034,-0.00000082,-0.00000119
 ,-0.00000008,-0.00000037,-0.00000027,0.00000020\\\@


 ADAM SMITH SAID, "THE REAL PRICE OF ANYTHING IS THE TOIL AND TROUBLE
 OF ACQUIRING IT."  BUT IN ALL UNDERTAKINGS WITH NATURE WE SHOULD FIRST
 READ CAREFULLY THE SMALL PRINT IN THE CONTRACT. THIS MIGHT DISCLOSE
 THAT THE REAL PRICE IS TO BE PAID BY THOSE WHO INHERIT THE DEPLETION
 AND DESPOILATION THAT FOLLOWS.
                               -- E. R. HARRISON IN "COSMOLOGY" (1980)
 Job cpu time:       0 days  1 hours 54 minutes 26.0 seconds.
 Elapsed time:       0 days  0 hours  3 minutes 48.9 seconds.
 File lengths (MBytes):  RWF=    283 Int=      0 D2E=      0 Chk=     10 Scr=      1
 Normal termination of Gaussian 16 at Sun Sep 17 15:12:47 2023.
