 Entering Gaussian System, Link 0=/home/ubuntu/g16/g16
 Input=/home/ubuntu/New/molecule_86.gjf
 Output=/home/ubuntu/New/molecule_86.log
 Initial command:
 /home/ubuntu/g16/l1.exe "/home/ubuntu/Scratch/Gau-86098.inp" -scrdir="/home/ubuntu/Scratch/"
 Entering Link 1 = /home/ubuntu/g16/l1.exe PID=     86100.
  
 Copyright (c) 1988-2017, Gaussian, Inc.  All Rights Reserved.
  
 This is part of the Gaussian(R) 16 program.  It is based on
 the Gaussian(R) 09 system (copyright 2009, Gaussian, Inc.),
 the Gaussian(R) 03 system (copyright 2003, Gaussian, Inc.),
 the Gaussian(R) 98 system (copyright 1998, Gaussian, Inc.),
 the Gaussian(R) 94 system (copyright 1995, Gaussian, Inc.),
 the Gaussian 92(TM) system (copyright 1992, Gaussian, Inc.),
 the Gaussian 90(TM) system (copyright 1990, Gaussian, Inc.),
 the Gaussian 88(TM) system (copyright 1988, Gaussian, Inc.),
 the Gaussian 86(TM) system (copyright 1986, Carnegie Mellon
 University), and the Gaussian 82(TM) system (copyright 1983,
 Carnegie Mellon University). Gaussian is a federally registered
 trademark of Gaussian, Inc.
  
 This software contains proprietary and confidential information,
 including trade secrets, belonging to Gaussian, Inc.
  
 This software is provided under written license and may be
 used, copied, transmitted, or stored only in accord with that
 written license.
  
 The following legend is applicable only to US Government
 contracts under FAR:
  
                    RESTRICTED RIGHTS LEGEND
  
 Use, reproduction and disclosure by the US Government is
 subject to restrictions as set forth in subparagraphs (a)
 and (c) of the Commercial Computer Software - Restricted
 Rights clause in FAR 52.227-19.
  
 Gaussian, Inc.
 340 Quinnipiac St., Bldg. 40, Wallingford CT 06492
  
  
 ---------------------------------------------------------------
 Warning -- This program may not be used in any manner that
 competes with the business of Gaussian, Inc. or will provide
 assistance to any competitor of Gaussian, Inc.  The licensee
 of this program is prohibited from giving any competitor of
 Gaussian, Inc. access to this program.  By using this program,
 the user acknowledges that Gaussian, Inc. is engaged in the
 business of creating and licensing software in the field of
 computational chemistry and represents and warrants to the
 licensee that it is not a competitor of Gaussian, Inc. and that
 it will not use this program in any manner prohibited above.
 ---------------------------------------------------------------
  

 Cite this work as:
 Gaussian 16, Revision B.01,
 M. J. Frisch, G. W. Trucks, H. B. Schlegel, G. E. Scuseria, 
 M. A. Robb, J. R. Cheeseman, G. Scalmani, V. Barone, 
 G. A. Petersson, H. Nakatsuji, X. Li, M. Caricato, A. V. Marenich, 
 J. Bloino, B. G. Janesko, R. Gomperts, B. Mennucci, H. P. Hratchian, 
 J. V. Ortiz, A. F. Izmaylov, J. L. Sonnenberg, D. Williams-Young, 
 F. Ding, F. Lipparini, F. Egidi, J. Goings, B. Peng, A. Petrone, 
 T. Henderson, D. Ranasinghe, V. G. Zakrzewski, J. Gao, N. Rega, 
 G. Zheng, W. Liang, M. Hada, M. Ehara, K. Toyota, R. Fukuda, 
 J. Hasegawa, M. Ishida, T. Nakajima, Y. Honda, O. Kitao, H. Nakai, 
 T. Vreven, K. Throssell, J. A. Montgomery, Jr., J. E. Peralta, 
 F. Ogliaro, M. J. Bearpark, J. J. Heyd, E. N. Brothers, K. N. Kudin, 
 V. N. Staroverov, T. A. Keith, R. Kobayashi, J. Normand, 
 K. Raghavachari, A. P. Rendell, J. C. Burant, S. S. Iyengar, 
 J. Tomasi, M. Cossi, J. M. Millam, M. Klene, C. Adamo, R. Cammi, 
 J. W. Ochterski, R. L. Martin, K. Morokuma, O. Farkas, 
 J. B. Foresman, and D. J. Fox, Gaussian, Inc., Wallingford CT, 2016.
 
 ******************************************
 Gaussian 16:  EM64L-G16RevB.01 20-Dec-2017
                18-Sep-2023 
 ******************************************
 %nprocshared=30
 Will use up to   30 processors via shared memory.
 %mem=30GB
 %chk=molecule_86.chk
 ---------------------------------------------------------
 # opt freq b3lyp/6-31+g(d) empiricaldispersion=gd3 volume
 ---------------------------------------------------------
 1/18=20,19=15,26=3,38=1/1,3;
 2/9=110,12=2,17=6,18=5,40=1/2;
 3/5=1,6=6,7=11,11=2,25=1,30=1,71=1,74=-5,124=31/1,2,3;
 4//1;
 5/5=2,38=5/2;
 6/7=2,8=2,9=2,10=2,28=1,44=1/1,4;
 7//1,2,3,16;
 1/18=20,19=15,26=3/3(2);
 2/9=110/2;
 99//99;
 2/9=110/2;
 3/5=1,6=6,7=11,11=2,25=1,30=1,71=1,74=-5,124=31/1,2,3;
 4/5=5,16=3,69=1/1;
 5/5=2,38=5/2;
 7//1,2,3,16;
 1/18=20,19=15,26=3/3(-5);
 2/9=110/2;
 6/7=2,8=2,9=2,10=2,19=2,28=1,44=1/1,4;
 99/9=1/99;
 -------------
 ML molecule86
 -------------
 Symbolic Z-matrix:
 Charge =  0 Multiplicity = 1
 C                    -4.74942  -0.23058  -0.40002 
 C                    -4.8202    0.23854  -1.71867 
 C                    -4.55025   1.58484  -1.99888 
 C                    -4.20951   2.46203  -0.96044 
 C                    -4.13873   1.99291   0.35822 
 C                    -4.40868   0.64661   0.63842 
 H                    -5.08036  -0.43121  -2.51155 
 H                    -4.35464   0.28843   1.64524 
 O                    -3.91049   3.9533   -1.27081 
 C                    -3.81752   4.69985  -2.77936 
 C                    -4.13168   3.88761  -3.87731 
 C                    -3.30395   5.98751  -2.98454 
 C                    -3.93225   4.36302  -5.18043 
 C                    -3.10452   6.46292  -4.28767 
 H                    -3.06408   6.60768  -2.14623 
 C                    -3.41867   5.65068  -5.38561 
 H                    -4.17211   3.74285  -6.01874 
 H                    -2.7124    7.44608  -4.44432 
 H                    -4.60429   1.94302  -3.0057 
 H                    -4.5238    2.90445  -3.72065 
 C                    -3.19953   6.17311  -6.81762 
 N                    -3.03445   6.56663  -7.89627 
 H                    -3.87857   2.66266   1.15109 
 Cl                   -5.08844  -1.92138  -0.04811 
 
 Add virtual bond connecting atoms H20        and H19        Dist= 2.27D+00.

 GradGradGradGradGradGradGradGradGradGradGradGradGradGradGradGradGradGrad
 Berny optimization.
 Initialization pass.
                           ----------------------------
                           !    Initial Parameters    !
                           ! (Angstroms and Degrees)  !
 --------------------------                            --------------------------
 ! Name  Definition              Value          Derivative Info.                !
 --------------------------------------------------------------------------------
 ! R1    R(1,2)                  1.4014         estimate D2E/DX2                !
 ! R2    R(1,6)                  1.4014         estimate D2E/DX2                !
 ! R3    R(1,24)                 1.76           estimate D2E/DX2                !
 ! R4    R(2,3)                  1.4014         estimate D2E/DX2                !
 ! R5    R(2,7)                  1.07           estimate D2E/DX2                !
 ! R6    R(3,4)                  1.4014         estimate D2E/DX2                !
 ! R7    R(3,19)                 1.07           estimate D2E/DX2                !
 ! R8    R(4,5)                  1.4014         estimate D2E/DX2                !
 ! R9    R(4,9)                  1.5523         estimate D2E/DX2                !
 ! R10   R(5,6)                  1.4014         estimate D2E/DX2                !
 ! R11   R(5,23)                 1.07           estimate D2E/DX2                !
 ! R12   R(6,8)                  1.07           estimate D2E/DX2                !
 ! R13   R(10,11)                1.4014         estimate D2E/DX2                !
 ! R14   R(10,12)                1.4014         estimate D2E/DX2                !
 ! R15   R(11,13)                1.4014         estimate D2E/DX2                !
 ! R16   R(11,20)                1.07           estimate D2E/DX2                !
 ! R17   R(12,14)                1.4014         estimate D2E/DX2                !
 ! R18   R(12,15)                1.07           estimate D2E/DX2                !
 ! R19   R(13,16)                1.4014         estimate D2E/DX2                !
 ! R20   R(13,17)                1.07           estimate D2E/DX2                !
 ! R21   R(14,16)                1.4014         estimate D2E/DX2                !
 ! R22   R(14,18)                1.07           estimate D2E/DX2                !
 ! R23   R(16,21)                1.54           estimate D2E/DX2                !
 ! R24   R(19,20)                1.2008         estimate D2E/DX2                !
 ! R25   R(21,22)                1.16           estimate D2E/DX2                !
 ! A1    A(2,1,6)              120.0            estimate D2E/DX2                !
 ! A2    A(2,1,24)             120.0            estimate D2E/DX2                !
 ! A3    A(6,1,24)             120.0            estimate D2E/DX2                !
 ! A4    A(1,2,3)              120.0            estimate D2E/DX2                !
 ! A5    A(1,2,7)              120.0            estimate D2E/DX2                !
 ! A6    A(3,2,7)              120.0            estimate D2E/DX2                !
 ! A7    A(2,3,4)              120.0            estimate D2E/DX2                !
 ! A8    A(2,3,19)             120.0            estimate D2E/DX2                !
 ! A9    A(4,3,19)             120.0            estimate D2E/DX2                !
 ! A10   A(3,4,5)              120.0            estimate D2E/DX2                !
 ! A11   A(3,4,9)              120.0            estimate D2E/DX2                !
 ! A12   A(5,4,9)              120.0            estimate D2E/DX2                !
 ! A13   A(4,5,6)              120.0            estimate D2E/DX2                !
 ! A14   A(4,5,23)             120.0            estimate D2E/DX2                !
 ! A15   A(6,5,23)             120.0            estimate D2E/DX2                !
 ! A16   A(1,6,5)              120.0            estimate D2E/DX2                !
 ! A17   A(1,6,8)              120.0            estimate D2E/DX2                !
 ! A18   A(5,6,8)              120.0            estimate D2E/DX2                !
 ! A19   A(11,10,12)           120.0            estimate D2E/DX2                !
 ! A20   A(10,11,13)           120.0            estimate D2E/DX2                !
 ! A21   A(10,11,20)           120.0            estimate D2E/DX2                !
 ! A22   A(13,11,20)           120.0            estimate D2E/DX2                !
 ! A23   A(10,12,14)           120.0            estimate D2E/DX2                !
 ! A24   A(10,12,15)           120.0            estimate D2E/DX2                !
 ! A25   A(14,12,15)           120.0            estimate D2E/DX2                !
 ! A26   A(11,13,16)           120.0            estimate D2E/DX2                !
 ! A27   A(11,13,17)           120.0            estimate D2E/DX2                !
 ! A28   A(16,13,17)           120.0            estimate D2E/DX2                !
 ! A29   A(12,14,16)           120.0            estimate D2E/DX2                !
 ! A30   A(12,14,18)           120.0            estimate D2E/DX2                !
 ! A31   A(16,14,18)           120.0            estimate D2E/DX2                !
 ! A32   A(13,16,14)           120.0            estimate D2E/DX2                !
 ! A33   A(13,16,21)           120.0            estimate D2E/DX2                !
 ! A34   A(14,16,21)           120.0            estimate D2E/DX2                !
 ! A35   A(3,19,20)            145.574          estimate D2E/DX2                !
 ! A36   A(11,20,19)           147.929          estimate D2E/DX2                !
 ! A37   L(16,21,22,17,-1)     180.0            estimate D2E/DX2                !
 ! A38   L(16,21,22,17,-2)     180.0            estimate D2E/DX2                !
 ! D1    D(6,1,2,3)              0.0001         estimate D2E/DX2                !
 ! D2    D(6,1,2,7)           -179.9998         estimate D2E/DX2                !
 ! D3    D(24,1,2,3)          -179.9999         estimate D2E/DX2                !
 ! D4    D(24,1,2,7)             0.0002         estimate D2E/DX2                !
 ! D5    D(2,1,6,5)             -0.0001         estimate D2E/DX2                !
 ! D6    D(2,1,6,8)            179.9998         estimate D2E/DX2                !
 ! D7    D(24,1,6,5)           179.9999         estimate D2E/DX2                !
 ! D8    D(24,1,6,8)            -0.0002         estimate D2E/DX2                !
 ! D9    D(1,2,3,4)              0.0001         estimate D2E/DX2                !
 ! D10   D(1,2,3,19)          -179.9999         estimate D2E/DX2                !
 ! D11   D(7,2,3,4)            179.9999         estimate D2E/DX2                !
 ! D12   D(7,2,3,19)            -0.0001         estimate D2E/DX2                !
 ! D13   D(2,3,4,5)             -0.0002         estimate D2E/DX2                !
 ! D14   D(2,3,4,9)            179.9998         estimate D2E/DX2                !
 ! D15   D(19,3,4,5)           179.9998         estimate D2E/DX2                !
 ! D16   D(19,3,4,9)            -0.0002         estimate D2E/DX2                !
 ! D17   D(2,3,19,20)          176.508          estimate D2E/DX2                !
 ! D18   D(4,3,19,20)           -3.492          estimate D2E/DX2                !
 ! D19   D(3,4,5,6)              0.0001         estimate D2E/DX2                !
 ! D20   D(3,4,5,23)          -179.9999         estimate D2E/DX2                !
 ! D21   D(9,4,5,6)           -179.9999         estimate D2E/DX2                !
 ! D22   D(9,4,5,23)             0.0001         estimate D2E/DX2                !
 ! D23   D(4,5,6,1)              0.0            estimate D2E/DX2                !
 ! D24   D(4,5,6,8)           -179.9999         estimate D2E/DX2                !
 ! D25   D(23,5,6,1)          -180.0            estimate D2E/DX2                !
 ! D26   D(23,5,6,8)             0.0001         estimate D2E/DX2                !
 ! D27   D(12,10,11,13)          0.0002         estimate D2E/DX2                !
 ! D28   D(12,10,11,20)       -179.9998         estimate D2E/DX2                !
 ! D29   D(11,10,12,14)          0.0            estimate D2E/DX2                !
 ! D30   D(11,10,12,15)        179.9999         estimate D2E/DX2                !
 ! D31   D(10,11,13,16)         -0.0002         estimate D2E/DX2                !
 ! D32   D(10,11,13,17)        179.9998         estimate D2E/DX2                !
 ! D33   D(20,11,13,16)        179.9998         estimate D2E/DX2                !
 ! D34   D(20,11,13,17)         -0.0002         estimate D2E/DX2                !
 ! D35   D(10,11,20,19)        -26.6215         estimate D2E/DX2                !
 ! D36   D(13,11,20,19)        153.3785         estimate D2E/DX2                !
 ! D37   D(10,12,14,16)         -0.0001         estimate D2E/DX2                !
 ! D38   D(10,12,14,18)        179.9999         estimate D2E/DX2                !
 ! D39   D(15,12,14,16)        179.9999         estimate D2E/DX2                !
 ! D40   D(15,12,14,18)          0.0            estimate D2E/DX2                !
 ! D41   D(11,13,16,14)          0.0001         estimate D2E/DX2                !
 ! D42   D(11,13,16,21)       -179.9999         estimate D2E/DX2                !
 ! D43   D(17,13,16,14)       -179.9999         estimate D2E/DX2                !
 ! D44   D(17,13,16,21)          0.0001         estimate D2E/DX2                !
 ! D45   D(12,14,16,13)          0.0001         estimate D2E/DX2                !
 ! D46   D(12,14,16,21)       -180.0            estimate D2E/DX2                !
 ! D47   D(18,14,16,13)       -180.0            estimate D2E/DX2                !
 ! D48   D(18,14,16,21)          0.0            estimate D2E/DX2                !
 ! D49   D(3,19,20,11)          24.9605         estimate D2E/DX2                !
 --------------------------------------------------------------------------------
 Trust Radius=3.00D-01 FncErr=1.00D-07 GrdErr=1.00D-06 EigMax=2.50D+02 EigMin=1.00D-04
 Number of steps in this run=    122 maximum allowed number of steps=    144.
 GradGradGradGradGradGradGradGradGradGradGradGradGradGradGradGradGradGrad

                          Input orientation:                          
 ---------------------------------------------------------------------
 Center     Atomic      Atomic             Coordinates (Angstroms)
 Number     Number       Type             X           Y           Z
 ---------------------------------------------------------------------
      1          6           0       -4.749416   -0.230579   -0.400021
      2          6           0       -4.820199    0.238538   -1.718672
      3          6           0       -4.550247    1.584841   -1.998879
      4          6           0       -4.209510    2.462026   -0.960435
      5          6           0       -4.138728    1.992910    0.358216
      6          6           0       -4.408682    0.646607    0.638423
      7          1           0       -5.080361   -0.431212   -2.511547
      8          1           0       -4.354640    0.288426    1.645243
      9          8           0       -3.910486    3.953296   -1.270814
     10          6           0       -3.817523    4.699853   -2.779363
     11          6           0       -4.131676    3.887607   -3.877310
     12          6           0       -3.303947    5.987511   -2.984541
     13          6           0       -3.932249    4.363019   -5.180435
     14          6           0       -3.104523    6.462923   -4.287666
     15          1           0       -3.064085    6.607679   -2.146234
     16          6           0       -3.418674    5.650677   -5.385613
     17          1           0       -4.172109    3.742850   -6.018741
     18          1           0       -2.712397    7.446079   -4.444324
     19          1           0       -4.604292    1.943023   -3.005698
     20          1           0       -4.523805    2.904453   -3.720651
     21          6           0       -3.199526    6.173108   -6.817619
     22          7           0       -3.034455    6.566628   -7.896272
     23          1           0       -3.878569    2.662660    1.151092
     24         17           0       -5.088445   -1.921384   -0.048113
 ---------------------------------------------------------------------
                    Distance matrix (angstroms):
                    1          2          3          4          5
     1  C    0.000000
     2  C    1.401400   0.000000
     3  C    2.427296   1.401400   0.000000
     4  C    2.802800   2.427296   1.401400   0.000000
     5  C    2.427296   2.802800   2.427296   1.401400   0.000000
     6  C    1.401400   2.427296   2.802800   2.427296   1.401400
     7  H    2.146700   1.070000   2.146700   3.396345   3.872800
     8  H    2.146700   3.396345   3.872800   3.396345   2.146700
     9  O    4.355100   3.850660   2.559092   1.552300   2.559092
    10  C    5.553274   4.694012   3.293833   2.910330   4.156335
    11  C    5.425182   4.295286   3.001072   3.247537   4.640001
    12  C    6.887218   6.078827   4.680630   4.164864   5.275199
    13  C    6.679914   5.457435   4.268781   4.636706   6.027993
    14  C    7.913434   6.948831   5.578920   5.319647   6.529535
    15  H    7.256127   6.620627   5.240161   4.461452   5.359405
    16  C    7.824077   6.685954   5.411233   5.511362   6.847577
    17  H    6.905899   5.584874   4.578131   5.218081   6.612790
    18  H    8.912739   7.988783   6.611506   6.262556   7.405125
    19  H    3.396345   2.146700   1.070000   2.146700   3.396345
    20  H    4.572298   3.347069   2.169464   2.813062   4.197184
    21  C    9.197550   7.990304   6.789469   7.007053   8.357558
    22  N   10.263376   9.021992   7.867342   8.144590   9.501310
    23  H    3.396345   3.872800   3.396345   2.146700   1.070000
    24  Cl   1.760000   2.743718   4.048303   4.562800   4.048303
                    6          7          8          9         10
     6  C    0.000000
     7  H    3.396345   0.000000
     8  H    1.070000   4.280590   0.000000
     9  O    3.850660   4.704459   4.704459   0.000000
    10  C    5.334748   5.290965   6.271070   1.685736   0.000000
    11  C    5.565309   4.627906   6.595635   2.616688   1.401400
    12  C    6.547638   6.676779   7.417441   2.728146   1.401400
    13  C    6.920825   5.605869   7.960565   3.931091   2.427296
    14  C    7.732834   7.388345   8.653706   4.006145   2.427296
    15  H    6.715403   7.331085   7.481563   2.920360   2.146700
    16  C    7.893659   6.928985   8.891721   4.478231   2.802800
    17  H    7.345783   5.527036   8.408509   4.759784   3.396345
    18  H    8.657051   8.449532   9.540010   4.868893   3.396345
    19  H    3.872800   2.471400   4.942800   2.744520   2.875821
    20  H    4.910464   3.591427   5.972021   2.734581   2.146700
    21  C    9.359318   8.105358  10.372261   6.016649   4.342800
    22  N   10.477413   9.063706  11.497792   7.175906   5.502800
    23  H    2.146700   4.942800   2.471400   2.744520   4.427454
    24  Cl   2.743718   2.879094   2.879094   6.115100   7.274321
                   11         12         13         14         15
    11  C    0.000000
    12  C    2.427296   0.000000
    13  C    1.401400   2.802800   0.000000
    14  C    2.802800   1.401400   2.427296   0.000000
    15  H    3.396345   1.070000   3.872800   2.146700   0.000000
    16  C    2.427296   2.427296   1.401400   1.401400   3.396345
    17  H    2.146700   3.872800   1.070000   3.396345   4.942800
    18  H    3.872800   2.146700   3.396345   1.070000   2.471400
    19  H    2.182769   4.248439   3.322273   4.931759   4.986976
    20  H    1.070000   3.396345   2.146700   3.872800   4.280590
    21  C    3.838989   3.838989   2.548270   2.548270   4.693509
    22  N    4.953091   4.953091   3.610776   3.610776   5.750261
    23  H    5.181638   5.337441   6.556091   6.679913   5.205662
    24  Cl   7.023000   8.623089   8.195805   9.602414   9.013604
                   16         17         18         19         20
    16  C    0.000000
    17  H    2.146700   0.000000
    18  H    2.146700   4.280590   0.000000
    19  H    4.562498   3.536183   5.994376   0.000000
    20  H    3.396345   2.471400   4.942800   1.200826   0.000000
    21  C    1.540000   2.736837   2.736837   5.864957   4.693509
    22  N    2.700000   3.576744   3.576744   6.910848   5.750261
    23  H    7.201962   7.256685   7.453169   4.280590   4.920231
    24  Cl   9.413456   8.280798  10.617045   4.890333   6.090571
                   21         22         23         24
    21  C    0.000000
    22  N    1.160000   0.000000
    23  H    8.734110   9.889807   0.000000
    24  Cl  10.719842  11.741329   4.890332   0.000000
 Stoichiometry    C13H8ClNO
 Framework group  C1[X(C13H8ClNO)]
 Deg. of freedom    66
 Full point group                 C1      NOp   1
 Largest Abelian subgroup         C1      NOp   1
 Largest concise Abelian subgroup C1      NOp   1
                         Standard orientation:                         
 ---------------------------------------------------------------------
 Center     Atomic      Atomic             Coordinates (Angstroms)
 Number     Number       Type             X           Y           Z
 ---------------------------------------------------------------------
      1          6           0        3.764748   -0.347539   -0.041073
      2          6           0        2.585965   -1.089174    0.115043
      3          6           0        1.347907   -0.434581    0.166465
      4          6           0        1.288632    0.961645    0.061771
      5          6           0        2.467415    1.703279   -0.094343
      6          6           0        3.705473    1.048687   -0.145765
      7          1           0        2.631223   -2.155223    0.194980
      8          1           0        4.605500    1.614941   -0.264960
      9          8           0       -0.082737    1.686722    0.118727
     10          6           0       -1.619175    0.995673    0.178041
     11          6           0       -1.651162   -0.402261    0.271214
     12          6           0       -2.807249    1.712114   -0.019730
     13          6           0       -2.871223   -1.083753    0.166613
     14          6           0       -4.027310    1.030622   -0.124328
     15          1           0       -2.782826    2.779467   -0.090869
     16          6           0       -4.059298   -0.367311   -0.031157
     17          1           0       -2.895646   -2.151106    0.237750
     18          1           0       -4.934432    1.577641   -0.275329
     19          1           0        0.447881   -1.000835    0.285664
     20          1           0       -0.744041   -0.949279    0.422219
     21          6           0       -5.400025   -1.116203   -0.146099
     22          7           0       -6.409923   -1.680304   -0.232679
     23          1           0        2.422158    2.769329   -0.174278
     24         17           0        5.319608   -1.169633   -0.105656
 ---------------------------------------------------------------------
 Rotational constants (GHZ):           1.4903436           0.1591563           0.1441982
 Standard basis: 6-31+G(d) (6D, 7F)
 There are   324 symmetry adapted cartesian basis functions of A   symmetry.
 There are   324 symmetry adapted basis functions of A   symmetry.
   324 basis functions,   568 primitive gaussians,   324 cartesian basis functions
    59 alpha electrons       59 beta electrons
       nuclear repulsion energy       976.1906217921 Hartrees.
 NAtoms=   24 NActive=   24 NUniq=   24 SFac= 1.00D+00 NAtFMM=   60 NAOKFM=F Big=F
 Integral buffers will be    131072 words long.
 Raffenetti 2 integral format.
 Two-electron integral symmetry is turned on.
 Nuclear repulsion after empirical dispersion term =      976.1711914888 Hartrees.
 One-electron integrals computed using PRISM.
 NBasis=   324 RedAO= T EigKep=  1.29D-06  NBF=   324
 NBsUse=   323 1.00D-06 EigRej=  4.12D-07 NBFU=   323
 ExpMin= 4.38D-02 ExpMax= 2.52D+04 ExpMxC= 3.78D+03 IAcc=3 IRadAn=         5 AccDes= 0.00D+00
 Harris functional with IExCor=  402 and IRadAn=       5 diagonalized for initial guess.
 HarFok:  IExCor=  402 AccDes= 0.00D+00 IRadAn=         5 IDoV= 1 UseB2=F ITyADJ=14
 ICtDFT=  3500011 ScaDFX=  1.000000  1.000000  1.000000  1.000000
 FoFCou: FMM=F IPFlag=           0 FMFlag=      100000 FMFlg1=           0
         NFxFlg=           0 DoJE=T BraDBF=F KetDBF=T FulRan=T
         wScrn=  0.000000 ICntrl=       500 IOpCl=  0 I1Cent=   200000004 NGrid=           0
         NMat0=    1 NMatS0=      1 NMatT0=    0 NMatD0=    1 NMtDS0=    0 NMtDT0=    0
 Petite list used in FoFCou.
 Requested convergence on RMS density matrix=1.00D-08 within 128 cycles.
 Requested convergence on MAX density matrix=1.00D-06.
 Requested convergence on             energy=1.00D-06.
 No special actions if energy rises.
 SCF Done:  E(RB3LYP) =  -1090.29517892     A.U. after   16 cycles
            NFock= 16  Conv=0.48D-08     -V/T= 2.0075

 **********************************************************************

            Population analysis using the SCF Density.

 **********************************************************************

 Orbital symmetries:
       Occupied  (A) (A) (A) (A) (A) (A) (A) (A) (A) (A) (A) (A)
                 (A) (A) (A) (A) (A) (A) (A) (A) (A) (A) (A) (A)
                 (A) (A) (A) (A) (A) (A) (A) (A) (A) (A) (A) (A)
                 (A) (A) (A) (A) (A) (A) (A) (A) (A) (A) (A) (A)
                 (A) (A) (A) (A) (A) (A) (A) (A) (A) (A) (A)
       Virtual   (A) (A) (A) (A) (A) (A) (A) (A) (A) (A) (A) (A)
                 (A) (A) (A) (A) (A) (A) (A) (A) (A) (A) (A) (A)
                 (A) (A) (A) (A) (A) (A) (A) (A) (A) (A) (A) (A)
                 (A) (A) (A) (A) (A) (A) (A) (A) (A) (A) (A) (A)
                 (A) (A) (A) (A) (A) (A) (A) (A) (A) (A) (A) (A)
                 (A) (A) (A) (A) (A) (A) (A) (A) (A) (A) (A) (A)
                 (A) (A) (A) (A) (A) (A) (A) (A) (A) (A) (A) (A)
                 (A) (A) (A) (A) (A) (A) (A) (A) (A) (A) (A) (A)
                 (A) (A) (A) (A) (A) (A) (A) (A) (A) (A) (A) (A)
                 (A) (A) (A) (A) (A) (A) (A) (A) (A) (A) (A) (A)
                 (A) (A) (A) (A) (A) (A) (A) (A) (A) (A) (A) (A)
                 (A) (A) (A) (A) (A) (A) (A) (A) (A) (A) (A) (A)
                 (A) (A) (A) (A) (A) (A) (A) (A) (A) (A) (A) (A)
                 (A) (A) (A) (A) (A) (A) (A) (A) (A) (A) (A) (A)
                 (A) (A) (A) (A) (A) (A) (A) (A) (A) (A) (A) (A)
                 (A) (A) (A) (A) (A) (A) (A) (A) (A) (A) (A) (A)
                 (A) (A) (A) (A) (A) (A) (A) (A) (A) (A) (A) (A)
                 (A) (A) (A) (A) (A) (A) (A) (A) (A) (A) (A) (A)
                 (A) (A) (A) (A) (A) (A) (A) (A) (A) (A) (A) (A)
                 (A) (A) (A) (A) (A) (A) (A) (A) (A) (A) (A) (A)
                 (A) (A) (A) (A) (A) (A) (A) (A) (A) (A) (A) (A)
                 (A) (A) (A) (A) (A) (A) (A) (A) (A) (A) (A) (A)
 The electronic state is 1-A.
 Alpha  occ. eigenvalues -- -101.56669 -19.20873 -14.36032 -10.31117 -10.29048
 Alpha  occ. eigenvalues --  -10.27547 -10.27325 -10.25616 -10.24951 -10.24691
 Alpha  occ. eigenvalues --  -10.24673 -10.23855 -10.23011 -10.22885 -10.22851
 Alpha  occ. eigenvalues --  -10.22491  -9.48166  -7.24581  -7.23595  -7.23572
 Alpha  occ. eigenvalues --   -0.99368  -0.92759  -0.90838  -0.90257  -0.85338
 Alpha  occ. eigenvalues --   -0.80273  -0.80066  -0.78416  -0.74797  -0.67144
 Alpha  occ. eigenvalues --   -0.65906  -0.64685  -0.62070  -0.58966  -0.55090
 Alpha  occ. eigenvalues --   -0.51810  -0.51107  -0.50371  -0.49512  -0.47852
 Alpha  occ. eigenvalues --   -0.47230  -0.44956  -0.44462  -0.43140  -0.41824
 Alpha  occ. eigenvalues --   -0.41369  -0.40406  -0.38347  -0.38192  -0.37597
 Alpha  occ. eigenvalues --   -0.36375  -0.35533  -0.34138  -0.32996  -0.32825
 Alpha  occ. eigenvalues --   -0.30173  -0.28970  -0.28582  -0.24858
 Alpha virt. eigenvalues --   -0.07383  -0.05910  -0.04960  -0.04113  -0.03268
 Alpha virt. eigenvalues --   -0.00993  -0.00185   0.00392   0.00834   0.01084
 Alpha virt. eigenvalues --    0.02061   0.02690   0.03029   0.03999   0.04671
 Alpha virt. eigenvalues --    0.04847   0.05159   0.05320   0.05533   0.06792
 Alpha virt. eigenvalues --    0.06801   0.06879   0.07468   0.08180   0.08280
 Alpha virt. eigenvalues --    0.08956   0.09646   0.10126   0.10563   0.10938
 Alpha virt. eigenvalues --    0.11860   0.11997   0.12360   0.12433   0.12538
 Alpha virt. eigenvalues --    0.13083   0.13274   0.13475   0.14196   0.14625
 Alpha virt. eigenvalues --    0.14904   0.15336   0.16071   0.16336   0.16649
 Alpha virt. eigenvalues --    0.16885   0.18585   0.19093   0.19485   0.19669
 Alpha virt. eigenvalues --    0.19932   0.20229   0.20495   0.20852   0.21360
 Alpha virt. eigenvalues --    0.22065   0.22322   0.23170   0.23434   0.23774
 Alpha virt. eigenvalues --    0.23948   0.24356   0.24443   0.24763   0.25675
 Alpha virt. eigenvalues --    0.26071   0.26406   0.27092   0.27453   0.28242
 Alpha virt. eigenvalues --    0.28320   0.28870   0.29217   0.29495   0.30086
 Alpha virt. eigenvalues --    0.30423   0.30966   0.31212   0.32362   0.33027
 Alpha virt. eigenvalues --    0.33893   0.34244   0.35609   0.36274   0.37759
 Alpha virt. eigenvalues --    0.38273   0.38900   0.40350   0.40949   0.43183
 Alpha virt. eigenvalues --    0.47510   0.51241   0.53380   0.54793   0.57014
 Alpha virt. eigenvalues --    0.59629   0.60888   0.61093   0.62728   0.63499
 Alpha virt. eigenvalues --    0.64274   0.65134   0.65781   0.66554   0.67946
 Alpha virt. eigenvalues --    0.68669   0.68771   0.69235   0.70532   0.70991
 Alpha virt. eigenvalues --    0.71401   0.71941   0.72826   0.73749   0.74225
 Alpha virt. eigenvalues --    0.74784   0.75067   0.76004   0.76523   0.77187
 Alpha virt. eigenvalues --    0.78819   0.79677   0.81367   0.81675   0.85216
 Alpha virt. eigenvalues --    0.85954   0.87013   0.87498   0.89316   0.90837
 Alpha virt. eigenvalues --    0.91267   0.91978   0.92305   0.93392   0.93868
 Alpha virt. eigenvalues --    0.95314   0.97911   0.98784   0.99908   1.00134
 Alpha virt. eigenvalues --    1.03289   1.04137   1.05609   1.08733   1.09563
 Alpha virt. eigenvalues --    1.10764   1.11506   1.11638   1.13526   1.14801
 Alpha virt. eigenvalues --    1.15087   1.17084   1.17983   1.18598   1.19273
 Alpha virt. eigenvalues --    1.20276   1.20696   1.21679   1.23008   1.26203
 Alpha virt. eigenvalues --    1.26633   1.28162   1.29756   1.32362   1.33675
 Alpha virt. eigenvalues --    1.36067   1.37675   1.38830   1.40562   1.40907
 Alpha virt. eigenvalues --    1.41648   1.41900   1.43134   1.43893   1.45853
 Alpha virt. eigenvalues --    1.46610   1.47716   1.48864   1.51419   1.52303
 Alpha virt. eigenvalues --    1.53043   1.54346   1.57529   1.67457   1.69657
 Alpha virt. eigenvalues --    1.74029   1.74342   1.74981   1.77357   1.79823
 Alpha virt. eigenvalues --    1.80268   1.82883   1.84836   1.88221   1.91491
 Alpha virt. eigenvalues --    1.93529   1.94034   1.94406   1.95326   1.96147
 Alpha virt. eigenvalues --    1.96960   1.99999   2.00741   2.04529   2.06354
 Alpha virt. eigenvalues --    2.07219   2.08806   2.09743   2.10651   2.11229
 Alpha virt. eigenvalues --    2.12185   2.14354   2.14951   2.18472   2.19219
 Alpha virt. eigenvalues --    2.23136   2.24959   2.25557   2.25729   2.26859
 Alpha virt. eigenvalues --    2.27821   2.36054   2.40070   2.43801   2.50611
 Alpha virt. eigenvalues --    2.58559   2.58944   2.60164   2.60340   2.60798
 Alpha virt. eigenvalues --    2.61987   2.66476   2.70645   2.70933   2.71829
 Alpha virt. eigenvalues --    2.74049   2.75948   2.76371   2.77331   2.84125
 Alpha virt. eigenvalues --    2.90713   2.99225   3.03328   3.05410   3.08138
 Alpha virt. eigenvalues --    3.19721   3.35993   3.39999   4.16941   4.19503
 Alpha virt. eigenvalues --    4.21637   4.23132   4.25670   4.28563   4.31700
 Alpha virt. eigenvalues --    4.34769   4.35252   4.36567   4.37927   4.39756
 Alpha virt. eigenvalues --    4.45023   4.55630   4.70521   4.74558
          Condensed to atoms (all electrons):
               1          2          3          4          5          6
     1  C    6.540597  -0.494330   0.372829  -1.577455   0.993292  -0.051620
     2  C   -0.494330  10.606385  -3.954150   1.180302  -0.262689  -1.107875
     3  C    0.372829  -3.954150  12.301126  -1.337577  -1.832639   0.374143
     4  C   -1.577455   1.180302  -1.337577  10.945581  -3.647993   0.448636
     5  C    0.993292  -0.262689  -1.832639  -3.647993  12.346576  -0.878981
     6  C   -0.051620  -1.107875   0.374143   0.448636  -0.878981   7.521481
     7  H    0.013844   0.261748  -0.010356   0.021922  -0.041562   0.050117
     8  H    0.024515   0.075510  -0.034879   0.026395  -0.092980   0.297310
     9  O   -0.016223   0.021246  -0.134315   0.326147  -0.187227   0.029448
    10  C   -0.033147  -0.038535  -0.053493  -0.318703   0.472896  -0.034240
    11  C   -0.049621  -0.045910  -0.103866   0.761899  -0.235699   0.110500
    12  C   -0.011514  -0.324056  -0.313434   0.099886   0.164706  -0.005363
    13  C   -0.082352   0.221827   0.370523  -0.629972  -0.792529   0.068410
    14  C    0.010403   0.042825   0.150411   0.028752  -0.016961  -0.010863
    15  H   -0.000008  -0.000068   0.003172  -0.002360  -0.003544  -0.000164
    16  C   -0.005699  -0.052659  -0.080809   0.007550  -0.002698   0.009044
    17  H    0.000098   0.003447  -0.003123  -0.001349  -0.000410   0.000033
    18  H    0.000001   0.000037   0.000239   0.000409  -0.000062   0.000003
    19  H   -0.028233   0.030573   0.032895   0.117905   0.078051   0.002453
    20  H    0.003123  -0.023906   0.015262   0.028450  -0.004511   0.004989
    21  C   -0.002540   0.005531   0.004738  -0.082022  -0.015323   0.001623
    22  N    0.000005  -0.000113  -0.000370   0.000712   0.000049  -0.000002
    23  H    0.008005  -0.046382   0.086535   0.050114   0.292644  -0.092991
    24  Cl  -0.051009  -0.018133  -0.052224  -0.065222   0.120733  -0.169289
               7          8          9         10         11         12
     1  C    0.013844   0.024515  -0.016223  -0.033147  -0.049621  -0.011514
     2  C    0.261748   0.075510   0.021246  -0.038535  -0.045910  -0.324056
     3  C   -0.010356  -0.034879  -0.134315  -0.053493  -0.103866  -0.313434
     4  C    0.021922   0.026395   0.326147  -0.318703   0.761899   0.099886
     5  C   -0.041562  -0.092980  -0.187227   0.472896  -0.235699   0.164706
     6  C    0.050117   0.297310   0.029448  -0.034240   0.110500  -0.005363
     7  H    0.510083  -0.000178  -0.000252  -0.002802  -0.003456  -0.000333
     8  H   -0.000178   0.498604  -0.000116   0.000257   0.000409  -0.000117
     9  O   -0.000252  -0.000116   8.366874   0.286889   0.033957  -0.244250
    10  C   -0.002802   0.000257   0.286889  10.155363  -0.122402  -3.495441
    11  C   -0.003456   0.000409   0.033957  -0.122402  15.048144  -1.571712
    12  C   -0.000333  -0.000117  -0.244250  -3.495441  -1.571712  11.477334
    13  C    0.004979   0.000070  -0.048554  -0.141949  -9.080187   0.474798
    14  C    0.000032   0.000001   0.041492   1.255916   1.049465  -1.739618
    15  H    0.000000   0.000000  -0.001676   0.034355   0.046322   0.312085
    16  C   -0.000005   0.000001  -0.025475  -1.448300   1.802820   1.115929
    17  H    0.000000   0.000000  -0.000157   0.010372  -0.007783  -0.038288
    18  H    0.000000   0.000000  -0.000095   0.029862  -0.009609  -0.079443
    19  H   -0.009173   0.000012  -0.011602   0.023107   0.023516   0.000189
    20  H    0.000304   0.000000  -0.010630   0.076792   0.053677   0.031857
    21  C   -0.000007   0.000000  -0.004143  -0.430857  -1.969154   0.420115
    22  N    0.000000   0.000000  -0.000011   0.001483   0.069405  -0.005475
    23  H    0.000014  -0.005366  -0.004241  -0.003586   0.000128   0.001335
    24  Cl   0.002310   0.002568  -0.000167  -0.003343  -0.005388  -0.001247
              13         14         15         16         17         18
     1  C   -0.082352   0.010403  -0.000008  -0.005699   0.000098   0.000001
     2  C    0.221827   0.042825  -0.000068  -0.052659   0.003447   0.000037
     3  C    0.370523   0.150411   0.003172  -0.080809  -0.003123   0.000239
     4  C   -0.629972   0.028752  -0.002360   0.007550  -0.001349   0.000409
     5  C   -0.792529  -0.016961  -0.003544  -0.002698  -0.000410  -0.000062
     6  C    0.068410  -0.010863  -0.000164   0.009044   0.000033   0.000003
     7  H    0.004979   0.000032   0.000000  -0.000005   0.000000   0.000000
     8  H    0.000070   0.000001   0.000000   0.000001   0.000000   0.000000
     9  O   -0.048554   0.041492  -0.001676  -0.025475  -0.000157  -0.000095
    10  C   -0.141949   1.255916   0.034355  -1.448300   0.010372   0.029862
    11  C   -9.080187   1.049465   0.046322   1.802820  -0.007783  -0.009609
    12  C    0.474798  -1.739618   0.312085   1.115929  -0.038288  -0.079443
    13  C   18.636549  -3.040742  -0.025651  -2.514083   0.231551   0.050778
    14  C   -3.040742   9.423887  -0.070699  -0.273779   0.058153   0.286717
    15  H   -0.025651  -0.070699   0.491827   0.001439   0.000015  -0.004768
    16  C   -2.514083  -0.273779   0.001439   9.269363   0.068649   0.051683
    17  H    0.231551   0.058153   0.000015   0.068649   0.505634  -0.000154
    18  H    0.050778   0.286717  -0.004768   0.051683  -0.000154   0.494221
    19  H   -0.064792   0.005645   0.000004   0.003815   0.000301   0.000000
    20  H    0.077698   0.010988  -0.000197  -0.038872  -0.007922   0.000014
    21  C    2.579457  -0.890981   0.000917  -3.311326  -0.031609  -0.037999
    22  N   -0.151020  -0.009806  -0.000006   0.445747   0.000850   0.000560
    23  H   -0.000028  -0.000044   0.000000  -0.000013   0.000000   0.000000
    24  Cl  -0.001836   0.000188   0.000000  -0.000229   0.000001   0.000000
              19         20         21         22         23         24
     1  C   -0.028233   0.003123  -0.002540   0.000005   0.008005  -0.051009
     2  C    0.030573  -0.023906   0.005531  -0.000113  -0.046382  -0.018133
     3  C    0.032895   0.015262   0.004738  -0.000370   0.086535  -0.052224
     4  C    0.117905   0.028450  -0.082022   0.000712   0.050114  -0.065222
     5  C    0.078051  -0.004511  -0.015323   0.000049   0.292644   0.120733
     6  C    0.002453   0.004989   0.001623  -0.000002  -0.092991  -0.169289
     7  H   -0.009173   0.000304  -0.000007   0.000000   0.000014   0.002310
     8  H    0.000012   0.000000   0.000000   0.000000  -0.005366   0.002568
     9  O   -0.011602  -0.010630  -0.004143  -0.000011  -0.004241  -0.000167
    10  C    0.023107   0.076792  -0.430857   0.001483  -0.003586  -0.003343
    11  C    0.023516   0.053677  -1.969154   0.069405   0.000128  -0.005388
    12  C    0.000189   0.031857   0.420115  -0.005475   0.001335  -0.001247
    13  C   -0.064792   0.077698   2.579457  -0.151020  -0.000028  -0.001836
    14  C    0.005645   0.010988  -0.890981  -0.009806  -0.000044   0.000188
    15  H    0.000004  -0.000197   0.000917  -0.000006   0.000000   0.000000
    16  C    0.003815  -0.038872  -3.311326   0.445747  -0.000013  -0.000229
    17  H    0.000301  -0.007922  -0.031609   0.000850   0.000000   0.000001
    18  H    0.000000   0.000014  -0.037999   0.000560   0.000000   0.000000
    19  H    0.655104  -0.000366  -0.000700   0.000002  -0.000211   0.001480
    20  H   -0.000366   0.628227  -0.005923   0.000006   0.000006   0.000048
    21  C   -0.000700  -0.005923  10.151037  -0.092037   0.000000  -0.000035
    22  N    0.000002   0.000006  -0.092037   7.230905   0.000000   0.000000
    23  H   -0.000211   0.000006   0.000000   0.000000   0.504547   0.001026
    24  Cl   0.001480   0.000048  -0.000035   0.000000   0.001026  17.005192
 Mulliken charges:
               1
     1  C    0.437038
     2  C   -0.080625
     3  C    0.199364
     4  C   -0.382009
     5  C   -0.453141
     6  C   -0.566800
     7  H    0.202771
     8  H    0.207982
     9  O   -0.416919
    10  C   -0.220492
    11  C    0.204545
    12  C   -0.267944
    13  C   -0.142944
    14  C   -0.311385
    15  H    0.219005
    16  C    0.977908
    17  H    0.211692
    18  H    0.217606
    19  H    0.140024
    20  H    0.160886
    21  C   -0.288761
    22  N   -0.490884
    23  H    0.208508
    24  Cl   0.234576
 Sum of Mulliken charges =   0.00000
 Mulliken charges with hydrogens summed into heavy atoms:
               1
     1  C    0.437038
     2  C    0.122146
     3  C    0.339388
     4  C   -0.382009
     5  C   -0.244633
     6  C   -0.358818
     9  O   -0.416919
    10  C   -0.220492
    11  C    0.365431
    12  C   -0.048940
    13  C    0.068748
    14  C   -0.093780
    16  C    0.977908
    21  C   -0.288761
    22  N   -0.490884
    24  Cl   0.234576
 Electronic spatial extent (au):  <R**2>=           6652.3396
 Charge=              0.0000 electrons
 Dipole moment (field-independent basis, Debye):
    X=              2.0441    Y=              1.6318    Z=              0.2398  Tot=              2.6265
 Quadrupole moment (field-independent basis, Debye-Ang):
   XX=           -132.8712   YY=            -94.5788   ZZ=           -104.2651
   XY=            -11.3382   XZ=             -1.6144   YZ=             -2.5702
 Traceless Quadrupole moment (field-independent basis, Debye-Ang):
   XX=            -22.2995   YY=             15.9929   ZZ=              6.3066
   XY=            -11.3382   XZ=             -1.6144   YZ=             -2.5702
 Octapole moment (field-independent basis, Debye-Ang**2):
  XXX=            258.4139  YYY=             12.3544  ZZZ=             -0.8808  XYY=             29.4399
  XXY=            143.8541  XXZ=              6.6309  XZZ=              8.7561  YZZ=             -1.6240
  YYZ=             -0.1154  XYZ=              4.0890
 Hexadecapole moment (field-independent basis, Debye-Ang**3):
 XXXX=         -10246.1515 YYYY=           -931.8266 ZZZZ=           -135.9366 XXXY=           -692.6125
 XXXZ=            -83.6244 YYYX=            -90.4375 YYYZ=            -13.1246 ZZZX=             -1.4644
 ZZZY=              0.9501 XXYY=          -1584.7380 XXZZ=          -1428.0360 YYZZ=           -197.6702
 XXYZ=            -46.9881 YYXZ=             -9.4775 ZZXY=            -11.3973
 N-N= 9.761711914888D+02 E-N=-4.506134485893D+03  KE= 1.082187060989D+03
 Evaluate density.
 Using the total density.
 Monte-Carlo method of calculating molar volume:
 based on  0.001 e/bohr**3 density envelope.
 Number of points per bohr**3 =   20 CutOff= 1.00D-04
 Using the SCF density.
 There are       454 points.  Will hold       454 in memory.
 LenV=  4026277628 MDV=  4026531840.
 Box volume =11712.421 fraction occupied=0.150
 Integrated density= 7.1141193832189018D+01 error=-4.6858806167810982D+01
 Molar volume = 1754.283 bohr**3/mol (156.550 cm**3/mol)
 Recommended a0 for SCRF calculation =  4.86 angstrom (  9.18 bohr)
 Calling FoFJK, ICntrl=      2127 FMM=F ISym2X=0 I1Cent= 0 IOpClX= 0 NMat=1 NMatS=1 NMatT=0.
 ***** Axes restored to original set *****
 -------------------------------------------------------------------
 Center     Atomic                   Forces (Hartrees/Bohr)
 Number     Number              X              Y              Z
 -------------------------------------------------------------------
      1        6           0.001236644    0.006742404   -0.002691193
      2        6           0.003186664    0.006650683    0.012292711
      3        6          -0.000556328   -0.011230017    0.019200500
      4        6           0.006812998    0.046607618   -0.040745675
      5        6           0.000006408    0.007191544   -0.011058590
      6        6          -0.001488292    0.003784125   -0.015923580
      7        1          -0.002744041   -0.006925640   -0.008277021
      8        1           0.000782904   -0.002812518    0.010401736
      9        8          -0.002218703   -0.002295917   -0.027759058
     10        6          -0.002863570   -0.061271734    0.032942080
     11        6           0.003501096    0.019792610   -0.006632664
     12        6          -0.004534120   -0.011754551    0.014606306
     13        6           0.000840454    0.007897608    0.010645162
     14        6          -0.007991473   -0.013792716    0.002383183
     15        1           0.003788043    0.006196539    0.009032575
     16        6           0.006975914    0.015180304   -0.043759868
     17        1          -0.002711322   -0.006875927   -0.008310203
     18        1           0.003869600    0.010051803    0.000182739
     19        1          -0.002640366   -0.022675048    0.012448179
     20        1           0.000765142    0.018080337   -0.017217903
     21        6          -0.008154850   -0.020473569    0.056249423
     22        7           0.000764059    0.002002816   -0.005550268
     23        1           0.002884512    0.007553964    0.007924385
     24       17           0.000488629    0.002375281   -0.000382956
 -------------------------------------------------------------------
 Cartesian Forces:  Max     0.061271734 RMS     0.016621000

 GradGradGradGradGradGradGradGradGradGradGradGradGradGradGradGradGradGrad
 Berny optimization.
 FormGI is forming the generalized inverse of G from B-inverse, IUseBI=4.
 Internal  Forces:  Max     0.459798888 RMS     0.069198202
 Search for a local minimum.
 Step number   1 out of a maximum of  122
 All quantities printed in internal units (Hartrees-Bohrs-Radians)
 Mixed Optimization -- RFO/linear search
 Second derivative matrix not updated -- first step.
 ITU=  0
     Eigenvalues ---    0.00230   0.00499   0.00499   0.01714   0.01785
     Eigenvalues ---    0.02070   0.02070   0.02070   0.02070   0.02070
     Eigenvalues ---    0.02070   0.02070   0.02070   0.02070   0.02070
     Eigenvalues ---    0.02070   0.02070   0.02070   0.02070   0.02070
     Eigenvalues ---    0.04867   0.04867   0.10923   0.16000   0.16000
     Eigenvalues ---    0.16000   0.16000   0.16000   0.16000   0.16000
     Eigenvalues ---    0.16000   0.16000   0.16000   0.22000   0.22000
     Eigenvalues ---    0.22835   0.22981   0.23883   0.24000   0.25000
     Eigenvalues ---    0.25000   0.25000   0.27457   0.28519   0.29539
     Eigenvalues ---    0.37230   0.37230   0.37230   0.37230   0.37230
     Eigenvalues ---    0.37230   0.37230   0.37230   0.41268   0.41268
     Eigenvalues ---    0.41640   0.42077   0.45389   0.45389   0.45389
     Eigenvalues ---    0.45389   0.45389   0.45389   0.45389   0.45389
     Eigenvalues ---    1.27794
 RFO step:  Lambda=-6.53982690D-01 EMin= 2.30000000D-03
 Linear search not attempted -- first point.
 Maximum step size (   0.300) exceeded in Quadratic search.
    -- Step size scaled by   0.337
 Iteration  1 RMS(Cart)=  0.20541184 RMS(Int)=  0.01834666
 Iteration  2 RMS(Cart)=  0.24285791 RMS(Int)=  0.00989740
 Iteration  3 RMS(Cart)=  0.10583196 RMS(Int)=  0.00110173
 Iteration  4 RMS(Cart)=  0.00215187 RMS(Int)=  0.00002828
 Iteration  5 RMS(Cart)=  0.00000103 RMS(Int)=  0.00002828
 Iteration  6 RMS(Cart)=  0.00000000 RMS(Int)=  0.00002828
 Variable       Old X    -DE/DX   Delta X   Delta X   Delta X     New X
                                 (Linear)    (Quad)   (Total)
    R1        2.64826  -0.00019   0.00000   0.00008   0.00008   2.64834
    R2        2.64826   0.01883   0.00000   0.00606   0.00604   2.65431
    R3        3.32592  -0.00245   0.00000  -0.00087  -0.00087   3.32505
    R4        2.64826  -0.02188   0.00000  -0.00686  -0.00684   2.64143
    R5        2.02201   0.01114   0.00000   0.00366   0.00366   2.02566
    R6        2.64826  -0.03678   0.00000  -0.01152  -0.01151   2.63676
    R7        2.02201  -0.07252   0.00000  -0.02381  -0.02381   1.99820
    R8        2.64826  -0.01897   0.00000  -0.00590  -0.00591   2.64236
    R9        2.93342   0.00292   0.00000   0.00106   0.00106   2.93448
   R10        2.64826   0.01126   0.00000   0.00363   0.00360   2.65187
   R11        2.02201   0.01130   0.00000   0.00371   0.00371   2.02572
   R12        2.02201   0.01077   0.00000   0.00354   0.00354   2.02554
   R13        2.64826  -0.01347   0.00000  -0.00431  -0.00430   2.64396
   R14        2.64826  -0.01979   0.00000  -0.00610  -0.00610   2.64216
   R15        2.64826  -0.02127   0.00000  -0.00660  -0.00659   2.64168
   R16        2.02201  -0.06018   0.00000  -0.01976  -0.01976   2.00225
   R17        2.64826   0.00731   0.00000   0.00235   0.00234   2.65060
   R18        2.02201   0.01152   0.00000   0.00378   0.00378   2.02579
   R19        2.64826   0.00143   0.00000   0.00052   0.00052   2.64878
   R20        2.02201   0.01110   0.00000   0.00365   0.00365   2.02565
   R21        2.64826   0.01717   0.00000   0.00544   0.00543   2.65369
   R22        2.02201   0.01063   0.00000   0.00349   0.00349   2.02550
   R23        2.91018  -0.05446   0.00000  -0.01954  -0.01954   2.89064
   R24        2.26923  -0.05492   0.00000  -0.02424  -0.02424   2.24499
   R25        2.19208   0.00595   0.00000   0.00104   0.00104   2.19312
    A1        2.09440   0.00321   0.00000   0.00178   0.00176   2.09616
    A2        2.09440  -0.00142   0.00000  -0.00082  -0.00081   2.09358
    A3        2.09440  -0.00179   0.00000  -0.00096  -0.00095   2.09344
    A4        2.09440  -0.04330   0.00000  -0.01679  -0.01676   2.07763
    A5        2.09440   0.02170   0.00000   0.00841   0.00840   2.10280
    A6        2.09440   0.02160   0.00000   0.00837   0.00836   2.10276
    A7        2.09440   0.05555   0.00000   0.02072   0.02075   2.11515
    A8        2.09440   0.16525   0.00000   0.06954   0.06952   2.16392
    A9        2.09440  -0.22080   0.00000  -0.09026  -0.09028   2.00412
   A10        2.09440  -0.00522   0.00000  -0.00254  -0.00252   2.09187
   A11        2.09440  -0.03804   0.00000  -0.01388  -0.01389   2.08050
   A12        2.09440   0.04327   0.00000   0.01642   0.01641   2.11081
   A13        2.09440  -0.02178   0.00000  -0.00831  -0.00834   2.08606
   A14        2.09440   0.01022   0.00000   0.00388   0.00389   2.09829
   A15        2.09440   0.01156   0.00000   0.00444   0.00445   2.09884
   A16        2.09440   0.01155   0.00000   0.00514   0.00510   2.09950
   A17        2.09440  -0.00489   0.00000  -0.00221  -0.00219   2.09221
   A18        2.09440  -0.00665   0.00000  -0.00294  -0.00292   2.09148
   A19        2.09440  -0.00552   0.00000  -0.00258  -0.00256   2.09183
   A20        2.09440   0.04460   0.00000   0.01678   0.01680   2.11119
   A21        2.09440  -0.17992   0.00000  -0.07363  -0.07364   2.02075
   A22        2.09440   0.13531   0.00000   0.05685   0.05684   2.15123
   A23        2.09440  -0.01748   0.00000  -0.00665  -0.00667   2.08773
   A24        2.09440   0.00874   0.00000   0.00333   0.00333   2.09773
   A25        2.09440   0.00874   0.00000   0.00333   0.00333   2.09773
   A26        2.09440  -0.03647   0.00000  -0.01410  -0.01408   2.08031
   A27        2.09440   0.01760   0.00000   0.00679   0.00678   2.10117
   A28        2.09440   0.01887   0.00000   0.00731   0.00730   2.10170
   A29        2.09440   0.01110   0.00000   0.00475   0.00472   2.09912
   A30        2.09440  -0.00733   0.00000  -0.00311  -0.00310   2.09130
   A31        2.09440  -0.00377   0.00000  -0.00164  -0.00163   2.09277
   A32        2.09440   0.00377   0.00000   0.00180   0.00179   2.09619
   A33        2.09440  -0.00172   0.00000  -0.00084  -0.00083   2.09356
   A34        2.09440  -0.00205   0.00000  -0.00096  -0.00096   2.09344
   A35        2.54074  -0.45980   0.00000  -0.19032  -0.19032   2.35042
   A36        2.58185  -0.40109   0.00000  -0.16602  -0.16602   2.41582
   A37        3.14159  -0.00011   0.00000  -0.00005  -0.00005   3.14154
   A38        3.14159  -0.00012   0.00000  -0.00006  -0.00006   3.14153
    D1        0.00000  -0.00037   0.00000  -0.00018  -0.00019  -0.00019
    D2       -3.14159   0.00000   0.00000   0.00000  -0.00001   3.14159
    D3       -3.14159  -0.00031   0.00000  -0.00016  -0.00016   3.14144
    D4        0.00000   0.00005   0.00000   0.00003   0.00002   0.00003
    D5        0.00000  -0.00029   0.00000  -0.00015  -0.00014  -0.00015
    D6        3.14159   0.00015   0.00000   0.00008   0.00008  -3.14152
    D7        3.14159  -0.00035   0.00000  -0.00017  -0.00017   3.14142
    D8        0.00000   0.00010   0.00000   0.00005   0.00005   0.00004
    D9        0.00000   0.00094   0.00000   0.00047   0.00047   0.00047
   D10       -3.14159  -0.00022   0.00000  -0.00011  -0.00013   3.14146
   D11        3.14159   0.00057   0.00000   0.00028   0.00029  -3.14130
   D12        0.00000  -0.00059   0.00000  -0.00029  -0.00031  -0.00031
   D13        0.00000  -0.00084   0.00000  -0.00042  -0.00042  -0.00043
   D14        3.14159  -0.00196   0.00000  -0.00098  -0.00097   3.14062
   D15        3.14159   0.00031   0.00000   0.00016   0.00013  -3.14146
   D16        0.00000  -0.00081   0.00000  -0.00040  -0.00042  -0.00042
   D17        3.08065  -0.00609   0.00000  -0.00312  -0.00312   3.07752
   D18       -0.06095  -0.00725   0.00000  -0.00370  -0.00370  -0.06464
   D19        0.00000   0.00018   0.00000   0.00009   0.00008   0.00008
   D20       -3.14159  -0.00014   0.00000  -0.00007  -0.00007   3.14152
   D21       -3.14159   0.00130   0.00000   0.00065   0.00064  -3.14095
   D22        0.00000   0.00097   0.00000   0.00049   0.00049   0.00049
   D23        0.00000   0.00039   0.00000   0.00019   0.00020   0.00020
   D24       -3.14159  -0.00006   0.00000  -0.00003  -0.00003   3.14157
   D25       -3.14159   0.00071   0.00000   0.00036   0.00035  -3.14124
   D26        0.00000   0.00027   0.00000   0.00013   0.00013   0.00013
   D27        0.00000   0.00447   0.00000   0.00224   0.00223   0.00223
   D28       -3.14159  -0.00477   0.00000  -0.00239  -0.00220   3.13939
   D29        0.00000  -0.00133   0.00000  -0.00067  -0.00062  -0.00062
   D30        3.14159  -0.00061   0.00000  -0.00031  -0.00028   3.14131
   D31        0.00000  -0.00466   0.00000  -0.00234  -0.00235  -0.00235
   D32        3.14159  -0.00391   0.00000  -0.00196  -0.00200   3.13959
   D33        3.14159   0.00457   0.00000   0.00230   0.00242  -3.13918
   D34        0.00000   0.00533   0.00000   0.00267   0.00277   0.00277
   D35       -0.46463   0.03178   0.00000   0.01621   0.01616  -0.44847
   D36        2.67696   0.02255   0.00000   0.01157   0.01162   2.68858
   D37        0.00000  -0.00161   0.00000  -0.00080  -0.00082  -0.00083
   D38        3.14159   0.00018   0.00000   0.00009   0.00007  -3.14152
   D39        3.14159  -0.00233   0.00000  -0.00117  -0.00116   3.14043
   D40        0.00000  -0.00055   0.00000  -0.00027  -0.00026  -0.00026
   D41        0.00000   0.00173   0.00000   0.00087   0.00089   0.00089
   D42       -3.14159   0.00113   0.00000   0.00057   0.00056  -3.14103
   D43       -3.14159   0.00097   0.00000   0.00049   0.00053  -3.14106
   D44        0.00000   0.00038   0.00000   0.00019   0.00021   0.00021
   D45        0.00000   0.00141   0.00000   0.00071   0.00069   0.00069
   D46       -3.14159   0.00200   0.00000   0.00100   0.00101  -3.14058
   D47       -3.14159  -0.00038   0.00000  -0.00019  -0.00021   3.14139
   D48        0.00000   0.00021   0.00000   0.00011   0.00011   0.00011
   D49        0.43564  -0.03067   0.00000  -0.01575  -0.01575   0.41990
         Item               Value     Threshold  Converged?
 Maximum Force            0.459799     0.000450     NO 
 RMS     Force            0.069198     0.000300     NO 
 Maximum Displacement     1.877038     0.001800     NO 
 RMS     Displacement     0.549037     0.001200     NO 
 Predicted change in Energy=-2.128848D-01
 GradGradGradGradGradGradGradGradGradGradGradGradGradGradGradGradGradGrad

                          Input orientation:                          
 ---------------------------------------------------------------------
 Center     Atomic      Atomic             Coordinates (Angstroms)
 Number     Number       Type             X           Y           Z
 ---------------------------------------------------------------------
      1          6           0       -4.615140    0.096655   -0.313841
      2          6           0       -4.837520    0.226343   -1.691436
      3          6           0       -4.656604    1.474846   -2.293354
      4          6           0       -4.260119    2.585737   -1.547958
      5          6           0       -4.037695    2.458323   -0.173380
      6          6           0       -4.216186    1.210453    0.443250
      7          1           0       -5.142109   -0.619615   -2.275066
      8          1           0       -4.047038    1.107138    1.496636
      9          8           0       -4.071637    3.950651   -2.264100
     10          6           0       -3.989955    4.102296   -2.745888
     11          6           0       -4.304307    3.584893   -4.007247
     12          6           0       -3.384710    5.358212   -2.639901
     13          6           0       -4.019764    4.304858   -5.171228
     14          6           0       -3.096888    6.089281   -3.801835
     15          1           0       -3.141757    5.759956   -1.676178
     16          6           0       -3.413158    5.564016   -5.065182
     17          1           0       -4.262921    3.898844   -6.133028
     18          1           0       -2.632888    7.052382   -3.724400
     19          1           0       -4.802139    1.660719   -3.324066
     20          1           0       -4.759118    2.627941   -4.012519
     21          6           0       -3.094763    6.367108   -6.327533
     22          7           0       -2.853267    6.976392   -7.285304
     23          1           0       -3.732893    3.307881    0.404939
     24         17           0       -4.835967   -1.463772    0.468644
 ---------------------------------------------------------------------
                    Distance matrix (angstroms):
                    1          2          3          4          5
     1  C    0.000000
     2  C    1.401443   0.000000
     3  C    2.412386   1.397783   0.000000
     4  C    2.800825   2.433253   1.395312   0.000000
     5  C    2.435293   2.815307   2.417554   1.398275   0.000000
     6  C    1.404599   2.431340   2.784399   2.420382   1.403307
     7  H    2.153403   1.071935   2.150074   3.403069   3.887225
     8  H    2.149801   3.400657   3.856269   3.391344   2.148195
     9  O    4.353412   3.845126   2.544141   1.552860   2.568912
    10  C    4.727671   4.105270   2.748217   1.951403   3.053313
    11  C    5.089762   4.114262   2.741138   2.654876   4.004845
    12  C    5.882899   5.417225   4.101017   3.105688   3.862573
    13  C    6.454275   5.423280   4.086158   4.017615   5.328086
    14  C    7.098082   6.469747   5.099141   4.325262   5.218684
    15  H    6.008311   5.787635   4.586702   3.367913   3.736561
    16  C    7.342482   6.473154   5.094163   4.685974   5.827959
    17  H    6.960147   5.791819   4.557833   4.769394   6.135408
    18  H    7.996460   7.455746   6.103460   5.228355   5.973994
    19  H    3.397458   2.173515   1.057400   2.074609   3.338768
    20  H    4.484235   3.340845   2.072598   2.514923   3.910014
    21  C    8.820126   7.889207   6.530557   6.204930   7.351280
    22  N    9.951698   8.988425   7.644515   7.360314   8.508542
    23  H    3.406902   3.887270   3.390287   2.147851   1.071963
    24  Cl   1.759539   2.742706   4.036865   4.560352   4.053673
                    6          7          8          9         10
     6  C    0.000000
     7  H    3.405250   0.000000
     8  H    1.071871   4.290291   0.000000
     9  O    3.854780   4.693971   4.714797   0.000000
    10  C    4.310979   4.883193   5.193576   0.511651   0.000000
    11  C    5.045063   4.623878   6.041373   1.796239   1.399125
    12  C    5.234604   6.241472   5.968354   1.610690   1.398170
    13  C    6.413758   5.822186   7.395037   2.929086   2.433967
    14  C    6.563272   7.177969   7.334735   2.808648   2.420889
    15  H    5.132675   6.712600   5.703946   2.117525   2.147453
    16  C    7.066908   7.000808   7.957576   3.298879   2.801508
    17  H    7.104721   6.006106   8.127238   3.874000   3.404207
    18  H    7.348760   8.200993   8.037721   3.717958   3.391478
    19  H    3.839108   2.532964   4.910784   2.626965   2.637277
    20  H    4.707221   3.702978   5.759400   2.297642   2.090380
    21  C    8.584415   8.332372   9.475850   4.827529   4.331158
    22  N    9.738283   9.382996  10.629944   5.987656   5.491703
    23  H    2.152730   4.959188   2.476643   2.766165   3.259583
    24  Cl   2.745224   2.886913   2.879021   6.112943   6.483060
                   11         12         13         14         15
    11  C    0.000000
    12  C    2.420734   0.000000
    13  C    1.397915   2.814332   0.000000
    14  C    2.787834   1.402638   2.431276   0.000000
    15  H    3.393568   1.072001   3.886332   2.151484   0.000000
    16  C    2.414602   2.434164   1.401676   1.404271   3.405495
    17  H    2.149238   3.886251   1.071929   3.404719   4.958251
    18  H    3.859679   2.147460   3.400827   1.071846   2.474778
    19  H    2.101670   4.018537   3.318974   4.769519   4.719761
    20  H    1.059546   3.350739   2.168249   3.845552   4.228931
    21  C    3.819352   3.834132   2.538808   2.540933   4.691049
    22  N    4.934921   4.947799   3.600990   3.602898   5.746759
    23  H    4.457649   3.687294   5.671851   5.083073   3.270040
    24  Cl   6.767960   7.636011   8.108726   8.849294   7.723527
                   16         17         18         19         20
    16  C    0.000000
    17  H    2.152949   0.000000
    18  H    2.149826   4.289907   0.000000
    19  H    4.494049   3.631835   5.825456   0.000000
    20  H    3.397093   2.521501   4.917270   1.187997   0.000000
    21  C    1.529661   2.737655   2.731158   5.838326   4.702206
    22  N    2.690210   3.575776   3.568526   6.909840   5.766491
    23  H    5.925757   6.585983   5.681790   4.214488   4.585781
    24  Cl   9.057451   8.524559   9.744745   4.914086   6.068677
                   21         22         23         24
    21  C    0.000000
    22  N    1.160549   0.000000
    23  H    7.422416   8.565720   0.000000
    24  Cl  10.513919  11.631474   4.897909   0.000000
 Stoichiometry    C13H8ClNO
 Framework group  C1[X(C13H8ClNO)]
 Deg. of freedom    66
 Full point group                 C1      NOp   1
 Largest Abelian subgroup         C1      NOp   1
 Largest concise Abelian subgroup C1      NOp   1
                         Standard orientation:                         
 ---------------------------------------------------------------------
 Center     Atomic      Atomic             Coordinates (Angstroms)
 Number     Number       Type             X           Y           Z
 ---------------------------------------------------------------------
      1          6           0        3.571401   -0.173838   -0.073133
      2          6           0        2.623455   -1.194222    0.082611
      3          6           0        1.273486   -0.853222    0.205490
      4          6           0        0.858988    0.478752    0.174985
      5          6           0        1.803284    1.498231    0.019609
      6          6           0        3.161861    1.169366   -0.104436
      7          1           0        2.929228   -2.221323    0.107318
      8          1           0        3.889958    1.946886   -0.223787
      9          8           0       -0.652761    0.805204    0.314339
     10          6           0       -1.089925    0.548732    0.244365
     11          6           0       -1.464620   -0.797078    0.321501
     12          6           0       -2.059156    1.528666    0.009416
     13          6           0       -2.799197   -1.182210    0.164198
     14          6           0       -3.401246    1.152579   -0.147899
     15          1           0       -1.778134    2.561443   -0.050449
     16          6           0       -3.771035   -0.199954   -0.071178
     17          1           0       -3.075757   -2.216164    0.223235
     18          1           0       -4.146954    1.901087   -0.328202
     19          1           0        0.494463   -1.557991    0.325988
     20          1           0       -0.678514   -1.484820    0.499503
     21          6           0       -5.236652   -0.601889   -0.245175
     22          7           0       -6.348605   -0.906887   -0.377126
     23          1           0        1.491365    2.523522   -0.004687
     24         17           0        5.277223   -0.575855   -0.229757
 ---------------------------------------------------------------------
 Rotational constants (GHZ):           2.2150878           0.1767905           0.1648370
 Standard basis: 6-31+G(d) (6D, 7F)
 There are   324 symmetry adapted cartesian basis functions of A   symmetry.
 There are   324 symmetry adapted basis functions of A   symmetry.
   324 basis functions,   568 primitive gaussians,   324 cartesian basis functions
    59 alpha electrons       59 beta electrons
       nuclear repulsion energy      1063.7857032115 Hartrees.
 NAtoms=   24 NActive=   24 NUniq=   24 SFac= 1.00D+00 NAtFMM=   60 NAOKFM=F Big=F
 Integral buffers will be    131072 words long.
 Raffenetti 2 integral format.
 Two-electron integral symmetry is turned on.
 Nuclear repulsion after empirical dispersion term =     1063.7658612662 Hartrees.
 One-electron integrals computed using PRISM.
 NBasis=   324 RedAO= T EigKep=  1.22D-06  NBF=   324
 NBsUse=   322 1.00D-06 EigRej=  6.26D-07 NBFU=   322
 Initial guess from the checkpoint file:  "molecule_86.chk"
 B after Tr=     0.000000    0.000000    0.000000
         Rot=    0.998280   -0.058514    0.000390   -0.003574 Ang=  -6.72 deg.
 ExpMin= 4.38D-02 ExpMax= 2.52D+04 ExpMxC= 3.78D+03 IAcc=3 IRadAn=         5 AccDes= 0.00D+00
 Harris functional with IExCor=  402 and IRadAn=       5 diagonalized for initial guess.
 HarFok:  IExCor=  402 AccDes= 0.00D+00 IRadAn=         5 IDoV= 1 UseB2=F ITyADJ=14
 ICtDFT=  3500011 ScaDFX=  1.000000  1.000000  1.000000  1.000000
 FoFCou: FMM=F IPFlag=           0 FMFlag=      100000 FMFlg1=           0
         NFxFlg=           0 DoJE=T BraDBF=F KetDBF=T FulRan=T
         wScrn=  0.000000 ICntrl=       500 IOpCl=  0 I1Cent=   200000004 NGrid=           0
         NMat0=    1 NMatS0=      1 NMatT0=    0 NMatD0=    1 NMtDS0=    0 NMtDT0=    0
 Petite list used in FoFCou.
 Requested convergence on RMS density matrix=1.00D-08 within 128 cycles.
 Requested convergence on MAX density matrix=1.00D-06.
 Requested convergence on             energy=1.00D-06.
 No special actions if energy rises.
 EnCoef did     2 forward-backward iterations
 SCF Done:  E(RB3LYP) =  -1084.39245551     A.U. after   20 cycles
            NFock= 20  Conv=0.39D-08     -V/T= 1.9894
 Calling FoFJK, ICntrl=      2127 FMM=F ISym2X=0 I1Cent= 0 IOpClX= 0 NMat=1 NMatS=1 NMatT=0.
 ***** Axes restored to original set *****
 -------------------------------------------------------------------
 Center     Atomic                   Forces (Hartrees/Bohr)
 Number     Number              X              Y              Z
 -------------------------------------------------------------------
      1        6           0.000773807    0.004994678   -0.002339614
      2        6           0.005024447    0.007199477    0.012336079
      3        6          -0.000043857   -0.006714704    0.011459333
      4        6          -0.026452705   -0.070695051    0.077402421
      5        6          -0.004811165   -0.003773855   -0.016644220
      6        6           0.000072786    0.001037017   -0.010260577
      7        1          -0.002790444   -0.006824847   -0.005841830
      8        1           0.001895067   -0.000842514    0.009338305
      9        8          -3.084727561   -5.894295460   17.890347146
     10        6           2.989966847    5.683154055  -17.669059031
     11        6           0.000088125    0.013875774   -0.164701957
     12        6           0.129497680    0.279637655   -0.167984329
     13        6           0.000872646   -0.001526765    0.027078518
     14        6          -0.000953294   -0.006049980    0.031997107
     15        1          -0.005541921   -0.009776403    0.017336704
     16        6           0.011564260    0.029652791   -0.058714692
     17        1          -0.002819527   -0.003756528   -0.009753147
     18        1           0.006018703    0.013628989   -0.003596765
     19        1          -0.006097308   -0.036765499    0.006644804
     20        1          -0.003210129    0.021762713   -0.024626296
     21        6          -0.014048405   -0.035993635    0.056106472
     22        7           0.002700251    0.006921986   -0.010907609
     23        1           0.002270385    0.008729886    0.007123101
     24       17           0.000751309    0.006420218   -0.002739923
 -------------------------------------------------------------------
 Cartesian Forces:  Max    17.890347146 RMS     3.157738204

 GradGradGradGradGradGradGradGradGradGradGradGradGradGradGradGradGradGrad
 Berny optimization.
 Using GEDIIS/GDIIS optimizer.
 FormGI is forming the generalized inverse of G from B-inverse, IUseBI=4.
 Internal  Forces:  Max    91.199676658 RMS    13.279213480
 Search for a local minimum.
 Step number   2 out of a maximum of  122
 All quantities printed in internal units (Hartrees-Bohrs-Radians)
 Mixed Optimization -- RFO/linear search
 Update second derivatives using D2CorX and points    2    1
 DE=  5.90D+00 DEPred=-2.13D-01 R=-2.77D+01
 Trust test=-2.77D+01 RLast= 3.01D-01 DXMaxT set to 1.50D-01
 ITU= -1  0
 Use linear search instead of GDIIS.
     Eigenvalues ---    0.00226   0.00491   0.00501   0.01728   0.01791
     Eigenvalues ---    0.02066   0.02070   0.02070   0.02070   0.02070
     Eigenvalues ---    0.02070   0.02070   0.02070   0.02070   0.02070
     Eigenvalues ---    0.02070   0.02070   0.02070   0.02070   0.02070
     Eigenvalues ---    0.04867   0.04867   0.10932   0.15604   0.16000
     Eigenvalues ---    0.16000   0.16000   0.16000   0.16000   0.16000
     Eigenvalues ---    0.16000   0.16000   0.21832   0.21965   0.22812
     Eigenvalues ---    0.22956   0.23851   0.23998   0.24593   0.25000
     Eigenvalues ---    0.25000   0.27224   0.28339   0.29539   0.36637
     Eigenvalues ---    0.37110   0.37230   0.37230   0.37230   0.37230
     Eigenvalues ---    0.37230   0.37230   0.41100   0.41192   0.41575
     Eigenvalues ---    0.41906   0.45166   0.45337   0.45389   0.45389
     Eigenvalues ---    0.45389   0.45389   0.45389   0.45389   1.27782
     Eigenvalues ---  494.73849
 RFO could not converge Lambda in  999 iterations.
 Quartic linear search produced a step of -0.47379.
 Iteration  1 RMS(Cart)=  0.20007180 RMS(Int)=  0.00558030
 Iteration  2 RMS(Cart)=  0.06850626 RMS(Int)=  0.00058015
 Iteration  3 RMS(Cart)=  0.00129983 RMS(Int)=  0.00000695
 Iteration  4 RMS(Cart)=  0.00000018 RMS(Int)=  0.00000695
 Variable       Old X    -DE/DX   Delta X   Delta X   Delta X     New X
                                 (Linear)    (Quad)   (Total)
    R1        2.64834  -1.52927  -0.00004   0.00000  -0.00004   2.64830
    R2        2.65431  -5.15065  -0.00286   0.00000  -0.00286   2.65145
    R3        3.32505  -0.00701   0.00041   0.00000   0.00041   3.32546
    R4        2.64143   3.68317   0.00324   0.00000   0.00323   2.64466
    R5        2.02566   0.00936  -0.00173   0.00000  -0.00173   2.02393
    R6        2.63676   9.12126   0.00545   0.00000   0.00545   2.64220
    R7        1.99820  18.13559   0.01128   0.00000   0.01128   2.00948
    R8        2.64236   1.52005   0.00280   0.00000   0.00280   2.64516
    R9        2.93448 -13.80591  -0.00050   0.00000  -0.00050   2.93398
   R10        2.65187  -3.65644  -0.00171   0.00000  -0.00170   2.65016
   R11        2.02572   0.01141  -0.00176   0.00000  -0.00176   2.02396
   R12        2.02554   0.00956  -0.00167   0.00000  -0.00167   2.02387
   R13        2.64396 -10.95935   0.00204   0.00000   0.00203   2.64600
   R14        2.64216   0.43563   0.00289   0.00000   0.00289   2.64505
   R15        2.64168   2.04536   0.00312   0.00000   0.00312   2.64479
   R16        2.00225   6.64053   0.00936   0.00000   0.00936   2.01161
   R17        2.65060  -2.05988  -0.00111   0.00000  -0.00111   2.64950
   R18        2.02579   0.01067  -0.00179   0.00000  -0.00179   2.02400
   R19        2.64878  -0.13987  -0.00025   0.00000  -0.00025   2.64854
   R20        2.02565   0.01081  -0.00173   0.00000  -0.00173   2.02393
   R21        2.65369  -2.17020  -0.00257   0.00000  -0.00257   2.65112
   R22        2.02550   0.01459  -0.00165   0.00000  -0.00165   2.02384
   R23        2.89064  -0.05493   0.00926   0.00000   0.00926   2.89990
   R24        2.24499  15.40855   0.01149   0.00000   0.01149   2.25648
   R25        2.19312   0.01320  -0.00049   0.00000  -0.00049   2.19263
    A1        2.09616  -0.09234  -0.00084   0.00000  -0.00083   2.09533
    A2        2.09358   0.04680   0.00039   0.00000   0.00038   2.09396
    A3        2.09344   0.04554   0.00045   0.00000   0.00045   2.09389
    A4        2.07763   8.84054   0.00794   0.00000   0.00794   2.08557
    A5        2.10280  -4.41926  -0.00398   0.00000  -0.00398   2.09882
    A6        2.10276  -4.42117  -0.00396   0.00000  -0.00396   2.09880
    A7        2.11515 -12.42565  -0.00983   0.00000  -0.00984   2.10531
    A8        2.16392 -35.69428  -0.03294   0.00000  -0.03293   2.13098
    A9        2.00412  48.12073   0.04277   0.00000   0.04278   2.04690
   A10        2.09187   1.42720   0.00119   0.00000   0.00119   2.09306
   A11        2.08050  17.31159   0.00658   0.00000   0.00658   2.08709
   A12        2.11081 -18.73741  -0.00778   0.00000  -0.00777   2.10303
   A13        2.08606   4.50987   0.00395   0.00000   0.00396   2.09001
   A14        2.09829  -2.25410  -0.00184   0.00000  -0.00185   2.09644
   A15        2.09884  -2.25568  -0.00211   0.00000  -0.00211   2.09673
   A16        2.09950  -2.25897  -0.00242   0.00000  -0.00241   2.09709
   A17        2.09221   1.12979   0.00104   0.00000   0.00103   2.09324
   A18        2.09148   1.12933   0.00138   0.00000   0.00138   2.09286
   A19        2.09183   5.80235   0.00121   0.00000   0.00121   2.09304
   A20        2.11119  -6.19015  -0.00796   0.00000  -0.00796   2.10323
   A21        2.02075  21.38818   0.03489   0.00000   0.03489   2.05565
   A22        2.15123 -15.20036  -0.02693   0.00000  -0.02693   2.12431
   A23        2.08773  -0.16419   0.00316   0.00000   0.00316   2.09089
   A24        2.09773   0.06426  -0.00158   0.00000  -0.00158   2.09615
   A25        2.09773   0.09992  -0.00158   0.00000  -0.00158   2.09615
   A26        2.08031   3.70580   0.00667   0.00000   0.00667   2.08698
   A27        2.10117  -1.85276  -0.00321   0.00000  -0.00321   2.09796
   A28        2.10170  -1.85305  -0.00346   0.00000  -0.00346   2.09824
   A29        2.09912  -2.54925  -0.00224   0.00000  -0.00223   2.09689
   A30        2.09130   1.27934   0.00147   0.00000   0.00146   2.09276
   A31        2.09277   1.26987   0.00077   0.00000   0.00077   2.09354
   A32        2.09619  -0.60512  -0.00085   0.00000  -0.00085   2.09534
   A33        2.09356   0.30223   0.00040   0.00000   0.00039   2.09395
   A34        2.09344   0.30287   0.00045   0.00000   0.00045   2.09389
   A35        2.35042  91.19968   0.09017   0.00000   0.09017   2.44059
   A36        2.41582  63.80484   0.07866   0.00000   0.07866   2.49448
   A37        3.14154  -0.00007   0.00002   0.00000   0.00002   3.14157
   A38        3.14153  -0.00006   0.00003   0.00000   0.00003   3.14156
    D1       -0.00019   0.66397   0.00009   0.00000   0.00009  -0.00010
    D2        3.14159   0.02540   0.00000   0.00000   0.00001  -3.14159
    D3        3.14144   0.52163   0.00007   0.00000   0.00007   3.14151
    D4        0.00003  -0.11694  -0.00001   0.00000  -0.00001   0.00002
    D5       -0.00015   0.44603   0.00007   0.00000   0.00007  -0.00008
    D6       -3.14152  -0.32529  -0.00004   0.00000  -0.00004  -3.14156
    D7        3.14142   0.58836   0.00008   0.00000   0.00008   3.14150
    D8        0.00004  -0.18296  -0.00002   0.00000  -0.00002   0.00002
    D9        0.00047  -1.54103  -0.00022   0.00000  -0.00022   0.00025
   D10        3.14146   0.17287   0.00006   0.00000   0.00007   3.14153
   D11       -3.14130  -0.90247  -0.00014   0.00000  -0.00014  -3.14144
   D12       -0.00031   0.81143   0.00015   0.00000   0.00015  -0.00016
   D13       -0.00043   1.28908   0.00020   0.00000   0.00020  -0.00022
   D14        3.14062   4.11883   0.00046   0.00000   0.00046   3.14108
   D15       -3.14146  -0.25117  -0.00006   0.00000  -0.00006  -3.14152
   D16       -0.00042   2.57859   0.00020   0.00000   0.00020  -0.00022
   D17        3.07752  10.62579   0.00148   0.00000   0.00148   3.07900
   D18       -0.06464  12.22427   0.00175   0.00000   0.00175  -0.06289
   D19        0.00008  -0.14602  -0.00004   0.00000  -0.00004   0.00005
   D20        3.14152   0.48884   0.00004   0.00000   0.00004   3.14156
   D21       -3.14095  -3.03757  -0.00030   0.00000  -0.00030  -3.14125
   D22        0.00049  -2.40272  -0.00023   0.00000  -0.00023   0.00026
   D23        0.00020  -0.70812  -0.00009   0.00000  -0.00009   0.00010
   D24        3.14157   0.06287   0.00001   0.00000   0.00001   3.14158
   D25       -3.14124  -1.34319  -0.00017   0.00000  -0.00017  -3.14141
   D26        0.00013  -0.57219  -0.00006   0.00000  -0.00006   0.00007
   D27        0.00223   0.26519  -0.00105   0.00000  -0.00105   0.00118
   D28        3.13939  -0.34043   0.00104   0.00000   0.00100   3.14039
   D29       -0.00062  -0.12367   0.00029   0.00000   0.00028  -0.00034
   D30        3.14131  -0.08887   0.00013   0.00000   0.00013   3.14144
   D31       -0.00235  -0.25212   0.00111   0.00000   0.00112  -0.00124
   D32        3.13959  -0.22379   0.00095   0.00000   0.00095   3.14055
   D33       -3.13918   0.30320  -0.00115   0.00000  -0.00118  -3.14035
   D34        0.00277   0.33153  -0.00131   0.00000  -0.00134   0.00143
   D35       -0.44847   1.64378  -0.00766   0.00000  -0.00765  -0.45612
[...]
 .03095258,-0.00989643,0.02657918,-0.01086492,0.04646266,0.01252220,0.0
 3614331,-0.04445445,-0.16968542,-0.10621053,-0.00821478,-0.19007108,-0
 .07860796,-0.08401447,0.00421902,-0.00232738,-0.00091881,0.42412233,-0
 .00013893,0.00031740,0.00009015,0.00015998,0.00016516,-0.00008169,-0.0
 0007846,-0.00028661,0.00006643,0.00048306,0.00141336,-0.00034655,-0.00
 000298,0.00009252,-0.00029284,0.00002447,-0.00029166,0.00001610,0.0000
 3766,-0.00004413,0.00004943,0.00000744,-0.00002437,0.00002976,0.003353
 22,-0.00090994,0.00300450,-0.03168607,-0.02671049,-0.01441378,0.008113
 68,-0.02040532,0.05396034,0.01735057,0.03393430,-0.01341950,-0.1271215
 0,-0.20839424,0.02561404,-0.05752132,-0.11461442,-0.00878288,-0.002242
 42,0.00168532,0.00476096,0.21002836,0.44554184,-0.00008614,-0.00035917
 ,0.00002863,-0.00005126,0.00007989,0.00013702,0.00033031,0.00056171,-0
 .00033394,-0.00188822,-0.00253025,0.00104070,0.00013865,0.00041564,0.0
 0008181,0.00001084,0.00016870,-0.00008345,0.00001239,0.00009430,-0.000
 03018,0.00002252,0.00006297,-0.00004323,0.00196648,0.00439065,-0.00777
 580,-0.01073445,-0.01406664,0.00215825,0.01854115,0.02432726,-0.002381
 07,-0.01748054,0.01524415,-0.04157277,0.02297245,0.05765446,-0.1120405
 6,-0.11510074,-0.04094966,-0.17883603,-0.00119318,0.00456254,-0.001524
 47,0.14054731,-0.14977731,0.57567604,0.00003741,-0.00004973,-0.0000338
 3,-0.00004988,-0.00003258,0.00001994,0.00004307,0.00006290,-0.00008007
 ,0.00002747,-0.00011371,-0.00000488,-0.00003367,-0.00001773,0.00007253
 ,-0.00000357,0.00007405,0.00000242,-0.00000011,0.00001138,-0.00000544,
 0.00000126,0.00000343,0.00000037,-0.00028303,0.00010048,-0.00000283,0.
 00430872,-0.00252910,-0.00140088,0.00244297,-0.00134544,-0.00053608,-0
 .00003383,0.00040948,0.00073575,-0.19235210,-0.06801671,-0.13560253,0.
 00122821,-0.00492404,0.00053559,-0.00033127,0.00032008,0.00014886,-0.0
 0852727,-0.00385621,-0.01278259,0.19644708,-0.00002892,0.00002108,0.00
 003165,0.00002307,0.00001849,-0.00002135,-0.00003461,-0.00006875,0.000
 03525,0.00005892,0.00034136,-0.00007054,-0.00000994,0.00000228,-0.0000
 3151,-0.00000056,-0.00005060,-0.00000620,0.00000547,-0.00001350,0.0000
 0727,-0.00000066,-0.00000290,0.00000244,0.00090902,0.00000688,0.000810
 52,-0.00305168,0.00159967,0.00453069,0.01138689,0.00825003,0.01099769,
 0.00040905,-0.00068591,0.00032630,-0.06709565,-0.07467142,-0.04704629,
 -0.00442206,-0.00119186,0.00366140,0.00032965,-0.00023472,-0.00026044,
 -0.01703154,-0.00316036,-0.01618763,0.07634409,0.07219896,-0.00003320,
 -0.00000178,0.00003410,0.00004479,0.00003896,-0.00000825,0.00004473,0.
 00000512,0.00005584,-0.00030224,-0.00068548,0.00027918,0.00005472,0.00
 009902,-0.00005937,0.00001145,-0.00003630,-0.00000147,-0.00000487,0.00
 001370,-0.00000777,0.00000291,0.00000967,-0.00000957,-0.00083156,-0.00
 008630,-0.00134960,-0.00098873,0.00503028,-0.00149482,-0.01948641,-0.0
 0842270,-0.01287349,0.00065416,0.00026963,-0.00034606,-0.13672168,-0.0
 4791102,-0.17520585,-0.00015889,0.00292308,0.00118042,0.00016534,-0.00
 025811,-0.00010616,0.00654273,0.00349745,0.00836823,0.14765984,0.04726
 942,0.18097938,-0.00001058,0.00001961,0.00001034,0.00001843,0.00002056
 ,-0.00000334,-0.00000067,0.00000432,-0.00000531,-0.00011302,0.00014857
 ,0.00001384,0.00002388,-0.00002920,0.00000719,-0.00000054,-0.00001599,
 0.00001119,0.00000355,0.00000167,0.00000025,-0.00000476,-0.00000267,-0
 .00000337,0.00013853,0.00020973,-0.00003910,0.00389466,-0.00223085,-0.
 00318732,-0.00015072,0.00076344,-0.00009685,0.00643233,0.00371200,-0.0
 0193503,0.00016567,-0.00227869,-0.00499032,-0.15375048,-0.14059426,0.0
 3169212,-0.00146256,0.00204361,0.00158890,-0.00867508,-0.01648046,0.00
 612266,-0.00030565,-0.00097392,0.00026939,0.15540382,0.00002880,0.0000
 2411,-0.00001855,-0.00002143,-0.00002407,-0.00000216,-0.00001428,-0.00
 004255,0.00004147,0.00020614,0.00017909,-0.00003405,-0.00001531,-0.000
 05492,0.00000964,-0.00001065,0.00001041,-0.00000448,-0.00000753,-0.000
 00900,0.00000004,-0.00000076,-0.00000488,0.00000454,-0.00044590,-0.000
 80509,0.00027253,-0.00183675,0.00369922,0.00368351,0.00069714,0.000005
 44,-0.00018692,-0.00906776,-0.00657289,0.00199083,-0.00274591,0.002909
 40,-0.00015208,-0.14120297,-0.21910459,0.05422489,0.00227805,-0.001307
 36,-0.00120549,-0.00375905,-0.00264668,0.00319029,-0.00030165,-0.00002
 275,0.00026808,0.15426629,0.22506291,-0.00001075,-0.00003641,-0.000003
 09,0.00000736,0.00000246,0.00001174,0.00001844,0.00004189,-0.00002031,
 0.00003099,-0.00033580,-0.00032941,0.00001077,0.00017326,-0.00002252,0
 .00004177,0.00000314,-0.00001575,-0.00000088,0.00000863,-0.00000222,0.
 00001034,0.00001618,-0.00000164,0.00086456,0.00163392,-0.00035013,-0.0
 0362099,0.00311910,-0.00240758,-0.00014789,-0.00008242,-0.00086634,0.0
 1742277,0.02159814,-0.00164897,-0.00432151,0.00057473,-0.00196619,0.03
 264658,0.05524225,-0.07034481,0.00126455,-0.00156548,-0.00019140,-0.01
 318948,-0.01667452,0.00790867,-0.00076759,-0.00080205,0.00049876,-0.03
 106475,-0.06100331,0.06955053,0.00419566,-0.00206985,0.00274181,-0.004
 10721,0.00053913,0.00742560,-0.18620672,-0.01455608,0.15335845,-0.0034
 4945,-0.00361093,0.00775781,0.00302325,0.00148379,0.00248737,-0.000111
 02,0.00015271,-0.00076837,-0.00182766,0.00024711,-0.00253181,-0.000354
 76,0.00004468,-0.00027862,-0.00158265,0.00064141,-0.00277501,0.0002518
 6,0.00045078,0.00048773,0.00039852,-0.00028191,-0.00000720,0.00007148,
 0.00022913,-0.00029546,0.00007412,0.00008156,-0.00034076,0.00011077,-0
 .00007235,0.00020455,-0.00002998,-0.00001665,0.00000956,-0.00020184,-0
 .00011188,0.00001211,-0.00000391,0.00000967,-0.00001056,-0.00000712,-0
 .00000369,-0.00000244,0.19047855,-0.00170856,-0.00366741,0.00010147,-0
 .02030976,0.00249113,0.02098941,-0.01556712,-0.06033832,0.01196672,0.0
 1894968,0.00666775,-0.01904325,0.00079811,-0.00454664,-0.00237671,-0.0
 0010335,-0.00116417,0.00007469,0.00055417,0.00073733,0.00017059,0.0000
 5326,0.00012049,0.00007075,-0.00020087,0.00240524,0.00083413,0.0003141
 3,-0.00087478,0.00026265,0.00011815,-0.00003556,0.00007266,-0.00008448
 ,0.00003921,0.00008377,0.00001619,-0.00004945,0.00001826,0.00001492,-0
 .00004038,0.00003954,0.00000871,-0.00001463,-0.00001542,-0.00002929,0.
 00004000,-0.00004752,-0.00000973,0.00001136,-0.00001983,0.00000654,0.0
 0000285,-0.00000774,0.01722305,0.05867316,0.00284148,0.00042478,0.0042
 5004,0.00404125,-0.00055327,-0.00134043,0.15345175,0.01082099,-0.19158
 507,0.01129180,0.00324508,-0.00647198,0.00242928,-0.00317208,0.0020523
 6,-0.00075398,-0.00009608,-0.00001846,-0.00247112,0.00055122,-0.001663
 25,-0.00027580,0.00007621,-0.00031822,-0.00296930,0.00148803,-0.001238
 58,0.00009422,-0.00006248,0.00049292,0.00009674,0.00019721,-0.00008937
 ,0.00006226,-0.00004767,-0.00009910,-0.00007887,-0.00002554,-0.0000125
 4,0.00001045,0.00000537,0.00005904,0.00000420,-0.00003917,-0.00001039,
 -0.00000151,0.00000033,-0.00003187,-0.00000069,0.00000373,-0.00002056,
 -0.00001276,0.00001113,0.00000337,-0.16842533,-0.01297683,0.19628340,-
 0.00016400,0.00031608,0.00010449,0.00029513,0.00040274,-0.00002268,0.0
 0008173,0.00024283,0.00008526,-0.00062644,-0.00030233,-0.00024620,0.00
 051137,0.00024390,-0.00032646,-0.00011590,-0.00039507,0.00003690,0.000
 01519,0.00000441,-0.00000704,-0.00000277,-0.00001428,0.00002699,-0.000
 35349,0.00168811,0.00145545,-0.00900820,-0.01741981,0.00693215,-0.1550
 2938,-0.14353055,0.03083829,0.00005829,-0.00224361,-0.00472729,0.00573
 236,0.00419358,-0.00110335,-0.00045480,0.00069870,-0.00063766,-0.00046
 702,-0.00083322,0.00037705,0.00378267,-0.00138649,-0.00274667,-0.00133
 111,0.00207773,0.00150146,-0.00033087,0.00029636,0.00027905,-0.0003812
 8,0.00002104,-0.00006399,0.15751238,-0.00012984,-0.00008795,0.00002964
 ,0.00016099,-0.00009659,-0.00002696,0.00054090,-0.00066900,0.00115731,
 0.00127682,0.00000046,0.00121125,0.00032315,0.00003319,0.00002358,0.00
 009950,0.00005808,-0.00003899,-0.00002147,-0.00001831,-0.00000717,0.00
 000728,0.00000078,-0.00000366,0.00128986,-0.00179540,-0.00002463,-0.00
 533733,-0.00352813,0.00264905,-0.14434722,-0.21523884,0.05329415,-0.00
 261182,0.00260470,-0.00006637,-0.00834540,-0.00736282,0.00194208,0.000
 58271,0.00010435,-0.00031554,-0.00012202,-0.00016242,0.00022268,-0.001
 33619,0.00313956,0.00356125,0.00219337,-0.00122307,-0.00120521,0.00029
 922,-0.00034522,-0.00020149,-0.00004607,0.00002864,-0.00005404,0.15613
 239,0.22474004,0.00028558,0.00012621,-0.00024940,-0.00037454,-0.000297
 56,0.00010283,-0.00079662,0.00121493,-0.00064048,-0.00086173,0.0000135
 0,-0.00186650,0.00004745,0.00009870,-0.00006355,0.00009666,0.00024655,
 -0.00010318,0.00001154,-0.00004554,0.00002268,-0.00001462,0.00000709,-
 0.00000840,0.00203048,0.00014253,0.00066216,-0.01220020,-0.01668180,0.
 01020442,0.03107041,0.05390197,-0.06806416,-0.00411204,0.00056684,-0.0
 0210342,0.01809998,0.02146339,-0.00229655,-0.00038050,-0.00015602,-0.0
 0097910,-0.00065680,-0.00092415,0.00029094,-0.00299735,0.00341582,-0.0
 0275294,0.00131548,-0.00152425,-0.00016093,0.00026855,-0.00021586,-0.0
 0004973,0.00025371,-0.00005578,0.00008474,-0.03156370,-0.06223284,0.06
 812101,-0.00001974,0.00008701,0.00002466,0.00003929,0.00006049,0.00000
 006,0.00005227,-0.00006766,0.00005884,-0.00003956,0.00025488,0.0000566
 8,0.00004414,-0.00002524,-0.00006369,-0.00000551,-0.00007571,0.0000027
 5,0.00000515,-0.00000141,0.00000081,0.00000060,-0.00001073,0.00000874,
 0.00000717,0.00016523,0.00067787,-0.00238516,-0.00087556,-0.00093501,0
 .00103913,-0.00628369,0.00024230,-0.00054660,-0.00462640,-0.00452678,0
 .00676392,-0.00466015,0.01858304,-0.00040223,0.01533532,-0.02280233,0.
 00041180,0.00032470,-0.00118178,-0.07251367,-0.00296187,-0.02589856,-0
 .00159775,0.00103176,0.00179840,-0.00150936,0.00184654,0.00045049,-0.0
 0004143,0.00001005,-0.00001071,0.00062036,-0.00071935,0.00065849,0.117
 22872,-0.00003151,-0.00021219,0.00002456,-0.00001889,-0.00000575,0.000
 01502,0.00005690,0.00028377,-0.00003407,-0.00060512,-0.00135879,0.0003
 2031,0.00010870,0.00020682,0.00001636,0.00000930,0.00010103,-0.0000464
 7,-0.00000143,0.00003249,-0.00000949,0.00001215,0.00002890,-0.00002085
 ,0.00075715,0.00169296,-0.00272635,-0.00080224,-0.00291041,0.00214553,
 -0.00753208,-0.00013228,-0.00101376,-0.00341776,0.00531985,-0.00268969
 ,0.00113604,-0.02095816,0.03244701,0.00914732,0.00689970,0.00282014,-0
 .00032526,0.00073432,-0.00029102,-0.00261503,-0.11610165,0.09120200,0.
 00194257,-0.00118204,-0.00081321,0.00093242,-0.00126035,-0.00210776,0.
 00003727,-0.00004741,-0.00001309,-0.00007881,-0.00005349,0.00127529,-0
 .05509760,0.42734906,0.00011165,0.00039978,-0.00007251,0.00001195,-0.0
 0003702,-0.00004376,-0.00020453,-0.00042653,0.00015341,0.00135632,0.00
 216941,-0.00086209,-0.00011256,-0.00030349,0.00001301,-0.00000748,-0.0
 0012635,0.00004964,-0.00000598,-0.00006819,0.00001981,-0.00002463,-0.0
 0004277,0.00002897,-0.00008221,-0.00309624,0.00470623,-0.00091121,0.00
 160984,-0.00550627,0.00195658,0.00135781,0.00842673,-0.00627015,-0.005
 16965,0.00421075,0.00948941,0.02286977,-0.02051918,-0.01365579,0.01241
 877,-0.04081321,-0.00018792,0.00071432,-0.00047907,-0.02607631,0.09113
 316,-0.23149400,0.00040207,-0.00228472,0.00013274,0.00183354,-0.000655
 73,0.00034308,-0.00007971,0.00009998,0.00001361,-0.00028407,0.00024869
 ,0.00008749,0.13403922,-0.60504732,1.21141016,-0.00000573,-0.00005140,
 -0.00000654,-0.00000424,-0.00001353,0.00000495,-0.00000971,0.00004205,
 -0.00001766,-0.00006697,-0.00018851,0.00003875,-0.00000336,0.00002294,
 0.00001826,0.00000854,0.00003115,-0.00000252,-0.00000515,0.00000336,-0
 .00000176,-0.00000033,0.00000659,-0.00000751,0.00003614,0.00018155,-0.
 00038176,0.00063116,0.00011967,0.00051421,-0.00014724,0.00123929,-0.00
 031068,0.00013341,0.00088671,0.00067435,-0.00125591,-0.00193215,-0.002
 11509,0.00045749,-0.00243152,0.00132661,-0.00014916,-0.00000911,0.0002
 1029,0.01748039,0.00409609,-0.00281304,0.00031045,0.00006727,-0.000216
 35,0.00024353,-0.00017473,0.00007013,0.00001215,-0.00001005,-0.0000002
 9,-0.00019563,0.00017015,-0.00012917,-0.04711928,0.05632817,-0.1011766
 9,0.02963293,0.00004141,0.00017358,-0.00002723,0.00001024,0.00000303,-
 0.00000827,-0.00004767,-0.00017336,0.00006027,0.00045475,0.00085009,-0
 .00026195,-0.00003996,-0.00013302,-0.00001069,-0.00000352,-0.00006462,
 0.00002578,-0.00000292,-0.00002090,0.00000184,-0.00001152,-0.00001949,
 0.00001213,-0.00023689,-0.00116466,0.00178424,0.00007478,0.00129942,-0
 .00177071,0.00142236,-0.00037202,0.00109827,0.00075978,-0.00142495,0.0
 0139292,0.00100887,0.00480816,-0.00268374,-0.00524940,-0.00192736,-0.0
 0227737,0.00008015,-0.00030630,0.00015896,0.00394194,0.00747231,0.0180
 6957,-0.00029237,0.00008484,-0.00003167,0.00018721,0.00033859,0.000361
 81,-0.00004131,0.00003896,0.00000019,0.00007470,-0.00011297,-0.0001201
 1,0.05634859,-0.29861836,0.48459321,-0.05842416,0.28941783,-0.00008231
 ,-0.00031813,0.00005727,-0.00001562,0.00000940,0.00002007,0.00013521,0
 .00031171,-0.00011927,-0.00091155,-0.00160119,0.00054495,0.00006378,0.
 00023703,-0.00000648,0.00000238,0.00010287,-0.00003562,0.00000388,0.00
 005091,-0.00001450,0.00001917,0.00003234,-0.00002180,0.00024995,0.0022
 0029,-0.00325277,0.00049438,-0.00145050,0.00369818,-0.00051360,0.00064
 282,-0.00321492,0.00084516,0.00186940,-0.00230710,-0.00651407,-0.00716
 238,0.00269032,0.00562630,0.00212524,0.00755869,0.00007314,0.00002581,
 -0.00020239,-0.00263775,0.01817287,-0.01645952,0.00031640,0.00056349,0
 .00013475,-0.00047739,-0.00022354,-0.00008173,0.00006483,-0.00008161,-
 0.00001093,0.00001117,0.00002889,-0.00032129,-0.10118367,0.48456558,-0
 .92983156,0.10433027,-0.50038517,0.94119392,0.00312194,-0.00247627,0.0
 0372437,-0.00072707,-0.00061540,-0.00019085,-0.00015015,-0.00159607,0.
 00523275,-0.00207008,0.01904336,0.01064462,-0.07332216,0.07065015,0.05
 166430,0.00729900,-0.01090408,-0.00645834,-0.00025693,0.00009924,-0.00
 032805,-0.00185196,0.00059899,-0.00240684,-0.00090403,0.00087689,-0.00
 374673,0.00024496,-0.00004210,0.00039342,0.00006393,0.00016073,-0.0001
 2972,0.00000860,0.00015463,-0.00015814,-0.00006073,-0.00004047,-0.0000
 2045,0.00004682,-0.00003151,0.00007734,-0.00002386,-0.00000945,0.00002
 231,-0.00003597,0.00001857,-0.00006691,-0.00000200,0.00000575,-0.00001
 930,0.00000114,0.00000216,-0.00000838,-0.00008847,0.00092207,0.0005261
 2,-0.00005062,-0.00006698,0.00001061,-0.00000149,-0.00003231,0.0000431
 3,-0.00000645,0.00001547,-0.00002975,0.06870365,-0.00288128,-0.0017882
 9,0.00155340,-0.00044492,0.00005151,0.00060233,-0.00098243,0.00101800,
 0.00028838,-0.00210447,0.00368250,0.00197931,0.07215766,-0.25714048,-0
 .11189888,0.00937077,-0.01747832,-0.01318935,0.00010811,-0.00001584,-0
 .00001084,0.00025826,0.00070354,0.00056175,0.00051005,0.00109364,0.000
 10706,0.00010115,0.00002841,0.00028905,-0.00002987,0.00000994,-0.00001
 310,0.00001192,0.00005234,-0.00006734,-0.00001388,0.00000619,0.0000148
 6,0.00001397,-0.00001464,0.00003089,-0.00001475,-0.00000219,0.00000564
 ,-0.00000795,0.00000151,-0.00003810,-0.00000093,0.00000011,-0.00000369
 ,-0.00000117,0.00000355,-0.00000029,-0.00014396,0.00027382,0.00016600,
 0.00000747,-0.00002059,-0.00003815,0.00000315,-0.00001494,0.00002363,-
 0.00000295,0.00000997,-0.00001707,-0.07594848,0.27075785,0.00361618,0.
 00133485,0.00334686,-0.00006408,0.00086033,-0.00058068,0.00541531,0.00
 116322,-0.00059315,0.00620074,-0.02163441,-0.00486612,0.05249070,-0.11
 049377,-0.10849343,-0.00329016,0.00839009,0.00762603,-0.00031958,-0.00
 002429,-0.00023529,-0.00247676,0.00011711,-0.00155779,-0.00354970,0.00
 034859,-0.00019795,0.00017918,0.00060974,-0.00079116,0.00008138,0.0001
 2428,0.00018766,-0.00005732,-0.00008795,-0.00000107,-0.00003639,0.0000
 4395,-0.00008485,0.00003041,0.00001191,-0.00003247,0.00001020,0.000003
 09,0.00000093,0.00000661,-0.00006155,0.00005758,0.00001051,-0.00000642
 ,-0.00000359,-0.00000458,-0.00000452,-0.00000169,0.00038822,-0.0010660
 3,-0.00027222,0.00002344,-0.00017085,0.00002336,-0.00001418,0.00003715
 ,-0.00007865,0.00000257,-0.00002871,0.00006311,-0.05873637,0.11991672,
 0.10632394,-0.04737102,-0.04102610,0.01993462,-0.00832786,-0.02759332,
 0.00817589,0.00067289,0.00280094,0.00440811,0.00072396,0.00006420,-0.0
 0107360,0.00209885,0.00001194,0.00287620,0.00373839,0.00024654,0.00000
 416,-0.00127202,-0.00032787,-0.00139667,-0.00078354,0.00089921,-0.0018
 1607,-0.00097867,-0.00142697,0.00061639,0.00003557,0.00055884,-0.00117
 358,0.00015299,-0.00002975,0.00029570,-0.00002156,-0.00017663,0.000201
 45,0.00000636,0.00006179,-0.00013967,-0.00003913,0.00001317,-0.0000973
 5,0.00000927,0.00002913,-0.00000978,-0.00000286,-0.00008450,0.00016541
 ,0.00000852,-0.00000879,0.00002387,-0.00000412,-0.00001309,0.00001687,
 -0.00022285,-0.00098687,0.00021481,-0.00009798,0.00000734,-0.00006168,
 -0.00003078,0.00009004,-0.00016463,0.00002297,-0.00007052,0.00012970,0
 .00006193,0.00003453,0.00009367,0.05162067,-0.04115009,-0.13260606,0.0
 2508646,-0.00911317,-0.01794584,0.00614075,-0.00113136,0.00198837,0.00
 048539,0.00049466,0.00168098,0.00028595,0.00387119,0.00015807,-0.00473
 268,-0.01795359,-0.03961715,0.01194965,0.00046390,0.00115457,0.0001470
 7,0.00012998,0.00021121,0.00031221,-0.00155970,-0.00328846,0.00253415,
 0.00003062,0.00107006,-0.00255206,0.00029724,-0.00006310,0.00069871,-0
 .00006069,-0.00040161,0.00050943,0.00000709,0.00016190,-0.00030111,-0.
 00011120,0.00001902,-0.00021448,0.00002744,0.00005137,-0.00003201,-0.0
 0000361,-0.00021342,0.00037091,0.00002809,-0.00002720,0.00005089,-0.00
 000796,-0.00003524,0.00004175,-0.00018559,-0.00075122,0.00005000,-0.00
 019588,0.00000501,-0.00018077,-0.00006235,0.00020693,-0.00038036,0.000
 04313,-0.00015879,0.00030092,-0.00078490,-0.00121757,0.00061745,0.0669
 2673,0.18961814,0.01986750,0.02518100,-0.03878621,0.01117144,0.0254646
 3,-0.00395886,0.00380753,-0.00352954,0.00006614,-0.00128792,0.00021311
 ,0.00067943,0.00349617,-0.00054781,0.00086594,-0.00292414,-0.00760279,
 0.00558306,-0.00127071,0.00089158,-0.00107701,-0.00191869,-0.00046165,
 -0.00067044,-0.00003926,0.00109822,-0.00072768,-0.00005010,-0.00022462
 ,0.00062818,-0.00002727,-0.00000194,-0.00017171,0.00003429,0.00008131,
 -0.00015983,-0.00001647,-0.00003312,0.00007610,0.00003628,0.00000830,0
 .00006880,-0.00000335,-0.00001262,0.00000672,0.00000394,0.00003925,-0.
 00009711,-0.00000234,0.00000157,-0.00001591,0.00000215,0.00000972,-0.0
 0001263,0.00032352,0.00090610,-0.00005653,0.00005740,-0.00002080,0.000
 05997,0.00001434,-0.00005589,0.00010465,-0.00001135,0.00004644,-0.0000
 8139,-0.00003915,-0.00026220,0.00016063,-0.03122380,-0.04118826,0.0375
 1568\\0.00000690,-0.00000389,-0.00000753,-0.00000230,-0.00000733,0.000
 00488,-0.00000642,-0.00000186,0.00000293,-0.00000370,0.00001349,-0.000
 03968,-0.00000498,-0.00000549,0.00000841,0.00000503,0.00001272,0.00000
 061,0.00000069,0.00000070,-0.00000053,-0.00000038,-0.00000121,-0.00000
 022,0.00002883,0.00006774,-0.00002819,-0.00002154,-0.00007491,0.000036
 42,-0.00000562,0.00001887,-0.00002459,0.00000329,-0.00001812,0.0000377
 0,-0.00000283,-0.00000981,0.00000800,-0.00000701,-0.00000126,-0.000007
 51,0.00000123,0.00000076,-0.00000010,0.00000491,0.00000496,0.00000086,
 -0.00000092,0.00000097,-0.00000143,0.00000049,-0.00000010,0.00000046,-
 0.00000035,0.00000443,0.00000416,0.00000503,-0.00000183,0.00000387,0.0
 0000128,0.00000047,0.00000211,0.00000058,-0.00000111,0.00000007,-0.000
 00012,0.00000220,-0.00000192,-0.00000211,-0.00000041,0.00000122\\\@


 GOD GAVE US TWO ENDS... ONE TO SIT ON...    
 AND THE OTHER TO THINK WITH...              
 YOUR SUCCESS DEPENDS UPON WHICH END YOU     
 USE THE MOST...                             
                                             
 IT'S A CASE OF HEADS YOU WIN TAILS YOU LOSE.
          SOURCE UNKNOWN(IT'S JUST AS WELL.) 
 Job cpu time:       0 days  2 hours  6 minutes 47.5 seconds.
 Elapsed time:       0 days  0 hours  4 minutes 13.6 seconds.
 File lengths (MBytes):  RWF=    282 Int=      0 D2E=      0 Chk=     12 Scr=      1
 Normal termination of Gaussian 16 at Mon Sep 18 14:48:45 2023.
