 Entering Gaussian System, Link 0=g16
 Input=/home/ubuntu/Downloads/molecule_57.gjf
 Output=/home/ubuntu/Downloads/molecule_57.log
 Initial command:
 /home/ubuntu/g16/l1.exe "/home/ubuntu/Scratch/Gau-343797.inp" -scrdir="/home/ubuntu/Scratch/"
 Entering Link 1 = /home/ubuntu/g16/l1.exe PID=    343800.
  
 Copyright (c) 1988-2017, Gaussian, Inc.  All Rights Reserved.
  
 This is part of the Gaussian(R) 16 program.  It is based on
 the Gaussian(R) 09 system (copyright 2009, Gaussian, Inc.),
 the Gaussian(R) 03 system (copyright 2003, Gaussian, Inc.),
 the Gaussian(R) 98 system (copyright 1998, Gaussian, Inc.),
 the Gaussian(R) 94 system (copyright 1995, Gaussian, Inc.),
 the Gaussian 92(TM) system (copyright 1992, Gaussian, Inc.),
 the Gaussian 90(TM) system (copyright 1990, Gaussian, Inc.),
 the Gaussian 88(TM) system (copyright 1988, Gaussian, Inc.),
 the Gaussian 86(TM) system (copyright 1986, Carnegie Mellon
 University), and the Gaussian 82(TM) system (copyright 1983,
 Carnegie Mellon University). Gaussian is a federally registered
 trademark of Gaussian, Inc.
  
 This software contains proprietary and confidential information,
 including trade secrets, belonging to Gaussian, Inc.
  
 This software is provided under written license and may be
 used, copied, transmitted, or stored only in accord with that
 written license.
  
 The following legend is applicable only to US Government
 contracts under FAR:
  
                    RESTRICTED RIGHTS LEGEND
  
 Use, reproduction and disclosure by the US Government is
 subject to restrictions as set forth in subparagraphs (a)
 and (c) of the Commercial Computer Software - Restricted
 Rights clause in FAR 52.227-19.
  
 Gaussian, Inc.
 340 Quinnipiac St., Bldg. 40, Wallingford CT 06492
  
  
 ---------------------------------------------------------------
 Warning -- This program may not be used in any manner that
 competes with the business of Gaussian, Inc. or will provide
 assistance to any competitor of Gaussian, Inc.  The licensee
 of this program is prohibited from giving any competitor of
 Gaussian, Inc. access to this program.  By using this program,
 the user acknowledges that Gaussian, Inc. is engaged in the
 business of creating and licensing software in the field of
 computational chemistry and represents and warrants to the
 licensee that it is not a competitor of Gaussian, Inc. and that
 it will not use this program in any manner prohibited above.
 ---------------------------------------------------------------
  

 Cite this work as:
 Gaussian 16, Revision B.01,
 M. J. Frisch, G. W. Trucks, H. B. Schlegel, G. E. Scuseria, 
 M. A. Robb, J. R. Cheeseman, G. Scalmani, V. Barone, 
 G. A. Petersson, H. Nakatsuji, X. Li, M. Caricato, A. V. Marenich, 
 J. Bloino, B. G. Janesko, R. Gomperts, B. Mennucci, H. P. Hratchian, 
 J. V. Ortiz, A. F. Izmaylov, J. L. Sonnenberg, D. Williams-Young, 
 F. Ding, F. Lipparini, F. Egidi, J. Goings, B. Peng, A. Petrone, 
 T. Henderson, D. Ranasinghe, V. G. Zakrzewski, J. Gao, N. Rega, 
 G. Zheng, W. Liang, M. Hada, M. Ehara, K. Toyota, R. Fukuda, 
 J. Hasegawa, M. Ishida, T. Nakajima, Y. Honda, O. Kitao, H. Nakai, 
 T. Vreven, K. Throssell, J. A. Montgomery, Jr., J. E. Peralta, 
 F. Ogliaro, M. J. Bearpark, J. J. Heyd, E. N. Brothers, K. N. Kudin, 
 V. N. Staroverov, T. A. Keith, R. Kobayashi, J. Normand, 
 K. Raghavachari, A. P. Rendell, J. C. Burant, S. S. Iyengar, 
 J. Tomasi, M. Cossi, J. M. Millam, M. Klene, C. Adamo, R. Cammi, 
 J. W. Ochterski, R. L. Martin, K. Morokuma, O. Farkas, 
 J. B. Foresman, and D. J. Fox, Gaussian, Inc., Wallingford CT, 2016.
 
 ******************************************
 Gaussian 16:  EM64L-G16RevB.01 20-Dec-2017
                22-Sep-2023 
 ******************************************
 %nprocshared=30
 Will use up to   30 processors via shared memory.
 %mem=30GB
 %chk=molecule_57.chk
 ---------------------------------------------------------
 # opt freq b3lyp/6-31+g(d) empiricaldispersion=gd3 volume
 ---------------------------------------------------------
 1/18=20,19=15,26=3,38=1/1,3;
 2/9=110,12=2,17=6,18=5,40=1/2;
 3/5=1,6=6,7=11,11=2,25=1,30=1,71=1,74=-5,124=31/1,2,3;
 4//1;
 5/5=2,38=5/2;
 6/7=2,8=2,9=2,10=2,28=1,44=1/1,4;
 7//1,2,3,16;
 1/18=20,19=15,26=3/3(2);
 2/9=110/2;
 99//99;
 2/9=110/2;
 3/5=1,6=6,7=11,11=2,25=1,30=1,71=1,74=-5,124=31/1,2,3;
 4/5=5,16=3,69=1/1;
 5/5=2,38=5/2;
 7//1,2,3,16;
 1/18=20,19=15,26=3/3(-5);
 2/9=110/2;
 6/7=2,8=2,9=2,10=2,19=2,28=1,44=1/1,4;
 99/9=1/99;
 -------------------
 Title Card Required
 -------------------
 Symbolic Z-matrix:
 Charge =  0 Multiplicity = 1
 C                    -1.4743    1.21744   0.00043 
 C                    -0.75708   0.00015   0.0005 
 C                    -1.47417  -1.21723   0.00032 
 C                    -2.86358  -1.22068   0.00002 
 C                    -3.54316  -0.00002  -0.00005 
 H                    -0.92908   2.15583   0.00062 
 H                    -0.92884  -2.15556   0.00042 
 H                    -3.42394  -2.14801  -0.00012 
 C                     0.66395   0.00024   0.00093 
 C                     1.88157   0.00032   0.00044 
 C                     3.30594   0.00015   0.00026 
 C                     4.02088   1.21631  -0.00008 
 C                     4.0205   -1.21622   0.00006 
 C                     5.41451   1.21094  -0.00042 
 H                     3.47329   2.15421  -0.00005 
 C                     5.41414  -1.21127  -0.00029 
 H                     3.47262  -2.15395   0.00019 
 C                     6.11518  -0.00028  -0.00054 
 H                     5.95578   2.15331  -0.00065 
 H                     5.95512  -2.15382  -0.00041 
 H                     7.20191  -0.00045  -0.00083 
 C                    -2.86371   1.22072   0.00013 
 H                    -3.42417   2.14799   0.00007 
 N                    -5.01307  -0.0001   -0.00035 
 O                    -5.58914   1.09063  -0.00042 
 O                    -5.58902  -1.0909   -0.00047 
 

 GradGradGradGradGradGradGradGradGradGradGradGradGradGradGradGradGradGrad
 Berny optimization.
 Initialization pass.
                           ----------------------------
                           !    Initial Parameters    !
                           ! (Angstroms and Degrees)  !
 --------------------------                            --------------------------
 ! Name  Definition              Value          Derivative Info.                !
 --------------------------------------------------------------------------------
 ! R1    R(1,2)                  1.4129         estimate D2E/DX2                !
 ! R2    R(1,6)                  1.0853         estimate D2E/DX2                !
 ! R3    R(1,22)                 1.3894         estimate D2E/DX2                !
 ! R4    R(2,3)                  1.4129         estimate D2E/DX2                !
 ! R5    R(2,9)                  1.421          estimate D2E/DX2                !
 ! R6    R(3,4)                  1.3894         estimate D2E/DX2                !
 ! R7    R(3,7)                  1.0853         estimate D2E/DX2                !
 ! R8    R(4,5)                  1.3971         estimate D2E/DX2                !
 ! R9    R(4,8)                  1.0835         estimate D2E/DX2                !
 ! R10   R(5,22)                 1.3971         estimate D2E/DX2                !
 ! R11   R(5,24)                 1.4699         estimate D2E/DX2                !
 ! R12   R(9,10)                 1.2176         estimate D2E/DX2                !
 ! R13   R(10,11)                1.4244         estimate D2E/DX2                !
 ! R14   R(11,12)                1.4107         estimate D2E/DX2                !
 ! R15   R(11,13)                1.4107         estimate D2E/DX2                !
 ! R16   R(12,14)                1.3936         estimate D2E/DX2                !
 ! R17   R(12,15)                1.0861         estimate D2E/DX2                !
 ! R18   R(13,16)                1.3937         estimate D2E/DX2                !
 ! R19   R(13,17)                1.0861         estimate D2E/DX2                !
 ! R20   R(14,18)                1.3993         estimate D2E/DX2                !
 ! R21   R(14,19)                1.0868         estimate D2E/DX2                !
 ! R22   R(16,18)                1.3993         estimate D2E/DX2                !
 ! R23   R(16,20)                1.0868         estimate D2E/DX2                !
 ! R24   R(18,21)                1.0867         estimate D2E/DX2                !
 ! R25   R(22,23)                1.0835         estimate D2E/DX2                !
 ! R26   R(24,25)                1.2335         estimate D2E/DX2                !
 ! R27   R(24,26)                1.2335         estimate D2E/DX2                !
 ! A1    A(2,1,6)              119.3364         estimate D2E/DX2                !
 ! A2    A(2,1,22)             120.6417         estimate D2E/DX2                !
 ! A3    A(6,1,22)             120.0219         estimate D2E/DX2                !
 ! A4    A(1,2,3)              118.9938         estimate D2E/DX2                !
 ! A5    A(1,2,9)              120.5028         estimate D2E/DX2                !
 ! A6    A(3,2,9)              120.5035         estimate D2E/DX2                !
 ! A7    A(2,3,4)              120.6424         estimate D2E/DX2                !
 ! A8    A(2,3,7)              119.3364         estimate D2E/DX2                !
 ! A9    A(4,3,7)              120.0212         estimate D2E/DX2                !
 ! A10   A(3,4,5)              118.9636         estimate D2E/DX2                !
 ! A11   A(3,4,8)              121.2861         estimate D2E/DX2                !
 ! A12   A(5,4,8)              119.7503         estimate D2E/DX2                !
 ! A13   A(4,5,22)             121.794          estimate D2E/DX2                !
 ! A14   A(4,5,24)             119.103          estimate D2E/DX2                !
 ! A15   A(22,5,24)            119.103          estimate D2E/DX2                !
 ! A16   A(10,11,12)           120.4426         estimate D2E/DX2                !
 ! A17   A(10,11,13)           120.4392         estimate D2E/DX2                !
 ! A18   A(12,11,13)           119.1182         estimate D2E/DX2                !
 ! A19   A(11,12,14)           120.2289         estimate D2E/DX2                !
 ! A20   A(11,12,15)           119.2722         estimate D2E/DX2                !
 ! A21   A(14,12,15)           120.4989         estimate D2E/DX2                !
 ! A22   A(11,13,16)           120.2288         estimate D2E/DX2                !
 ! A23   A(11,13,17)           119.272          estimate D2E/DX2                !
 ! A24   A(16,13,17)           120.4992         estimate D2E/DX2                !
 ! A25   A(12,14,18)           120.2696         estimate D2E/DX2                !
 ! A26   A(12,14,19)           119.6509         estimate D2E/DX2                !
 ! A27   A(18,14,19)           120.0795         estimate D2E/DX2                !
 ! A28   A(13,16,18)           120.2698         estimate D2E/DX2                !
 ! A29   A(13,16,20)           119.6505         estimate D2E/DX2                !
 ! A30   A(18,16,20)           120.0797         estimate D2E/DX2                !
 ! A31   A(14,18,16)           119.8847         estimate D2E/DX2                !
 ! A32   A(14,18,21)           120.0577         estimate D2E/DX2                !
 ! A33   A(16,18,21)           120.0576         estimate D2E/DX2                !
 ! A34   A(1,22,5)             118.9645         estimate D2E/DX2                !
 ! A35   A(1,22,23)            121.2852         estimate D2E/DX2                !
 ! A36   A(5,22,23)            119.7503         estimate D2E/DX2                !
 ! A37   A(5,24,25)            117.8375         estimate D2E/DX2                !
 ! A38   A(5,24,26)            117.8377         estimate D2E/DX2                !
 ! A39   A(25,24,26)           124.3248         estimate D2E/DX2                !
 ! A40   L(2,9,10,6,-1)        179.9994         estimate D2E/DX2                !
 ! A41   L(9,10,11,17,-1)      179.9888         estimate D2E/DX2                !
 ! A42   L(2,9,10,6,-2)        180.051          estimate D2E/DX2                !
 ! A43   L(9,10,11,17,-2)      180.0199         estimate D2E/DX2                !
 ! D1    D(6,1,2,3)            179.9967         estimate D2E/DX2                !
 ! D2    D(6,1,2,9)              0.006          estimate D2E/DX2                !
 ! D3    D(22,1,2,3)            -0.0032         estimate D2E/DX2                !
 ! D4    D(22,1,2,9)          -179.9938         estimate D2E/DX2                !
 ! D5    D(2,1,22,5)             0.0027         estimate D2E/DX2                !
 ! D6    D(2,1,22,23)         -179.9995         estimate D2E/DX2                !
 ! D7    D(6,1,22,5)          -179.9972         estimate D2E/DX2                !
 ! D8    D(6,1,22,23)            0.0006         estimate D2E/DX2                !
 ! D9    D(1,2,3,4)              0.003          estimate D2E/DX2                !
 ! D10   D(1,2,3,7)           -179.9968         estimate D2E/DX2                !
 ! D11   D(9,2,3,4)            179.9937         estimate D2E/DX2                !
 ! D12   D(9,2,3,7)             -0.0061         estimate D2E/DX2                !
 ! D13   D(1,2,11,12)           -0.0087         estimate D2E/DX2                !
 ! D14   D(1,2,11,13)         -179.9874         estimate D2E/DX2                !
 ! D15   D(3,2,11,12)          179.9759         estimate D2E/DX2                !
 ! D16   D(3,2,11,13)           -0.0027         estimate D2E/DX2                !
 ! D17   D(2,3,4,5)             -0.0024         estimate D2E/DX2                !
 ! D18   D(2,3,4,8)            179.9997         estimate D2E/DX2                !
 ! D19   D(7,3,4,5)            179.9974         estimate D2E/DX2                !
 ! D20   D(7,3,4,8)             -0.0005         estimate D2E/DX2                !
 ! D21   D(3,4,5,22)             0.002          estimate D2E/DX2                !
 ! D22   D(3,4,5,24)          -179.9996         estimate D2E/DX2                !
 ! D23   D(8,4,5,22)           179.9999         estimate D2E/DX2                !
 ! D24   D(8,4,5,24)            -0.0016         estimate D2E/DX2                !
 ! D25   D(4,5,22,1)            -0.0021         estimate D2E/DX2                !
 ! D26   D(4,5,22,23)         -180.0            estimate D2E/DX2                !
 ! D27   D(24,5,22,1)          179.9994         estimate D2E/DX2                !
 ! D28   D(24,5,22,23)           0.0016         estimate D2E/DX2                !
 ! D29   D(4,5,24,25)         -179.9994         estimate D2E/DX2                !
 ! D30   D(4,5,24,26)            0.0038         estimate D2E/DX2                !
 ! D31   D(22,5,24,25)          -0.0009         estimate D2E/DX2                !
 ! D32   D(22,5,24,26)        -179.9978         estimate D2E/DX2                !
 ! D33   D(10,11,12,14)       -179.9922         estimate D2E/DX2                !
 ! D34   D(10,11,12,15)          0.0089         estimate D2E/DX2                !
 ! D35   D(13,11,12,14)         -0.0087         estimate D2E/DX2                !
 ! D36   D(13,11,12,15)        179.9924         estimate D2E/DX2                !
 ! D37   D(10,11,13,16)        179.9922         estimate D2E/DX2                !
 ! D38   D(10,11,13,17)         -0.0092         estimate D2E/DX2                !
 ! D39   D(12,11,13,16)          0.0087         estimate D2E/DX2                !
 ! D40   D(12,11,13,17)       -179.9927         estimate D2E/DX2                !
 ! D41   D(11,12,14,18)          0.0051         estimate D2E/DX2                !
 ! D42   D(11,12,14,19)       -179.9985         estimate D2E/DX2                !
 ! D43   D(15,12,14,18)       -179.996          estimate D2E/DX2                !
 ! D44   D(15,12,14,19)          0.0004         estimate D2E/DX2                !
 ! D45   D(11,13,16,18)         -0.0051         estimate D2E/DX2                !
 ! D46   D(11,13,16,20)        179.9983         estimate D2E/DX2                !
 ! D47   D(17,13,16,18)        179.9963         estimate D2E/DX2                !
 ! D48   D(17,13,16,20)         -0.0003         estimate D2E/DX2                !
 ! D49   D(12,14,18,16)         -0.0014         estimate D2E/DX2                !
 ! D50   D(12,14,18,21)        179.998          estimate D2E/DX2                !
 ! D51   D(19,14,18,16)       -179.9978         estimate D2E/DX2                !
 ! D52   D(19,14,18,21)          0.0016         estimate D2E/DX2                !
 ! D53   D(13,16,18,14)          0.0014         estimate D2E/DX2                !
 ! D54   D(13,16,18,21)       -179.998          estimate D2E/DX2                !
 ! D55   D(20,16,18,14)        179.998          estimate D2E/DX2                !
 ! D56   D(20,16,18,21)         -0.0014         estimate D2E/DX2                !
 --------------------------------------------------------------------------------
 Trust Radius=3.00D-01 FncErr=1.00D-07 GrdErr=1.00D-06 EigMax=2.50D+02 EigMin=1.00D-04
 Number of steps in this run=    136 maximum allowed number of steps=    156.
 GradGradGradGradGradGradGradGradGradGradGradGradGradGradGradGradGradGrad

                          Input orientation:                          
 ---------------------------------------------------------------------
 Center     Atomic      Atomic             Coordinates (Angstroms)
 Number     Number       Type             X           Y           Z
 ---------------------------------------------------------------------
      1          6           0       -1.474299    1.217435    0.000431
      2          6           0       -0.757081    0.000147    0.000495
      3          6           0       -1.474167   -1.217228    0.000317
      4          6           0       -2.863576   -1.220684    0.000020
      5          6           0       -3.543160   -0.000021   -0.000049
      6          1           0       -0.929075    2.155832    0.000621
      7          1           0       -0.928838   -2.155564    0.000418
      8          1           0       -3.423939   -2.148014   -0.000124
      9          6           0        0.663945    0.000235    0.000934
     10          6           0        1.881572    0.000324    0.000439
     11          6           0        3.305944    0.000149    0.000258
     12          6           0        4.020876    1.216305   -0.000075
     13          6           0        4.020499   -1.216218    0.000055
     14          6           0        5.414512    1.210935   -0.000415
     15          1           0        3.473291    2.154205   -0.000045
     16          6           0        5.414141   -1.211272   -0.000285
     17          1           0        3.472622   -2.153953    0.000190
     18          6           0        6.115183   -0.000279   -0.000536
     19          1           0        5.955782    2.153309   -0.000645
     20          1           0        5.955117   -2.153815   -0.000411
     21          1           0        7.201908   -0.000447   -0.000834
     22          6           0       -2.863708    1.220719    0.000131
     23          1           0       -3.424172    2.147987    0.000071
     24          7           0       -5.013070   -0.000101   -0.000354
     25          8           0       -5.589139    1.090634   -0.000421
     26          8           0       -5.589023   -1.090898   -0.000466
 ---------------------------------------------------------------------
                    Distance matrix (angstroms):
                    1          2          3          4          5
     1  C    0.000000
     2  C    1.412866   0.000000
     3  C    2.434663   1.412874   0.000000
     4  C    2.806157   2.434697   1.389413   0.000000
     5  C    2.400497   2.786079   2.400484   1.397087   0.000000
     6  H    1.085292   2.162535   3.416820   3.891421   3.388384
     7  H    3.416819   2.162543   1.085292   2.148770   3.388369
     8  H    3.889389   3.424431   2.160549   1.083489   2.151299
     9  C    2.460419   1.421026   2.460435   3.732834   4.207105
    10  C    3.569766   2.638653   3.569792   4.899723   5.424732
    11  C    4.932799   4.063025   4.932694   6.289150   6.849104
    12  C    5.495175   4.930306   6.009790   7.303054   7.661207
    13  C    6.009615   4.929991   5.494666   6.884076   7.660814
    14  C    6.888814   6.289242   7.304100   8.627834   9.039154
    15  H    5.035493   4.747211   5.986978   7.179538   7.339705
    16  C    7.304055   6.289000   6.888311   8.277722   9.038826
    17  H    5.986509   4.746634   5.034697   6.404561   7.338980
    18  C    7.686551   6.872264   7.686299   9.061319   9.658343
    19  H    7.488789   7.049726   8.158717   9.442717   9.739955
    20  H    8.158526   7.049337   7.488088   8.867924   9.739409
    21  H    8.761267   7.958989   8.760984  10.139179  10.745068
    22  C    1.389413   2.434681   2.806138   2.441403   1.397090
    23  H    2.160540   3.424411   3.889369   3.414998   2.151301
    24  N    3.742365   4.255989   3.742357   2.471871   1.469910
    25  O    4.116793   4.953579   4.717968   3.573637   2.318525
    26  O    4.717982   4.953589   4.116795   2.728536   2.318527
                    6          7          8          9         10
     6  H    0.000000
     7  H    4.311396   0.000000
     8  H    4.974680   2.495112   0.000000
     9  C    2.680357   2.680378   4.617983   0.000000
    10  C    3.542026   3.542070   5.723967   1.217627   0.000000
    11  C    4.752090   4.751892   7.064413   2.641999   1.424372
    12  C    5.038326   5.989088   8.169695   3.570408   2.460738
    13  C    5.989074   5.037689   7.502526   3.570184   2.460688
    14  C    6.413574   7.181323   9.455197   4.902416   3.734601
    15  H    4.402366   6.160588   8.129014   3.540058   2.678203
    16  C    7.181489   6.412883   8.887584   4.902256   3.734569
    17  H    6.160291   4.401460   6.896564   3.539660   2.678124
    18  C    7.366844   7.366375   9.777915   5.451238   4.233611
    19  H    6.884858   8.121846  10.318941   5.713079   4.608094
    20  H    8.121894   6.883955   9.379058   5.712831   4.608046
    21  H    8.412041   8.411514  10.840695   6.537963   5.320336
    22  C    2.148777   3.891402   3.414999   3.732816   4.899699
    23  H    2.495109   4.974660   4.296001   4.617958   5.723930
    24  N    4.618123   4.618114   2.671866   5.677015   6.894642
    25  O    4.780256   5.679455   3.895758   6.347443   7.549854
    26  O    5.679469   4.780255   2.409374   6.347455   7.549871
                   11         12         13         14         15
    11  C    0.000000
    12  C    1.410731   0.000000
    13  C    1.410722   2.432523   0.000000
    14  C    2.431473   1.393646   2.798990   0.000000
    15  H    2.160547   1.086051   3.414555   2.158263   0.000000
    16  C    2.431468   2.798985   1.393651   2.422207   3.885014
    17  H    2.160541   3.414560   1.086055   3.885024   4.308158
    18  C    2.809239   2.422024   2.422026   1.399278   3.409017
    19  H    3.414343   2.149846   3.885747   1.086758   2.482491
    20  H    3.414334   3.885743   2.149845   3.407902   4.971770
    21  H    3.895964   3.405797   3.405798   2.159220   4.306403
    22  C    6.289229   6.884585   7.302805   8.278226   6.405385
    23  H    7.064536   7.503117   8.169517   8.888217   6.897466
    24  N    8.319014   9.115472   9.115059  10.497670   8.755533
    25  O    8.961677   9.610837   9.882647  11.004309   9.124627
    26  O    8.961631   9.882983   9.610339  11.241718   9.625811
                   16         17         18         19         20
    16  C    0.000000
    17  H    2.158273   0.000000
    18  C    1.399273   3.409023   0.000000
    19  H    3.407900   4.971779   2.159479   0.000000
    20  H    1.086758   2.482495   2.159476   4.307124   0.000000
    21  H    2.159215   4.306410   1.086725   2.488271   2.488269
    22  C    8.627709   7.178962   9.061530   8.868660   9.442413
    23  H    9.455178   8.128496   9.778259   9.379956  10.318748
    24  N   10.497317   8.754773  11.128253  11.178233  11.177639
    25  O   11.241483   9.625116  11.755052  11.593726  11.991509
    26  O   11.003822   9.123787  11.754909  11.991972  11.592970
                   21         22         23         24         25
    21  H    0.000000
    22  C   10.139422   0.000000
    23  H   10.841095   1.083488   0.000000
    24  N   12.214978   2.471874   2.671868   0.000000
    25  O   12.837497   2.728534   2.409373   1.233515   0.000000
    26  O   12.837328   3.573642   3.895761   1.233515   2.181532
                   26
    26  O    0.000000
 Stoichiometry    C14H9NO2
 Framework group  C1[X(C14H9NO2)]
 Deg. of freedom    72
 Full point group                 C1      NOp   1
 Largest Abelian subgroup         C1      NOp   1
 Largest concise Abelian subgroup C1      NOp   1
                         Standard orientation:                         
 ---------------------------------------------------------------------
 Center     Atomic      Atomic             Coordinates (Angstroms)
 Number     Number       Type             X           Y           Z
 ---------------------------------------------------------------------
      1          6           0       -1.474299   -1.217435   -0.000431
      2          6           0       -0.757081   -0.000147   -0.000495
      3          6           0       -1.474167    1.217228   -0.000317
      4          6           0       -2.863576    1.220684   -0.000020
      5          6           0       -3.543160    0.000021    0.000049
      6          1           0       -0.929075   -2.155832   -0.000621
      7          1           0       -0.928838    2.155564   -0.000418
      8          1           0       -3.423939    2.148014    0.000124
      9          6           0        0.663945   -0.000235   -0.000934
     10          6           0        1.881572   -0.000324   -0.000439
     11          6           0        3.305944   -0.000149   -0.000258
     12          6           0        4.020876   -1.216305    0.000075
     13          6           0        4.020499    1.216218   -0.000055
     14          6           0        5.414512   -1.210935    0.000415
     15          1           0        3.473291   -2.154205    0.000045
     16          6           0        5.414141    1.211272    0.000285
     17          1           0        3.472622    2.153953   -0.000190
     18          6           0        6.115183    0.000279    0.000536
     19          1           0        5.955782   -2.153309    0.000645
     20          1           0        5.955117    2.153815    0.000411
     21          1           0        7.201908    0.000447    0.000834
     22          6           0       -2.863708   -1.220719   -0.000131
     23          1           0       -3.424172   -2.147987   -0.000071
     24          7           0       -5.013070    0.000101    0.000354
     25          8           0       -5.589139   -1.090634    0.000421
     26          8           0       -5.589023    1.090898    0.000466
 ---------------------------------------------------------------------
 Rotational constants (GHZ):           2.3239865           0.1384967           0.1307072
 Standard basis: 6-31+G(d) (6D, 7F)
 There are   341 symmetry adapted cartesian basis functions of A   symmetry.
 There are   341 symmetry adapted basis functions of A   symmetry.
   341 basis functions,   580 primitive gaussians,   341 cartesian basis functions
    58 alpha electrons       58 beta electrons
       nuclear repulsion energy       966.6399775788 Hartrees.
 NAtoms=   26 NActive=   26 NUniq=   26 SFac= 1.00D+00 NAtFMM=   60 NAOKFM=F Big=F
 Integral buffers will be    131072 words long.
 Raffenetti 2 integral format.
 Two-electron integral symmetry is turned on.
 Nuclear repulsion after empirical dispersion term =      966.6218808868 Hartrees.
 One-electron integrals computed using PRISM.
 NBasis=   341 RedAO= T EigKep=  2.09D-06  NBF=   341
 NBsUse=   337 1.00D-06 EigRej=  6.75D-07 NBFU=   337
 ExpMin= 4.38D-02 ExpMax= 5.48D+03 ExpMxC= 8.25D+02 IAcc=3 IRadAn=         5 AccDes= 0.00D+00
 Harris functional with IExCor=  402 and IRadAn=       5 diagonalized for initial guess.
 HarFok:  IExCor=  402 AccDes= 0.00D+00 IRadAn=         5 IDoV= 1 UseB2=F ITyADJ=14
 ICtDFT=  3500011 ScaDFX=  1.000000  1.000000  1.000000  1.000000
 FoFCou: FMM=F IPFlag=           0 FMFlag=      100000 FMFlg1=           0
         NFxFlg=           0 DoJE=T BraDBF=F KetDBF=T FulRan=T
         wScrn=  0.000000 ICntrl=       500 IOpCl=  0 I1Cent=   200000004 NGrid=           0
         NMat0=    1 NMatS0=      1 NMatT0=    0 NMatD0=    1 NMtDS0=    0 NMtDT0=    0
 Petite list used in FoFCou.
 Requested convergence on RMS density matrix=1.00D-08 within 128 cycles.
 Requested convergence on MAX density matrix=1.00D-06.
 Requested convergence on             energy=1.00D-06.
 No special actions if energy rises.
 SCF Done:  E(RB3LYP) =  -744.011974031     A.U. after   16 cycles
            NFock= 16  Conv=0.26D-08     -V/T= 2.0096

 **********************************************************************

            Population analysis using the SCF Density.

 **********************************************************************

 Orbital symmetries:
       Occupied  (A) (A) (A) (A) (A) (A) (A) (A) (A) (A) (A) (A)
                 (A) (A) (A) (A) (A) (A) (A) (A) (A) (A) (A) (A)
                 (A) (A) (A) (A) (A) (A) (A) (A) (A) (A) (A) (A)
                 (A) (A) (A) (A) (A) (A) (A) (A) (A) (A) (A) (A)
                 (A) (A) (A) (A) (A) (A) (A) (A) (A) (A)
       Virtual   (A) (A) (A) (A) (A) (A) (A) (A) (A) (A) (A) (A)
                 (A) (A) (A) (A) (A) (A) (A) (A) (A) (A) (A) (A)
                 (A) (A) (A) (A) (A) (A) (A) (A) (A) (A) (A) (A)
                 (A) (A) (A) (A) (A) (A) (A) (A) (A) (A) (A) (A)
                 (A) (A) (A) (A) (A) (A) (A) (A) (A) (A) (A) (A)
                 (A) (A) (A) (A) (A) (A) (A) (A) (A) (A) (A) (A)
                 (A) (A) (A) (A) (A) (A) (A) (A) (A) (A) (A) (A)
                 (A) (A) (A) (A) (A) (A) (A) (A) (A) (A) (A) (A)
                 (A) (A) (A) (A) (A) (A) (A) (A) (A) (A) (A) (A)
                 (A) (A) (A) (A) (A) (A) (A) (A) (A) (A) (A) (A)
                 (A) (A) (A) (A) (A) (A) (A) (A) (A) (A) (A) (A)
                 (A) (A) (A) (A) (A) (A) (A) (A) (A) (A) (A) (A)
                 (A) (A) (A) (A) (A) (A) (A) (A) (A) (A) (A) (A)
                 (A) (A) (A) (A) (A) (A) (A) (A) (A) (A) (A) (A)
                 (A) (A) (A) (A) (A) (A) (A) (A) (A) (A) (A) (A)
                 (A) (A) (A) (A) (A) (A) (A) (A) (A) (A) (A) (A)
                 (A) (A) (A) (A) (A) (A) (A) (A) (A) (A) (A) (A)
                 (A) (A) (A) (A) (A) (A) (A) (A) (A) (A) (A) (A)
                 (A) (A) (A) (A) (A) (A) (A) (A) (A) (A) (A) (A)
                 (A) (A) (A) (A) (A) (A) (A) (A) (A) (A) (A) (A)
                 (A) (A) (A) (A) (A) (A) (A) (A) (A) (A) (A) (A)
                 (A) (A) (A) (A) (A) (A) (A) (A) (A) (A) (A) (A)
                 (A) (A) (A) (A) (A) (A) (A) (A) (A) (A) (A) (A)
                 (A) (A) (A)
 The electronic state is 1-A.
 Alpha  occ. eigenvalues --  -19.19620 -19.19618 -14.58374 -10.26738 -10.25532
 Alpha  occ. eigenvalues --  -10.24017 -10.23380 -10.23379 -10.23131 -10.23130
 Alpha  occ. eigenvalues --  -10.22095 -10.22048 -10.22047 -10.21833 -10.21695
 Alpha  occ. eigenvalues --  -10.21685 -10.21652  -1.23546  -1.06290  -0.90722
 Alpha  occ. eigenvalues --   -0.88447  -0.83841  -0.80319  -0.78801  -0.77157
 Alpha  occ. eigenvalues --   -0.76002  -0.71478  -0.64840  -0.64605  -0.63035
 Alpha  occ. eigenvalues --   -0.61629  -0.57851  -0.56285  -0.54421  -0.54167
 Alpha  occ. eigenvalues --   -0.52547  -0.50292  -0.48999  -0.47886  -0.47755
 Alpha  occ. eigenvalues --   -0.46118  -0.45787  -0.44641  -0.42544  -0.41502
 Alpha  occ. eigenvalues --   -0.39904  -0.38724  -0.38147  -0.37252  -0.34582
 Alpha  occ. eigenvalues --   -0.32289  -0.32167  -0.30470  -0.30052  -0.29531
 Alpha  occ. eigenvalues --   -0.29144  -0.27777  -0.24163
 Alpha virt. eigenvalues --   -0.11222  -0.06044  -0.04322  -0.03240  -0.01404
 Alpha virt. eigenvalues --   -0.00920   0.00270   0.01043   0.01918   0.02049
 Alpha virt. eigenvalues --    0.02516   0.03668   0.03974   0.04207   0.04244
 Alpha virt. eigenvalues --    0.04995   0.05854   0.06655   0.07259   0.07410
 Alpha virt. eigenvalues --    0.07495   0.07926   0.08330   0.08690   0.08884
 Alpha virt. eigenvalues --    0.09705   0.10408   0.11804   0.12174   0.12439
 Alpha virt. eigenvalues --    0.12917   0.13232   0.13511   0.13566   0.14349
 Alpha virt. eigenvalues --    0.14383   0.14603   0.14682   0.14994   0.15869
 Alpha virt. eigenvalues --    0.16045   0.16537   0.16625   0.16988   0.17469
 Alpha virt. eigenvalues --    0.18846   0.18881   0.19222   0.19729   0.20073
 Alpha virt. eigenvalues --    0.20389   0.20404   0.21372   0.21850   0.21999
 Alpha virt. eigenvalues --    0.22133   0.22232   0.23583   0.23642   0.23856
 Alpha virt. eigenvalues --    0.24436   0.24596   0.24734   0.24965   0.25778
 Alpha virt. eigenvalues --    0.26201   0.26398   0.27347   0.27649   0.28077
 Alpha virt. eigenvalues --    0.28132   0.28613   0.29902   0.30026   0.31729
 Alpha virt. eigenvalues --    0.32127   0.32292   0.32460   0.32635   0.33046
 Alpha virt. eigenvalues --    0.33596   0.35333   0.35782   0.35990   0.36674
 Alpha virt. eigenvalues --    0.37862   0.38478   0.40051   0.40210   0.41985
 Alpha virt. eigenvalues --    0.42492   0.45649   0.46720   0.46930   0.52863
 Alpha virt. eigenvalues --    0.54900   0.56945   0.58289   0.58870   0.62119
 Alpha virt. eigenvalues --    0.64206   0.64837   0.65720   0.66580   0.67258
 Alpha virt. eigenvalues --    0.68424   0.68733   0.69378   0.69925   0.71056
 Alpha virt. eigenvalues --    0.71151   0.71678   0.71687   0.73353   0.73822
 Alpha virt. eigenvalues --    0.73987   0.74648   0.75223   0.75736   0.77663
 Alpha virt. eigenvalues --    0.78821   0.79652   0.81137   0.81468   0.82167
 Alpha virt. eigenvalues --    0.82224   0.84809   0.85902   0.86380   0.87590
 Alpha virt. eigenvalues --    0.90351   0.91481   0.91941   0.92205   0.93307
 Alpha virt. eigenvalues --    0.95247   0.96749   0.97086   0.97870   0.99971
 Alpha virt. eigenvalues --    1.01096   1.02789   1.06361   1.06589   1.07422
 Alpha virt. eigenvalues --    1.09591   1.11676   1.12393   1.14150   1.15226
 Alpha virt. eigenvalues --    1.16367   1.17392   1.17471   1.19710   1.20341
 Alpha virt. eigenvalues --    1.20376   1.20492   1.22374   1.22746   1.24314
 Alpha virt. eigenvalues --    1.25270   1.25939   1.29572   1.29618   1.31000
 Alpha virt. eigenvalues --    1.31290   1.31430   1.33326   1.35376   1.38106
 Alpha virt. eigenvalues --    1.39029   1.41128   1.41309   1.41939   1.42035
 Alpha virt. eigenvalues --    1.42337   1.43181   1.43656   1.44723   1.46564
 Alpha virt. eigenvalues --    1.46612   1.47159   1.48364   1.52002   1.54135
 Alpha virt. eigenvalues --    1.56091   1.58492   1.66606   1.70537   1.74769
 Alpha virt. eigenvalues --    1.74858   1.77573   1.79700   1.80410   1.82244
 Alpha virt. eigenvalues --    1.83299   1.85136   1.87039   1.88767   1.88815
 Alpha virt. eigenvalues --    1.89399   1.90275   1.91173   1.91773   1.93424
 Alpha virt. eigenvalues --    1.94892   1.97068   1.97668   1.99109   2.03332
 Alpha virt. eigenvalues --    2.06914   2.07445   2.09032   2.09800   2.11973
 Alpha virt. eigenvalues --    2.12411   2.13115   2.14660   2.14826   2.15188
 Alpha virt. eigenvalues --    2.19246   2.19695   2.20326   2.23261   2.24417
 Alpha virt. eigenvalues --    2.25074   2.27491   2.28044   2.28684   2.34819
 Alpha virt. eigenvalues --    2.43022   2.43336   2.49374   2.50615   2.50891
 Alpha virt. eigenvalues --    2.53154   2.57050   2.58329   2.60178   2.61869
 Alpha virt. eigenvalues --    2.62042   2.66340   2.69285   2.69610   2.72711
 Alpha virt. eigenvalues --    2.72836   2.74298   2.77477   2.81985   2.84409
 Alpha virt. eigenvalues --    2.85218   2.90063   2.98636   2.98762   3.00954
 Alpha virt. eigenvalues --    3.04577   3.10275   3.16444   3.27415   3.32675
 Alpha virt. eigenvalues --    3.39724   3.58031   4.13763   4.20448   4.21981
 Alpha virt. eigenvalues --    4.22109   4.23582   4.24422   4.26511   4.32709
 Alpha virt. eigenvalues --    4.37725   4.38531   4.39531   4.48190   4.54370
 Alpha virt. eigenvalues --    4.62833   4.75652   4.75823   4.97423
          Condensed to atoms (all electrons):
               1          2          3          4          5          6
     1  C   14.250233  -0.041291  -3.834778   0.282380  -1.213470   0.338408
     2  C   -0.041291   7.593239  -0.041255  -0.230667  -1.176728  -0.027436
     3  C   -3.834778  -0.041255  14.242252  -3.243625  -1.214441   0.005150
     4  C    0.282380  -0.230667  -3.243625  11.554214   0.341376  -0.011052
     5  C   -1.213470  -1.176728  -1.214441   0.341376  10.728604  -0.026119
     6  H    0.338408  -0.027436   0.005150  -0.011052  -0.026119   0.508043
     7  H    0.005138  -0.027440   0.338388  -0.027174  -0.026115  -0.000134
     8  H    0.003333   0.023904  -0.175651   0.210502   0.174670   0.000013
     9  C   -0.016816   0.259059  -0.016116  -0.092083  -0.167294   0.034782
    10  C    0.187033  -0.826149   0.187262  -0.127984  -0.140956  -0.000709
    11  C   -0.184626   0.349665  -0.185078   0.142236   0.012012   0.002381
    12  C    0.292043  -0.187460  -0.208717   0.116456  -0.008468   0.002060
    13  C   -0.208773  -0.188208   0.292355  -0.186945  -0.008474  -0.000006
    14  C   -0.101974   0.117825   0.069448  -0.019007   0.001642  -0.000239
    15  H    0.001507   0.000824   0.000259  -0.000056   0.000029   0.000003
    16  C    0.069460   0.118299  -0.102069   0.023151   0.001655  -0.000058
    17  H    0.000262   0.000825   0.001505   0.000119   0.000029   0.000000
    18  C   -0.000693  -0.017399  -0.000678  -0.000096  -0.000676   0.000055
    19  H    0.000118  -0.000157  -0.000043  -0.000002   0.000000   0.000000
    20  H   -0.000043  -0.000157   0.000118   0.000006   0.000000   0.000000
    21  H   -0.000002  -0.000018  -0.000002   0.000000   0.000000   0.000000
    22  C   -3.250123  -0.229541   0.283956  -3.262905   0.340653  -0.027208
    23  H   -0.175681   0.023926   0.003328   0.088283   0.174645  -0.003834
    24  N    0.046706  -0.065979   0.046700   0.120713  -0.683924   0.000249
    25  O    0.178449   0.042130  -0.022936   0.139103  -0.368127  -0.000083
    26  O   -0.022968   0.042138   0.178472  -0.045684  -0.368140   0.000060
               7          8          9         10         11         12
     1  C    0.005138   0.003333  -0.016816   0.187033  -0.184626   0.292043
     2  C   -0.027440   0.023904   0.259059  -0.826149   0.349665  -0.187460
     3  C    0.338388  -0.175651  -0.016116   0.187262  -0.185078  -0.208717
     4  C   -0.027174   0.210502  -0.092083  -0.127984   0.142236   0.116456
     5  C   -0.026115   0.174670  -0.167294  -0.140956   0.012012  -0.008468
     6  H   -0.000134   0.000013   0.034782  -0.000709   0.002381   0.002060
     7  H    0.508048  -0.003834   0.034783  -0.000714   0.002378  -0.000007
     8  H   -0.003834   0.476221  -0.005626   0.000874   0.000005  -0.000019
     9  C    0.034783  -0.005626   6.089989   0.300734  -0.477185   0.117778
    10  C   -0.000714   0.000874   0.300734   6.791224  -0.679405   0.412067
    11  C    0.002378   0.000005  -0.477185  -0.679405   8.514953  -1.676392
    12  C   -0.000007  -0.000019   0.117778   0.412067  -1.676392  18.604355
    13  C    0.002061   0.000034   0.119520   0.411452  -1.676407  -9.231313
    14  C   -0.000058  -0.000002  -0.080650  -0.127117   0.659948  -4.636886
    15  H    0.000000   0.000000   0.002025   0.025381  -0.022077   0.307737
    16  C   -0.000240   0.000002  -0.081305  -0.126751   0.659784   2.817235
    17  H    0.000003   0.000000   0.002041   0.025346  -0.022099   0.019571
    18  C    0.000055   0.000000   0.023067  -0.198002   0.173581  -0.257780
    19  H    0.000000   0.000000  -0.000399  -0.005508   0.011000  -0.027148
    20  H    0.000000   0.000000  -0.000400  -0.005510   0.010986   0.005583
    21  H    0.000000   0.000000   0.000153  -0.000297   0.002059   0.008491
    22  C   -0.011049   0.088284  -0.092100  -0.128133   0.142016  -0.186959
    23  H    0.000013  -0.000128  -0.005625   0.000873   0.000005   0.000035
    24  N    0.000249  -0.042908   0.007593   0.003480   0.000059   0.000036
    25  O    0.000060  -0.002203  -0.001944   0.000448  -0.000023   0.000041
    26  O   -0.000083   0.020379  -0.001945   0.000448  -0.000024  -0.000032
              13         14         15         16         17         18
     1  C   -0.208773  -0.101974   0.001507   0.069460   0.000262  -0.000693
     2  C   -0.188208   0.117825   0.000824   0.118299   0.000825  -0.017399
     3  C    0.292355   0.069448   0.000259  -0.102069   0.001505  -0.000678
     4  C   -0.186945  -0.019007  -0.000056   0.023151   0.000119  -0.000096
     5  C   -0.008474   0.001642   0.000029   0.001655   0.000029  -0.000676
     6  H   -0.000006  -0.000239   0.000003  -0.000058   0.000000   0.000055
     7  H    0.002061  -0.000058   0.000000  -0.000240   0.000003   0.000055
     8  H    0.000034  -0.000002   0.000000   0.000002   0.000000   0.000000
     9  C    0.119520  -0.080650   0.002025  -0.081305   0.002041   0.023067
    10  C    0.411452  -0.127117   0.025381  -0.126751   0.025346  -0.198002
    11  C   -1.676407   0.659948  -0.022077   0.659784  -0.022099   0.173581
    12  C   -9.231313  -4.636886   0.307737   2.817235   0.019571  -0.257780
    13  C   18.601287   2.817878   0.019581  -4.635230   0.307646  -0.257799
    14  C    2.817878   7.794886  -0.053727  -1.088133  -0.003800   0.512026
    15  H    0.019581  -0.053727   0.525764  -0.003800  -0.000141   0.005311
    16  C   -4.635230  -1.088133  -0.003800   7.794438  -0.053596   0.511835
    17  H    0.307646  -0.003800  -0.000141  -0.053596   0.525759   0.005321
    18  C   -0.257799   0.512026   0.005311   0.511835   0.005321   5.385679
    19  H    0.005574   0.293225  -0.004553   0.000095   0.000015   0.017591
    20  H   -0.027134   0.000088   0.000015   0.293203  -0.004553   0.017612
    21  H    0.008527  -0.002706  -0.000141  -0.002718  -0.000141   0.279689
    22  C    0.116514   0.023220   0.000118  -0.019037  -0.000056  -0.000098
    23  H   -0.000020   0.000002   0.000000  -0.000002   0.000000   0.000000
    24  N    0.000036  -0.000013   0.000000  -0.000013   0.000000   0.000004
    25  O   -0.000032   0.000000   0.000000   0.000000   0.000000   0.000000
    26  O    0.000041   0.000000   0.000000   0.000000   0.000000   0.000000
              19         20         21         22         23         24
     1  C    0.000118  -0.000043  -0.000002  -3.250123  -0.175681   0.046706
     2  C   -0.000157  -0.000157  -0.000018  -0.229541   0.023926  -0.065979
     3  C   -0.000043   0.000118  -0.000002   0.283956   0.003328   0.046700
     4  C   -0.000002   0.000006   0.000000  -3.262905   0.088283   0.120713
     5  C    0.000000   0.000000   0.000000   0.340653   0.174645  -0.683924
     6  H    0.000000   0.000000   0.000000  -0.027208  -0.003834   0.000249
     7  H    0.000000   0.000000   0.000000  -0.011049   0.000013   0.000249
     8  H    0.000000   0.000000   0.000000   0.088284  -0.000128  -0.042908
     9  C   -0.000399  -0.000400   0.000153  -0.092100  -0.005625   0.007593
    10  C   -0.005508  -0.005510  -0.000297  -0.128133   0.000873   0.003480
    11  C    0.011000   0.010986   0.002059   0.142016   0.000005   0.000059
    12  C   -0.027148   0.005583   0.008491  -0.186959   0.000035   0.000036
    13  C    0.005574  -0.027134   0.008527   0.116514  -0.000020   0.000036
    14  C    0.293225   0.000088  -0.002706   0.023220   0.000002  -0.000013
    15  H   -0.004553   0.000015  -0.000141   0.000118   0.000000   0.000000
    16  C    0.000095   0.293203  -0.002718  -0.019037  -0.000002  -0.000013
    17  H    0.000015  -0.004553  -0.000141  -0.000056   0.000000   0.000000
    18  C    0.017591   0.017612   0.279689  -0.000098   0.000000   0.000004
    19  H    0.527890  -0.000156  -0.004681   0.000006   0.000000   0.000000
    20  H   -0.000156   0.527892  -0.004681  -0.000002   0.000000   0.000000
    21  H   -0.004681  -0.004681   0.530446   0.000000   0.000000   0.000000
    22  C    0.000006  -0.000002   0.000000  11.558611   0.210542   0.120660
    23  H    0.000000   0.000000   0.000000   0.210542   0.476222  -0.042908
    24  N    0.000000   0.000000   0.000000   0.120660  -0.042908   7.092608
    25  O    0.000000   0.000000   0.000000  -0.045684   0.020379   0.360693
    26  O    0.000000   0.000000   0.000000   0.139118  -0.002203   0.360678
              25         26
     1  C    0.178449  -0.022968
     2  C    0.042130   0.042138
     3  C   -0.022936   0.178472
     4  C    0.139103  -0.045684
     5  C   -0.368127  -0.368140
     6  H   -0.000083   0.000060
     7  H    0.000060  -0.000083
     8  H   -0.002203   0.020379
     9  C   -0.001944  -0.001945
    10  C    0.000448   0.000448
    11  C   -0.000023  -0.000024
    12  C    0.000041  -0.000032
    13  C   -0.000032   0.000041
    14  C    0.000000   0.000000
    15  H    0.000000   0.000000
    16  C    0.000000   0.000000
    17  H    0.000000   0.000000
    18  C    0.000000   0.000000
    19  H    0.000000   0.000000
    20  H    0.000000   0.000000
    21  H    0.000000   0.000000
    22  C   -0.045684   0.139118
    23  H    0.020379  -0.002203
    24  N    0.360693   0.360678
    25  O    7.816893  -0.085790
    26  O   -0.085790   7.816901
 Mulliken charges:
               1
     1  C   -0.603832
     2  C    0.488052
     3  C   -0.603803
     4  C    0.228744
     5  C   -0.372386
     6  H    0.205674
     7  H    0.205671
     8  H    0.232149
     9  C    0.047965
    10  C    0.020611
    11  C    0.240249
    12  C   -0.282304
    13  C   -0.282165
    14  C   -0.175877
    15  H    0.195940
    16  C   -0.176203
    17  H    0.195945
    18  C   -0.198606
    19  H    0.187134
    20  H    0.187134
    21  H    0.186022
    22  C    0.229197
    23  H    0.232147
    24  N   -0.324719
    25  O   -0.031373
    26  O   -0.031366
 Sum of Mulliken charges =   0.00000
 Mulliken charges with hydrogens summed into heavy atoms:
               1
     1  C   -0.398158
     2  C    0.488052
     3  C   -0.398132
     4  C    0.460893
     5  C   -0.372386
     9  C    0.047965
    10  C    0.020611
    11  C    0.240249
    12  C   -0.086364
    13  C   -0.086220
    14  C    0.011256
    16  C    0.010931
    18  C   -0.012584
    22  C    0.461344
    24  N   -0.324719
    25  O   -0.031373
    26  O   -0.031366
 Electronic spatial extent (au):  <R**2>=           7506.8507
 Charge=              0.0000 electrons
 Dipole moment (field-independent basis, Debye):
    X=              6.6500    Y=              0.0000    Z=              0.0000  Tot=              6.6500
 Quadrupole moment (field-independent basis, Debye-Ang):
   XX=           -118.4444   YY=            -88.1110   ZZ=           -102.4186
   XY=              0.0018   XZ=              0.0084   YZ=             -0.0001
 Traceless Quadrupole moment (field-independent basis, Debye-Ang):
   XX=            -15.4531   YY=             14.8803   ZZ=              0.5727
   XY=              0.0018   XZ=              0.0084   YZ=             -0.0001
 Octapole moment (field-independent basis, Debye-Ang**2):
  XXX=            339.7492  YYY=              0.0004  ZZZ=              0.0082  XYY=              8.8150
  XXY=             -0.0068  XXZ=              0.0028  XZZ=            -36.3542  YZZ=              0.0008
  YYZ=              0.0006  XYZ=             -0.0029
 Hexadecapole moment (field-independent basis, Debye-Ang**3):
 XXXX=         -10144.1108 YYYY=           -638.9429 ZZZZ=           -118.5822 XXXY=              0.0370
 XXXZ=              0.3596 YYYX=              0.0097 YYYZ=              0.0000 ZZZX=             -0.0380
 ZZZY=              0.0003 XXYY=          -1611.0138 XXZZ=          -1654.3589 YYZZ=           -149.7378
 XXYZ=             -0.0117 YYXZ=              0.0165 ZZXY=             -0.0038
 N-N= 9.666218808868D+02 E-N=-3.660870652305D+03  KE= 7.369140296536D+02
 Evaluate density.
 Using the total density.
 Monte-Carlo method of calculating molar volume:
 based on  0.001 e/bohr**3 density envelope.
 Number of points per bohr**3 =   20 CutOff= 1.00D-04
 Using the SCF density.
 There are       395 points.  Will hold       395 in memory.
 LenV=  4026278943 MDV=  4026531840.
 Box volume = 7721.849 fraction occupied=0.266
 Integrated density= 6.7872523756980129D+01 error=-4.8127476243019871D+01
 Molar volume = 2052.643 bohr**3/mol (183.176 cm**3/mol)
 Recommended a0 for SCRF calculation =  5.09 angstrom (  9.62 bohr)
 Calling FoFJK, ICntrl=      2127 FMM=F ISym2X=0 I1Cent= 0 IOpClX= 0 NMat=1 NMatS=1 NMatT=0.
 ***** Axes restored to original set *****
 -------------------------------------------------------------------
 Center     Atomic                   Forces (Hartrees/Bohr)
 Number     Number              X              Y              Z
 -------------------------------------------------------------------
      1        6          -0.000014974    0.000010307   -0.000002309
      2        6          -0.000051225   -0.000001494    0.000029133
      3        6          -0.000010149   -0.000009969   -0.000001965
      4        6           0.000020399    0.000003918    0.000001494
      5        6          -0.000062327    0.000002131   -0.000006577
      6        1          -0.000002882    0.000001720   -0.000000227
      7        1          -0.000001889   -0.000001418   -0.000000242
      8        1          -0.000001717   -0.000002726   -0.000000347
      9        6           0.000068735    0.000000086   -0.000046531
     10        6           0.000084001   -0.000006014    0.000032219
     11        6          -0.000031508    0.000007891   -0.000025946
     12        6          -0.000021170   -0.000008266    0.000009216
     13        6          -0.000015067    0.000001472    0.000009384
     14        6           0.000002081   -0.000005693   -0.000004423
     15        1          -0.000002761    0.000006800    0.000001458
     16        6          -0.000001488    0.000001570   -0.000004241
     17        1          -0.000000415   -0.000004148    0.000001271
     18        6          -0.000007105    0.000002364    0.000003355
     19        1           0.000000717    0.000003624    0.000000337
     20        1           0.000001164   -0.000003401    0.000000241
     21        1           0.000005243    0.000000104    0.000000612
     22        6           0.000017716   -0.000002126    0.000001518
     23        1          -0.000003077    0.000002755   -0.000000338
     24        7           0.000072382    0.000000114    0.000008583
     25        8          -0.000022771    0.000021467   -0.000002767
     26        8          -0.000021915   -0.000021068   -0.000002909
 -------------------------------------------------------------------
 Cartesian Forces:  Max     0.000084001 RMS     0.000020855

 GradGradGradGradGradGradGradGradGradGradGradGradGradGradGradGradGradGrad
 Berny optimization.
 FormGI is forming the generalized inverse of G from B-inverse, IUseBI=4.
 Internal  Forces:  Max     0.000082424 RMS     0.000012411
 Search for a local minimum.
 Step number   1 out of a maximum of  136
 All quantities printed in internal units (Hartrees-Bohrs-Radians)
 Mixed Optimization -- En-DIIS/RFO-DIIS
 Second derivative matrix not updated -- first step.
 ITU=  0
     Eigenvalues ---    0.00230   0.00767   0.00767   0.01028   0.01388
     Eigenvalues ---    0.01727   0.01766   0.01869   0.01962   0.01972
     Eigenvalues ---    0.02047   0.02056   0.02066   0.02085   0.02098
     Eigenvalues ---    0.02109   0.02120   0.02138   0.02140   0.02142
     Eigenvalues ---    0.02146   0.02182   0.02187   0.03780   0.04501
     Eigenvalues ---    0.16000   0.16000   0.16000   0.16000   0.16000
     Eigenvalues ---    0.16000   0.16000   0.16000   0.16000   0.22000
     Eigenvalues ---    0.22000   0.22000   0.22977   0.23473   0.24000
     Eigenvalues ---    0.25000   0.25000   0.25000   0.25000   0.25000
     Eigenvalues ---    0.35190   0.35190   0.35194   0.35273   0.35273
     Eigenvalues ---    0.35362   0.35362   0.35576   0.35576   0.35751
     Eigenvalues ---    0.40807   0.40828   0.41503   0.41637   0.41809
     Eigenvalues ---    0.42306   0.44571   0.44701   0.44988   0.45146
     Eigenvalues ---    0.45989   0.46462   0.46690   0.47421   0.89637
     Eigenvalues ---    0.89638   0.96442
 RFO step:  Lambda=-1.02057657D-07 EMin= 2.30000000D-03
 Linear search not attempted -- first point.
 Iteration  1 RMS(Cart)=  0.00082996 RMS(Int)=  0.00000013
 Iteration  2 RMS(Cart)=  0.00000042 RMS(Int)=  0.00000002
 Variable       Old X    -DE/DX   Delta X   Delta X   Delta X     New X
                                 (Linear)    (Quad)   (Total)
    R1        2.66993   0.00002   0.00000   0.00005   0.00005   2.66998
    R2        2.05090   0.00000   0.00000   0.00000   0.00000   2.05090
    R3        2.62561   0.00000   0.00000   0.00000   0.00000   2.62561
    R4        2.66995   0.00001   0.00000   0.00003   0.00003   2.66998
    R5        2.68535   0.00008   0.00000   0.00019   0.00019   2.68554
    R6        2.62561   0.00000   0.00000   0.00000   0.00000   2.62561
    R7        2.05090   0.00000   0.00000   0.00000   0.00000   2.05090
    R8        2.64011   0.00001   0.00000   0.00002   0.00002   2.64014
    R9        2.04750   0.00000   0.00000   0.00001   0.00001   2.04751
   R10        2.64012   0.00001   0.00000   0.00002   0.00002   2.64013
   R11        2.77773  -0.00003   0.00000  -0.00008  -0.00008   2.77765
   R12        2.30098   0.00001   0.00000   0.00001   0.00001   2.30100
   R13        2.69167  -0.00007   0.00000  -0.00017  -0.00017   2.69150
   R14        2.66590  -0.00002   0.00000  -0.00004  -0.00004   2.66586
   R15        2.66588  -0.00001   0.00000  -0.00002  -0.00002   2.66586
   R16        2.63361   0.00000   0.00000   0.00000   0.00000   2.63361
   R17        2.05234   0.00001   0.00000   0.00002   0.00002   2.05236
   R18        2.63362   0.00000   0.00000   0.00000   0.00000   2.63362
   R19        2.05235   0.00000   0.00000   0.00001   0.00001   2.05236
   R20        2.64425   0.00000   0.00000   0.00000   0.00000   2.64426
   R21        2.05367   0.00000   0.00000   0.00001   0.00001   2.05368
   R22        2.64424   0.00000   0.00000   0.00001   0.00001   2.64425
   R23        2.05367   0.00000   0.00000   0.00001   0.00001   2.05368
   R24        2.05361   0.00001   0.00000   0.00001   0.00001   2.05363
   R25        2.04750   0.00000   0.00000   0.00001   0.00001   2.04751
   R26        2.33100   0.00003   0.00000   0.00003   0.00003   2.33104
   R27        2.33101   0.00003   0.00000   0.00003   0.00003   2.33104
    A1        2.08281   0.00000   0.00000   0.00001   0.00001   2.08282
    A2        2.10560   0.00001   0.00000   0.00002   0.00002   2.10562
    A3        2.09478  -0.00001   0.00000  -0.00003  -0.00003   2.09474
    A4        2.07683  -0.00001   0.00000  -0.00005  -0.00005   2.07678
    A5        2.10317   0.00001   0.00000   0.00004   0.00004   2.10321
    A6        2.10318   0.00000   0.00000   0.00002   0.00002   2.10320
    A7        2.10561   0.00000   0.00000   0.00001   0.00001   2.10562
    A8        2.08281   0.00000   0.00000   0.00001   0.00001   2.08282
    A9        2.09476   0.00000   0.00000  -0.00002  -0.00002   2.09474
   A10        2.07631   0.00001   0.00000   0.00005   0.00005   2.07636
   A11        2.11684  -0.00001   0.00000  -0.00002  -0.00002   2.11682
   A12        2.09004  -0.00001   0.00000  -0.00002  -0.00002   2.09001
   A13        2.12571  -0.00001   0.00000  -0.00006  -0.00006   2.12564
   A14        2.07874   0.00001   0.00000   0.00003   0.00003   2.07877
   A15        2.07874   0.00001   0.00000   0.00003   0.00003   2.07877
   A16        2.10212  -0.00001   0.00000  -0.00005  -0.00005   2.10207
   A17        2.10206  -0.00001   0.00000  -0.00002  -0.00002   2.10204
   A18        2.07901   0.00002   0.00000   0.00007   0.00007   2.07908
   A19        2.09839  -0.00001   0.00000  -0.00004  -0.00004   2.09835
   A20        2.08169   0.00001   0.00000   0.00003   0.00003   2.08172
   A21        2.10310   0.00000   0.00000   0.00001   0.00001   2.10312
   A22        2.09839  -0.00001   0.00000  -0.00004  -0.00004   2.09835
   A23        2.08169   0.00001   0.00000   0.00003   0.00003   2.08172
   A24        2.10311   0.00000   0.00000   0.00001   0.00001   2.10311
   A25        2.09910   0.00000   0.00000   0.00000   0.00000   2.09910
   A26        2.08830   0.00000   0.00000  -0.00001  -0.00001   2.08830
   A27        2.09578   0.00000   0.00000   0.00001   0.00001   2.09579
   A28        2.09910   0.00000   0.00000  -0.00001  -0.00001   2.09910
   A29        2.08829   0.00000   0.00000   0.00000   0.00000   2.08829
   A30        2.09579   0.00000   0.00000   0.00001   0.00001   2.09579
   A31        2.09238   0.00000   0.00000   0.00001   0.00001   2.09240
   A32        2.09540   0.00000   0.00000  -0.00001  -0.00001   2.09539
   A33        2.09540   0.00000   0.00000  -0.00001  -0.00001   2.09539
   A34        2.07632   0.00001   0.00000   0.00003   0.00003   2.07635
   A35        2.11683   0.00000   0.00000  -0.00001  -0.00001   2.11682
   A36        2.09004  -0.00001   0.00000  -0.00002  -0.00002   2.09001
   A37        2.05665   0.00001   0.00000   0.00003   0.00003   2.05669
   A38        2.05666   0.00001   0.00000   0.00003   0.00003   2.05668
   A39        2.16988  -0.00002   0.00000  -0.00006  -0.00006   2.16982
   A40        3.14158   0.00000   0.00000  -0.00010  -0.00010   3.14148
   A41        3.14140   0.00001   0.00000   0.00074   0.00074   3.14214
   A42        3.14248  -0.00003   0.00000  -0.00083  -0.00083   3.14165
   A43        3.14194  -0.00001   0.00000  -0.00036  -0.00036   3.14158
    D1        3.14154   0.00000   0.00000   0.00008   0.00008  -3.14157
    D2        0.00011   0.00000   0.00000  -0.00016  -0.00016  -0.00005
    D3       -0.00005   0.00000   0.00000   0.00005   0.00005   0.00000
    D4       -3.14148  -0.00001   0.00000  -0.00018  -0.00018   3.14152
    D5        0.00005   0.00000   0.00000  -0.00004  -0.00004   0.00001
    D6       -3.14158   0.00000   0.00000   0.00000   0.00000  -3.14158
    D7       -3.14154   0.00000   0.00000  -0.00007  -0.00007   3.14158
    D8        0.00001   0.00000   0.00000  -0.00002  -0.00002  -0.00001
    D9        0.00005   0.00000   0.00000  -0.00005  -0.00005   0.00000
   D10       -3.14154   0.00000   0.00000  -0.00008  -0.00008   3.14157
   D11        3.14148   0.00001   0.00000   0.00018   0.00018  -3.14152
   D12       -0.00011   0.00000   0.00000   0.00016   0.00016   0.00005
   D13       -0.00015   0.00000   0.00000   0.00018   0.00018   0.00002
   D14       -3.14137  -0.00001   0.00000  -0.00026  -0.00026   3.14156
   D15        3.14117   0.00001   0.00000   0.00033   0.00033   3.14150
   D16       -0.00005   0.00000   0.00000  -0.00010  -0.00010  -0.00015
   D17       -0.00004   0.00000   0.00000   0.00004   0.00004   0.00000
   D18        3.14159   0.00000   0.00000   0.00000   0.00000   3.14158
   D19        3.14155   0.00000   0.00000   0.00006   0.00006  -3.14157
   D20       -0.00001   0.00000   0.00000   0.00002   0.00002   0.00001
   D21        0.00003   0.00000   0.00000  -0.00003  -0.00003   0.00001
   D22       -3.14159   0.00000   0.00000   0.00000   0.00000  -3.14159
   D23        3.14159   0.00000   0.00000   0.00001   0.00001  -3.14158
   D24       -0.00003   0.00000   0.00000   0.00004   0.00004   0.00001
   D25       -0.00004   0.00000   0.00000   0.00003   0.00003  -0.00001
   D26       -3.14159   0.00000   0.00000  -0.00001  -0.00001   3.14158
   D27        3.14158   0.00000   0.00000   0.00000   0.00000   3.14159
   D28        0.00003   0.00000   0.00000  -0.00004  -0.00004  -0.00001
   D29       -3.14158   0.00000   0.00000   0.00036   0.00036  -3.14122
   D30        0.00007   0.00000   0.00000  -0.00040  -0.00040  -0.00034
   D31       -0.00002   0.00000   0.00000   0.00038   0.00038   0.00037
   D32       -3.14155   0.00000   0.00000  -0.00038  -0.00038   3.14125
   D33       -3.14146   0.00000   0.00000  -0.00016  -0.00016   3.14157
   D34        0.00016   0.00000   0.00000  -0.00018  -0.00018  -0.00003
   D35       -0.00015   0.00000   0.00000   0.00021   0.00021   0.00006
   D36        3.14146   0.00000   0.00000   0.00019   0.00019  -3.14153
   D37        3.14146   0.00000   0.00000   0.00016   0.00016  -3.14157
   D38       -0.00016   0.00000   0.00000   0.00019   0.00019   0.00003
   D39        0.00015   0.00000   0.00000  -0.00021  -0.00021  -0.00006
   D40       -3.14147   0.00000   0.00000  -0.00019  -0.00019   3.14153
   D41        0.00009   0.00000   0.00000  -0.00012  -0.00012  -0.00003
   D42       -3.14157   0.00000   0.00000  -0.00004  -0.00004   3.14158
   D43       -3.14152   0.00000   0.00000  -0.00009  -0.00009   3.14157
   D44        0.00001   0.00000   0.00000  -0.00002  -0.00002  -0.00001
   D45       -0.00009   0.00000   0.00000   0.00012   0.00012   0.00003
   D46        3.14156   0.00000   0.00000   0.00004   0.00004  -3.14158
   D47        3.14153   0.00000   0.00000   0.00009   0.00009  -3.14157
   D48        0.00000   0.00000   0.00000   0.00002   0.00002   0.00001
   D49       -0.00002   0.00000   0.00000   0.00002   0.00002  -0.00001
   D50        3.14156   0.00000   0.00000   0.00005   0.00005  -3.14158
   D51       -3.14155   0.00000   0.00000  -0.00006  -0.00006   3.14157
   D52        0.00003   0.00000   0.00000  -0.00003  -0.00003   0.00000
   D53        0.00003   0.00000   0.00000  -0.00002  -0.00002   0.00001
   D54       -3.14156   0.00000   0.00000  -0.00005  -0.00005   3.14158
   D55        3.14156   0.00000   0.00000   0.00006   0.00006  -3.14157
   D56       -0.00002   0.00000   0.00000   0.00002   0.00002   0.00000
         Item               Value     Threshold  Converged?
 Maximum Force            0.000082     0.000450     YES
 RMS     Force            0.000012     0.000300     YES
 Maximum Displacement     0.002703     0.001800     NO 
 RMS     Displacement     0.000830     0.001200     YES
 Predicted change in Energy=-5.102952D-08
 GradGradGradGradGradGradGradGradGradGradGradGradGradGradGradGradGradGrad

                          Input orientation:                          
 ---------------------------------------------------------------------
 Center     Atomic      Atomic             Coordinates (Angstroms)
 Number     Number       Type             X           Y           Z
 ---------------------------------------------------------------------
      1          6           0       -1.473903    1.217039    0.000237
      2          6           0       -0.757051   -0.000494    0.000217
      3          6           0       -1.474586   -1.217622    0.000169
      4          6           0       -2.863997   -1.220589    0.000141
      5          6           0       -3.543217    0.000291    0.000165
      6          1           0       -0.928396    2.155272    0.000255
      7          1           0       -0.929606   -2.156161    0.000133
      8          1           0       -3.424666   -2.147740    0.000096
      9          6           0        0.664078   -0.000899    0.000156
     10          6           0        1.881712   -0.001106    0.000045
     11          6           0        3.305995   -0.000568   -0.000093
     12          6           0        4.020249    1.215964   -0.000154
     13          6           0        4.021129   -1.216583   -0.000068
     14          6           0        5.413889    1.211306   -0.000262
     15          1           0        3.472167    2.153586   -0.000118
     16          6           0        5.414767   -1.210917   -0.000176
     17          1           0        3.473727   -2.154602    0.000034
     18          6           0        6.115177    0.000447   -0.000278
     19          1           0        5.954673    2.153964   -0.000320
     20          1           0        5.956232   -2.153185   -0.000168
     21          1           0        7.201910    0.000841   -0.000348
     22          6           0       -2.863312    1.220789    0.000208
     23          1           0       -3.423460    2.148254    0.000214
     24          7           0       -5.013086    0.000704    0.000141
     25          8           0       -5.588834    1.091629   -0.000240
     26          8           0       -5.589444   -1.089898   -0.000267
 ---------------------------------------------------------------------
                    Distance matrix (angstroms):
                    1          2          3          4          5
     1  C    0.000000
     2  C    1.412891   0.000000
     3  C    2.434661   1.412890   0.000000
     4  C    2.806135   2.434718   1.389414   0.000000
     5  C    2.400529   2.786166   2.400530   1.397100   0.000000
     6  H    1.085292   2.162564   3.416831   3.891399   3.388397
     7  H    3.416832   2.162563   1.085292   2.148758   3.388399
     8  H    3.889372   3.424447   2.160539   1.083493   2.151300
     9  C    2.460556   1.421129   2.460549   3.732956   4.207295
    10  C    3.569879   2.638764   3.569965   4.899887   5.424930
    11  C    4.932545   4.063047   4.933070   6.289456   6.849213
    12  C    5.494152   4.929743   6.009621   7.302714   7.660540
    13  C    6.009816   4.930505   5.495715   6.885127   7.661600
    14  C    6.887794   6.288796   7.304162   8.627717   9.038601
    15  H    5.033958   4.746193   5.986269   7.178582   7.338412
    16  C    7.304023   6.289393   6.889357   8.278770   9.039497
    17  H    5.987236   4.747595   5.036242   6.406178   7.340372
    18  C    7.685977   6.872229   7.686885   9.061816   9.658395
    19  H    7.487428   7.049038   8.158523   9.442275   9.739006
    20  H    8.158757   7.049982   7.489482   8.869395   9.740482
    21  H    8.760643   7.958962   8.761635  10.139743  10.745128
    22  C    1.389414   2.434721   2.806137   2.441378   1.397099
    23  H    2.160541   3.424450   3.889374   3.414983   2.151299
    24  N    3.742364   4.256035   3.742366   2.471870   1.469869
    25  O    4.116841   4.953671   4.718015   3.573666   2.318526
    26  O    4.718012   4.953667   4.116839   2.728578   2.318524
                    6          7          8          9         10
     6  H    0.000000
     7  H    4.311433   0.000000
     8  H    4.974663   2.495074   0.000000
     9  C    2.680493   2.680482   4.618090   0.000000
    10  C    3.542129   3.542284   5.724132   1.217635   0.000000
    11  C    4.751601   4.752568   7.064853   2.641918   1.424283
    12  C    5.037001   5.989348   8.169532   3.569963   2.460609
    13  C    5.988923   5.039106   7.503793   3.570389   2.460586
    14  C    6.412149   7.181905   9.455329   4.902055   3.734463
    15  H    4.400563   6.160319   8.128205   3.539374   2.678105
    16  C    7.181013   6.414403   8.888938   4.902366   3.734450
    17  H    6.160657   4.403333   6.898396   3.540136   2.678068
    18  C    7.365813   7.367492   9.778718   5.451100   4.233465
    19  H    6.883070   8.122222  10.318753   5.712603   4.607965
    20  H    8.121632   6.885839   9.380900   5.713076   4.607944
    21  H    8.410913   8.412742  10.841611   6.537833   5.320198
    22  C    2.148757   3.891402   3.414982   3.732961   4.899825
    23  H    2.495074   4.974666   4.295994   4.618098   5.724038
    24  N    4.618101   4.618103   2.671870   5.677164   6.894799
    25  O    4.780273   5.679484   3.895784   6.347639   7.550042
    26  O    5.679480   4.780272   2.409417   6.347634   7.550076
                   11         12         13         14         15
    11  C    0.000000
    12  C    1.410711   0.000000
    13  C    1.410712   2.432546   0.000000
    14  C    2.431430   1.393648   2.799004   0.000000
    15  H    2.160554   1.086061   3.414586   2.158281   0.000000
    16  C    2.431432   2.799005   1.393650   2.422223   3.885045
    17  H    2.160554   3.414586   1.086061   3.885043   4.308188
    18  C    2.809182   2.422025   2.422024   1.399280   3.409034
    19  H    3.414309   2.149848   3.885767   1.086763   2.482507
    20  H    3.414310   3.885768   2.149849   3.407923   4.971807
    21  H    3.895915   3.405803   3.405803   2.159223   4.306425
    22  C    6.289043   6.883562   7.303171   8.277206   6.403781
    23  H    7.064206   7.501864   8.169702   8.886879   6.895629
    24  N    8.319082   9.114713   9.115856  10.497017   8.754109
    25  O    8.961634   9.609886   9.883280  11.003373   9.123019
    26  O    8.961890   9.882468   9.611407  11.241391   9.624603
                   16         17         18         19         20
    16  C    0.000000
    17  H    2.158282   0.000000
    18  C    1.399277   3.409032   0.000000
    19  H    3.407921   4.971804   2.159490   0.000000
    20  H    1.086763   2.482506   2.159490   4.307150   0.000000
    21  H    2.159222   4.306424   1.086733   2.488280   2.488282
    22  C    8.627850   7.179925   9.061043   8.867225   9.442884
    23  H    9.455067   8.129315   9.777458   9.378136  10.318964
    24  N   10.498007   8.756217  11.128264  11.177132  11.178783
    25  O   11.241928   9.626422  11.754767  11.592287  11.992387
    26  O   11.004876   9.125494  11.755297  11.991217  11.594533
                   21         22         23         24         25
    21  H    0.000000
    22  C   10.138884   0.000000
    23  H   10.840198   1.083494   0.000000
    24  N   12.214997   2.471869   2.671868   0.000000
    25  O   12.837170   2.728580   2.409419   1.233532   0.000000
    26  O   12.837774   3.573663   3.895782   1.233532   2.181527
                   26
    26  O    0.000000
 Stoichiometry    C14H9NO2
 Framework group  C1[X(C14H9NO2)]
 Deg. of freedom    72
 Full point group                 C1      NOp   1
 Largest Abelian subgroup         C1      NOp   1
 Largest concise Abelian subgroup C1      NOp   1
                         Standard orientation:                         
 ---------------------------------------------------------------------
 Center     Atomic      Atomic             Coordinates (Angstroms)
 Number     Number       Type             X           Y           Z
 ---------------------------------------------------------------------
      1          6           0       -1.473981   -1.216936   -0.000249
      2          6           0       -0.757054    0.000552   -0.000230
      3          6           0       -1.474514    1.217725   -0.000181
      4          6           0       -2.863924    1.220778   -0.000153
      5          6           0       -3.543220   -0.000060   -0.000178
      6          1           0       -0.928532   -2.155203   -0.000268
      7          1           0       -0.929476    2.156230   -0.000145
      8          1           0       -3.424536    2.147963   -0.000108
      9          6           0        0.664075    0.000869   -0.000168
     10          6           0        1.881710    0.001002   -0.000058
     11          6           0        3.305993    0.000375    0.000081
     12          6           0        4.020170   -1.216201    0.000141
     13          6           0        4.021201    1.216346    0.000056
     14          6           0        5.413811   -1.211629    0.000249
     15          1           0        3.472031   -2.153789    0.000105
     16          6           0        5.414839    1.210594    0.000164
     17          1           0        3.473857    2.154398   -0.000046
     18          6           0        6.115174   -0.000814    0.000266
     19          1           0        5.954537   -2.154321    0.000308
     20          1           0        5.956362    2.152829    0.000155
     21          1           0        7.201907   -0.001275    0.000335
     22          6           0       -2.863391   -1.220600   -0.000220
     23          1           0       -3.423596   -2.148031   -0.000226
     24          7           0       -5.013089   -0.000383   -0.000154
     25          8           0       -5.588904   -1.091272    0.000227
     26          8           0       -5.589379    1.090256    0.000254
 ---------------------------------------------------------------------
 Rotational constants (GHZ):           2.3239804           0.1384950           0.1307058
 Standard basis: 6-31+G(d) (6D, 7F)
 There are   341 symmetry adapted cartesian basis functions of A   symmetry.
 There are   341 symmetry adapted basis functions of A   symmetry.
   341 basis functions,   580 primitive gaussians,   341 cartesian basis functions
    58 alpha electrons       58 beta electrons
       nuclear repulsion energy       966.6359678739 Hartrees.
 NAtoms=   26 NActive=   26 NUniq=   26 SFac= 1.00D+00 NAtFMM=   60 NAOKFM=F Big=F
 Integral buffers will be    131072 words long.
 Raffenetti 2 integral format.
 Two-electron integral symmetry is turned on.
 Nuclear repulsion after empirical dispersion term =      966.6178711834 Hartrees.
 One-electron integrals computed using PRISM.
 NBasis=   341 RedAO= T EigKep=  2.09D-06  NBF=   341
 NBsUse=   337 1.00D-06 EigRej=  6.75D-07 NBFU=   337
 Initial guess from the checkpoint file:  "molecule_57.chk"
 B after Tr=     0.000000    0.000000    0.000000
         Rot=    1.000000    0.000001    0.000009    0.000006 Ang=   0.00 deg.
 Requested convergence on RMS density matrix=1.00D-08 within 128 cycles.
 Requested convergence on MAX density matrix=1.00D-06.
 Requested convergence on             energy=1.00D-06.
 No special actions if energy rises.
 SCF Done:  E(RB3LYP) =  -744.011974033     A.U. after    9 cycles
            NFock=  9  Conv=0.76D-08     -V/T= 2.0096
 Calling FoFJK, ICntrl=      2127 FMM=F ISym2X=0 I1Cent= 0 IOpClX= 0 NMat=1 NMatS=1 NMatT=0.
 ***** Axes restored to original set *****
 -------------------------------------------------------------------
 Center     Atomic                   Forces (Hartrees/Bohr)
 Number     Number              X              Y              Z
 -------------------------------------------------------------------
      1        6           0.000003550   -0.000001885   -0.000001607
      2        6          -0.000007899   -0.000012297   -0.000003523
      3        6          -0.000000985    0.000002315   -0.000001577
      4        6           0.000007328    0.000001107    0.000004964
      5        6          -0.000028612   -0.000000706    0.000025442
      6        1          -0.000000820    0.000000758   -0.000000044
      7        1          -0.000001049   -0.000000443   -0.000000001
      8        1          -0.000000190   -0.000000848    0.000000418
      9        6          -0.000000259    0.000004465    0.000000355
     10        6          -0.000001522    0.000031691   -0.000000899
     11        6          -0.000005495   -0.000026004    0.000008720
     12        6          -0.000003577    0.000005401   -0.000003125
     13        6           0.000004260   -0.000000128   -0.000003220
     14        6           0.000002377   -0.000001301    0.000000745
     15        1           0.000000243   -0.000001218   -0.000000864
     16        6           0.000002049   -0.000001607    0.000000705
     17        1           0.000000421    0.000000871   -0.000000861
     18        6          -0.000000990    0.000000233    0.000000523
     19        1           0.000000323   -0.000000234    0.000000052
     20        1           0.000001004    0.000000603    0.000000071
     21        1          -0.000000044    0.000000072   -0.000000654
     22        6           0.000008664   -0.000001373    0.000004859
     23        1           0.000000182    0.000000831    0.000000439
     24        7           0.000027693   -0.000000758   -0.000107571
     25        8          -0.000003171    0.000011464    0.000038370
     26        8          -0.000003479   -0.000011010    0.000038281
 -------------------------------------------------------------------
 Cartesian Forces:  Max     0.000107571 RMS     0.000015758

 GradGradGradGradGradGradGradGradGradGradGradGradGradGradGradGradGradGrad
 Berny optimization.
 Using GEDIIS/GDIIS optimizer.
 FormGI is forming the generalized inverse of G from B-inverse, IUseBI=4.
 Internal  Forces:  Max     0.000043088 RMS     0.000008863
 Search for a local minimum.
 Step number   2 out of a maximum of  136
 All quantities printed in internal units (Hartrees-Bohrs-Radians)
 Mixed Optimization -- En-DIIS/RFO-DIIS
 Swapping is turned off.
 Update second derivatives using D2CorX and points    1    2
 DE= -2.32D-09 DEPred=-5.10D-08 R= 4.55D-02
 Trust test= 4.55D-02 RLast= 1.67D-03 DXMaxT set to 1.50D-01
 ITU= -1  0
     Eigenvalues ---    0.00230   0.00756   0.00769   0.01064   0.01422
     Eigenvalues ---    0.01710   0.01781   0.01953   0.01967   0.02047
     Eigenvalues ---    0.02056   0.02066   0.02083   0.02098   0.02109
     Eigenvalues ---    0.02109   0.02138   0.02140   0.02142   0.02143
     Eigenvalues ---    0.02182   0.02185   0.02549   0.04107   0.06903
     Eigenvalues ---    0.15957   0.16000   0.16000   0.16000   0.16000
     Eigenvalues ---    0.16000   0.16000   0.16000   0.16010   0.21968
     Eigenvalues ---    0.22000   0.22007   0.22488   0.23166   0.23724
     Eigenvalues ---    0.24840   0.25000   0.25000   0.25000   0.25305
     Eigenvalues ---    0.33510   0.35190   0.35192   0.35209   0.35273
     Eigenvalues ---    0.35310   0.35362   0.35363   0.35576   0.35582
     Eigenvalues ---    0.38995   0.40832   0.40960   0.41505   0.41642
     Eigenvalues ---    0.42037   0.44568   0.44704   0.44987   0.45066
     Eigenvalues ---    0.45987   0.46463   0.46701   0.47462   0.88504
     Eigenvalues ---    0.89637   0.96394
 En-DIIS/RFO-DIIS/Sim-DIIS IScMMF=       -3 using points:     2    1
 RFO step:  Lambda=-2.73703300D-07.
 DidBck=F Rises=F RFO-DIIS coefs:    1.40116   -0.40116
 Iteration  1 RMS(Cart)=  0.00100610 RMS(Int)=  0.00000073
 Iteration  2 RMS(Cart)=  0.00000120 RMS(Int)=  0.00000033
 Iteration  3 RMS(Cart)=  0.00000000 RMS(Int)=  0.00000033
 Variable       Old X    -DE/DX   Delta X   Delta X   Delta X     New X
                                 (Linear)    (Quad)   (Total)
    R1        2.66998  -0.00001   0.00002   0.00008   0.00010   2.67008
    R2        2.05090   0.00000   0.00000   0.00000   0.00000   2.05090
    R3        2.62561   0.00000   0.00000   0.00000   0.00000   2.62561
    R4        2.66998   0.00000   0.00001   0.00005   0.00006   2.67004
    R5        2.68554   0.00000   0.00008   0.00036   0.00043   2.68598
    R6        2.62561   0.00000   0.00000   0.00000   0.00000   2.62561
    R7        2.05090   0.00000   0.00000   0.00000   0.00000   2.05091
    R8        2.64014   0.00000   0.00001   0.00005   0.00006   2.64019
    R9        2.04751   0.00000   0.00000   0.00002   0.00002   2.04753
   R10        2.64013   0.00000   0.00001   0.00003   0.00004   2.64017
   R11        2.77765  -0.00002  -0.00003  -0.00017  -0.00020   2.77745
   R12        2.30100   0.00000   0.00001   0.00003   0.00003   2.30103
   R13        2.69150   0.00000  -0.00007  -0.00031  -0.00037   2.69113
   R14        2.66586   0.00000  -0.00002  -0.00007  -0.00008   2.66578
   R15        2.66586   0.00000  -0.00001  -0.00003  -0.00004   2.66582
   R16        2.63361   0.00000   0.00000   0.00001   0.00001   2.63362
   R17        2.05236   0.00000   0.00001   0.00004   0.00004   2.05240
   R18        2.63362   0.00000   0.00000   0.00000   0.00000   2.63362
   R19        2.05236   0.00000   0.00000   0.00002   0.00002   2.05238
   R20        2.64426   0.00000   0.00000   0.00001   0.00001   2.64426
   R21        2.05368   0.00000   0.00000   0.00002   0.00002   2.05371
   R22        2.64425   0.00000   0.00000   0.00002   0.00002   2.64427
[...]
 25,0.00000009,-0.13113033,-0.12381734,0.00000377,-0.00055906,0.0007312
 0,-0.00000002,0.00059269,0.00081766,-0.00000003,-0.01034666,-0.0287732
 5,0.00000074,0.13666779,-0.00002824,-0.00006263,0.,-0.00003213,-0.0000
 2401,0.,0.00003108,-0.00001925,0.,-0.00001535,0.00000297,0.,0.00001177
 ,-0.00000160,0.,0.00000161,0.00000063,0.,0.00002930,0.00003713,0.,-0.0
 0000045,0.00000136,0.,0.00091185,0.00025080,0.,-0.00130287,0.00037536,
 -0.00000005,-0.01537325,-0.01896193,0.00000068,0.00423302,-0.00272759,
 0.00000004,-0.12216934,-0.27074820,0.00000595,0.00073225,0.00026032,-0
 .00000002,-0.00081770,-0.00099870,0.00000005,0.00234094,0.00462081,-0.
 00000004,0.13106209,0.28548557,0.,0.,-0.00001621,0.,0.,0.00018870,0.,0
 .,-0.00000669,0.,0.,-0.00004339,0.,0.,0.00000516,0.,0.,0.00000411,0.,0
 .,0.00004600,0.,0.,0.00001044,-0.00000004,0.,0.00001498,-0.00000001,-0
 .00000009,-0.00357465,0.00000007,0.,0.00322263,0.00000011,0.00000011,0
 .00601663,0.00000373,0.00000609,-0.03654795,0.,-0.00000002,-0.00068351
 ,0.,0.,0.00047484,0.00000019,0.00000048,0.00370825,-0.00000418,-0.0000
 0658,0.02503879,-0.00013649,-0.00013316,0.00000004,0.00006448,0.,0.,-0
 .00013648,0.00013316,0.00000002,0.00009480,0.00003064,-0.00000002,-0.0
 0045463,0.,0.00000004,0.00000994,-0.00000343,0.,0.00000994,0.00000343,
 0.,-0.00000922,0.00000279,0.,0.00159888,-0.00000002,-0.00000006,-0.003
 23293,0.00000002,-0.00000004,0.00285479,-0.00000095,-0.00000004,-0.027
 43381,0.02970626,-0.00000015,-0.02743689,-0.02970455,0.00000106,-0.180
 48580,0.12019681,-0.00000057,-0.00554010,-0.00065322,0.00000024,-0.180
 49095,-0.12019992,0.00000430,-0.00554004,0.00065342,0.00000021,0.74152
 401,-0.00004913,0.00000588,0.,0.,0.00003715,0.,0.00004913,0.00000587,0
 .,-0.00004455,0.00001960,0.,0.,-0.00004424,0.,0.00000074,-0.00000169,0
 .,-0.00000074,-0.00000169,0.,-0.00000151,0.00000055,0.,-0.00000002,0.0
 0071471,0.,0.00000005,-0.00171049,0.,-0.00000101,-0.06409204,0.0000011
 5,0.07559083,0.03254741,-0.00000198,-0.07558908,0.03255047,0.00000095,
 0.05498458,-0.28302241,0.00000415,-0.00167999,0.00152849,0.00000013,-0
 .05498777,-0.28301770,0.00000481,0.00168019,0.00152842,0.00000010,-0.0
 0000076,0.66069044,0.00000001,-0.00000001,0.00004738,0.,0.,0.00015788,
 0.,0.,0.00004739,-0.00000001,0.,-0.00006446,0.00000001,0.,0.00005214,0
 .,0.,0.00000653,0.,0.,0.00000653,0.,0.,-0.00000174,-0.00000003,-0.0000
 0002,0.00003963,0.,0.00000002,-0.00158703,-0.00000011,0.00000118,-0.00
 578395,-0.00000097,-0.00000111,0.00687181,0.00000207,0.00000007,0.0068
 7181,0.00000089,0.00000285,-0.06209027,0.00000027,0.00000017,0.0073368
 0,0.00000312,0.00000609,-0.06209020,0.00000020,0.00000006,0.00733679,-
 0.00001117,-0.00001067,0.13330278,-0.00014225,-0.00001938,0.00000001,0
 .00023047,0.00009444,0.,-0.00009534,-0.00000189,0.,0.00003766,-0.00002
 817,0.,-0.00011573,-0.00000215,0.,0.00000909,-0.00000842,0.,0.00001259
 ,0.00001176,0.,-0.00000528,0.00000135,0.,-0.00048890,0.00002635,0.,-0.
 00031573,-0.00135572,0.00000005,-0.00503721,0.00152370,0.00000016,-0.0
 1121886,-0.02927024,0.00000096,-0.00072905,0.00083571,-0.00000001,-0.1
 2938253,-0.12080247,0.00000434,0.00061926,0.00035524,-0.00000009,-0.00
 120937,0.00313688,0.00000008,0.00010432,-0.00009395,-0.00000002,0.0123
 3139,0.01530902,-0.00000051,0.13408845,-0.00005841,0.00001290,0.,0.000
 13828,-0.00001398,0.,-0.00006007,-0.00001794,0.,0.00003700,-0.00001100
 ,0.,-0.00010203,0.00000042,0.,0.00000517,-0.00000255,0.,0.00000515,0.0
 0000347,0.,-0.00000074,0.00000034,0.,-0.00006405,-0.00003517,0.,0.0001
 0079,0.00010451,0.,0.00094564,0.00180289,0.00000011,0.00197107,0.00410
 986,-0.00000006,0.00085866,0.00019659,-0.00000003,-0.12087966,-0.27049
 270,0.00000748,-0.00032745,0.00083521,-0.00000011,0.00418493,-0.002961
 25,0.00000015,-0.00010141,0.00000087,-0.00000003,-0.01601523,-0.018663
 08,0.00000077,0.12971510,0.28542429,0.,0.,0.00000318,0.,0.,-0.00001083
 ,0.,0.,-0.00001772,0.,0.,-0.00000543,0.,0.,-0.00000060,0.,0.,0.0000041
 1,0.,0.,0.00000415,0.,0.,0.00000274,0.,0.,-0.00018218,0.00000003,0.000
 00004,0.00048995,0.00000019,0.00000002,0.00726315,0.00000031,0.0000005
 4,0.00313724,-0.00000007,-0.00000002,-0.00065166,0.00000428,0.00000749
 ,-0.03687393,-0.00000008,-0.00000013,-0.00415066,0.00000006,0.00000018
 ,0.00689809,-0.00000002,-0.00000001,-0.00113189,0.00000024,0.00000019,
 0.00324483,-0.00000486,-0.00000821,0.02566142,-0.00009534,0.00000189,0
 .,0.00023046,-0.00009445,0.,-0.00014225,0.00001939,0.00000001,0.000038
 10,-0.00004382,0.,-0.00011572,0.00000215,0.,0.00001259,-0.00001176,0.,
 0.00000909,0.00000842,0.,-0.00001092,0.00000309,0.,-0.00048891,-0.0000
 2633,0.,-0.00031568,0.00135573,0.,-0.00503728,-0.00152351,0.00000022,-
 0.00072910,-0.00083568,0.00000002,-0.01121805,0.02927070,-0.00000023,-
 0.00120958,-0.00313693,0.00000020,0.00010433,0.00009395,-0.00000003,-0
 .12937531,0.12079828,-0.00000056,0.00061925,-0.00035523,-0.00000007,0.
 01233143,-0.01530991,0.00000011,0.00047121,-0.00084252,0.00000002,0.13
 408069,0.00006007,-0.00001794,0.,-0.00013829,-0.00001397,0.,0.00005841
 ,0.00001289,0.,-0.00003648,0.00001369,0.,0.00010203,0.00000042,0.,-0.0
 0000515,0.00000347,0.,-0.00000517,-0.00000255,0.,0.00000146,-0.0000008
 4,0.,0.00006406,-0.00003517,0.,-0.00010078,0.00010447,0.00000001,-0.00
 094543,0.00180296,0.00000011,-0.00085863,0.00019664,0.,-0.00197062,0.0
 0410905,0.00000002,-0.00418498,-0.00296103,0.00000025,0.00010141,0.000
 00086,-0.00000002,0.12087548,-0.27050003,0.00000198,0.00032745,0.00083
 521,-0.00000009,0.01601431,-0.01866306,0.00000011,0.00084248,-0.001024
 11,0.00000002,-0.12971064,0.28543210,0.,0.,-0.00001772,0.,0.,-0.000010
 83,0.,0.,0.00000318,0.,0.,0.00001324,0.,0.,-0.00000060,0.,0.,0.0000041
 5,0.,0.,0.00000411,0.,0.,0.00000058,0.,0.,-0.00018218,0.00000002,-0.00
 000003,0.00048995,0.00000024,0.00000020,0.00726315,-0.00000004,-0.0000
 0002,-0.00065166,0.00000039,-0.00000057,0.00313724,0.00000023,0.000000
 22,0.00689810,-0.00000002,-0.00000003,-0.00113189,-0.00000062,0.000001
 97,-0.03687392,-0.00000009,-0.00000007,-0.00415065,-0.00000040,0.00000
 070,0.00324482,-0.00000002,0.00000003,0.00018387,0.00000040,-0.0000023
 1,0.02566141,-0.00006481,0.00001679,0.,0.00015316,0.,0.,-0.00006481,-0
 .00001679,0.,0.00003309,-0.00001714,0.,-0.00009427,0.,0.,0.00000914,-0
 .00000704,0.,0.00000914,0.00000704,0.,-0.00000160,0.00000073,0.,-0.000
 16646,0.,0.,0.00014917,0.,-0.00000003,0.00072035,-0.00000003,-0.000000
 04,0.00066223,0.00311381,0.00000007,0.00066208,-0.00311396,0.00000019,
 -0.01116242,-0.00249975,0.00000034,-0.00063156,-0.00021772,0.00000002,
 -0.01116312,0.00250021,0.00000024,-0.00063159,0.00021774,0.,-0.3402128
 0,0.00000385,0.00000611,0.00075905,0.00040988,-0.00000010,0.00075905,-
 0.00040988,-0.00000009,0.36020532,-0.00000388,-0.00000836,0.,0.,-0.000
 01673,0.,0.00000388,-0.00000836,0.,0.00000093,0.00000415,0.,0.,-0.0000
 0083,0.,-0.00000361,0.00000323,0.,0.00000361,0.00000323,0.,0.00000061,
 -0.00000012,0.,0.,0.00004230,0.,0.,0.00017510,-0.00000002,-0.00000003,
 -0.00122970,0.,0.00214129,-0.00478623,0.00000022,-0.00214145,-0.004786
 08,0.00000026,0.02875474,0.00491744,-0.00000059,0.00144009,0.00010640,
 -0.00000002,-0.02875424,0.00491823,0.00000053,-0.00144007,0.00010643,0
 .00000002,0.00000381,-0.06042574,0.00000048,-0.00031454,0.00071715,-0.
 00000009,0.00031455,0.00071715,-0.00000009,-0.00000416,0.05954602,0.,0
 .,-0.00000312,-0.00000001,0.,0.00004284,0.,0.,-0.00000312,0.,0.,0.0000
 0038,0.,0.,-0.00000010,0.,0.,0.00000123,0.,0.,0.00000123,0.,0.,0.00000
 209,0.,0.,0.00007021,-0.00000002,-0.00000003,-0.00105585,-0.00000003,0
 .00000001,-0.00089083,0.00000007,0.00000023,0.00705050,0.00000015,0.00
 000025,0.00705050,-0.00000040,0.00000005,0.00353415,-0.00000002,0.,0.0
 0007471,0.00000076,-0.00000010,0.00353414,0.00000004,0.,0.00007471,0.0
 0000634,0.00000048,-0.03687699,-0.00000008,-0.00000011,-0.00387868,-0.
 00000009,-0.00000007,-0.00387868,-0.00000672,-0.00000070,0.02515006,-0
 .35511238,-0.03190212,0.00001301,-0.03288487,0.06888705,0.00000229,-0.
 04480732,-0.02262241,0.00000180,0.05656613,-0.02060960,-0.00000268,-0.
 14719628,-0.04743377,0.00000349,-0.01189525,0.00235049,0.00000073,-0.0
 0063396,-0.00078188,0.00000004,-0.00196529,0.00411488,0.00000036,0.010
 27006,0.00201234,-0.00000001,-0.00543222,-0.00063445,0.00000013,0.0017
 3195,-0.00005613,-0.00000002,-0.00046778,-0.00063415,-0.00000005,-0.00
 033758,0.00064830,-0.00000001,0.00034422,-0.00032504,0.00000004,-0.000
 01602,0.00001535,0.,0.00025834,0.00028741,0.,-0.00001433,-0.00002121,0
 .,0.00009479,0.00004455,-0.00000001,0.00003810,0.00003648,0.,0.0000376
 6,-0.00003700,0.,0.00003309,-0.00000093,0.,0.70889454,0.03203908,-0.13
 033015,-0.00000272,0.02690752,0.03333618,-0.00000085,-0.02832512,-0.01
 526671,0.00000110,0.02060554,-0.05387875,-0.00000164,-0.10351537,-0.29
 101340,0.00000124,-0.02821957,0.00505750,0.00000132,-0.00069091,0.0001
 6439,0.00000005,0.00333483,-0.00273387,-0.00000020,0.00507037,-0.00521
 233,-0.00000030,-0.00088915,0.00006157,-0.00000007,0.00056815,0.000314
 90,-0.00000002,0.00005968,-0.00036436,0.00000005,-0.00008484,0.0002435
 2,0.00000002,0.00014522,-0.00000065,-0.00000003,-0.00001591,0.00000297
 ,0.,0.00010308,0.00005096,0.,-0.00004316,0.00003156,0.,-0.00003065,0.0
 0001960,0.00000001,0.00004382,0.00001369,0.,0.00002817,-0.00001100,0.,
 0.00001714,0.00000415,0.,-0.04575400,0.72567198,0.00001375,0.00000024,
 -0.05824091,0.00000211,-0.00000274,0.00297381,0.00000161,0.00000092,-0
 .00192710,-0.00000217,0.00000023,0.00515357,0.00000263,-0.00000141,-0.
 05689075,0.00000019,-0.00000006,0.00330633,0.,0.00000004,-0.00071600,0
 .00000035,-0.00000024,0.00493183,-0.00000021,-0.00000025,0.00593227,0.
 00000035,-0.00000003,0.00069008,-0.00000009,0.00000003,-0.00044474,0.,
 0.,-0.00032014,0.,-0.00000002,-0.00003604,0.00000002,0.00000006,0.0002
 5055,0.,0.,-0.00004339,0.00000002,-0.00000004,-0.00000714,0.,0.,0.0000
 1705,-0.00000003,0.,-0.00006446,0.,0.,0.00001324,0.,0.,-0.00000544,0.,
 0.,0.00000038,-0.00002652,0.00001089,0.13304777,-0.01030767,0.02673896
 ,0.00000109,-0.00454767,-0.00127044,0.00000052,-0.00072969,-0.00070176
 ,-0.00000001,-0.00196556,-0.00333485,0.00000027,0.01335118,-0.01274914
 ,-0.00000060,0.00074559,-0.00026733,-0.00000023,0.00004649,0.00006138,
 -0.00000004,0.00075253,-0.00086569,0.,-0.00033544,0.00116080,0.0000000
 4,-0.00027962,-0.00004539,0.,0.00006342,-0.00007669,0.,-0.00006412,0.0
 0003983,0.,-0.00002395,-0.00001611,0.,-0.00000217,-0.00002024,0.,0.000
 00296,0.00000045,0.,-0.00000288,0.00000396,0.,0.00000661,-0.00000622,0
 .,-0.00000922,0.00000151,0.,-0.00001092,-0.00000146,0.,-0.00000528,0.0
 0000074,0.,-0.00000160,-0.00000061,0.,-0.13267545,0.12878422,0.0000061
 4,0.13980287,-0.00235236,0.00651359,0.00000015,-0.00148692,0.00129688,
 -0.00000002,-0.00062909,0.00034599,0.00000005,-0.00411490,-0.00273359,
 0.00000006,0.01469763,-0.01913092,-0.00000099,0.00021403,0.00076499,0.
 00000007,0.00007998,0.00000651,0.,0.00086563,-0.00084036,-0.00000005,-
 0.00003519,0.00026325,0.,-0.00009882,-0.00004549,0.,0.00000855,-0.0000
 1958,0.,-0.00001402,0.00001083,0.,-0.00000258,-0.00000770,0.,0.0000003
 1,-0.00000015,0.,0.00000142,0.00000136,0.,-0.00000162,-0.00000237,0.,0
 .00000149,-0.00000201,0.,-0.00000279,0.00000055,0.,-0.00000309,-0.0000
 0084,0.,-0.00000135,0.00000034,0.,-0.00000073,-0.00000012,0.,0.1267918
 3,-0.27591707,-0.00000928,-0.13702431,0.28904623,0.00000081,-0.0000012
 5,0.00454752,0.00000050,0.00000004,0.00769562,-0.00000008,0.00000004,-
 0.00090912,0.00000025,0.,0.00493184,-0.00000010,0.00000031,0.00462677,
 -0.00000023,0.00000012,-0.00450022,-0.00000004,0.,-0.00080512,0.000000
 02,0.00000001,0.00072912,0.00000005,-0.00000005,0.00004255,-0.00000002
 ,0.,-0.00019275,0.00000001,0.,0.00002668,0.,0.,0.00002353,0.,0.,-0.000
 03112,0.,0.,-0.00001338,0.,0.,0.00001044,0.,0.,0.00000721,0.,0.,0.0000
 0161,0.,0.,-0.00000174,0.,0.,0.00000058,0.,0.,0.00000274,0.,0.,0.00000
 209,0.00000594,-0.00000938,-0.03880455,-0.00000714,0.00001005,0.026384
 22,0.01129551,-0.00667614,-0.00000026,-0.00934368,0.00000010,0.0000002
 1,0.01129593,0.00667546,-0.00000015,-0.03831720,0.01986217,0.00000170,
 -0.11509864,0.00000011,0.00000207,0.00034927,0.00047339,0.00000004,0.0
 0034932,-0.00047339,0.00000003,0.00065829,-0.00285703,-0.00000021,0.00
 984550,-0.00000019,-0.00000007,-0.00568533,0.00000009,-0.00000003,0.00
 101686,0.,-0.00000007,-0.00002055,-0.00116397,0.,-0.00002051,0.0011639
 7,0.00000002,0.00037382,-0.00069749,0.00000003,-0.00015247,-0.00003703
 ,0.,0.00037383,0.00069748,-0.00000003,-0.00015247,0.00003703,0.,0.0006
 7181,0.,0.,0.00017549,0.00014876,0.,0.00017549,-0.00014877,0.,0.000151
 86,0.,-0.00000001,-0.03831892,-0.01986026,0.00000133,0.00065837,0.0028
 5686,-0.00000020,0.63405861,-0.00509527,-0.00714089,0.00000002,0.00000
 009,-0.00456280,-0.00000005,0.00509459,-0.00714132,-0.00000038,0.02584
 954,0.01387983,-0.00000104,0.00000011,-0.10860399,-0.00000040,-0.00180
 043,0.00023921,0.00000007,0.00180042,0.00023916,-0.00000009,0.00083263
 ,-0.00393326,-0.00000004,-0.00000019,-0.00041804,0.,0.00000011,0.00004
 795,0.00000001,-0.00000002,0.00005211,0.,-0.00001205,0.00002633,0.,0.0
 0001205,0.00002629,0.,0.00000877,-0.00000911,0.,0.00000358,-0.00000923
 ,0.,-0.00000879,-0.00000914,0.,-0.00000358,-0.00000923,0.,-0.00000001,
 0.00000237,0.,-0.00001035,-0.00000510,0.,0.00001034,-0.00000509,0.,0.,
 -0.00000030,0.,-0.02584762,0.01388149,0.00000143,-0.00083280,-0.003933
 33,0.00000004,0.00000528,0.93801085,-0.00000010,0.00000005,0.00895850,
 0.00000029,-0.00000001,-0.00194615,-0.00000001,-0.00000043,0.00895849,
 0.00000174,-0.00000069,-0.00425500,0.00000174,-0.00000051,-0.07412372,
 0.,-0.00000004,0.00095602,0.00000005,0.00000002,0.00095602,-0.00000021
 ,0.00000013,-0.00410021,-0.00000046,0.,-0.00143850,0.00000023,0.,-0.00
 010651,-0.00000003,0.,0.00022497,0.,0.00000004,-0.00003381,0.,-0.00000
 004,-0.00003381,0.,0.00000003,0.00002169,0.,0.,0.00000013,-0.00000001,
 -0.00000003,0.00002169,0.,0.,0.00000013,-0.00000004,0.,-0.00002407,0.,
 0.,0.00000140,0.,0.,0.00000140,0.,0.,0.00000114,0.00000099,0.00000107,
 -0.00425497,-0.00000021,-0.00000008,-0.00410021,-0.00001656,0.00000364
 ,0.22144966,-0.00075137,0.00176506,0.00000006,0.00219780,0.00167108,-0
 .00000002,-0.00388975,0.00090053,0.00000016,-0.00345248,-0.00748499,0.
 00000021,-0.03835661,0.04918720,0.00000245,-0.00014344,-0.00013086,0.,
 -0.00089952,-0.00003865,0.00000003,0.00043193,0.00012716,0.,-0.0024294
 0,-0.00009153,-0.00000001,0.00130189,-0.00001547,0.00000002,-0.0000960
 3,0.00000240,0.00000002,-0.00007436,0.00034883,0.,-0.00005424,-0.00032
 658,0.,-0.00009903,0.00019835,0.,0.00005977,0.00001917,0.,-0.00010047,
 -0.00021322,0.,0.00006108,-0.00002698,0.,-0.00023345,0.00000365,0.,-0.
 00006614,-0.00005273,0.,-0.00005980,0.00005116,0.,-0.00005586,-0.00000
 031,0.,-0.00305908,0.00223687,0.00000014,-0.00490074,0.00037717,0.0000
 0019,-0.23216383,0.17574025,0.00000708,0.24049369,0.00347850,0.0003557
 7,-0.00000015,-0.00329009,0.00030536,0.00000013,0.00223065,0.00172492,
 -0.00000008,-0.00104151,0.00345282,0.00000004,0.03708473,-0.01190477,-
 0.00000159,0.00023613,0.00003341,0.,0.00022007,0.00002256,0.,-0.001287
 09,0.00119961,0.00000008,0.00320092,0.00048383,-0.00000008,-0.00200010
 ,-0.00001429,0.00000005,0.00055684,-0.00003806,-0.00000002,-0.00008525
 ,-0.00036190,0.,-0.00011263,0.00031451,0.,0.00013520,-0.00017286,0.,-0
 .00003089,0.00000696,0.,0.00014368,0.00019748,0.,-0.00003239,0.0000107
 3,0.,0.00012062,-0.00000469,0.,0.00004609,0.00003589,0.,0.00003158,-0.
 00003035,0.,0.00003279,0.00000079,0.,-0.00957013,-0.00757868,0.0000002
 7,-0.00086593,0.00318344,0.00000007,0.17015817,-0.41531894,-0.00000813
 ,-0.21180076,0.54124354,0.,-0.00000004,-0.00078199,-0.00000010,-0.0000
 0008,0.00025598,0.00000012,0.,-0.00132021,0.00000028,0.00000029,0.0037
 3139,0.00000259,-0.00000216,0.01743923,0.,0.,-0.00000689,0.00000001,0.
 ,-0.00049975,0.,0.,0.00037524,0.00000012,0.,0.00012090,-0.00000006,0.,
 0.00008924,0.,0.,-0.00005062,0.,-0.00000001,0.00000372,0.,0.00000001,0
 .00001300,0.,-0.00000001,-0.00000518,0.,0.,-0.00000420,0.,0.00000001,-
 0.00000876,0.,0.,-0.00000168,0.00000001,0.,0.00000890,0.,0.,-0.0000026
 4,0.,0.,-0.00000173,0.,0.,-0.00000149,0.00000016,-0.00000018,0.0017073
 8,0.00000018,0.00000001,-0.00004955,0.00000684,-0.00000814,-0.07356711
 ,-0.00000937,0.00001049,0.02704960,-0.00388986,-0.00090032,0.00000009,
 0.00219786,-0.00167116,-0.00000007,-0.00075155,-0.00176501,0.00000001,
 -0.00305882,-0.00223704,0.00000018,-0.03835973,-0.04918621,0.00000196,
 -0.00089953,0.00003868,0.00000002,-0.00014344,0.00013087,0.,-0.0049007
 2,-0.00037688,0.00000022,-0.00242951,0.00009163,0.,0.00130196,0.000015
 44,0.00000003,-0.00009606,-0.00000240,0.00000002,-0.00005422,0.0003265
 9,0.,-0.00007437,-0.00034884,0.,-0.00010047,0.00021323,0.,0.00006108,0
 .00002698,0.,-0.00009904,-0.00019835,0.,0.00005977,-0.00001917,0.,-0.0
 0023345,-0.00000365,0.,-0.00005980,-0.00005116,0.,-0.00006614,0.000052
 74,0.,-0.00005586,0.00000031,0.,-0.00345217,0.00748525,0.00000042,0.00
 043197,-0.00012713,0.00000002,-0.23217634,-0.17574666,0.00000551,0.046
 33940,0.01244080,-0.00000080,0.24050902,-0.00223045,0.00172504,0.00000
 010,0.00329002,0.00030530,-0.00000011,-0.00347845,0.00035596,0.0000001
 8,0.00956996,-0.00757895,-0.00000049,-0.03708375,-0.01190161,0.0000013
 2,-0.00022003,0.00002257,0.00000002,-0.00023612,0.00003342,0.,0.000866
 23,0.00318342,-0.00000001,-0.00320081,0.00048395,0.00000009,0.00200005
 ,-0.00001436,-0.00000006,-0.00055684,-0.00003804,0.00000003,0.00011265
 ,0.00031449,0.,0.00008524,-0.00036189,0.,-0.00014368,0.00019748,0.,0.0
 0003239,0.00001073,0.,-0.00013520,-0.00017284,0.,0.00003089,0.00000696
 ,0.,-0.00012061,-0.00000469,0.,-0.00003158,-0.00003035,0.,-0.00004609,
 0.00003588,0.,-0.00003278,0.00000079,0.,0.00104177,0.00345251,-0.00000
 004,0.00128712,0.00119957,-0.00000001,-0.17016457,-0.41530582,0.000004
 96,-0.01244677,-0.11714708,-0.00000021,0.21181145,0.54122757,0.0000000
 9,0.00000008,-0.00132021,-0.00000005,0.00000007,0.00025598,-0.00000004
 ,0.00000010,-0.00078198,0.00000028,0.,0.00170739,0.00000226,0.00000196
 ,0.01743921,0.00000001,0.00000001,-0.00049975,0.,0.,-0.00000689,0.0000
 0022,0.00000005,-0.00004955,0.00000008,0.,0.00012089,-0.00000004,0.,0.
 00008925,0.,0.,-0.00005062,0.,0.,0.00001301,0.,0.00000001,0.00000372,0
 .,0.,-0.00000876,0.,0.,-0.00000168,0.,0.,-0.00000518,0.,0.,-0.00000420
 ,0.00000001,0.,0.00000890,0.,0.,-0.00000173,0.,0.,-0.00000264,0.,0.,-0
 .00000149,0.00000035,-0.00000036,0.00373137,0.,0.,0.00037524,0.0000053
 4,0.00000491,-0.07356717,-0.00000094,-0.00000105,0.02550723,-0.0000076
 0,-0.00000576,0.02704966\\-0.00000069,0.00000007,0.00000031,-0.0000020
 7,-0.00000011,-0.00000042,-0.00000059,0.00000001,0.00000027,-0.0000018
 9,0.00000038,0.00000011,0.00000878,0.00000022,-0.00000051,0.00000009,0
 .00000006,0.00000027,0.00000014,-0.00000006,0.00000025,-0.00000013,-0.
 00000016,-0.00000003,0.00000293,0.,-0.00000167,0.00000315,-0.00000043,
 0.00000036,-0.00000087,0.00000075,0.00000203,-0.00000118,-0.00000044,-
 0.00000075,-0.00000150,-0.00000004,-0.00000070,0.00000013,-0.00000030,
 -0.00000014,-0.00000006,0.00000029,-0.00000004,0.00000051,0.00000032,-
 0.00000013,0.00000007,-0.00000017,-0.00000004,-0.00000009,-0.00000015,
 0.00000052,0.00000010,0.00000019,0.00000004,0.00000003,-0.00000021,0.0
 0000004,0.00000020,0.00000008,-0.00000019,-0.00000210,-0.00000046,0.00
 000013,-0.00000016,0.00000016,-0.00000004,-0.00001016,0.00000011,0.000
 00114,0.00000272,-0.00000140,-0.00000042,0.00000264,0.00000127,-0.0000
 0038\\\@


 BE NOT THE FIRST BY WHOM THE NEW ARE TRIED,
 NOR YET THE THE LAST TO LAY THE OLD ASIDE.

                          -- ALEXANDER POPE
 Job cpu time:       0 days  2 hours  9 minutes 57.2 seconds.
 Elapsed time:       0 days  0 hours  4 minutes 19.9 seconds.
 File lengths (MBytes):  RWF=    317 Int=      0 D2E=      0 Chk=     11 Scr=      1
 Normal termination of Gaussian 16 at Fri Sep 22 19:42:30 2023.
