 Entering Gaussian System, Link 0=/home/ubuntu/g16/g16
 Input=/home/ubuntu/ML products/molecule_108.gjf
 Output=/home/ubuntu/ML products/molecule_108.log
 Initial command:
 /home/ubuntu/g16/l1.exe "/home/ubuntu/Scratch/Gau-301055.inp" -scrdir="/home/ubuntu/Scratch/"
 Entering Link 1 = /home/ubuntu/g16/l1.exe PID=    301057.
  
 Copyright (c) 1988-2017, Gaussian, Inc.  All Rights Reserved.
  
 This is part of the Gaussian(R) 16 program.  It is based on
 the Gaussian(R) 09 system (copyright 2009, Gaussian, Inc.),
 the Gaussian(R) 03 system (copyright 2003, Gaussian, Inc.),
 the Gaussian(R) 98 system (copyright 1998, Gaussian, Inc.),
 the Gaussian(R) 94 system (copyright 1995, Gaussian, Inc.),
 the Gaussian 92(TM) system (copyright 1992, Gaussian, Inc.),
 the Gaussian 90(TM) system (copyright 1990, Gaussian, Inc.),
 the Gaussian 88(TM) system (copyright 1988, Gaussian, Inc.),
 the Gaussian 86(TM) system (copyright 1986, Carnegie Mellon
 University), and the Gaussian 82(TM) system (copyright 1983,
 Carnegie Mellon University). Gaussian is a federally registered
 trademark of Gaussian, Inc.
  
 This software contains proprietary and confidential information,
 including trade secrets, belonging to Gaussian, Inc.
  
 This software is provided under written license and may be
 used, copied, transmitted, or stored only in accord with that
 written license.
  
 The following legend is applicable only to US Government
 contracts under FAR:
  
                    RESTRICTED RIGHTS LEGEND
  
 Use, reproduction and disclosure by the US Government is
 subject to restrictions as set forth in subparagraphs (a)
 and (c) of the Commercial Computer Software - Restricted
 Rights clause in FAR 52.227-19.
  
 Gaussian, Inc.
 340 Quinnipiac St., Bldg. 40, Wallingford CT 06492
  
  
 ---------------------------------------------------------------
 Warning -- This program may not be used in any manner that
 competes with the business of Gaussian, Inc. or will provide
 assistance to any competitor of Gaussian, Inc.  The licensee
 of this program is prohibited from giving any competitor of
 Gaussian, Inc. access to this program.  By using this program,
 the user acknowledges that Gaussian, Inc. is engaged in the
 business of creating and licensing software in the field of
 computational chemistry and represents and warrants to the
 licensee that it is not a competitor of Gaussian, Inc. and that
 it will not use this program in any manner prohibited above.
 ---------------------------------------------------------------
  

 Cite this work as:
 Gaussian 16, Revision B.01,
 M. J. Frisch, G. W. Trucks, H. B. Schlegel, G. E. Scuseria, 
 M. A. Robb, J. R. Cheeseman, G. Scalmani, V. Barone, 
 G. A. Petersson, H. Nakatsuji, X. Li, M. Caricato, A. V. Marenich, 
 J. Bloino, B. G. Janesko, R. Gomperts, B. Mennucci, H. P. Hratchian, 
 J. V. Ortiz, A. F. Izmaylov, J. L. Sonnenberg, D. Williams-Young, 
 F. Ding, F. Lipparini, F. Egidi, J. Goings, B. Peng, A. Petrone, 
 T. Henderson, D. Ranasinghe, V. G. Zakrzewski, J. Gao, N. Rega, 
 G. Zheng, W. Liang, M. Hada, M. Ehara, K. Toyota, R. Fukuda, 
 J. Hasegawa, M. Ishida, T. Nakajima, Y. Honda, O. Kitao, H. Nakai, 
 T. Vreven, K. Throssell, J. A. Montgomery, Jr., J. E. Peralta, 
 F. Ogliaro, M. J. Bearpark, J. J. Heyd, E. N. Brothers, K. N. Kudin, 
 V. N. Staroverov, T. A. Keith, R. Kobayashi, J. Normand, 
 K. Raghavachari, A. P. Rendell, J. C. Burant, S. S. Iyengar, 
 J. Tomasi, M. Cossi, J. M. Millam, M. Klene, C. Adamo, R. Cammi, 
 J. W. Ochterski, R. L. Martin, K. Morokuma, O. Farkas, 
 J. B. Foresman, and D. J. Fox, Gaussian, Inc., Wallingford CT, 2016.
 
 ******************************************
 Gaussian 16:  EM64L-G16RevB.01 20-Dec-2017
                15-Sep-2023 
 ******************************************
 %nprocshared=30
 Will use up to   30 processors via shared memory.
 %mem=30GB
 %chk=molecule_108.chk
 ----------------------------------------------------------------------
 # opt freq b3lyp/6-31+g(d) geom=connectivity empiricaldispersion=gd3 v
 olume
 ----------------------------------------------------------------------
 1/18=20,19=15,26=3,38=1,57=2/1,3;
 2/9=110,12=2,17=6,18=5,40=1/2;
 3/5=1,6=6,7=11,11=2,25=1,30=1,71=1,74=-5,124=31/1,2,3;
 4//1;
 5/5=2,38=5/2;
 6/7=2,8=2,9=2,10=2,28=1,44=1/1,4;
 7//1,2,3,16;
 1/18=20,19=15,26=3/3(2);
 2/9=110/2;
 99//99;
 2/9=110/2;
 3/5=1,6=6,7=11,11=2,25=1,30=1,71=1,74=-5,124=31/1,2,3;
 4/5=5,16=3,69=1/1;
 5/5=2,38=5/2;
 7//1,2,3,16;
 1/18=20,19=15,26=3/3(-5);
 2/9=110/2;
 6/7=2,8=2,9=2,10=2,19=2,28=1,44=1/1,4;
 99/9=1/99;
 --------------
 ML molecule108
 --------------
 Symbolic Z-matrix:
 Charge =  0 Multiplicity = 1
 C                    -4.74942  -0.23058  -0.40002 
 C                    -4.8202    0.23854  -1.71867 
 C                    -4.55025   1.58484  -1.99888 
 C                    -4.20951   2.46203  -0.96044 
 C                    -4.13873   1.99291   0.35822 
 C                    -4.40868   0.64661   0.63842 
 H                    -5.08036  -0.43121  -2.51155 
 H                    -3.87857   2.66266   1.15109 
 H                    -4.35464   0.28843   1.64524 
 O                    -3.91049   3.9533   -1.27081 
 C                    -3.81752   4.69985  -2.77936 
 C                    -4.13168   3.88761  -3.87731 
 C                    -3.30395   5.98751  -2.98454 
 C                    -3.93225   4.36302  -5.18043 
 C                    -3.10452   6.46292  -4.28767 
 H                    -3.06408   6.60768  -2.14623 
 C                    -3.41867   5.65068  -5.38561 
 H                    -4.17211   3.74285  -6.01874 
 H                    -4.60429   1.94302  -3.0057 
 H                    -4.5238    2.90445  -3.72065 
 N                    -5.03258  -1.64279  -0.1061 
 O                    -4.12167  -2.42275  -0.12371 
 O                    -6.16321  -1.95858   0.13958 
 H                    -3.26641   6.01366  -6.38058 
 C                    -2.54015   7.87793  -4.51314 
 H                    -3.08729   8.57912  -3.91825 
 H                    -1.50825   7.89949  -4.23099 
 H                    -2.6328    8.13835  -5.54682 
 

 GradGradGradGradGradGradGradGradGradGradGradGradGradGradGradGradGradGrad
 Berny optimization.
 Initialization pass.
                           ----------------------------
                           !    Initial Parameters    !
                           ! (Angstroms and Degrees)  !
 --------------------------                            --------------------------
 ! Name  Definition              Value          Derivative Info.                !
 --------------------------------------------------------------------------------
 ! R1    R(1,2)                  1.4014         estimate D2E/DX2                !
 ! R2    R(1,6)                  1.4014         estimate D2E/DX2                !
 ! R3    R(1,21)                 1.47           estimate D2E/DX2                !
 ! R4    R(2,3)                  1.4014         estimate D2E/DX2                !
 ! R5    R(2,7)                  1.07           estimate D2E/DX2                !
 ! R6    R(3,4)                  1.4014         estimate D2E/DX2                !
 ! R7    R(3,19)                 1.07           estimate D2E/DX2                !
 ! R8    R(4,5)                  1.4014         estimate D2E/DX2                !
 ! R9    R(4,10)                 1.5523         estimate D2E/DX2                !
 ! R10   R(5,6)                  1.4014         estimate D2E/DX2                !
 ! R11   R(5,8)                  1.07           estimate D2E/DX2                !
 ! R12   R(6,9)                  1.07           estimate D2E/DX2                !
 ! R13   R(10,11)                1.6857         estimate D2E/DX2                !
 ! R14   R(11,12)                1.4014         estimate D2E/DX2                !
 ! R15   R(11,13)                1.4014         estimate D2E/DX2                !
 ! R16   R(12,14)                1.4014         estimate D2E/DX2                !
 ! R17   R(12,20)                1.07           estimate D2E/DX2                !
 ! R18   R(13,15)                1.4014         estimate D2E/DX2                !
 ! R19   R(13,16)                1.07           estimate D2E/DX2                !
 ! R20   R(14,17)                1.4014         estimate D2E/DX2                !
 ! R21   R(14,18)                1.07           estimate D2E/DX2                !
 ! R22   R(15,17)                1.4014         estimate D2E/DX2                !
 ! R23   R(15,25)                1.54           estimate D2E/DX2                !
 ! R24   R(17,24)                1.07           estimate D2E/DX2                !
 ! R25   R(21,22)                1.1993         estimate D2E/DX2                !
 ! R26   R(21,23)                1.1993         estimate D2E/DX2                !
 ! R27   R(25,26)                1.07           estimate D2E/DX2                !
 ! R28   R(25,27)                1.07           estimate D2E/DX2                !
 ! R29   R(25,28)                1.07           estimate D2E/DX2                !
 ! A1    A(2,1,6)              120.0            estimate D2E/DX2                !
 ! A2    A(2,1,21)             120.0            estimate D2E/DX2                !
 ! A3    A(6,1,21)             120.0            estimate D2E/DX2                !
 ! A4    A(1,2,3)              120.0            estimate D2E/DX2                !
 ! A5    A(1,2,7)              120.0            estimate D2E/DX2                !
 ! A6    A(3,2,7)              120.0            estimate D2E/DX2                !
 ! A7    A(2,3,4)              120.0            estimate D2E/DX2                !
 ! A8    A(2,3,19)             120.0            estimate D2E/DX2                !
 ! A9    A(4,3,19)             120.0            estimate D2E/DX2                !
 ! A10   A(3,4,5)              120.0            estimate D2E/DX2                !
 ! A11   A(3,4,10)             120.0            estimate D2E/DX2                !
 ! A12   A(5,4,10)             120.0            estimate D2E/DX2                !
 ! A13   A(4,5,6)              120.0            estimate D2E/DX2                !
 ! A14   A(4,5,8)              120.0            estimate D2E/DX2                !
 ! A15   A(6,5,8)              120.0            estimate D2E/DX2                !
 ! A16   A(1,6,5)              120.0            estimate D2E/DX2                !
 ! A17   A(1,6,9)              120.0            estimate D2E/DX2                !
 ! A18   A(5,6,9)              120.0            estimate D2E/DX2                !
 ! A19   A(4,10,11)            127.9526         estimate D2E/DX2                !
 ! A20   A(10,11,12)           115.5989         estimate D2E/DX2                !
 ! A21   A(10,11,13)           123.9281         estimate D2E/DX2                !
 ! A22   A(12,11,13)           120.0            estimate D2E/DX2                !
 ! A23   A(11,12,14)           120.0            estimate D2E/DX2                !
 ! A24   A(11,12,20)           120.0            estimate D2E/DX2                !
 ! A25   A(14,12,20)           120.0            estimate D2E/DX2                !
 ! A26   A(11,13,15)           120.0            estimate D2E/DX2                !
 ! A27   A(11,13,16)           120.0            estimate D2E/DX2                !
 ! A28   A(15,13,16)           120.0            estimate D2E/DX2                !
 ! A29   A(12,14,17)           120.0            estimate D2E/DX2                !
 ! A30   A(12,14,18)           120.0            estimate D2E/DX2                !
 ! A31   A(17,14,18)           120.0            estimate D2E/DX2                !
 ! A32   A(13,15,17)           120.0            estimate D2E/DX2                !
 ! A33   A(13,15,25)           120.0            estimate D2E/DX2                !
 ! A34   A(17,15,25)           120.0            estimate D2E/DX2                !
 ! A35   A(14,17,15)           120.0            estimate D2E/DX2                !
 ! A36   A(14,17,24)           120.0            estimate D2E/DX2                !
 ! A37   A(15,17,24)           120.0            estimate D2E/DX2                !
 ! A38   A(1,21,22)            118.3934         estimate D2E/DX2                !
 ! A39   A(1,21,23)            118.3927         estimate D2E/DX2                !
 ! A40   A(22,21,23)           123.2139         estimate D2E/DX2                !
 ! A41   A(15,25,26)           109.4712         estimate D2E/DX2                !
 ! A42   A(15,25,27)           109.4712         estimate D2E/DX2                !
 ! A43   A(15,25,28)           109.4712         estimate D2E/DX2                !
 ! A44   A(26,25,27)           109.4713         estimate D2E/DX2                !
 ! A45   A(26,25,28)           109.4712         estimate D2E/DX2                !
 ! A46   A(27,25,28)           109.4712         estimate D2E/DX2                !
 ! D1    D(6,1,2,3)              0.0001         estimate D2E/DX2                !
 ! D2    D(6,1,2,7)           -179.9998         estimate D2E/DX2                !
 ! D3    D(21,1,2,3)          -179.9999         estimate D2E/DX2                !
 ! D4    D(21,1,2,7)             0.0002         estimate D2E/DX2                !
 ! D5    D(2,1,6,5)             -0.0001         estimate D2E/DX2                !
 ! D6    D(2,1,6,9)            179.9998         estimate D2E/DX2                !
 ! D7    D(21,1,6,5)           179.9999         estimate D2E/DX2                !
 ! D8    D(21,1,6,9)            -0.0002         estimate D2E/DX2                !
 ! D9    D(2,1,21,22)           90.3367         estimate D2E/DX2                !
 ! D10   D(2,1,21,23)          -89.6634         estimate D2E/DX2                !
 ! D11   D(6,1,21,22)          -89.6633         estimate D2E/DX2                !
 ! D12   D(6,1,21,23)           90.3367         estimate D2E/DX2                !
 ! D13   D(1,2,3,4)              0.0001         estimate D2E/DX2                !
 ! D14   D(1,2,3,19)          -179.9999         estimate D2E/DX2                !
 ! D15   D(7,2,3,4)            179.9999         estimate D2E/DX2                !
 ! D16   D(7,2,3,19)            -0.0001         estimate D2E/DX2                !
 ! D17   D(2,3,4,5)             -0.0002         estimate D2E/DX2                !
 ! D18   D(2,3,4,10)           179.9998         estimate D2E/DX2                !
 ! D19   D(19,3,4,5)           179.9998         estimate D2E/DX2                !
 ! D20   D(19,3,4,10)           -0.0002         estimate D2E/DX2                !
 ! D21   D(3,4,5,6)              0.0001         estimate D2E/DX2                !
 ! D22   D(3,4,5,8)           -180.0            estimate D2E/DX2                !
 ! D23   D(10,4,5,6)          -179.9999         estimate D2E/DX2                !
 ! D24   D(10,4,5,8)             0.0            estimate D2E/DX2                !
 ! D25   D(3,4,10,11)           -5.2547         estimate D2E/DX2                !
 ! D26   D(5,4,10,11)          174.7453         estimate D2E/DX2                !
 ! D27   D(4,5,6,1)              0.0            estimate D2E/DX2                !
 ! D28   D(4,5,6,9)           -179.9999         estimate D2E/DX2                !
 ! D29   D(8,5,6,1)           -179.9999         estimate D2E/DX2                !
 ! D30   D(8,5,6,9)              0.0002         estimate D2E/DX2                !
 ! D31   D(4,10,11,12)           4.3564         estimate D2E/DX2                !
 ! D32   D(4,10,11,13)        -167.7268         estimate D2E/DX2                !
 ! D33   D(10,11,12,14)       -172.4167         estimate D2E/DX2                !
 ! D34   D(10,11,12,20)          7.5833         estimate D2E/DX2                !
 ! D35   D(13,11,12,14)          0.0002         estimate D2E/DX2                !
 ! D36   D(13,11,12,20)       -179.9998         estimate D2E/DX2                !
 ! D37   D(10,11,13,15)        171.7535         estimate D2E/DX2                !
 ! D38   D(10,11,13,16)         -8.2466         estimate D2E/DX2                !
 ! D39   D(12,11,13,15)          0.0            estimate D2E/DX2                !
 ! D40   D(12,11,13,16)        179.9999         estimate D2E/DX2                !
 ! D41   D(11,12,14,17)         -0.0002         estimate D2E/DX2                !
 ! D42   D(11,12,14,18)        179.9998         estimate D2E/DX2                !
 ! D43   D(20,12,14,17)        179.9998         estimate D2E/DX2                !
 ! D44   D(20,12,14,18)         -0.0002         estimate D2E/DX2                !
 ! D45   D(11,13,15,17)         -0.0001         estimate D2E/DX2                !
 ! D46   D(11,13,15,25)        179.9999         estimate D2E/DX2                !
 ! D47   D(16,13,15,17)        179.9999         estimate D2E/DX2                !
 ! D48   D(16,13,15,25)          0.0            estimate D2E/DX2                !
 ! D49   D(12,14,17,15)          0.0001         estimate D2E/DX2                !
 ! D50   D(12,14,17,24)       -179.9999         estimate D2E/DX2                !
 ! D51   D(18,14,17,15)       -179.9999         estimate D2E/DX2                !
 ! D52   D(18,14,17,24)          0.0001         estimate D2E/DX2                !
 ! D53   D(13,15,17,14)          0.0001         estimate D2E/DX2                !
 ! D54   D(13,15,17,24)       -179.9999         estimate D2E/DX2                !
 ! D55   D(25,15,17,14)       -180.0            estimate D2E/DX2                !
 ! D56   D(25,15,17,24)          0.0            estimate D2E/DX2                !
 ! D57   D(13,15,25,26)        -49.1457         estimate D2E/DX2                !
 ! D58   D(13,15,25,27)         70.8543         estimate D2E/DX2                !
 ! D59   D(13,15,25,28)       -169.1457         estimate D2E/DX2                !
 ! D60   D(17,15,25,26)        130.8543         estimate D2E/DX2                !
 ! D61   D(17,15,25,27)       -109.1456         estimate D2E/DX2                !
 ! D62   D(17,15,25,28)         10.8543         estimate D2E/DX2                !
 --------------------------------------------------------------------------------
 Trust Radius=3.00D-01 FncErr=1.00D-07 GrdErr=1.00D-06 EigMax=2.50D+02 EigMin=1.00D-04
 Number of steps in this run=    147 maximum allowed number of steps=    168.
 GradGradGradGradGradGradGradGradGradGradGradGradGradGradGradGradGradGrad

                          Input orientation:                          
 ---------------------------------------------------------------------
 Center     Atomic      Atomic             Coordinates (Angstroms)
 Number     Number       Type             X           Y           Z
 ---------------------------------------------------------------------
      1          6           0       -4.749416   -0.230579   -0.400021
      2          6           0       -4.820199    0.238538   -1.718672
      3          6           0       -4.550247    1.584841   -1.998879
      4          6           0       -4.209510    2.462026   -0.960435
      5          6           0       -4.138728    1.992910    0.358216
      6          6           0       -4.408682    0.646607    0.638423
      7          1           0       -5.080361   -0.431212   -2.511547
      8          1           0       -3.878568    2.662660    1.151091
      9          1           0       -4.354640    0.288426    1.645243
     10          8           0       -3.910486    3.953296   -1.270814
     11          6           0       -3.817523    4.699853   -2.779363
     12          6           0       -4.131676    3.887607   -3.877310
     13          6           0       -3.303947    5.987511   -2.984541
     14          6           0       -3.932249    4.363019   -5.180435
     15          6           0       -3.104523    6.462923   -4.287666
     16          1           0       -3.064085    6.607679   -2.146234
     17          6           0       -3.418674    5.650677   -5.385613
     18          1           0       -4.172109    3.742850   -6.018741
     19          1           0       -4.604292    1.943023   -3.005698
     20          1           0       -4.523805    2.904453   -3.720651
     21          7           0       -5.032581   -1.642786   -0.106098
     22          8           0       -4.121672   -2.422755   -0.123715
     23          8           0       -6.163210   -1.958585    0.139583
     24          1           0       -3.266408    6.013665   -6.380578
     25          6           0       -2.540155    7.877933   -4.513137
     26          1           0       -3.087290    8.579116   -3.918254
     27          1           0       -1.508248    7.899491   -4.230995
     28          1           0       -2.632800    8.138346   -5.546820
 ---------------------------------------------------------------------
                    Distance matrix (angstroms):
                    1          2          3          4          5
     1  C    0.000000
     2  C    1.401400   0.000000
     3  C    2.427296   1.401400   0.000000
     4  C    2.802800   2.427296   1.401400   0.000000
     5  C    2.427296   2.802800   2.427296   1.401400   0.000000
     6  C    1.401400   2.427296   2.802800   2.427296   1.401400
     7  H    2.146700   1.070000   2.146700   3.396345   3.872800
     8  H    3.396345   3.872800   3.396345   2.146700   1.070000
     9  H    2.146700   3.396345   3.872800   3.396345   2.146700
    10  O    4.355100   3.850660   2.559092   1.552300   2.559092
    11  C    5.553274   4.694012   3.293833   2.910330   4.156335
    12  C    5.425182   4.295286   3.001072   3.247537   4.640001
    13  C    6.887218   6.078827   4.680630   4.164864   5.275199
    14  C    6.679914   5.457435   4.268781   4.636706   6.027993
    15  C    7.913434   6.948831   5.578920   5.319647   6.529535
    16  H    7.256127   6.620627   5.240161   4.461452   5.359405
    17  C    7.824077   6.685954   5.411233   5.511362   6.847577
    18  H    6.905899   5.584874   4.578131   5.218081   6.612790
    19  H    3.396345   2.146700   1.070000   2.146700   3.396345
    20  H    4.572298   3.347069   2.169464   2.813062   4.197184
    21  N    1.470000   2.486942   3.772644   4.272800   3.772644
    22  O    2.296964   3.180300   4.445306   4.956703   4.441919
    23  O    2.296952   3.175553   4.441907   4.956691   4.445293
    24  H    8.772511   7.582857   6.360975   6.548399   7.895490
    25  C    9.356630   8.447957   7.068590   6.688832   7.805064
    26  H    9.630750   8.798089   7.398927   6.886716   7.922868
    27  H    9.554034   8.716134   7.356011   6.896332   7.928934
    28  H   10.050300   9.046900   7.694993   7.466026   8.654691
                    6          7          8          9         10
     6  C    0.000000
     7  H    3.396345   0.000000
     8  H    2.146700   4.942800   0.000000
     9  H    1.070000   4.280590   2.471400   0.000000
    10  O    3.850660   4.704459   2.744520   4.704459   0.000000
    11  C    5.334748   5.290965   4.427454   6.271070   1.685736
    12  C    5.565309   4.627906   5.181638   6.595635   2.616688
    13  C    6.547638   6.676779   5.337441   7.417441   2.728146
    14  C    6.920825   5.605869   6.556091   7.960565   3.931091
    15  C    7.732834   7.388345   6.679913   8.653706   4.006145
    16  H    6.715403   7.331085   5.205662   7.481563   2.920360
    17  C    7.893659   6.928985   7.201962   8.891721   4.478231
    18  H    7.345783   5.527036   7.256685   8.408509   4.759784
    19  H    3.872800   2.471400   4.280590   4.942800   2.744520
    20  H    4.910464   3.591427   4.920231   5.972021   2.734581
    21  N    2.486942   2.693767   4.631321   2.693766   5.825100
    22  O    3.175565   3.253778   5.248398   3.245611   6.481856
    23  O    3.180288   3.245600   5.253441   3.253766   6.481845
    24  H    8.909348   7.732804   8.266197   9.918488   5.547039
    25  C    9.073149   8.916327   7.814979   9.940755   5.271929
    26  H    9.243056   9.334729   7.831273  10.064503   5.393032
    27  H    9.204786   9.225893   7.874622  10.027982   5.486882
    28  H    9.876090   9.414923   8.740543  10.784793   6.118117
                   11         12         13         14         15
    11  C    0.000000
    12  C    1.401400   0.000000
    13  C    1.401400   2.427296   0.000000
    14  C    2.427296   1.401400   2.802800   0.000000
    15  C    2.427296   2.802800   1.401400   2.427296   0.000000
    16  H    2.146700   3.396345   1.070000   3.872800   2.146700
    17  C    2.802800   2.427296   2.427296   1.401400   1.401400
    18  H    3.396345   2.146700   3.872800   1.070000   3.396345
    19  H    2.875821   2.182769   4.248439   3.322273   4.931759
    20  H    2.146700   1.070000   3.396345   2.146700   3.872800
    21  N    6.989404   6.754177   8.336368   7.939100   9.322309
    22  O    7.607662   7.342360   8.921075   8.464811   9.865514
    23  O    7.639194   7.378382   9.004220   8.558180   9.993893
    24  H    3.872800   3.396345   3.396345   2.146700   2.146700
    25  C    3.838989   4.342800   2.548270   3.838989   1.540000
    26  H    4.108405   4.806524   2.763182   4.481354   2.148263
    27  H    4.204482   4.806524   2.904109   4.391339   2.148263
    28  H    4.570080   4.806524   3.412009   4.009477   2.148263
                   16         17         18         19         20
    16  H    0.000000
    17  C    3.396345   0.000000
    18  H    4.942800   2.146700   0.000000
    19  H    4.986976   4.562498   3.536183   0.000000
    20  H    4.280590   3.396345   2.471400   1.200826   0.000000
    21  N    8.723949   9.147271   8.043931   4.631321   5.831057
    22  O    9.314387   9.662406   8.530449   5.253453   6.440404
    23  O    9.392040   9.795975   8.625300   5.248386   6.421697
    24  H    4.280590   1.070000   2.471400   5.454344   4.280590
    25  C    2.736837   2.548270   4.693509   6.461903   5.412800
    26  H    2.650878   3.292220   5.383154   6.868172   5.856998
    27  H    2.904416   3.168601   5.250701   6.823955   5.856999
    28  H    3.754056   2.613826   4.681086   6.980409   5.856999
                   21         22         23         24         25
    21  N    0.000000
    22  O    1.199341   0.000000
    23  O    1.199337   2.110132   0.000000
    24  H   10.055332  10.538168  10.698632   0.000000
    25  C   10.783240  11.308067  11.468714   2.736837   0.000000
    26  H   11.081695  11.683734  11.703438   3.560430   1.070000
    27  H   10.976827  11.412646  11.745309   3.356811   1.070000
    28  H   11.446875  11.965102  12.113917   2.368730   1.070000
                   26         27         28
    26  H    0.000000
    27  H    1.747303   0.000000
    28  H    1.747303   1.747303   0.000000
 Stoichiometry    C13H11NO3
 Framework group  C1[X(C13H11NO3)]
 Deg. of freedom    78
 Full point group                 C1      NOp   1
 Largest Abelian subgroup         C1      NOp   1
 Largest concise Abelian subgroup C1      NOp   1
                         Standard orientation:                         
 ---------------------------------------------------------------------
 Center     Atomic      Atomic             Coordinates (Angstroms)
 Number     Number       Type             X           Y           Z
 ---------------------------------------------------------------------
      1          6           0       -3.291635    0.016701    0.030575
      2          6           0       -2.258714   -0.924283   -0.076874
      3          6           0       -0.926216   -0.496664   -0.151129
      4          6           0       -0.626639    0.871939   -0.117932
      5          6           0       -1.659560    1.812923   -0.010484
      6          6           0       -2.992058    1.385304    0.063769
      7          1           0       -2.487447   -1.969241   -0.102221
      8          1           0       -1.430826    2.857882    0.014861
      9          1           0       -3.780716    2.103767    0.145806
     10          8           0        0.849340    1.345603   -0.200179
     11          6           0        2.243307    0.397732   -0.210444
     12          6           0        2.033329   -0.987691   -0.231251
     13          6           0        3.537331    0.907820   -0.039464
     14          6           0        3.117375   -1.863027   -0.081076
     15          6           0        4.621378    0.032484    0.110708
     16          1           0        3.697654    1.965621   -0.023578
     17          6           0        4.411400   -1.352940    0.089903
     18          1           0        2.957053   -2.920829   -0.096960
     19          1           0       -0.137558   -1.215126   -0.233170
     20          1           0        1.045313   -1.377154   -0.361800
     21          7           0       -4.689359   -0.431850    0.108467
     22          8           0       -5.161660   -0.641210    1.190834
     23          8           0       -5.301593   -0.570532   -0.913466
     24          1           0        5.239093   -2.021278    0.204563
     25          6           0        6.043382    0.593019    0.298596
     26          1           0        6.236601    1.333435   -0.449302
     27          1           0        6.126797    1.036030    1.269000
     28          1           0        6.754765   -0.200944    0.206636
 ---------------------------------------------------------------------
 Rotational constants (GHZ):           1.6782840           0.1638992           0.1531267
 Standard basis: 6-31+G(d) (6D, 7F)
 There are   345 symmetry adapted cartesian basis functions of A   symmetry.
 There are   345 symmetry adapted basis functions of A   symmetry.
   345 basis functions,   588 primitive gaussians,   345 cartesian basis functions
    60 alpha electrons       60 beta electrons
       nuclear repulsion energy      1053.1840887435 Hartrees.
 NAtoms=   28 NActive=   28 NUniq=   28 SFac= 1.00D+00 NAtFMM=   60 NAOKFM=F Big=F
 Integral buffers will be    131072 words long.
 Raffenetti 2 integral format.
 Two-electron integral symmetry is turned on.
 Nuclear repulsion after empirical dispersion term =     1053.1621556077 Hartrees.
 One-electron integrals computed using PRISM.
 NBasis=   345 RedAO= T EigKep=  1.30D-06  NBF=   345
 NBsUse=   344 1.00D-06 EigRej=  3.75D-07 NBFU=   344
 ExpMin= 4.38D-02 ExpMax= 5.48D+03 ExpMxC= 8.25D+02 IAcc=3 IRadAn=         5 AccDes= 0.00D+00
 Harris functional with IExCor=  402 and IRadAn=       5 diagonalized for initial guess.
 HarFok:  IExCor=  402 AccDes= 0.00D+00 IRadAn=         5 IDoV= 1 UseB2=F ITyADJ=14
 ICtDFT=  3500011 ScaDFX=  1.000000  1.000000  1.000000  1.000000
 FoFCou: FMM=F IPFlag=           0 FMFlag=      100000 FMFlg1=           0
         NFxFlg=           0 DoJE=T BraDBF=F KetDBF=T FulRan=T
         wScrn=  0.000000 ICntrl=       500 IOpCl=  0 I1Cent=   200000004 NGrid=           0
         NMat0=    1 NMatS0=      1 NMatT0=    0 NMatD0=    1 NMtDS0=    0 NMtDT0=    0
 Petite list used in FoFCou.
 Requested convergence on RMS density matrix=1.00D-08 within 128 cycles.
 Requested convergence on MAX density matrix=1.00D-06.
 Requested convergence on             energy=1.00D-06.
 No special actions if energy rises.
 SCF Done:  E(RB3LYP) =  -782.277877626     A.U. after   16 cycles
            NFock= 16  Conv=0.40D-08     -V/T= 2.0097

 **********************************************************************

            Population analysis using the SCF Density.

 **********************************************************************

 Orbital symmetries:
       Occupied  (A) (A) (A) (A) (A) (A) (A) (A) (A) (A) (A) (A)
                 (A) (A) (A) (A) (A) (A) (A) (A) (A) (A) (A) (A)
                 (A) (A) (A) (A) (A) (A) (A) (A) (A) (A) (A) (A)
                 (A) (A) (A) (A) (A) (A) (A) (A) (A) (A) (A) (A)
                 (A) (A) (A) (A) (A) (A) (A) (A) (A) (A) (A) (A)
       Virtual   (A) (A) (A) (A) (A) (A) (A) (A) (A) (A) (A) (A)
                 (A) (A) (A) (A) (A) (A) (A) (A) (A) (A) (A) (A)
                 (A) (A) (A) (A) (A) (A) (A) (A) (A) (A) (A) (A)
                 (A) (A) (A) (A) (A) (A) (A) (A) (A) (A) (A) (A)
                 (A) (A) (A) (A) (A) (A) (A) (A) (A) (A) (A) (A)
                 (A) (A) (A) (A) (A) (A) (A) (A) (A) (A) (A) (A)
                 (A) (A) (A) (A) (A) (A) (A) (A) (A) (A) (A) (A)
                 (A) (A) (A) (A) (A) (A) (A) (A) (A) (A) (A) (A)
                 (A) (A) (A) (A) (A) (A) (A) (A) (A) (A) (A) (A)
                 (A) (A) (A) (A) (A) (A) (A) (A) (A) (A) (A) (A)
                 (A) (A) (A) (A) (A) (A) (A) (A) (A) (A) (A) (A)
                 (A) (A) (A) (A) (A) (A) (A) (A) (A) (A) (A) (A)
                 (A) (A) (A) (A) (A) (A) (A) (A) (A) (A) (A) (A)
                 (A) (A) (A) (A) (A) (A) (A) (A) (A) (A) (A) (A)
                 (A) (A) (A) (A) (A) (A) (A) (A) (A) (A) (A) (A)
                 (A) (A) (A) (A) (A) (A) (A) (A) (A) (A) (A) (A)
                 (A) (A) (A) (A) (A) (A) (A) (A) (A) (A) (A) (A)
                 (A) (A) (A) (A) (A) (A) (A) (A) (A) (A) (A) (A)
                 (A) (A) (A) (A) (A) (A) (A) (A) (A) (A) (A) (A)
                 (A) (A) (A) (A) (A) (A) (A) (A) (A) (A) (A) (A)
                 (A) (A) (A) (A) (A) (A) (A) (A) (A) (A) (A) (A)
                 (A) (A) (A) (A) (A) (A) (A) (A) (A) (A) (A) (A)
                 (A) (A) (A) (A) (A) (A) (A) (A) (A) (A) (A) (A)
                 (A) (A) (A) (A) (A) (A) (A) (A)
 The electronic state is 1-A.
 Alpha  occ. eigenvalues --  -19.20374 -19.20372 -19.19855 -14.59203 -10.29103
 Alpha  occ. eigenvalues --  -10.29040 -10.26802 -10.23760 -10.23602 -10.23047
 Alpha  occ. eigenvalues --  -10.22967 -10.22422 -10.22198 -10.21875 -10.21540
 Alpha  occ. eigenvalues --  -10.21117 -10.19898  -1.27349  -1.08929  -0.98444
 Alpha  occ. eigenvalues --   -0.90030  -0.88139  -0.81882  -0.79776  -0.78741
 Alpha  occ. eigenvalues --   -0.76897  -0.71548  -0.70725  -0.66137  -0.63001
 Alpha  occ. eigenvalues --   -0.61216  -0.60987  -0.57634  -0.56373  -0.54440
 Alpha  occ. eigenvalues --   -0.53136  -0.51828  -0.49385  -0.49044  -0.48186
 Alpha  occ. eigenvalues --   -0.46716  -0.46605  -0.44665  -0.44069  -0.42682
 Alpha  occ. eigenvalues --   -0.41685  -0.41388  -0.39329  -0.38985  -0.38689
 Alpha  occ. eigenvalues --   -0.35815  -0.35186  -0.33331  -0.33180  -0.32544
 Alpha  occ. eigenvalues --   -0.31508  -0.28882  -0.28012  -0.26974  -0.24755
 Alpha virt. eigenvalues --   -0.08136  -0.04727  -0.04516  -0.03918  -0.03160
 Alpha virt. eigenvalues --   -0.02187  -0.00363   0.00434   0.01029   0.01961
 Alpha virt. eigenvalues --    0.02559   0.03731   0.03802   0.04368   0.04673
 Alpha virt. eigenvalues --    0.05384   0.05716   0.06260   0.06894   0.07237
 Alpha virt. eigenvalues --    0.07899   0.08259   0.08535   0.09011   0.10061
 Alpha virt. eigenvalues --    0.10518   0.10774   0.11092   0.11689   0.12117
 Alpha virt. eigenvalues --    0.12327   0.12735   0.13213   0.13507   0.13787
 Alpha virt. eigenvalues --    0.13840   0.14095   0.14782   0.14851   0.15512
 Alpha virt. eigenvalues --    0.16308   0.16337   0.16866   0.17046   0.18093
 Alpha virt. eigenvalues --    0.18671   0.18770   0.19312   0.19917   0.20016
 Alpha virt. eigenvalues --    0.20443   0.20598   0.21418   0.21775   0.22406
 Alpha virt. eigenvalues --    0.22943   0.23173   0.23356   0.23802   0.24253
 Alpha virt. eigenvalues --    0.24492   0.24945   0.25523   0.25645   0.26358
 Alpha virt. eigenvalues --    0.26782   0.27044   0.27242   0.27997   0.28583
 Alpha virt. eigenvalues --    0.28889   0.29030   0.29597   0.30119   0.30359
 Alpha virt. eigenvalues --    0.30673   0.31446   0.32325   0.32544   0.33044
 Alpha virt. eigenvalues --    0.33155   0.34140   0.35204   0.35410   0.36239
 Alpha virt. eigenvalues --    0.36561   0.37772   0.38693   0.39606   0.39939
 Alpha virt. eigenvalues --    0.40610   0.40867   0.41580   0.42274   0.44035
 Alpha virt. eigenvalues --    0.45015   0.46015   0.48972   0.49763   0.54235
 Alpha virt. eigenvalues --    0.56405   0.58444   0.59787   0.63174   0.64779
 Alpha virt. eigenvalues --    0.64990   0.65596   0.66663   0.67262   0.68309
 Alpha virt. eigenvalues --    0.69245   0.69707   0.70058   0.71762   0.72110
 Alpha virt. eigenvalues --    0.72293   0.73928   0.74913   0.75230   0.75322
 Alpha virt. eigenvalues --    0.76401   0.77196   0.77730   0.78423   0.79464
 Alpha virt. eigenvalues --    0.80261   0.81518   0.82175   0.84091   0.86582
 Alpha virt. eigenvalues --    0.87674   0.88954   0.91020   0.92554   0.93513
 Alpha virt. eigenvalues --    0.94706   0.95786   0.96323   0.96694   0.98038
 Alpha virt. eigenvalues --    0.99609   1.00456   1.03940   1.04195   1.06587
 Alpha virt. eigenvalues --    1.08973   1.10761   1.11515   1.11630   1.13996
 Alpha virt. eigenvalues --    1.14427   1.15816   1.16451   1.17292   1.17453
 Alpha virt. eigenvalues --    1.18287   1.19125   1.19708   1.20947   1.21245
 Alpha virt. eigenvalues --    1.22892   1.23309   1.24177   1.25306   1.26128
 Alpha virt. eigenvalues --    1.27116   1.28319   1.28446   1.30900   1.32300
 Alpha virt. eigenvalues --    1.33518   1.34529   1.36175   1.37819   1.38610
 Alpha virt. eigenvalues --    1.39371   1.40669   1.43690   1.44590   1.45096
 Alpha virt. eigenvalues --    1.45791   1.46343   1.46641   1.47019   1.47206
 Alpha virt. eigenvalues --    1.48952   1.51390   1.54462   1.64115   1.65137
 Alpha virt. eigenvalues --    1.65873   1.69003   1.71496   1.77133   1.79265
 Alpha virt. eigenvalues --    1.79705   1.79907   1.80144   1.81343   1.81556
 Alpha virt. eigenvalues --    1.82990   1.84112   1.84782   1.85896   1.87552
 Alpha virt. eigenvalues --    1.88949   1.89388   1.91691   1.94587   1.95979
 Alpha virt. eigenvalues --    1.96475   1.97574   1.99522   2.01115   2.02911
 Alpha virt. eigenvalues --    2.06468   2.07328   2.09460   2.10766   2.10991
 Alpha virt. eigenvalues --    2.11989   2.13441   2.14111   2.14926   2.15935
 Alpha virt. eigenvalues --    2.18035   2.21215   2.23856   2.24313   2.25152
 Alpha virt. eigenvalues --    2.25803   2.27974   2.28242   2.29676   2.35745
 Alpha virt. eigenvalues --    2.36163   2.37399   2.38726   2.41129   2.44256
 Alpha virt. eigenvalues --    2.46038   2.49187   2.57594   2.60938   2.61420
 Alpha virt. eigenvalues --    2.62100   2.63493   2.68102   2.71339   2.71842
 Alpha virt. eigenvalues --    2.73114   2.73972   2.77523   2.78576   2.80265
 Alpha virt. eigenvalues --    2.82113   2.86158   2.88501   2.94752   2.97888
 Alpha virt. eigenvalues --    2.98814   3.02884   3.06383   3.08651   3.17113
 Alpha virt. eigenvalues --    3.38309   3.39687   4.14398   4.20992   4.24658
 Alpha virt. eigenvalues --    4.26293   4.27389   4.30015   4.33583   4.34853
 Alpha virt. eigenvalues --    4.37374   4.38791   4.41459   4.42768   4.45377
 Alpha virt. eigenvalues --    4.51414   4.54932   4.71137   4.74632
          Condensed to atoms (all electrons):
               1          2          3          4          5          6
     1  C   13.652284  -3.323960  -0.328301  -2.654030  -0.712981  -0.805263
     2  C   -3.323960  22.884953  -5.779451   1.614699  -0.953952  -7.913015
     3  C   -0.328301  -5.779451  13.478287  -0.785906  -1.373851   0.550753
     4  C   -2.654030   1.614699  -0.785906  11.914756  -2.902876  -0.900811
     5  C   -0.712981  -0.953952  -1.373851  -2.902876  12.679199  -0.139400
     6  C   -0.805263  -7.913015   0.550753  -0.900811  -0.139400  14.728450
     7  H   -0.009970   0.316962  -0.014604   0.027978  -0.031826   0.006748
     8  H    0.022614  -0.033317   0.065561   0.012601   0.314672  -0.081520
     9  H    0.005067  -0.001048   0.001154   0.022078  -0.109032   0.378329
    10  O   -0.023897   0.047424  -0.115284   0.293855  -0.204172   0.046797
    11  C   -0.064933   0.014170   0.198443  -0.525269   0.618489  -0.021816
    12  C   -0.064561  -0.040531  -0.157212   0.296035  -0.512076   0.276540
    13  C   -0.025008  -0.552068  -0.791529   0.378438   0.631138  -0.033911
    14  C    0.054954   0.105761   0.378657  -0.397021  -0.739716   0.086247
    15  C   -0.009413   0.024183   0.074102  -0.129271  -0.104400   0.003895
    16  H    0.000034  -0.000084   0.004339  -0.003911  -0.002450  -0.000270
    17  C    0.012457   0.017001   0.126611   0.024168   0.001528  -0.014535
    18  H    0.000209   0.004800  -0.004208  -0.004380  -0.000701   0.000066
    19  H   -0.015716   0.046697   0.071864   0.040795   0.043514   0.020183
    20  H    0.001430  -0.001188  -0.032669   0.039416   0.007198   0.003039
    21  N   -0.395820   0.267309  -0.182067  -0.100287   0.193810  -0.234816
    22  O    0.298135  -0.173894   0.054598   0.006792  -0.037887  -0.114403
    23  O    0.276243  -0.177291   0.033493   0.005033  -0.026452  -0.083620
    24  H   -0.000004  -0.000152  -0.000465   0.000697   0.000053  -0.000001
    25  C   -0.001784  -0.007140  -0.036633  -0.039140   0.008210   0.003098
    26  H    0.000000  -0.000010  -0.000107  -0.000076  -0.000015   0.000001
    27  H    0.000000   0.000009   0.000057   0.000114   0.000085   0.000000
    28  H    0.000000  -0.000002  -0.000057  -0.000021  -0.000003   0.000000
               7          8          9         10         11         12
     1  C   -0.009970   0.022614   0.005067  -0.023897  -0.064933  -0.064561
     2  C    0.316962  -0.033317  -0.001048   0.047424   0.014170  -0.040531
     3  C   -0.014604   0.065561   0.001154  -0.115284   0.198443  -0.157212
     4  C    0.027978   0.012601   0.022078   0.293855  -0.525269   0.296035
     5  C   -0.031826   0.314672  -0.109032  -0.204172   0.618489  -0.512076
     6  C    0.006748  -0.081520   0.378329   0.046797  -0.021816   0.276540
     7  H    0.513598   0.000014  -0.000157  -0.000236  -0.002858  -0.001431
     8  H    0.000014   0.498856  -0.004969  -0.004231  -0.003267   0.000933
     9  H   -0.000157  -0.004969   0.502792  -0.000071   0.000895   0.000415
    10  O   -0.000236  -0.004231  -0.000071   8.370873   0.384398  -0.069513
    11  C   -0.002858  -0.003267   0.000895   0.384398  13.041984  -0.874311
    12  C   -0.001431   0.000933   0.000415  -0.069513  -0.874311  12.776880
    13  C   -0.000580   0.000005  -0.000093  -0.306767  -6.965725   0.754314
    14  C    0.003497  -0.000186   0.000056   0.001805  -0.213841  -5.422290
    15  C    0.000030  -0.000094   0.000010   0.030589   1.161349  -1.523617
    16  H    0.000000   0.000000   0.000000  -0.002082  -0.001730   0.057202
    17  C    0.000132   0.000050  -0.000003   0.006271   0.594601   0.073694
    18  H    0.000000   0.000000   0.000000  -0.000194   0.017177  -0.016601
    19  H   -0.008380  -0.000192   0.000014  -0.011526   0.058474  -0.002863
    20  H    0.000308   0.000005   0.000000  -0.010431   0.011129   0.062209
    21  N   -0.001216   0.000606  -0.002571   0.000239   0.003210  -0.003650
    22  O    0.000115  -0.000064   0.000635   0.000001   0.000979  -0.000029
    23  O    0.000351  -0.000061   0.000529  -0.000007   0.000247   0.000560
    24  H    0.000000   0.000000   0.000000   0.000052  -0.012445   0.048245
    25  C    0.000000  -0.000002   0.000000  -0.008283  -1.211808  -0.071593
    26  H    0.000000   0.000000   0.000000  -0.000004  -0.023781   0.002059
    27  H    0.000000   0.000000   0.000000  -0.000009   0.014365   0.010112
    28  H    0.000000   0.000000   0.000000   0.000008  -0.018617  -0.006175
              13         14         15         16         17         18
     1  C   -0.025008   0.054954  -0.009413   0.000034   0.012457   0.000209
     2  C   -0.552068   0.105761   0.024183  -0.000084   0.017001   0.004800
     3  C   -0.791529   0.378657   0.074102   0.004339   0.126611  -0.004208
     4  C    0.378438  -0.397021  -0.129271  -0.003911   0.024168  -0.004380
     5  C    0.631138  -0.739716  -0.104400  -0.002450   0.001528  -0.000701
     6  C   -0.033911   0.086247   0.003895  -0.000270  -0.014535   0.000066
     7  H   -0.000580   0.003497   0.000030   0.000000   0.000132   0.000000
     8  H    0.000005  -0.000186  -0.000094   0.000000   0.000050   0.000000
     9  H   -0.000093   0.000056   0.000010   0.000000  -0.000003   0.000000
    10  O   -0.306767   0.001805   0.030589  -0.002082   0.006271  -0.000194
    11  C   -6.965725  -0.213841   1.161349  -0.001730   0.594601   0.017177
    12  C    0.754314  -5.422290  -1.523617   0.057202   0.073694  -0.016601
    13  C   16.844595  -1.505673  -2.070244   0.219403  -1.609467  -0.038224
    14  C   -1.505673  12.288362   1.535675  -0.034961  -0.527226   0.371320
    15  C   -2.070244   1.535675   7.878629  -0.029034   0.062129   0.008734
    16  H    0.219403  -0.034961  -0.029034   0.518750   0.062843   0.000018
    17  C   -1.609467  -0.527226   0.062129   0.062843   7.942067  -0.046879
    18  H   -0.038224   0.371320   0.008734   0.000018  -0.046879   0.530820
    19  H    0.005351  -0.037120   0.004045   0.000004  -0.005071   0.000293
    20  H    0.027800   0.078831   0.008093  -0.000205   0.014086  -0.008821
    21  N    0.000400  -0.000933   0.000053   0.000000  -0.000054   0.000000
    22  O    0.000079  -0.000274   0.000002   0.000000   0.000000   0.000000
    23  O    0.000032   0.000194   0.000011   0.000000  -0.000008   0.000000
    24  H    0.041783  -0.018555  -0.015517  -0.000137   0.259628  -0.004037
    25  C    1.056458   0.219116  -1.012354   0.008323  -0.369502   0.002399
    26  H    0.022777  -0.002556  -0.108315   0.001445   0.013897   0.000002
    27  H   -0.056218  -0.008094  -0.051563   0.000710   0.041066   0.000003
    28  H    0.050678   0.007225  -0.146312   0.000099  -0.047024  -0.000002
              19         20         21         22         23         24
     1  C   -0.015716   0.001430  -0.395820   0.298135   0.276243  -0.000004
     2  C    0.046697  -0.001188   0.267309  -0.173894  -0.177291  -0.000152
     3  C    0.071864  -0.032669  -0.182067   0.054598   0.033493  -0.000465
     4  C    0.040795   0.039416  -0.100287   0.006792   0.005033   0.000697
     5  C    0.043514   0.007198   0.193810  -0.037887  -0.026452   0.000053
     6  C    0.020183   0.003039  -0.234816  -0.114403  -0.083620  -0.000001
     7  H   -0.008380   0.000308  -0.001216   0.000115   0.000351   0.000000
     8  H   -0.000192   0.000005   0.000606  -0.000064  -0.000061   0.000000
     9  H    0.000014   0.000000  -0.002571   0.000635   0.000529   0.000000
    10  O   -0.011526  -0.010431   0.000239   0.000001  -0.000007   0.000052
    11  C    0.058474   0.011129   0.003210   0.000979   0.000247  -0.012445
    12  C   -0.002863   0.062209  -0.003650  -0.000029   0.000560   0.048245
    13  C    0.005351   0.027800   0.000400   0.000079   0.000032   0.041783
    14  C   -0.037120   0.078831  -0.000933  -0.000274   0.000194  -0.018555
    15  C    0.004045   0.008093   0.000053   0.000002   0.000011  -0.015517
    16  H    0.000004  -0.000205   0.000000   0.000000   0.000000  -0.000137
    17  C   -0.005071   0.014086  -0.000054   0.000000  -0.000008   0.259628
    18  H    0.000293  -0.008821   0.000000   0.000000   0.000000  -0.004037
    19  H    0.643449  -0.002572   0.001320  -0.000053  -0.000070   0.000001
    20  H   -0.002572   0.656481   0.000055  -0.000004  -0.000003  -0.000183
    21  N    0.001320   0.000055   7.234001   0.238842   0.252341   0.000000
    22  O   -0.000053  -0.000004   0.238842   7.860479  -0.117977   0.000000
    23  O   -0.000070  -0.000003   0.252341  -0.117977   7.853798   0.000000
    24  H    0.000001  -0.000183   0.000000   0.000000   0.000000   0.539742
    25  C    0.000105  -0.000890   0.000006   0.000000   0.000000  -0.023280
    26  H    0.000000   0.000000   0.000000   0.000000   0.000000   0.000142
    27  H    0.000000   0.000000   0.000000   0.000000   0.000000   0.000195
    28  H    0.000000   0.000000   0.000000   0.000000   0.000000   0.003972
              25         26         27         28
     1  C   -0.001784   0.000000   0.000000   0.000000
     2  C   -0.007140  -0.000010   0.000009  -0.000002
     3  C   -0.036633  -0.000107   0.000057  -0.000057
     4  C   -0.039140  -0.000076   0.000114  -0.000021
     5  C    0.008210  -0.000015   0.000085  -0.000003
     6  C    0.003098   0.000001   0.000000   0.000000
     7  H    0.000000   0.000000   0.000000   0.000000
     8  H   -0.000002   0.000000   0.000000   0.000000
     9  H    0.000000   0.000000   0.000000   0.000000
    10  O   -0.008283  -0.000004  -0.000009   0.000008
    11  C   -1.211808  -0.023781   0.014365  -0.018617
    12  C   -0.071593   0.002059   0.010112  -0.006175
    13  C    1.056458   0.022777  -0.056218   0.050678
    14  C    0.219116  -0.002556  -0.008094   0.007225
    15  C   -1.012354  -0.108315  -0.051563  -0.146312
    16  H    0.008323   0.001445   0.000710   0.000099
    17  C   -0.369502   0.013897   0.041066  -0.047024
    18  H    0.002399   0.000002   0.000003  -0.000002
    19  H    0.000105   0.000000   0.000000   0.000000
    20  H   -0.000890   0.000000   0.000000   0.000000
    21  N    0.000006   0.000000   0.000000   0.000000
    22  O    0.000000   0.000000   0.000000   0.000000
    23  O    0.000000   0.000000   0.000000   0.000000
    24  H   -0.023280   0.000142   0.000195   0.003972
    25  C    6.938914   0.434597   0.385253   0.503037
    26  H    0.434597   0.489661  -0.029904  -0.025192
    27  H    0.385253  -0.029904   0.484184  -0.025816
    28  H    0.503037  -0.025192  -0.025816   0.493466
 Mulliken charges:
               1
     1  C    0.112214
     2  C   -0.386865
     3  C    0.564427
     4  C   -0.234456
     5  C   -0.646107
     6  C    0.239235
     7  H    0.201527
     8  H    0.211986
     9  H    0.205971
    10  O   -0.425602
    11  C   -0.179509
    12  C    0.407255
    13  C   -0.077743
    14  C   -0.223256
    15  C    0.408602
    16  H    0.201695
    17  C   -0.632460
    18  H    0.188205
    19  H    0.147455
    20  H    0.146884
    21  N   -0.270777
    22  O   -0.016070
    23  O   -0.017343
    24  H    0.180267
    25  C   -0.777104
    26  H    0.225382
    27  H    0.235450
    28  H    0.210736
 Sum of Mulliken charges =   0.00000
 Mulliken charges with hydrogens summed into heavy atoms:
               1
     1  C    0.112214
     2  C   -0.185338
     3  C    0.711882
     4  C   -0.234456
     5  C   -0.434121
     6  C    0.445206
    10  O   -0.425602
    11  C   -0.179509
    12  C    0.554139
    13  C    0.123952
    14  C   -0.035051
    15  C    0.408602
    17  C   -0.452193
    21  N   -0.270777
    22  O   -0.016070
    23  O   -0.017343
    25  C   -0.105536
 Electronic spatial extent (au):  <R**2>=           6619.1028
 Charge=              0.0000 electrons
 Dipole moment (field-independent basis, Debye):
    X=              5.8402    Y=             -0.2051    Z=              0.0980  Tot=              5.8446
 Quadrupole moment (field-independent basis, Debye-Ang):
   XX=           -108.0302   YY=            -88.6955   ZZ=           -107.7227
   XY=             -8.8351   XZ=              1.9567   YZ=              1.2712
 Traceless Quadrupole moment (field-independent basis, Debye-Ang):
   XX=             -6.5474   YY=             12.7873   ZZ=             -6.2399
   XY=             -8.8351   XZ=              1.9567   YZ=              1.2712
 Octapole moment (field-independent basis, Debye-Ang**2):
  XXX=            247.2274  YYY=             -4.2861  ZZZ=              1.4649  XYY=            -15.7037
  XXY=             45.0944  XXZ=              6.2507  XZZ=              0.6059  YZZ=              3.1306
  YYZ=              0.7831  XYZ=             -2.9238
 Hexadecapole moment (field-independent basis, Debye-Ang**3):
 XXXX=          -8317.4737 YYYY=           -737.5433 ZZZZ=           -217.0586 XXXY=           -202.6100
 XXXZ=             49.7934 YYYX=            -10.0384 YYYZ=              2.1881 ZZZX=              7.1311
 ZZZY=              0.2015 XXYY=          -1319.3451 XXZZ=          -1474.3189 YYZZ=           -185.3234
 XXYZ=              7.2563 YYXZ=             -0.7879 ZZXY=             15.5263
 N-N= 1.053162155608D+03 E-N=-3.925273457879D+03  KE= 7.747636372284D+02
 Evaluate density.
 Using the total density.
 Monte-Carlo method of calculating molar volume:
 based on  0.001 e/bohr**3 density envelope.
 Number of points per bohr**3 =   20 CutOff= 1.00D-04
 Using the SCF density.
 There are       420 points.  Will hold       420 in memory.
 LenV=  4026265890 MDV=  4026531840.
 Box volume = 9317.714 fraction occupied=0.200
 Integrated density= 6.6557820664401547D+01 error=-5.3442179335598453D+01
 Molar volume = 1863.543 bohr**3/mol (166.301 cm**3/mol)
 Recommended a0 for SCRF calculation =  4.95 angstrom (  9.35 bohr)
 Calling FoFJK, ICntrl=      2127 FMM=F ISym2X=0 I1Cent= 0 IOpClX= 0 NMat=1 NMatS=1 NMatT=0.
 ***** Axes restored to original set *****
 -------------------------------------------------------------------
 Center     Atomic                   Forces (Hartrees/Bohr)
 Number     Number              X              Y              Z
 -------------------------------------------------------------------
      1        6           0.004523096    0.022976631   -0.005976824
      2        6           0.002599045    0.003548030    0.013668069
      3        6          -0.001194583   -0.014076490    0.019150844
      4        6           0.008249886    0.053252848   -0.041641712
      5        6          -0.000455106    0.004656211   -0.010105576
      6        6          -0.002126613    0.000500559   -0.015338194
      7        1          -0.002882823   -0.007140800   -0.008854028
      8        1           0.002811901    0.007336740    0.007784726
      9        1           0.000859561   -0.002864724    0.010998780
     10        8          -0.003841689   -0.010750734   -0.021907568
     11        6          -0.002064208   -0.056748167    0.025726683
     12        6           0.002060467    0.014753863   -0.004209470
     13        6          -0.006261080   -0.017164042    0.018533477
     14        6           0.003564700    0.014302041    0.014010886
     15        6           0.000538654    0.009497514   -0.007592486
     16        1           0.003741436    0.006443658    0.009945138
     17        6          -0.003297281   -0.009691577    0.014660783
     18        1          -0.003203878   -0.007828596   -0.008515399
     19        1          -0.002338836   -0.021907005    0.012439154
     20        1           0.000605572    0.018623565   -0.017168751
     21        7           0.004651528    0.023106278   -0.004601238
     22        8           0.047254594   -0.024490512   -0.003695656
     23        8          -0.052541795   -0.001828666    0.009077156
     24        1           0.002050649    0.004271591   -0.010957276
     25        6          -0.013914417   -0.032215434    0.006564576
     26        1          -0.006766955    0.013857658    0.009020106
     27        1           0.017519691    0.003290635    0.004413690
     28        1          -0.000141515    0.006288923   -0.015429891
 -------------------------------------------------------------------
 Cartesian Forces:  Max     0.056748167 RMS     0.016635062

 GradGradGradGradGradGradGradGradGradGradGradGradGradGradGradGradGradGrad
 Berny optimization.
 FormGI is forming the generalized inverse of G from B-inverse, IUseBI=4.
 Internal  Forces:  Max     0.166519886 RMS     0.024582910
 Search for a local minimum.
 Step number   1 out of a maximum of  147
 All quantities printed in internal units (Hartrees-Bohrs-Radians)
 Mixed Optimization -- RFO/linear search
 Second derivative matrix not updated -- first step.
 ITU=  0
     Eigenvalues ---    0.00230   0.00230   0.00237   0.00766   0.00766
     Eigenvalues ---    0.01336   0.01655   0.01752   0.01788   0.02070
     Eigenvalues ---    0.02070   0.02070   0.02070   0.02070   0.02070
     Eigenvalues ---    0.02070   0.02070   0.02070   0.02070   0.02070
     Eigenvalues ---    0.02070   0.02070   0.02070   0.07243   0.07243
     Eigenvalues ---    0.16000   0.16000   0.16000   0.16000   0.16000
     Eigenvalues ---    0.16000   0.16000   0.16000   0.16000   0.16000
     Eigenvalues ---    0.16000   0.18708   0.22000   0.22000   0.22981
     Eigenvalues ---    0.23438   0.23486   0.24000   0.24757   0.25000
     Eigenvalues ---    0.25000   0.25000   0.25000   0.25000   0.25000
     Eigenvalues ---    0.27457   0.28519   0.35740   0.37230   0.37230
     Eigenvalues ---    0.37230   0.37230   0.37230   0.37230   0.37230
     Eigenvalues ---    0.37230   0.37230   0.37230   0.37230   0.41268
     Eigenvalues ---    0.41361   0.41548   0.41640   0.45389   0.45389
     Eigenvalues ---    0.45389   0.45389   0.45389   0.45389   0.45389
     Eigenvalues ---    0.45389   1.05155   1.05157
 RFO step:  Lambda=-1.83463924D-01 EMin= 2.30000000D-03
 Linear search not attempted -- first point.
 Maximum step size (   0.300) exceeded in Quadratic search.
    -- Step size scaled by   0.467
 Iteration  1 RMS(Cart)=  0.25375243 RMS(Int)=  0.01282729
 Iteration  2 RMS(Cart)=  0.14349095 RMS(Int)=  0.00286864
 Iteration  3 RMS(Cart)=  0.00773158 RMS(Int)=  0.00013919
 Iteration  4 RMS(Cart)=  0.00000404 RMS(Int)=  0.00013918
 Iteration  5 RMS(Cart)=  0.00000000 RMS(Int)=  0.00013918
 Variable       Old X    -DE/DX   Delta X   Delta X   Delta X     New X
                                 (Linear)    (Quad)   (Total)
    R1        2.64826  -0.01547   0.00000  -0.01152  -0.01152   2.63674
    R2        2.64826  -0.01527   0.00000  -0.01152  -0.01152   2.63674
    R3        2.77790   0.00337   0.00000   0.00290   0.00290   2.78080
    R4        2.64826  -0.00520   0.00000  -0.00365  -0.00366   2.64460
    R5        2.02201   0.01173   0.00000   0.00985   0.00985   2.03186
    R6        2.64826   0.00453   0.00000   0.00366   0.00366   2.65192
    R7        2.02201  -0.01892   0.00000  -0.01589  -0.01589   2.00612
    R8        2.64826  -0.00527   0.00000  -0.00367  -0.00367   2.64460
    R9        2.93342  -0.04661   0.00000  -0.04749  -0.04749   2.88594
   R10        2.64826  -0.00946   0.00000  -0.00708  -0.00707   2.64119
   R11        2.02201   0.01104   0.00000   0.00927   0.00927   2.03128
   R12        2.02201   0.01135   0.00000   0.00953   0.00953   2.03154
   R13        3.18558  -0.04952   0.00000  -0.06237  -0.06237   3.12321
   R14        2.64826  -0.00350   0.00000  -0.00260  -0.00260   2.64566
   R15        2.64826  -0.01249   0.00000  -0.00925  -0.00925   2.63901
   R16        2.64826  -0.00338   0.00000  -0.00240  -0.00240   2.64586
   R17        2.02201  -0.01985   0.00000  -0.01667  -0.01667   2.00534
   R18        2.64826  -0.00228   0.00000  -0.00174  -0.00174   2.64652
   R19        2.02201   0.01237   0.00000   0.01038   0.01038   2.03239
   R20        2.64826  -0.00835   0.00000  -0.00600  -0.00600   2.64226
   R21        2.02201   0.01193   0.00000   0.01002   0.01002   2.03202
   R22        2.64826  -0.00731   0.00000  -0.00532  -0.00532   2.64295
   R23        2.91018  -0.00994   0.00000  -0.00990  -0.00990   2.90028
   R24        2.02201   0.01193   0.00000   0.01002   0.01002   2.03202
   R25        2.26643   0.05187   0.00000   0.01960   0.01960   2.28603
   R26        2.26642   0.05187   0.00000   0.01960   0.01960   2.28602
   R27        2.02201   0.01756   0.00000   0.01474   0.01474   2.03675
   R28        2.02201   0.01813   0.00000   0.01522   0.01522   2.03723
   R29        2.02201   0.01645   0.00000   0.01381   0.01381   2.03582
    A1        2.09440   0.00370   0.00000   0.00307   0.00306   2.09745
    A2        2.09440  -0.00175   0.00000  -0.00143  -0.00142   2.09297
    A3        2.09440  -0.00195   0.00000  -0.00164  -0.00164   2.09276
    A4        2.09440  -0.00013   0.00000  -0.00035  -0.00036   2.09404
    A5        2.09440   0.00032   0.00000   0.00052   0.00053   2.09492
    A6        2.09440  -0.00019   0.00000  -0.00018  -0.00017   2.09422
    A7        2.09440   0.00333   0.00000   0.00450   0.00449   2.09889
    A8        2.09440  -0.01862   0.00000  -0.02528  -0.02528   2.06911
    A9        2.09440   0.01529   0.00000   0.02079   0.02079   2.11519
   A10        2.09440  -0.01403   0.00000  -0.01446  -0.01445   2.07995
   A11        2.09440   0.10221   0.00000   0.10971   0.10971   2.20410
   A12        2.09440  -0.08817   0.00000  -0.09525  -0.09526   1.99913
   A13        2.09440   0.00976   0.00000   0.01120   0.01121   2.10561
   A14        2.09440  -0.00548   0.00000  -0.00641  -0.00642   2.08798
   A15        2.09440  -0.00428   0.00000  -0.00479  -0.00480   2.08960
   A16        2.09440  -0.00262   0.00000  -0.00396  -0.00396   2.09044
   A17        2.09440   0.00235   0.00000   0.00339   0.00339   2.09779
   A18        2.09440   0.00027   0.00000   0.00057   0.00057   2.09496
   A19        2.23319   0.16652   0.00000   0.17928   0.17928   2.41247
   A20        2.01758   0.10441   0.00000   0.11349   0.11357   2.13115
   A21        2.16295  -0.09836   0.00000  -0.10604  -0.10616   2.05679
   A22        2.09440  -0.00543   0.00000  -0.00583  -0.00583   2.08857
   A23        2.09440  -0.00112   0.00000  -0.00143  -0.00144   2.09295
   A24        2.09440   0.01509   0.00000   0.02046   0.02045   2.11485
   A25        2.09440  -0.01397   0.00000  -0.01903  -0.01903   2.07536
   A26        2.09440   0.00774   0.00000   0.00848   0.00848   2.10287
   A27        2.09440  -0.00427   0.00000  -0.00479  -0.00479   2.08960
   A28        2.09440  -0.00346   0.00000  -0.00369  -0.00369   2.09071
   A29        2.09440   0.00484   0.00000   0.00571   0.00570   2.10010
   A30        2.09440  -0.00377   0.00000  -0.00469  -0.00469   2.08971
   A31        2.09440  -0.00107   0.00000  -0.00102  -0.00102   2.09338
   A32        2.09440  -0.00276   0.00000  -0.00319  -0.00319   2.09120
   A33        2.09440  -0.00295   0.00000  -0.00307  -0.00307   2.09133
   A34        2.09440   0.00571   0.00000   0.00626   0.00626   2.10066
   A35        2.09440  -0.00327   0.00000  -0.00373  -0.00373   2.09066
   A36        2.09440   0.00200   0.00000   0.00237   0.00237   2.09676
   A37        2.09440   0.00127   0.00000   0.00137   0.00136   2.09576
   A38        2.06635  -0.00944   0.00000  -0.01016  -0.01016   2.05620
   A39        2.06634  -0.00942   0.00000  -0.01014  -0.01014   2.05620
   A40        2.15049   0.01885   0.00000   0.02030   0.02030   2.17079
   A41        1.91063   0.00352   0.00000   0.00479   0.00478   1.91542
   A42        1.91063   0.00281   0.00000   0.00376   0.00375   1.91438
   A43        1.91063   0.00261   0.00000   0.00360   0.00359   1.91423
   A44        1.91063  -0.00343   0.00000  -0.00477  -0.00478   1.90586
   A45        1.91063  -0.00274   0.00000  -0.00360  -0.00361   1.90702
   A46        1.91063  -0.00277   0.00000  -0.00378  -0.00379   1.90684
    D1        0.00000  -0.00005   0.00000  -0.00013  -0.00013  -0.00012
    D2       -3.14159  -0.00011   0.00000  -0.00024  -0.00024   3.14136
    D3       -3.14159  -0.00001   0.00000  -0.00002  -0.00002   3.14157
    D4        0.00000  -0.00006   0.00000  -0.00014  -0.00014  -0.00013
    D5        0.00000   0.00001   0.00000   0.00002   0.00002   0.00002
    D6        3.14159   0.00005   0.00000   0.00012   0.00012  -3.14148
    D7        3.14159  -0.00004   0.00000  -0.00009  -0.00009   3.14150
    D8        0.00000   0.00001   0.00000   0.00001   0.00002   0.00001
    D9        1.57667  -0.00002   0.00000  -0.00005  -0.00005   1.57663
   D10       -1.56492   0.00008   0.00000   0.00019   0.00019  -1.56473
   D11       -1.56492   0.00002   0.00000   0.00006   0.00006  -1.56486
   D12        1.57667   0.00012   0.00000   0.00029   0.00029   1.57696
   D13        0.00000   0.00000   0.00000   0.00000   0.00000   0.00001
   D14       -3.14159  -0.00037   0.00000  -0.00083  -0.00082   3.14077
   D15        3.14159   0.00005   0.00000   0.00012   0.00012  -3.14147
   D16        0.00000  -0.00031   0.00000  -0.00072  -0.00071  -0.00071
   D17        0.00000   0.00010   0.00000   0.00023   0.00022   0.00022
   D18        3.14159   0.00016   0.00000   0.00037   0.00038  -3.14122
   D19        3.14159   0.00047   0.00000   0.00107   0.00107  -3.14052
   D20        0.00000   0.00053   0.00000   0.00121   0.00123   0.00122
   D21        0.00000  -0.00015   0.00000  -0.00033  -0.00033  -0.00033
   D22       -3.14159  -0.00006   0.00000  -0.00013  -0.00013   3.14146
   D23       -3.14159  -0.00021   0.00000  -0.00048  -0.00047   3.14112
   D24        0.00000  -0.00012   0.00000  -0.00028  -0.00027  -0.00027
   D25       -0.09171   0.00135   0.00000   0.00340   0.00340  -0.08831
   D26        3.04988   0.00141   0.00000   0.00355   0.00355   3.05343
   D27        0.00000   0.00009   0.00000   0.00021   0.00021   0.00022
   D28       -3.14159   0.00005   0.00000   0.00011   0.00011  -3.14148
   D29       -3.14159   0.00000   0.00000   0.00001   0.00001  -3.14158
   D30        0.00000  -0.00004   0.00000  -0.00009  -0.00009  -0.00009
   D31        0.07603   0.01158   0.00000   0.02858   0.02826   0.10429
   D32       -2.92738   0.00543   0.00000   0.01416   0.01449  -2.91290
   D33       -3.00924   0.00362   0.00000  -0.00110  -0.00198  -3.01122
   D34        0.13235   0.00566   0.00000   0.00521   0.00454   0.13690
   D35        0.00000   0.00112   0.00000   0.00366   0.00377   0.00377
   D36       -3.14159   0.00316   0.00000   0.00996   0.01029  -3.13130
   D37        2.99766   0.01154   0.00000   0.01783   0.01712   3.01479
   D38       -0.14393   0.01053   0.00000   0.01723   0.01667  -0.12726
   D39        0.00000  -0.00258   0.00000  -0.00556  -0.00555  -0.00555
   D40        3.14159  -0.00358   0.00000  -0.00616  -0.00600   3.13559
   D41        0.00000   0.00116   0.00000   0.00095   0.00078   0.00078
   D42        3.14159   0.00044   0.00000   0.00102   0.00100  -3.14060
   D43        3.14159  -0.00088   0.00000  -0.00535  -0.00559   3.13600
   D44        0.00000  -0.00159   0.00000  -0.00528  -0.00538  -0.00538
   D45        0.00000   0.00176   0.00000   0.00285   0.00276   0.00275
   D46        3.14159   0.00113   0.00000   0.00233   0.00231  -3.13928
   D47        3.14159   0.00277   0.00000   0.00346   0.00321  -3.13838
   D48        0.00000   0.00213   0.00000   0.00293   0.00277   0.00277
   D49        0.00000  -0.00198   0.00000  -0.00366  -0.00358  -0.00358
   D50       -3.14159  -0.00086   0.00000  -0.00105  -0.00096   3.14063
   D51       -3.14159  -0.00126   0.00000  -0.00373  -0.00379   3.13780
   D52        0.00000  -0.00014   0.00000  -0.00112  -0.00118  -0.00118
   D53        0.00000   0.00052   0.00000   0.00176   0.00182   0.00182
   D54       -3.14159  -0.00060   0.00000  -0.00085  -0.00080   3.14079
   D55       -3.14159   0.00115   0.00000   0.00228   0.00226  -3.13933
   D56        0.00000   0.00003   0.00000  -0.00033  -0.00035  -0.00035
   D57       -0.85775   0.00055   0.00000   0.00068   0.00064  -0.85711
   D58        1.23664   0.00022   0.00000   0.00008   0.00004   1.23668
   D59       -2.95215   0.00015   0.00000  -0.00005  -0.00009  -2.95224
   D60        2.28384  -0.00008   0.00000   0.00016   0.00020   2.28404
   D61       -1.90495  -0.00041   0.00000  -0.00045  -0.00041  -1.90536
   D62        0.18944  -0.00048   0.00000  -0.00057  -0.00054   0.18891
         Item               Value     Threshold  Converged?
 Maximum Force            0.166520     0.000450     NO 
 RMS     Force            0.024583     0.000300     NO 
 Maximum Displacement     1.330272     0.001800     NO 
 RMS     Displacement     0.389841     0.001200     NO 
 Predicted change in Energy=-7.406931D-02
 GradGradGradGradGradGradGradGradGradGradGradGradGradGradGradGradGradGrad

                          Input orientation:                          
 ---------------------------------------------------------------------
 Center     Atomic      Atomic             Coordinates (Angstroms)
 Number     Number       Type             X           Y           Z
 ---------------------------------------------------------------------
      1          6           0       -4.735612   -0.285441   -0.176129
      2          6           0       -4.883511   -0.078464   -1.548045
      3          6           0       -4.654974    1.190340   -2.092478
      4          6           0       -4.276969    2.257831   -1.263668
      5          6           0       -4.131974    2.036313    0.110521
      6          6           0       -4.359962    0.769799    0.655872
      7          1           0       -5.172864   -0.893335   -2.187062
      8          1           0       -3.842601    2.848690    0.752185
      9          1           0       -4.245815    0.610647    1.712925
     10          8           0       -3.994666    3.691287   -1.708374
     11          6           0       -3.891005    4.546407   -3.118885
     12          6           0       -4.209314    3.978606   -4.358380
     13          6           0       -3.327535    5.823166   -3.067750
     14          6           0       -3.957552    4.690064   -5.537703
     15          6           0       -3.073152    6.535248   -4.246550
     16          1           0       -3.087763    6.262518   -2.115821
     17          6           0       -3.388282    5.966048   -5.484593
     18          1           0       -4.204060    4.251477   -6.488042
     19          1           0       -4.773335    1.322160   -3.139185
     20          1           0       -4.646754    3.014051   -4.424601
     21          7           0       -4.976282   -1.620131    0.394922
     22          8           0       -4.037399   -2.379155    0.471000
     23          8           0       -6.099828   -1.885040    0.756672
     24          1           0       -3.195428    6.509359   -6.392278
     25          6           0       -2.450650    7.936155   -4.172802
     26          1           0       -2.988316    8.536301   -3.456985
     27          1           0       -1.419433    7.859734   -3.867920
     28          1           0       -2.501046    8.406901   -5.140507
 ---------------------------------------------------------------------
                    Distance matrix (angstroms):
                    1          2          3          4          5
     1  C    0.000000
     2  C    1.395302   0.000000
     3  C    2.420088   1.399464   0.000000
     4  C    2.803806   2.430439   1.403336   0.000000
     5  C    2.416007   2.790686   2.417107   1.399460   0.000000
     6  C    1.395303   2.418865   2.795947   2.430177   1.397657
     7  H    2.145827   1.075213   2.149153   3.403694   3.865899
     8  H    3.388512   3.865589   3.391487   2.145100   1.074908
     9  H    2.147418   3.393444   3.870989   3.402101   2.147832
    10  O    4.325637   3.876437   2.615010   1.527172   2.462959
    11  C    5.720134   4.984178   3.591705   2.971259   4.097280
    12  C    5.995858   4.981198   3.620408   3.541594   4.873352
    13  C    6.903567   6.289658   4.916943   4.107037   5.008871
    14  C    7.355780   6.285986   4.960245   4.927997   6.243015
    15  C    8.115041   7.368888   5.975804   5.351921   6.351817
    16  H    7.025210   6.614766   5.308831   4.263554   4.889558
    17  C    8.311210   7.366698   5.993191   5.688308   6.877586
    18  H    7.791433   6.604060   5.375395   5.592319   6.960832
    19  H    3.371276   2.122642   1.061593   2.153932   3.388501
    20  H    5.379968   4.230162   2.960538   3.271102   4.667794
    21  N    1.471537   2.482029   3.766849   4.275342   3.763419
    22  O    2.299982   3.175789   4.437806   4.956623   4.431168
    23  O    2.299983   3.170941   4.434323   4.956609   4.434746
    24  H    9.337130   8.349588   6.993606   6.748916   7.948060
    25  C    9.422796   8.777372   7.395459   6.636405   7.482101
    26  H    9.572888   9.024964   7.655245   6.774249   7.502326
    27  H    9.537832   8.966417   7.622449   6.806538   7.556328
    28  H   10.256469   9.517528   8.124571   7.482971   8.415320
                    6          7          8          9         10
     6  C    0.000000
     7  H    3.392506   0.000000
     8  H    2.144464   4.940802   0.000000
     9  H    1.075044   4.281505   2.468692   0.000000
    10  O    3.776002   4.757736   2.605272   4.610716   0.000000
    11  C    5.360176   5.665885   4.227265   6.241994   1.652731
    12  C    5.954987   5.420227   5.246815   6.942998   2.674165
    13  C    6.361430   7.020844   4.868748   7.132212   2.614934
    14  C    7.341034   6.624056   6.554888   8.324442   3.957612
    15  C    7.676590   7.989626   6.258603   8.484773   3.921689
    16  H    6.282574   7.453788   4.522108   6.924162   2.756758
    17  C    8.102499   7.817262   6.987255   9.012211   4.449952
    18  H    7.948705   6.775405   7.383722   8.972918   4.816938
    19  H    3.857258   2.444295   4.282443   4.932292   2.875119
    20  H    5.561486   4.533326   5.241481   6.603509   2.874327
    21  N    2.481877   2.689520   4.624201   2.692041   5.796429
    22  O    3.170826   3.249959   5.239024   3.244185   6.449943
    23  O    3.175762   3.241652   5.244359   3.252728   6.450084
    24  H    9.163794   8.740365   8.053738  10.079308   5.524425
    25  C    8.849759   9.450582   7.216324   9.566999   5.145512
    26  H    8.894693   9.762325   7.127120   9.545955   5.248290
    27  H    8.909466   9.671078   7.233787   9.575152   5.354570
    28  H    9.766213  10.117107   8.210804  10.525936   6.020587
                   11         12         13         14         15
    11  C    0.000000
    12  C    1.400023   0.000000
    13  C    1.396506   2.417781   0.000000
    14  C    2.423993   1.400128   2.789536   0.000000
    15  C    2.428168   2.799962   1.400479   2.419492   0.000000
    16  H    2.143915   3.391637   1.075494   3.865025   2.148162
    17  C    2.804404   2.427422   2.421825   1.398222   1.398587
    18  H    3.396499   2.147079   3.864829   1.075300   3.393943
    19  H    3.342856   2.976787   4.728055   4.214400   5.594030
    20  H    2.150387   1.061181   3.387110   2.126737   3.860926
    21  N    7.179893   7.384307   8.373240   8.720803   9.574726
    22  O    7.802059   7.985837   8.961291   9.278186  10.131714
    23  O    7.827027   8.007506   9.040368   9.350962  10.251549
    24  H    3.879705   3.401385   3.397176   2.149644   2.149366
    25  C    3.830894   4.334689   2.540627   3.830250   1.534760
    26  H    4.104682   4.803741   2.761824   4.479101   2.152864
    27  H    4.200935   4.804908   2.903228   4.390562   2.152303
    28  H    4.574096   4.810375   3.413956   4.011740   2.151639
                   16         17         18         19         20
    16  H    0.000000
    17  C    3.395119   0.000000
    18  H    4.940316   2.147593   0.000000
    19  H    5.319357   5.383773   4.485513   0.000000
    20  H    4.279422   3.379589   2.446424   2.128571   0.000000
    21  N    8.485664   9.728338   9.080051   4.603062   6.694180
    22  O    9.070390  10.272919   9.613602   5.222525   7.309234
    23  O    9.149123  10.389680   9.681770   5.217606   7.277232
    24  H    4.284928   1.075301   2.474780   6.322930   4.265592
    25  C    2.727296   2.545833   4.691655   7.085772   5.395681
    26  H    2.641723   3.298085   5.387491   7.438489   5.846532
    27  H    2.899013   3.174278   5.257252   7.383738   5.848601
    28  H    3.753844   2.619799   4.688673   7.704684   5.848027
                   21         22         23         24         25
    21  N    0.000000
    22  O    1.209713   0.000000
    23  O    1.209709   2.139947   0.000000
    24  H   10.739001  11.261403  11.402148   0.000000
    25  C   10.888780  11.423147  11.578950   2.741626   0.000000
    26  H   11.042749  11.648040  11.663651   3.573141   1.077801
    27  H   10.985938  11.424309  11.758128   3.368985   1.078054
    28  H   11.717899  12.255138  12.395645   2.376924   1.077309
                   26         27         28
    26  H    0.000000
    27  H    1.757272   0.000000
    28  H    1.757391   1.757486   0.000000
 Stoichiometry    C13H11NO3
 Framework group  C1[X(C13H11NO3)]
 Deg. of freedom    78
 Full point group                 C1      NOp   1
 Largest Abelian subgroup         C1      NOp   1
 Largest concise Abelian subgroup C1      NOp   1
                         Standard orientation:                         
 ---------------------------------------------------------------------
 Center     Atomic      Atomic             Coordinates (Angstroms)
 Number     Number       Type             X           Y           Z
 ---------------------------------------------------------------------
      1          6           0       -3.424782    0.039489    0.028754
      2          6           0       -2.556669   -1.052584    0.003749
      3          6           0       -1.175363   -0.845995   -0.084639
      4          6           0       -0.657883    0.456888   -0.148380
      5          6           0       -1.539784    1.543188   -0.122123
      6          6           0       -2.919577    1.338604   -0.034008
      7          1           0       -2.948490   -2.052677    0.052461
      8          1           0       -1.151424    2.544322   -0.170418
      9          1           0       -3.588148    2.180244   -0.014657
     10          8           0        0.817233    0.839646   -0.247286
     11          6           0        2.289697    0.089543   -0.220556
     12          6           0        2.414168   -1.304704   -0.195121
     13          6           0        3.425751    0.887754   -0.070658
     14          6           0        3.673226   -1.890234   -0.015437
     15          6           0        4.685539    0.303647    0.111256
     16          1           0        3.332001    1.958864   -0.095601
     17          6           0        4.808679   -1.089213    0.139927
     18          1           0        3.765513   -2.961413    0.002699
     19          1           0       -0.535685   -1.693058   -0.101238
     20          1           0        1.568281   -1.933974   -0.315949
     21          7           0       -4.876994   -0.179284    0.121692
     22          8           0       -5.370613   -0.230352    1.224932
     23          8           0       -5.497332   -0.296283   -0.910242
     24          1           0        5.774021   -1.542152    0.278616
     25          6           0        5.923539    1.195394    0.277480
     26          1           0        5.942422    1.940907   -0.500665
     27          1           0        5.891912    1.685428    1.237203
     28          1           0        6.815006    0.593749    0.215005
 ---------------------------------------------------------------------
 Rotational constants (GHZ):           1.7946850           0.1531040           0.1445768
 Standard basis: 6-31+G(d) (6D, 7F)
 There are   345 symmetry adapted cartesian basis functions of A   symmetry.
 There are   345 symmetry adapted basis functions of A   symmetry.
   345 basis functions,   588 primitive gaussians,   345 cartesian basis functions
    60 alpha electrons       60 beta electrons
       nuclear repulsion energy      1041.8201004293 Hartrees.
 NAtoms=   28 NActive=   28 NUniq=   28 SFac= 1.00D+00 NAtFMM=   60 NAOKFM=F Big=F
 Integral buffers will be    131072 words long.
 Raffenetti 2 integral format.
 Two-electron integral symmetry is turned on.
 Nuclear repulsion after empirical dispersion term =     1041.7987822878 Hartrees.
 One-electron integrals computed using PRISM.
 NBasis=   345 RedAO= T EigKep=  1.62D-06  NBF=   345
 NBsUse=   344 1.00D-06 EigRej=  5.92D-07 NBFU=   344
 Initial guess from the checkpoint file:  "molecule_108.chk"
 B after Tr=     0.000000    0.000000    0.000000
         Rot=    0.999005    0.044243    0.000718   -0.005512 Ang=   5.11 deg.
 ExpMin= 4.38D-02 ExpMax= 5.48D+03 ExpMxC= 8.25D+02 IAcc=3 IRadAn=         5 AccDes= 0.00D+00
 Harris functional with IExCor=  402 and IRadAn=       5 diagonalized for initial guess.
 HarFok:  IExCor=  402 AccDes= 0.00D+00 IRadAn=         5 IDoV= 1 UseB2=F ITyADJ=14
 ICtDFT=  3500011 ScaDFX=  1.000000  1.000000  1.000000  1.000000
 FoFCou: FMM=F IPFlag=           0 FMFlag=      100000 FMFlg1=           0
         NFxFlg=           0 DoJE=T BraDBF=F KetDBF=T FulRan=T
[...]
 00000423,0.00000317,0.00005962,-0.00000437,0.00163564,0.00014715,-0.00
 006477,0.00005541,-0.00003296,-0.23929432,0.00251217,0.82210455,0.0174
 1124,-0.00428255,0.00376817,0.00299467,0.00197375,0.00092234,-0.000458
 48,-0.00061279,-0.00119513,0.00020592,0.00079919,-0.00036670,-0.000102
 31,-0.00142442,-0.00028221,-0.00062930,0.00515580,0.00184879,0.0004171
 6,0.00042082,-0.00045672,-0.00003229,-0.00007495,0.00001426,0.00029335
 ,0.00089329,-0.00155949,0.00011902,-0.00052473,-0.00002022,0.00010126,
 0.00010815,-0.00012293,-0.00005376,-0.00000353,0.00002123,-0.00000354,
 -0.00004554,0.00002682,0.00000707,-0.00001630,0.00002240,-0.00000545,0
 .00001391,-0.00002721,-0.00000256,0.00001096,0.00000734,0.00001958,0.0
 0000055,0.00000624,-0.00000227,-0.00000348,0.00000821,-0.00050568,-0.0
 0006486,-0.00020674,-0.00000135,0.00000582,-0.00000034,-0.11044145,-0.
 02042811,0.10495984,0.08802378,-0.00852224,-0.02027326,0.05009182,0.00
 425851,-0.00370295,-0.00488712,0.00010956,-0.00347362,0.00155167,-0.00
 145461,0.00368677,0.00100978,-0.00082482,-0.00034925,0.00183550,0.0006
 3992,-0.00340978,0.00223472,-0.00008262,0.00025303,0.00027586,0.000050
 44,-0.00009434,-0.00009380,0.00049630,-0.00432308,0.00199070,0.0004757
 4,-0.00389820,0.00173276,0.00049963,0.00092577,-0.00185490,-0.00015421
 ,-0.00024102,0.00031193,-0.00003965,-0.00025428,0.00036995,0.00008099,
 0.00003035,-0.00007382,0.00011428,0.00010901,-0.00010298,0.00006089,0.
 00010189,-0.00000095,-0.00010031,-0.00004838,0.00008135,0.00001353,-0.
 00002664,0.00007285,0.00000238,-0.00071282,0.00007344,-0.00007510,0.00
 005680,-0.00005982,-0.02232574,-0.17222843,0.12988491,0.01648465,0.167
 38430,0.00697576,0.03943270,-0.02976461,-0.00081026,0.00088116,0.00531
 634,-0.00174040,0.00328742,0.00070460,0.00134063,-0.00456604,0.0004600
 5,-0.00071658,0.00336155,-0.00132046,0.00527408,-0.00907436,-0.0046714
 5,-0.00006519,-0.00097309,0.00129944,-0.00008177,0.00022361,-0.0000136
 0,-0.00126696,0.00099708,0.00233957,-0.00079879,0.00423952,-0.00132511
 ,-0.00042099,-0.00091130,0.00182608,0.00016399,0.00023974,-0.00031017,
 0.00000596,0.00022201,-0.00039447,-0.00009353,-0.00002950,0.00006707,-
 0.00006731,-0.00009730,0.00007647,-0.00004114,-0.00009634,-0.00000593,
 0.00008584,0.00006038,-0.00004862,-0.00000352,0.00001665,-0.00006787,-
 0.00025651,0.00025099,-0.00014987,0.00007104,-0.00006300,0.00003928,0.
 10638022,0.12515374,-0.43607609,-0.16402870,-0.14735636,0.55003244,0.0
 0431123,0.02786158,0.01184215,0.00043778,-0.00253437,0.00494347,-0.000
 96358,0.00162527,-0.00039270,0.00058089,-0.00232182,0.00093985,-0.0007
 8792,0.00125288,-0.00149339,0.00429993,0.00059036,-0.00128216,0.000374
 73,0.00034612,-0.00125897,-0.00052656,0.00006857,-0.00026169,0.0005635
 6,-0.00054763,-0.00014874,-0.00018352,0.00230174,-0.00126766,-0.000286
 96,-0.00055243,0.00116856,0.00007835,0.00010170,-0.00021363,0.00005140
 ,0.00010013,-0.00025421,-0.00005529,-0.00003258,0.00002642,-0.00003034
 ,-0.00005558,0.00003777,-0.00004086,-0.00002483,0.00002362,0.00007004,
 0.00003033,-0.00004952,-0.00000850,0.00002235,-0.00003578,-0.00004500,
 0.00007616,-0.00007925,0.00003346,-0.00001294,0.00004298,-0.16196059,0
 .12070556,0.12685428,0.00264675,0.01035795,0.05003514,0.15140609,0.031
 86003,-0.04746499,-0.03050110,0.00213641,-0.00101122,-0.00334207,0.001
 00469,-0.00228496,-0.00121583,-0.00025959,0.00446873,-0.00267000,0.000
 56520,-0.00418695,0.00092752,-0.00170082,-0.00104374,0.00808921,0.0007
 4215,-0.00424099,0.00132206,-0.00002214,-0.00081732,0.00020617,-0.0000
 4728,0.00059758,-0.00006864,0.00051398,-0.00517857,0.00270781,0.000676
 78,0.00127742,-0.00260485,-0.00020159,-0.00026469,0.00047209,-0.000105
 32,-0.00027074,0.00052438,0.00011528,0.00004928,-0.00006625,0.00010263
 ,0.00012391,-0.00010491,0.00009291,0.00009770,-0.00002395,-0.00013643,
 -0.00006230,0.00011919,0.00002130,-0.00004762,0.00009356,-0.00005101,-
 0.00006508,0.00014092,-0.00007616,0.00004241,-0.00009627,0.12268101,-0
 .27910024,-0.15214400,0.00160735,0.04059042,-0.01527771,-0.15944222,0.
 29894218,0.00882515,-0.02049351,0.01098619,0.00139402,0.00835994,-0.00
 824378,0.00010005,-0.00280463,0.00130035,-0.00066624,0.00258999,-0.000
 08662,-0.00100347,-0.00071066,0.00201573,0.00047219,0.00230824,0.00102
 775,-0.00158418,0.00232578,0.00213428,-0.00019564,-0.00001080,-0.00010
 953,-0.00052343,0.00118089,0.00076450,0.00010056,-0.00180859,0.0011368
 8,0.00025632,0.00042957,-0.00092109,-0.00007995,-0.00004813,0.00018279
 ,-0.00005764,-0.00006720,0.00018984,0.00004387,0.00003297,0.00001483,-
 0.00001035,0.00004262,-0.00002523,0.00003648,0.00000457,-0.00002249,-0
 .00004027,-0.00001064,0.00005410,0.00001257,-0.00003592,0.00002793,0.0
 0001865,-0.00018627,0.00003756,-0.00000424,-0.00001180,-0.00004348,0.1
 2539080,-0.14722249,-0.27697071,0.05665422,-0.03718472,-0.08792077,-0.
 18912127,0.19339228,0.35443894,-0.00000297,-0.00003492,0.00000717,0.00
 000756,0.00002197,-0.00000416,0.00002460,-0.00002439,-0.00002344,-0.00
 003483,0.00018256,-0.00008071,-0.00000477,-0.00001856,0.00001804,-0.00
 000264,0.00001415,0.00000451,0.00000093,0.00000227,-0.00000036,-0.0000
 0341,-0.00000200,-0.00000395,-0.00000024,-0.00000013,-0.00000057,0.000
 18140,0.00025629,0.00037182,-0.00135165,-0.00018973,-0.00072532,-0.003
 83104,-0.00402287,-0.00119495,-0.00181128,-0.00195715,-0.00393693,-0.0
 0284607,-0.01220702,0.02655775,0.00780463,0.00879710,-0.01830860,0.000
 52693,0.00046111,-0.00098222,-0.07265179,-0.03583036,0.05624124,0.0000
 3027,0.00155424,0.00030217,-0.00002563,-0.00001090,-0.00000056,-0.0001
 5045,-0.00064493,0.00128129,-0.00000909,0.00005569,-0.00002032,-0.0000
 0170,-0.00001998,0.00002120,0.00000684,-0.00002175,-0.00000232,0.07407
 609,0.00000933,-0.00005724,0.00001594,0.00000172,0.00003121,-0.0000191
 5,0.00001576,-0.00006923,0.00002203,-0.00004473,0.00008912,0.00008151,
 0.00002052,-0.00007646,0.00002828,-0.00001631,0.00002810,0.00001274,0.
 00000043,-0.00000722,0.00000665,-0.00000098,0.00000495,-0.00000519,0.0
 0000081,-0.00000329,0.00000021,0.00033711,-0.00093435,-0.00012610,-0.0
 0003910,0.00000786,-0.00067878,-0.00433175,0.00470107,0.00131177,-0.00
 181946,0.00504099,0.00132889,-0.00180677,-0.00269646,0.01158903,-0.000
 34966,0.00306140,-0.00016670,-0.00006923,0.00020667,-0.00004319,-0.036
 01363,-0.09041236,0.10873013,0.00134104,-0.00290760,-0.00147672,-0.000
 02146,0.00005274,0.00000165,-0.00012810,0.00004174,0.00063324,-0.00002
 874,0.00008912,0.00000138,0.00000449,-0.00002445,0.00000873,0.00002103
 ,-0.00004100,-0.00002191,0.04193191,0.08644753,-0.00002033,0.00009827,
 -0.00003623,0.00001225,-0.00005896,0.00003226,-0.00004630,0.00009411,0
 .00003871,0.00009465,-0.00041797,0.00012226,-0.00000394,0.00006857,-0.
 00005211,0.00001709,-0.00004043,-0.00001053,0.00000197,0.00000054,-0.0
 0000108,-0.00000356,-0.00000308,0.00000676,-0.00000072,0.00000124,0.00
 000071,0.00024812,0.00014062,-0.00029266,-0.00087276,-0.00063058,0.000
 44993,-0.00026954,0.00160357,0.00222229,-0.00445331,0.00081838,-0.0012
 3810,-0.00098345,0.00032928,0.00075180,0.00794667,0.01090546,-0.017305
 32,0.00038559,0.00060264,-0.00086300,0.05583492,0.10875532,-0.26821129
 ,0.00089117,-0.00121258,0.00032908,0.00000515,-0.00002262,-0.00002372,
 -0.00013839,0.00005517,-0.00003587,0.00003328,-0.00016495,0.00004043,0
 .00000309,0.00005543,-0.00004872,-0.00002745,0.00006676,0.00001648,-0.
 05904332,-0.11956725,0.28326590,-0.00001020,0.00011808,-0.00005961,0.0
 0000275,-0.00008115,0.00003961,-0.00010642,0.00013459,0.00001088,0.000
 15536,-0.00039013,0.00009451,-0.00001040,0.00008451,-0.00005720,0.0000
 0733,-0.00002658,-0.00001606,0.00000552,0.00000705,0.00000247,0.000006
 47,-0.00000247,0.00000925,0.00000015,0.00000501,0.00000008,0.00025376,
 0.00051953,-0.00066158,0.00258655,-0.00087487,-0.00037071,-0.00086981,
 0.00016003,-0.00003977,-0.00984119,-0.00823103,0.00544286,0.00135373,-
 0.00080379,-0.00297701,-0.18556732,-0.05444726,0.00900578,0.00056223,0
 .00147293,-0.00114980,-0.02334860,-0.01248667,-0.00081676,-0.00029823,
 -0.00028939,0.00017937,0.00003017,-0.00002797,0.00001397,-0.00002010,0
 .00002368,0.00008378,0.00004500,-0.00015120,0.00002651,-0.00000205,0.0
 0004476,-0.00004322,-0.00003522,0.00006067,0.00002397,0.00066615,0.000
 78792,0.00187250,0.50778491,-0.00000590,-0.00012789,0.00009835,0.00001
 225,0.00012778,-0.00006544,0.00008494,-0.00018199,0.00001573,-0.000224
 71,0.00035710,-0.00011208,-0.00003073,-0.00005423,0.00002040,0.0000227
 4,0.00000355,-0.00000140,-0.00000529,-0.00000305,-0.00000270,-0.000010
 31,0.00000196,-0.00001107,0.00000417,-0.00000050,0.00000049,0.00003526
 ,-0.00049112,0.00024294,-0.00028168,0.00576341,0.00254697,-0.00089866,
 -0.00127256,-0.00003364,-0.01572481,-0.00460084,0.00436566,0.00022725,
 0.00586738,0.00273586,-0.05081466,-0.09781420,0.01032106,0.00095588,-0
 .00252655,-0.00128320,-0.00354247,0.00396371,-0.00120236,0.00047283,0.
 00012957,-0.00003609,-0.00002335,0.00003016,-0.00000770,0.00026825,-0.
 00048323,-0.00023656,-0.00005023,0.00016615,-0.00003087,0.00000139,-0.
 00004701,0.00004836,0.00003758,-0.00006280,-0.00002744,0.00170445,-0.0
 0270250,-0.00114101,-0.03022264,0.52574349,-0.00002741,0.00008474,0.00
 004894,-0.00004160,0.00003044,-0.00002768,-0.00002187,0.00004340,0.000
 08306,0.00028390,-0.00072894,0.00000969,-0.00004564,0.00019973,-0.0001
 3234,0.00001200,-0.00011906,-0.00004890,0.00000475,0.00001359,0.000001
 21,0.00000356,-0.00000133,0.00001500,0.00000804,0.00001143,0.00000151,
 0.00152582,0.00134974,-0.00074984,-0.00175906,0.00416000,-0.00297853,-
 0.00000822,-0.00020975,-0.00035848,0.02702373,0.01488062,-0.00025400,-
 0.00250987,0.00116551,-0.00354322,0.01027839,0.01125896,-0.08891521,0.
 00162291,-0.00156484,0.00023201,-0.02158394,-0.01125607,0.00639870,-0.
 00117345,-0.00046211,0.00019331,0.00003574,0.00002176,0.00000504,0.000
 10830,-0.00013472,0.00010549,0.00002524,-0.00006153,0.00001742,-0.0000
 0097,0.00001344,-0.00001434,-0.00002136,0.00002509,0.00001228,-0.00107
 113,-0.00082050,0.00025254,0.01070624,-0.00937369,0.58177710,0.0000040
 9,-0.00009411,0.00005008,-0.00000325,0.00007639,-0.00003085,0.00006524
 ,-0.00010713,-0.00001625,-0.00010300,0.00028599,-0.00005253,-0.0000013
 1,-0.00006084,0.00002759,-0.00000315,0.00001959,0.00000975,-0.00000460
 ,-0.00000406,0.00000038,-0.00000340,0.00000049,-0.00000477,0.00000076,
 -0.00000278,-0.00000037,0.00005588,-0.00035862,0.00023410,-0.00100056,
 0.00115405,-0.00010316,-0.00021226,-0.00042191,0.00029042,-0.00017407,
 0.00040791,-0.00083302,-0.00041018,0.00121126,0.00040967,-0.00103960,-
 0.03111553,-0.00892234,0.00030633,-0.00046866,0.00011528,-0.00083976,-
 0.00024698,0.00106188,-0.00008081,-0.00008123,-0.00005597,-0.00003162,
 0.00004453,-0.00000245,0.00003016,-0.00004035,-0.00001524,-0.00003680,
 0.00013883,-0.00002276,0.00000050,-0.00004337,0.00003629,0.00002932,-0
 .00005567,-0.00002028,0.00016520,-0.00040613,-0.00052862,-0.04611012,0
 .01197668,0.00356160,0.05149549,0.00000915,-0.00006806,0.00003466,-0.0
 0001180,0.00005196,-0.00002614,0.00004347,-0.00006099,-0.00002213,-0.0
 0007510,0.00018442,-0.00005357,0.00001316,-0.00004714,0.00002859,-0.00
 000848,0.00001592,0.00001475,0.00000085,0.00000508,-0.00000185,-0.0000
 0579,0.00000003,-0.00000162,-0.00000037,-0.00000298,-0.00000049,-0.000
 02667,-0.00026456,0.00023695,-0.00055635,0.00069636,0.00010571,0.00010
 566,-0.00001930,-0.00029110,-0.00070742,0.00075440,-0.00067597,-0.0009
 1666,0.00008682,0.00046335,-0.00336452,-0.01199059,-0.00278016,0.00021
 743,-0.00063103,-0.00006019,0.00068351,0.00020907,0.00119325,-0.000091
 04,-0.00001255,0.00000397,-0.00000299,0.00002577,0.00000875,0.00002692
 ,-0.00010676,-0.00003283,-0.00001927,0.00011818,-0.00004772,-0.0000043
 8,-0.00004421,0.00004964,0.00001454,-0.00004321,-0.00000156,0.00013724
 ,-0.00037931,-0.00020603,0.01545597,-0.28206727,-0.07357650,-0.0128500
 0,0.30708421,-0.00000730,-0.00000485,-0.00001000,0.00001766,-0.0000034
 9,0.00000672,-0.00002396,-0.00000121,-0.00000475,0.00006491,0.00003803
 ,0.00001402,-0.00001419,-0.00000975,-0.00000020,-0.00000029,0.00000945
 ,0.00000239,0.00000197,0.00000033,0.00000007,0.00000590,0.00000252,-0.
 00000090,0.00000005,0.00000102,-0.00000006,-0.00004554,0.00005906,-0.0
 0001377,-0.00109025,-0.00086397,-0.00052837,0.00042216,-0.00018033,0.0
 0100707,0.00177205,0.00053962,-0.00068806,0.00058720,0.00081676,-0.000
 53954,-0.00070948,0.00445144,0.00170340,-0.00009325,0.00028814,-0.0000
 8207,-0.00165222,-0.00011922,0.00010409,0.00000061,-0.00003840,-0.0000
 2646,-0.00000666,-0.00000786,-0.00000401,0.00001081,-0.00004634,-0.000
 00974,-0.00000105,0.00000991,-0.00000243,-0.00000013,-0.00000408,0.000
 00147,0.00000106,-0.00000572,-0.00000057,0.00004331,-0.00031286,-0.000
 14695,0.00453357,-0.07271368,-0.06942738,-0.00530724,0.08060566,0.0710
 3138,0.00000272,-0.00004235,0.00001483,0.00000282,0.00001858,-0.000007
 21,0.00006737,-0.00004174,-0.00000175,-0.00005204,0.00019763,-0.000045
 01,0.00001062,-0.00003599,0.00002562,-0.00000581,0.00001209,0.00000802
 ,-0.00000687,-0.00000781,-0.00000157,-0.00000777,0.00000086,-0.0000062
 5,-0.00000256,-0.00000350,-0.00000074,0.00006587,-0.00016093,0.0002324
 2,-0.00027960,-0.00044640,-0.00049160,0.00008442,-0.00003914,0.0005043
 6,0.00147134,0.00032097,-0.00169389,0.00023157,-0.00027587,-0.00157656
 ,-0.02019020,0.01285615,-0.01710843,-0.00025040,-0.00000535,0.00134731
 ,-0.00423455,-0.00231246,0.00247852,-0.00037574,-0.00017409,0.00004559
 ,-0.00005567,0.00002375,-0.00001841,0.00000047,0.00004383,0.00010347,-
 0.00001740,0.00004487,-0.00000610,0.00000311,-0.00001289,0.00001173,0.
 00001468,-0.00001788,-0.00000777,-0.00001085,0.00028349,0.00009581,-0.
 17425887,0.08402937,-0.09962238,-0.00110308,0.00133460,-0.00050873,0.1
 9059899,-0.00000384,0.00002339,-0.00001841,0.00001175,-0.00002369,0.00
 001494,-0.00000222,0.00001863,0.00001789,0.00001610,-0.00002607,0.0000
 2902,-0.00000534,0.00000656,-0.00001113,0.00000009,0.00000123,-0.00000
 888,-0.00000309,-0.00000808,0.00000176,0.00000600,0.00000083,-0.000001
 00,0.00000143,0.00000129,0.00000028,0.00004775,0.00003790,-0.00009123,
 0.00031606,0.00012412,-0.00007367,-0.00006390,0.00016310,-0.00040193,-
 0.00032000,0.00032516,-0.00041476,-0.00079807,-0.00049460,-0.00044585,
 -0.01338169,0.00692353,-0.01031010,0.00013628,0.00013330,0.00013692,-0
 .00206730,-0.00069057,0.00100351,-0.00017711,-0.00015671,-0.00000960,-
 0.00002292,-0.00000969,-0.00001046,0.00000893,-0.00002296,-0.00000039,
 0.00000529,-0.00005303,0.00003144,0.00000312,0.00002282,-0.00003007,-0
 .00000338,0.00001797,-0.00000547,-0.00008448,0.00005031,0.00002935,0.0
 8633803,-0.10336579,0.06980955,0.02177061,-0.01420791,0.01888417,-0.08
 981273,0.11119765,0.00000921,-0.00004635,0.00000731,0.00000494,0.00001
 762,-0.00000750,0.00002810,-0.00005254,-0.00000042,-0.00006727,0.00021
 344,-0.00004552,0.00000732,-0.00004644,0.00002998,-0.00001144,0.000029
 90,0.00000307,-0.00000584,-0.00000897,0.00000188,0.00000295,0.00000274
 ,-0.00000630,0.00000022,-0.00000124,-0.00000033,-0.00007577,-0.0002193
 0,0.00019058,-0.00009373,-0.00061973,-0.00015683,0.00021725,0.00000912
 ,0.00006208,0.00162336,0.00040211,0.00041836,-0.00011477,0.00001502,0.
 00013119,0.00246738,-0.00335043,0.00135360,0.00001301,0.00045691,0.000
 07876,-0.00003418,0.00055656,0.00028708,-0.00000907,-0.00001885,-0.000
 00037,-0.00002432,0.00000681,0.00000095,-0.00007812,0.00009924,0.00007
 114,-0.00002428,0.00006137,0.00000632,0.00000467,-0.00001448,0.0000023
 3,0.00002123,-0.00002936,-0.00001792,0.00022369,-0.00001730,0.00043049
 ,-0.10089865,0.06912416,-0.13187152,0.00804995,-0.00476120,0.00625560,
 0.11097670,-0.07685860,0.13844612,0.00002089,-0.00007503,0.00001599,-0
 .00000208,0.00003052,-0.00001503,0.00003610,-0.00006671,-0.00004101,-0
 .00013392,0.00037704,-0.00004599,0.00002652,-0.00008744,0.00006299,-0.
 00001686,0.00004364,0.00001918,-0.00000247,-0.00000369,0.00000024,-0.0
 0000373,0.00000159,-0.00000738,-0.00000224,-0.00000455,-0.00000096,-0.
 00041345,-0.00056057,0.00027250,0.00105771,-0.00071385,0.00065688,-0.0
 0026359,0.00006999,-0.00017842,-0.00494538,-0.00172674,-0.00088558,0.0
 0007408,-0.00008423,0.00010133,-0.00861384,0.00036882,0.02888165,-0.00
 007505,0.00019660,0.00023543,0.00117679,-0.00063986,0.00133880,0.00002
 575,0.00003481,-0.00001655,-0.00002032,0.00001718,0.00000869,0.0000165
 2,-0.00000455,-0.00008186,-0.00002425,0.00010660,-0.00002851,-0.000001
 24,-0.00003402,0.00003299,0.00001930,-0.00004253,-0.00001179,-0.000752
 20,0.00032050,-0.00105058,-0.07298153,0.00200240,0.07268668,-0.0009954
 0,0.00059836,0.00199903,0.00829740,-0.00191535,-0.02221256,0.07849647,
 0.00001309,-0.00003940,0.00000325,-0.00000459,0.00001454,-0.00001053,0
 .00002457,-0.00004219,0.00000007,-0.00010098,0.00021484,-0.00000808,0.
 00001829,-0.00006124,0.00003385,-0.00000920,0.00003122,0.00000887,-0.0
 0000182,-0.00000726,0.00000449,-0.00000037,0.00000074,-0.00000519,-0.0
 0000081,-0.00000321,-0.00000067,-0.00018976,-0.00042812,0.00017907,-0.
 00030903,-0.00046049,0.00033680,0.00016426,0.00000045,0.00021356,-0.00
 280901,-0.00012539,-0.00019640,0.00015072,-0.00029123,-0.00010290,-0.0
 0580407,-0.00199118,0.01620426,-0.00004366,0.00013203,-0.00017333,0.00
 088788,0.00029528,0.00023041,0.00001110,0.00000298,-0.00001056,-0.0000
 1100,0.00000832,0.00000848,-0.00004271,0.00004509,-0.00000961,-0.00001
 691,0.00004649,0.00000414,0.00000238,-0.00000943,0.00000179,0.00001393
 ,-0.00002117,-0.00001512,-0.00004981,0.00045865,-0.00015925,0.00282242
 ,-0.04635275,-0.00475893,0.00927104,0.00071367,-0.03139436,-0.00577707
 ,0.00001132,0.01504983,0.00179110,0.04785745,-0.00001579,0.00008726,-0
 .00002634,0.00000143,-0.00005025,0.00002518,-0.00001807,0.00009391,0.0
 0002746,0.00005441,-0.00033545,0.00006784,0.00000443,0.00007534,-0.000
 04147,0.00001455,-0.00004319,-0.00001152,0.00000220,0.00000294,-0.0000
 0302,-0.00000537,-0.00000449,0.00000696,-0.00000133,0.00000081,0.00000
 034,0.00013631,0.00033942,-0.00019572,-0.00066942,-0.00014790,0.000048
 29,0.00003453,-0.00012636,0.00034726,0.00119040,-0.00006972,0.00038562
 ,0.00035252,0.00070064,0.00026888,-0.00014896,0.00098398,-0.00137216,-
 0.00007938,-0.00023926,0.00030222,-0.00197994,-0.00042499,0.00048549,0
 .00007245,-0.00000238,-0.00001808,0.00000759,-0.00002232,-0.00001945,0
 .00008487,-0.00011548,0.00000545,0.00003504,-0.00014804,0.00002279,-0.
 00000017,0.00004693,-0.00003304,-0.00002874,0.00006361,0.00002176,0.00
 032669,-0.00051653,0.00030593,0.07504502,-0.00324106,-0.29083186,0.002
 06886,-0.00020622,-0.00864095,0.00525200,-0.00126726,-0.01567013,-0.08
 173615,0.00456606,0.31454228\\-0.00000318,0.00000147,0.00000507,0.0000
 0104,0.00000349,-0.00000616,0.00000144,-0.00000542,-0.00000263,-0.0000
 0198,0.00000122,0.00000521,0.00000144,0.00000423,-0.00000229,0.0000016
 1,-0.00000450,-0.00000142,-0.00000116,-0.00000067,0.00000053,0.0000011
 3,-0.00000088,0.00000087,0.00000093,0.00000012,-0.00000003,-0.00000144
 ,-0.00000181,-0.00000062,-0.00000383,0.00000280,-0.00000178,0.00000085
 ,-0.00000096,0.00000561,0.00000453,0.00000141,-0.00000232,0.00000170,0
 .00000243,-0.00000212,0.00000252,-0.00000037,0.00000381,0.00000026,-0.
 00000061,0.00000003,-0.00000426,-0.00000048,-0.00000136,-0.00000035,0.
 00000071,0.00000082,-0.00000052,0.00000097,0.00000042,0.00000030,-0.00
 000003,0.00000181,0.00000158,0.00000632,-0.00000325,-0.00000313,-0.000
 00225,0.00000705,0.00000208,-0.00000536,-0.00000622,-0.00000106,-0.000
 00050,0.00000038,0.00000057,-0.00000276,-0.00000232,0.00000028,0.00000
 026,0.00000073,-0.00000024,0.00000076,-0.00000015,-0.00000112,0.000000
 42,0.00000031\\\@


 ERWIN WITH HIS PSI CAN DO
 CALCULATIONS QUITE A FEW.
 BUT ONE THING HAS NOT BEEN SEEN
 JUST WHAT DOES PSI REALLY MEAN.
 -- WALTER HUCKEL, TRANS. BY FELIX BLOCH
 Job cpu time:       0 days  2 hours 38 minutes 26.8 seconds.
 Elapsed time:       0 days  0 hours  5 minutes 17.0 seconds.
 File lengths (MBytes):  RWF=    352 Int=      0 D2E=      0 Chk=     12 Scr=      1
 Normal termination of Gaussian 16 at Fri Sep 15 10:28:06 2023.
