 Entering Gaussian System, Link 0=g16
 Input=/home/ubuntu/products/molecule_34a.gjf
 Output=/home/ubuntu/products/molecule_34a.log
 Initial command:
 /home/ubuntu/g16/l1.exe "/home/ubuntu/Scratch/Gau-57301.inp" -scrdir="/home/ubuntu/Scratch/"
 Entering Link 1 = /home/ubuntu/g16/l1.exe PID=     57305.
  
 Copyright (c) 1988-2017, Gaussian, Inc.  All Rights Reserved.
  
 This is part of the Gaussian(R) 16 program.  It is based on
 the Gaussian(R) 09 system (copyright 2009, Gaussian, Inc.),
 the Gaussian(R) 03 system (copyright 2003, Gaussian, Inc.),
 the Gaussian(R) 98 system (copyright 1998, Gaussian, Inc.),
 the Gaussian(R) 94 system (copyright 1995, Gaussian, Inc.),
 the Gaussian 92(TM) system (copyright 1992, Gaussian, Inc.),
 the Gaussian 90(TM) system (copyright 1990, Gaussian, Inc.),
 the Gaussian 88(TM) system (copyright 1988, Gaussian, Inc.),
 the Gaussian 86(TM) system (copyright 1986, Carnegie Mellon
 University), and the Gaussian 82(TM) system (copyright 1983,
 Carnegie Mellon University). Gaussian is a federally registered
 trademark of Gaussian, Inc.
  
 This software contains proprietary and confidential information,
 including trade secrets, belonging to Gaussian, Inc.
  
 This software is provided under written license and may be
 used, copied, transmitted, or stored only in accord with that
 written license.
  
 The following legend is applicable only to US Government
 contracts under FAR:
  
                    RESTRICTED RIGHTS LEGEND
  
 Use, reproduction and disclosure by the US Government is
 subject to restrictions as set forth in subparagraphs (a)
 and (c) of the Commercial Computer Software - Restricted
 Rights clause in FAR 52.227-19.
  
 Gaussian, Inc.
 340 Quinnipiac St., Bldg. 40, Wallingford CT 06492
  
  
 ---------------------------------------------------------------
 Warning -- This program may not be used in any manner that
 competes with the business of Gaussian, Inc. or will provide
 assistance to any competitor of Gaussian, Inc.  The licensee
 of this program is prohibited from giving any competitor of
 Gaussian, Inc. access to this program.  By using this program,
 the user acknowledges that Gaussian, Inc. is engaged in the
 business of creating and licensing software in the field of
 computational chemistry and represents and warrants to the
 licensee that it is not a competitor of Gaussian, Inc. and that
 it will not use this program in any manner prohibited above.
 ---------------------------------------------------------------
  

 Cite this work as:
 Gaussian 16, Revision B.01,
 M. J. Frisch, G. W. Trucks, H. B. Schlegel, G. E. Scuseria, 
 M. A. Robb, J. R. Cheeseman, G. Scalmani, V. Barone, 
 G. A. Petersson, H. Nakatsuji, X. Li, M. Caricato, A. V. Marenich, 
 J. Bloino, B. G. Janesko, R. Gomperts, B. Mennucci, H. P. Hratchian, 
 J. V. Ortiz, A. F. Izmaylov, J. L. Sonnenberg, D. Williams-Young, 
 F. Ding, F. Lipparini, F. Egidi, J. Goings, B. Peng, A. Petrone, 
 T. Henderson, D. Ranasinghe, V. G. Zakrzewski, J. Gao, N. Rega, 
 G. Zheng, W. Liang, M. Hada, M. Ehara, K. Toyota, R. Fukuda, 
 J. Hasegawa, M. Ishida, T. Nakajima, Y. Honda, O. Kitao, H. Nakai, 
 T. Vreven, K. Throssell, J. A. Montgomery, Jr., J. E. Peralta, 
 F. Ogliaro, M. J. Bearpark, J. J. Heyd, E. N. Brothers, K. N. Kudin, 
 V. N. Staroverov, T. A. Keith, R. Kobayashi, J. Normand, 
 K. Raghavachari, A. P. Rendell, J. C. Burant, S. S. Iyengar, 
 J. Tomasi, M. Cossi, J. M. Millam, M. Klene, C. Adamo, R. Cammi, 
 J. W. Ochterski, R. L. Martin, K. Morokuma, O. Farkas, 
 J. B. Foresman, and D. J. Fox, Gaussian, Inc., Wallingford CT, 2016.
 
 ******************************************
 Gaussian 16:  EM64L-G16RevB.01 20-Dec-2017
                18-Sep-2023 
 ******************************************
 %nprocshared=30
 Will use up to   30 processors via shared memory.
 %mem=30GB
 %chk=molecule_34a.chk
 ----------------------------------------------------------------------
 # opt=cartesian freq b3lyp/6-31+g(d) nosymm empiricaldispersion=gd3 sc
 f=maxcycle=1000 volume
 ----------------------------------------------------------------------
 1/10=7,18=10,26=3,38=1/1,3;
 2/12=2,15=1,17=6,18=5,29=2,40=1/2;
 3/5=1,6=6,7=11,11=2,25=1,30=1,71=1,74=-5,124=31/1,2,3;
 4//1;
 5/5=2,7=1000,38=5/2;
 6/7=2,8=2,9=2,10=2,28=1,44=1/1,4;
 7/7=1,29=1,30=1/1,2,3,16;
 1/10=7,18=10,26=3/3(2);
 2/15=1,29=1/2;
 99/12=1/99;
 2/15=1,29=1/2;
 3/5=1,6=6,7=11,11=2,25=1,30=1,71=1,74=-5,124=31/1,2,3;
 4/5=5,16=3,69=1/1;
 5/5=2,7=1000,38=5/2;
 7/7=1,30=1/1,2,3,16;
 1/18=10,26=3/3(-5);
 2/15=1,29=1/2;
 6/7=2,8=2,9=2,10=2,19=2,28=1,44=1/1,4;
 99/9=1,12=1/99;
 -------------------
 Title Card Required
 -------------------
 Symbolic Z-matrix:
 Charge =  0 Multiplicity = 1
 C                     0.        0.        0. 
 C                     0.        0.        1.2012 
 C                     0.00001   0.        2.6026 
 C                    -1.21364  -0.00171   3.30329 
 C                     1.21367   0.0017    3.30331 
 C                    -1.21365  -0.00177   4.7047 
 H                    -2.14028  -0.00298   2.76827 
 C                     1.21365   0.00166   4.70472 
 H                     2.14032   0.00304   2.76831 
 C                    0.        -0.00009   5.40541 
 H                    -2.1403   -0.0031    5.2397 
 H                     2.14029   0.00295   5.23975 
 H                    -0.00001  -0.00012   6.47541 
 C                     0.00015   0.       -1.54001 
 C                     0.72525   1.25794  -2.05329 
 H                    -1.00863  -0.00075  -1.89677 
 H                     0.50523  -0.87328  -1.89663 
 H                     0.2202    2.13123  -1.69668 
 H                     1.73403   1.25866  -1.69652 
 C                     0.72542   1.25793  -3.59328 
 H                     1.23045   0.38462  -3.94989 
 H                    -0.28335   1.25724  -3.95005 
 C                     1.45059   2.51582  -4.10656 
 H                     2.45936   2.5165   -3.74979 
 H                     1.45069   2.5158   -5.17656 
 H                     0.94556   3.38914  -3.74996 
 

 GradGradGradGradGradGradGradGradGradGradGradGradGradGradGradGradGradGrad
 Berny optimization.
 Initialization pass.
 No Z-matrix variables, so optimization will use Cartesian coordinates.
 Trust Radius=3.00D-01 FncErr=1.00D-07 GrdErr=1.00D-06 EigMax=2.50D+02 EigMin=1.00D-04
 Number of steps in this run=     88 maximum allowed number of steps=    156.
 GradGradGradGradGradGradGradGradGradGradGradGradGradGradGradGradGradGrad

 ---------------------------------------------------------------------------------------------------
                            Z-MATRIX (ANGSTROMS AND DEGREES)
   CD    Cent   Atom    N1       Length/X        N2       Alpha/Y        N3        Beta/Z          J
 ---------------------------------------------------------------------------------------------------
      1      1  C        0   0.000000          0.000000          0.000000
      2      2  C        0   0.000000          0.000000          1.201195
      3      3  C        0   0.000015          0.000000          2.602600
      4      4  C        0  -1.213641         -0.001714          3.303290
      5      5  C        0   1.213668          0.001702          3.303313
      6      6  C        0  -1.213650         -0.001769          4.704700
      7      7  H        0  -2.140284         -0.002981          2.768272
      8      8  C        0   1.213654          0.001655          4.704725
      9      9  H        0   2.140322          0.003042          2.768315
     10     10  C        0  -0.000004         -0.000085          5.405410
     11     11  H        0  -2.140298         -0.003099          5.239702
     12     12  H        0   2.140294          0.002955          5.239749
     13     13  H        0  -0.000011         -0.000121          6.475412
     14     14  C        0   0.000145          0.000000         -1.540009
     15     15  C        0   0.725255          1.257939         -2.053286
     16     16  H        0  -1.008633         -0.000750         -1.896766
     17     17  H        0   0.505227         -0.873280         -1.896629
     18     18  H        0   0.220195          2.131235         -1.696678
     19     19  H        0   1.734027          1.258662         -1.696522
     20     20  C        0   0.725418          1.257931         -3.593284
     21     21  H        0   1.230453          0.384622         -3.949888
     22     22  H        0  -0.283348          1.257243         -3.950055
     23     23  C        0   1.450587          2.515819         -4.106557
     24     24  H        0   2.459357          2.516504         -3.749786
     25     25  H        0   1.450694          2.515803         -5.176556
     26     26  H        0   0.945561          3.389136         -3.749955
 ---------------------------------------------------------------------------------------------------
                         Z-Matrix orientation:                         
 ---------------------------------------------------------------------
 Center     Atomic      Atomic             Coordinates (Angstroms)
 Number     Number       Type             X           Y           Z
 ---------------------------------------------------------------------
      1          6           0        0.000000    0.000000    0.000000
      2          6           0        0.000000    0.000000    1.201195
      3          6           0        0.000015    0.000000    2.602600
      4          6           0       -1.213641   -0.001714    3.303290
      5          6           0        1.213668    0.001702    3.303313
      6          6           0       -1.213650   -0.001769    4.704700
      7          1           0       -2.140284   -0.002981    2.768272
      8          6           0        1.213654    0.001655    4.704725
      9          1           0        2.140322    0.003042    2.768315
     10          6           0       -0.000004   -0.000085    5.405410
     11          1           0       -2.140298   -0.003099    5.239702
     12          1           0        2.140294    0.002955    5.239749
     13          1           0       -0.000011   -0.000121    6.475412
     14          6           0        0.000145    0.000000   -1.540009
     15          6           0        0.725255    1.257939   -2.053286
     16          1           0       -1.008633   -0.000750   -1.896766
     17          1           0        0.505227   -0.873280   -1.896629
     18          1           0        0.220195    2.131235   -1.696678
     19          1           0        1.734027    1.258662   -1.696522
     20          6           0        0.725418    1.257931   -3.593284
     21          1           0        1.230453    0.384622   -3.949888
     22          1           0       -0.283348    1.257243   -3.950055
     23          6           0        1.450587    2.515819   -4.106557
     24          1           0        2.459357    2.516504   -3.749786
     25          1           0        1.450694    2.515803   -5.176556
     26          1           0        0.945561    3.389136   -3.749955
 ---------------------------------------------------------------------
                    Distance matrix (angstroms):
                    1          2          3          4          5
     1  C    0.000000
     2  C    1.201195   0.000000
     3  C    2.602600   1.401404   0.000000
     4  C    3.519183   2.427288   1.401403   0.000000
     5  C    3.519214   2.427321   1.401412   2.427311   0.000000
     6  C    4.858719   3.707761   2.427305   1.401410   2.802815
     7  H    3.499165   2.652651   2.146704   1.070007   3.396363
     8  C    4.858744   3.707786   2.427314   2.802818   1.401412
     9  H    3.499222   2.652706   2.146715   3.396364   1.070006
    10  C    5.405410   4.204214   2.802810   2.427308   2.427306
    11  H    5.659979   4.570604   3.396360   2.146716   3.872818
    12  H    5.660021   4.570644   3.396375   3.872825   2.146724
    13  H    6.475412   5.274216   3.872812   3.396359   3.396356
    14  C    1.540009   2.741205   4.142609   4.993078   4.993036
    15  C    2.514834   3.563714   4.877054   5.834291   5.523570
    16  H    2.148270   3.258022   4.611037   5.204096   5.655037
    17  H    2.148272   3.257973   4.610956   5.545565   5.320420
    18  H    2.733013   3.603931   4.803585   5.621835   5.524654
    19  H    2.732996   3.603865   4.803486   5.939311   5.181609
    20  C    3.875604   5.009556   6.363770   7.273883   7.027057
    21  H    4.154945   5.309954   6.678099   7.663644   7.263321
    22  H    4.154982   5.310021   6.678191   7.420339   7.511909
    23  C    5.029648   6.050271   7.310696   8.266916   7.828351
    24  H    5.142190   6.073997   7.261815   8.341355   7.590926
    25  H    5.935529   7.007816   8.303553   9.238201   8.847884
    26  H    5.142227   6.074062   7.261905   8.118392   7.829124
                    6          7          8          9         10
     6  C    0.000000
     7  H    2.146720   0.000000
     8  C    2.427307   3.872825   0.000000
     9  H    3.872821   4.280610   2.146718   0.000000
    10  C    1.401404   3.396366   1.401402   3.396362   0.000000
    11  H    1.070003   2.471430   3.396354   4.942823   2.146701
    12  H    3.396357   4.942832   1.070007   2.471435   2.146702
    13  H    2.146705   4.280614   2.146700   4.280608   1.070002
    14  C    6.361579   4.810690   6.361549   4.810615   6.945419
    15  C    7.142590   5.748796   6.891117   5.179287   7.598734
    16  H    6.604649   4.800335   6.965504   5.628402   7.371506
    17  H    6.876890   5.432997   6.696659   5.020276   7.371397
    18  H    6.898061   5.482930   6.819092   5.305869   7.418265
    19  H    7.159129   6.044536   6.544220   4.655795   7.418136
    20  C    8.614137   7.090242   8.406756   6.636763   9.115115
    21  H    9.001380   7.526339   8.663098   6.790266   9.443708
    22  H    8.795189   7.083240   8.872582   7.251461   9.443827
    23  C    9.543304   8.154875   9.166015   7.352118   9.945426
    24  H    9.555679   8.365978   8.908141   6.993204   9.808123
    25  H   10.539265   9.075224  10.198864   8.361251  10.973250
    26  H    9.361711   7.969704   9.111998   7.441837   9.808243
                   11         12         13         14         15
    11  H    0.000000
    12  H    4.280596   0.000000
    13  H    2.471399   2.471392   0.000000
    14  C    7.109571   7.109527   8.015421   0.000000
    15  C    7.936579   7.534301   8.651440   1.540016   0.000000
    16  H    7.225639   7.800360   8.432715   1.070005   2.148294
    17  H    7.660499   7.373542   8.432600   1.070002   2.148267
    18  H    7.631558   7.505356   8.448326   2.148285   1.070000
    19  H    8.044479   7.060717   8.448191   2.148271   1.070000
    20  C    9.371455   9.033233  10.172884   2.514825   1.539998
    21  H    9.795962   9.242452  10.504711   2.732967   2.148257
    22  H    9.459829   9.586437  10.504836   2.733011   2.148258
    23  C   10.324338   9.702763  10.973251   3.875602   2.514814
    24  H   10.407503   9.339779  10.813721   4.154952   2.732985
    25  H   11.302147  10.737289  12.008446   4.653797   3.444314
    26  H   10.091765   9.680310  10.813848   4.154987   2.732988
                   16         17         18         19         20
    16  H    0.000000
    17  H    1.747307   0.000000
    18  H    2.468889   3.024621   0.000000
    19  H    3.024632   2.468839   1.747304   0.000000
    20  C    2.733017   2.732980   2.148261   2.148254   0.000000
    21  H    3.062243   2.514785   3.024605   2.468844   1.069998
    22  H    2.514872   3.062277   2.468831   3.024601   1.069998
    23  C    4.155004   4.154934   2.732999   2.732956   1.540001
    24  H    4.668748   4.329370   3.062276   2.514788   2.148265
    25  H    4.810234   4.810168   3.711007   3.710972   2.148260
    26  H    4.329494   4.668716   2.514840   3.062219   2.148266
                   21         22         23         24         25
    21  H    0.000000
    22  H    1.747302   0.000000
    23  C    2.148257   2.148263   0.000000
    24  H    2.468839   3.024612   1.070002   0.000000
    25  H    2.468837   2.468842   1.069999   1.747305   0.000000
    26  H    3.024607   2.468851   1.070000   1.747303   1.747301
                   26
    26  H    0.000000
 Symmetry turned off by external request.
 Stoichiometry    C12H14
 Framework group  C1[X(C12H14)]
 Deg. of freedom    72
 Full point group                 C1      NOp   1
 Rotational constants (GHZ):           3.2462425           0.2725663           0.2618430
 Standard basis: 6-31+G(d) (6D, 7F)
   256 basis functions,   440 primitive gaussians,   256 cartesian basis functions
    43 alpha electrons       43 beta electrons
       nuclear repulsion energy       581.4706777000 Hartrees.
 NAtoms=   26 NActive=   26 NUniq=   26 SFac= 1.00D+00 NAtFMM=   60 NAOKFM=F Big=F
 Integral buffers will be    131072 words long.
 Raffenetti 2 integral format.
 Two-electron integral symmetry is turned off.
 Nuclear repulsion after empirical dispersion term =      581.4544036759 Hartrees.
 One-electron integrals computed using PRISM.
 NBasis=   256 RedAO= T EigKep=  3.11D-06  NBF=   256
 NBsUse=   254 1.00D-06 EigRej=  1.52D-07 NBFU=   254
 ExpMin= 4.38D-02 ExpMax= 3.05D+03 ExpMxC= 4.57D+02 IAcc=3 IRadAn=         5 AccDes= 0.00D+00
 Harris functional with IExCor=  402 and IRadAn=       5 diagonalized for initial guess.
 HarFok:  IExCor=  402 AccDes= 0.00D+00 IRadAn=         5 IDoV= 1 UseB2=F ITyADJ=14
 ICtDFT=  3500011 ScaDFX=  1.000000  1.000000  1.000000  1.000000
 FoFCou: FMM=F IPFlag=           0 FMFlag=      100000 FMFlg1=           0
         NFxFlg=           0 DoJE=T BraDBF=F KetDBF=T FulRan=T
         wScrn=  0.000000 ICntrl=       500 IOpCl=  0 I1Cent=   200000004 NGrid=           0
         NMat0=    1 NMatS0=      1 NMatT0=    0 NMatD0=    1 NMtDS0=    0 NMtDT0=    0
 Symmetry not used in FoFCou.
 Requested convergence on RMS density matrix=1.00D-08 within1000 cycles.
 Requested convergence on MAX density matrix=1.00D-06.
 Requested convergence on             energy=1.00D-06.
 No special actions if energy rises.
 SCF Done:  E(RB3LYP) =  -465.683534606     A.U. after   14 cycles
            NFock= 14  Conv=0.60D-08     -V/T= 2.0092

 **********************************************************************

            Population analysis using the SCF Density.

 **********************************************************************

 Alpha  occ. eigenvalues --  -10.21397 -10.21184 -10.19803 -10.19793 -10.19743
 Alpha  occ. eigenvalues --  -10.19735 -10.19687 -10.18810 -10.18468 -10.18216
 Alpha  occ. eigenvalues --  -10.17814 -10.17147  -0.86531  -0.81626  -0.78578
 Alpha  occ. eigenvalues --   -0.75512  -0.75264  -0.71216  -0.65055  -0.61892
 Alpha  occ. eigenvalues --   -0.61498  -0.59495  -0.54380  -0.49272  -0.49170
 Alpha  occ. eigenvalues --   -0.46141  -0.45853  -0.44025  -0.43881  -0.43395
 Alpha  occ. eigenvalues --   -0.42972  -0.39138  -0.38140  -0.37582  -0.36216
 Alpha  occ. eigenvalues --   -0.35742  -0.34659  -0.34615  -0.33651  -0.30356
 Alpha  occ. eigenvalues --   -0.26507  -0.25797  -0.22756
 Alpha virt. eigenvalues --   -0.03245  -0.01620   0.00637   0.01455   0.02107
 Alpha virt. eigenvalues --    0.02512   0.02830   0.03480   0.04319   0.04947
 Alpha virt. eigenvalues --    0.05284   0.05797   0.06158   0.06464   0.06805
 Alpha virt. eigenvalues --    0.07126   0.07670   0.07841   0.08751   0.08934
 Alpha virt. eigenvalues --    0.09457   0.09674   0.10762   0.11155   0.11767
 Alpha virt. eigenvalues --    0.12327   0.13036   0.14324   0.14872   0.15192
 Alpha virt. eigenvalues --    0.15348   0.15686   0.16199   0.16323   0.17210
 Alpha virt. eigenvalues --    0.17487   0.17700   0.18436   0.19133   0.19853
 Alpha virt. eigenvalues --    0.20671   0.21172   0.21311   0.21559   0.22007
 Alpha virt. eigenvalues --    0.22910   0.23055   0.23521   0.24402   0.24478
 Alpha virt. eigenvalues --    0.24715   0.26074   0.26300   0.26800   0.27092
 Alpha virt. eigenvalues --    0.27282   0.28016   0.28940   0.29310   0.30069
 Alpha virt. eigenvalues --    0.30718   0.30918   0.31523   0.32521   0.32722
 Alpha virt. eigenvalues --    0.33450   0.34564   0.35260   0.35655   0.36175
 Alpha virt. eigenvalues --    0.38619   0.39391   0.41647   0.46194   0.56130
 Alpha virt. eigenvalues --    0.56938   0.59955   0.63369   0.63872   0.66332
 Alpha virt. eigenvalues --    0.67350   0.67972   0.68481   0.68825   0.70238
 Alpha virt. eigenvalues --    0.71054   0.71210   0.71907   0.72823   0.73299
 Alpha virt. eigenvalues --    0.74076   0.74860   0.75600   0.76478   0.77391
 Alpha virt. eigenvalues --    0.78534   0.80178   0.81252   0.82393   0.83306
 Alpha virt. eigenvalues --    0.83834   0.84843   0.87074   0.88979   0.92332
 Alpha virt. eigenvalues --    0.93367   0.93717   0.94715   0.96218   0.97003
 Alpha virt. eigenvalues --    0.98077   0.99862   1.00305   1.01896   1.01995
 Alpha virt. eigenvalues --    1.02555   1.04045   1.05539   1.08644   1.12497
 Alpha virt. eigenvalues --    1.13103   1.14202   1.14416   1.15167   1.15899
 Alpha virt. eigenvalues --    1.18203   1.20620   1.21386   1.24361   1.27776
 Alpha virt. eigenvalues --    1.28464   1.31148   1.34629   1.35721   1.43656
 Alpha virt. eigenvalues --    1.43855   1.43992   1.44186   1.46004   1.48157
 Alpha virt. eigenvalues --    1.48801   1.50113   1.52537   1.55037   1.57362
 Alpha virt. eigenvalues --    1.59385   1.62985   1.69135   1.76383   1.79083
 Alpha virt. eigenvalues --    1.84885   1.87719   1.88692   1.89252   1.91997
 Alpha virt. eigenvalues --    1.93515   1.95129   1.96019   1.98294   1.98534
 Alpha virt. eigenvalues --    2.00847   2.01104   2.03307   2.06681   2.08173
 Alpha virt. eigenvalues --    2.11601   2.12888   2.14578   2.14777   2.17168
 Alpha virt. eigenvalues --    2.18146   2.20348   2.26574   2.28923   2.29781
 Alpha virt. eigenvalues --    2.30846   2.31142   2.33541   2.37487   2.41898
 Alpha virt. eigenvalues --    2.43522   2.47977   2.56368   2.58323   2.61369
 Alpha virt. eigenvalues --    2.62835   2.63966   2.64101   2.68257   2.74074
 Alpha virt. eigenvalues --    2.74485   2.75959   2.80989   2.89633   2.93350
 Alpha virt. eigenvalues --    2.98898   3.21534   3.37348   3.58067   4.18571
 Alpha virt. eigenvalues --    4.24249   4.24424   4.26440   4.28102   4.35945
 Alpha virt. eigenvalues --    4.39445   4.39744   4.51645   4.59782   4.71609
 Alpha virt. eigenvalues --    4.93624
          Condensed to atoms (all electrons):
               1          2          3          4          5          6
     1  C    9.268099   0.437163   0.448855  -0.122533  -0.071001  -0.097124
     2  C    0.437163   6.377505  -1.459236   1.001588   0.423538  -0.570274
     3  C    0.448855  -1.459236  12.793454  -2.902475  -1.884826   0.730345
     4  C   -0.122533   1.001588  -2.902475  19.814745 -10.430718  -3.983161
     5  C   -0.071001   0.423538  -1.884826 -10.430718  19.880755   2.365004
     6  C   -0.097124  -0.570274   0.730345  -3.983161   2.365004   7.949960
     7  H    0.007782   0.016582  -0.019475   0.296549   0.041499  -0.065946
     8  C   -0.104777  -0.336795   0.631774   2.516691  -4.046229  -1.134351
     9  H    0.008491   0.010889  -0.015897   0.040799   0.295555  -0.012012
    10  C    0.055907  -0.086925  -0.267721  -0.393220  -0.326392   0.688633
    11  H   -0.000425  -0.003474  -0.006752  -0.031672  -0.008823   0.314191
    12  H   -0.000666  -0.003793  -0.006835  -0.008310  -0.022124   0.010612
    13  H    0.000564   0.000750  -0.001993   0.014531   0.012372  -0.013246
    14  C   -3.517662   0.095900  -2.059809   0.380847   0.076892  -0.144393
    15  C   -0.204407   0.033942  -0.025864   0.071778  -0.057700   0.007792
    16  H   -0.181110  -0.002762  -0.022135   0.014240  -0.007096   0.000967
    17  H   -0.168386  -0.004193  -0.016128  -0.006119   0.006690  -0.000462
    18  H    0.021819  -0.002806   0.000118  -0.003930   0.002799  -0.000144
    19  H    0.014168  -0.008464   0.004106   0.001968  -0.002327  -0.000045
    20  C    0.102027  -0.018474   0.000613  -0.008867   0.010964  -0.002858
    21  H   -0.031125  -0.001668  -0.000781  -0.000047   0.000050   0.000001
    22  H   -0.039137  -0.002587  -0.000920   0.000060  -0.000004  -0.000007
    23  C   -0.324090  -0.015674  -0.029367   0.004631  -0.003648   0.000074
    24  H   -0.010083  -0.001137  -0.000244  -0.000008   0.000024  -0.000001
    25  H   -0.002486  -0.000016  -0.000018   0.000002  -0.000004   0.000000
    26  H   -0.008894  -0.000573  -0.000249  -0.000002   0.000017   0.000001
               7          8          9         10         11         12
     1  C    0.007782  -0.104777   0.008491   0.055907  -0.000425  -0.000666
     2  C    0.016582  -0.336795   0.010889  -0.086925  -0.003474  -0.003793
     3  C   -0.019475   0.631774  -0.015897  -0.267721  -0.006752  -0.006835
     4  C    0.296549   2.516691   0.040799  -0.393220  -0.031672  -0.008310
     5  C    0.041499  -4.046229   0.295555  -0.326392  -0.008823  -0.022124
     6  C   -0.065946  -1.134351  -0.012012   0.688633   0.314191   0.010612
     7  H    0.533498  -0.012381  -0.000153   0.010860  -0.004723   0.000017
     8  C   -0.012381   7.744168  -0.062497   0.644856   0.011428   0.306843
     9  H   -0.000153  -0.062497   0.534028   0.011587   0.000017  -0.004713
    10  C    0.010860   0.644856   0.011587   5.491818   0.017431   0.016204
    11  H   -0.004723   0.011428   0.000017   0.017431   0.539010  -0.000172
    12  H    0.000017   0.306843  -0.004713   0.016204  -0.000172   0.539151
    13  H   -0.000154  -0.011955  -0.000154   0.289661  -0.005033  -0.005035
    14  C    0.008116  -0.074023   0.006385   0.036151  -0.000011  -0.000072
    15  C   -0.000543  -0.013886  -0.000423   0.001023  -0.000002  -0.000008
    16  H   -0.000003  -0.000488   0.000000   0.000077   0.000000   0.000000
    17  H    0.000000  -0.000099  -0.000001   0.000017   0.000000   0.000000
    18  H    0.000000   0.000190   0.000000  -0.000031   0.000000   0.000000
    19  H    0.000000   0.000159   0.000001   0.000026   0.000000   0.000000
    20  C    0.000013   0.005120  -0.000017   0.000022   0.000000   0.000000
    21  H    0.000000  -0.000007   0.000000   0.000000   0.000000   0.000000
    22  H    0.000000   0.000006   0.000000   0.000000   0.000000   0.000000
    23  C   -0.000001  -0.001380   0.000009   0.000072   0.000000   0.000000
    24  H    0.000000   0.000002   0.000000   0.000000   0.000000   0.000000
    25  H    0.000000   0.000000   0.000000   0.000000   0.000000   0.000000
    26  H    0.000000  -0.000001   0.000000   0.000000   0.000000   0.000000
              13         14         15         16         17         18
     1  C    0.000564  -3.517662  -0.204407  -0.181110  -0.168386   0.021819
     2  C    0.000750   0.095900   0.033942  -0.002762  -0.004193  -0.002806
     3  C   -0.001993  -2.059809  -0.025864  -0.022135  -0.016128   0.000118
     4  C    0.014531   0.380847   0.071778   0.014240  -0.006119  -0.003930
     5  C    0.012372   0.076892  -0.057700  -0.007096   0.006690   0.002799
     6  C   -0.013246  -0.144393   0.007792   0.000967  -0.000462  -0.000144
     7  H   -0.000154   0.008116  -0.000543  -0.000003   0.000000   0.000000
     8  C   -0.011955  -0.074023  -0.013886  -0.000488  -0.000099   0.000190
     9  H   -0.000154   0.006385  -0.000423   0.000000  -0.000001   0.000000
    10  C    0.289661   0.036151   0.001023   0.000077   0.000017  -0.000031
    11  H   -0.005033  -0.000011  -0.000002   0.000000   0.000000   0.000000
    12  H   -0.005035  -0.000072  -0.000008   0.000000   0.000000   0.000000
    13  H    0.542922   0.000050   0.000000   0.000000   0.000000   0.000000
    14  C    0.000050  11.287007  -0.189854   0.553486   0.557220  -0.049045
    15  C    0.000000  -0.189854   6.553671  -0.057671  -0.068633   0.379168
    16  H    0.000000   0.553486  -0.057671   0.508659  -0.035061  -0.005338
    17  H    0.000000   0.557220  -0.068633  -0.035061   0.508410   0.004794
    18  H    0.000000  -0.049045   0.379168  -0.005338   0.004794   0.518485
    19  H    0.000000  -0.047646   0.381825   0.004771  -0.005280  -0.033103
    20  C    0.000000   0.125602  -0.441696  -0.001430  -0.002947  -0.031152
    21  H    0.000000   0.020146  -0.088168  -0.000549   0.003211   0.004965
    22  H    0.000000   0.020966  -0.091878   0.003216  -0.000537  -0.005544
    23  C    0.000000   0.182548   0.104615   0.001213  -0.000621  -0.013603
    24  H    0.000000   0.002171  -0.003614  -0.000002  -0.000002  -0.000481
    25  H    0.000000  -0.002028   0.021880   0.000000   0.000000  -0.000004
    26  H    0.000000   0.001065  -0.001338  -0.000002  -0.000002   0.003368
              19         20         21         22         23         24
     1  C    0.014168   0.102027  -0.031125  -0.039137  -0.324090  -0.010083
     2  C   -0.008464  -0.018474  -0.001668  -0.002587  -0.015674  -0.001137
     3  C    0.004106   0.000613  -0.000781  -0.000920  -0.029367  -0.000244
     4  C    0.001968  -0.008867  -0.000047   0.000060   0.004631  -0.000008
     5  C   -0.002327   0.010964   0.000050  -0.000004  -0.003648   0.000024
     6  C   -0.000045  -0.002858   0.000001  -0.000007   0.000074  -0.000001
     7  H    0.000000   0.000013   0.000000   0.000000  -0.000001   0.000000
     8  C    0.000159   0.005120  -0.000007   0.000006  -0.001380   0.000002
     9  H    0.000001  -0.000017   0.000000   0.000000   0.000009   0.000000
    10  C    0.000026   0.000022   0.000000   0.000000   0.000072   0.000000
    11  H    0.000000   0.000000   0.000000   0.000000   0.000000   0.000000
    12  H    0.000000   0.000000   0.000000   0.000000   0.000000   0.000000
    13  H    0.000000   0.000000   0.000000   0.000000   0.000000   0.000000
    14  C   -0.047646   0.125602   0.020146   0.020966   0.182548   0.002171
    15  C    0.381825  -0.441696  -0.088168  -0.091878   0.104615  -0.003614
    16  H    0.004771  -0.001430  -0.000549   0.003216   0.001213  -0.000002
    17  H   -0.005280  -0.002947   0.003211  -0.000537  -0.000621  -0.000002
    18  H   -0.033103  -0.031152   0.004965  -0.005544  -0.013603  -0.000481
    19  H    0.519311  -0.029762  -0.005516   0.004951  -0.010792   0.003375
    20  C   -0.029762   6.640193   0.408515   0.415208  -0.586903  -0.118960
    21  H   -0.005516   0.408515   0.536176  -0.036607  -0.000696  -0.005190
    22  H    0.004951   0.415208  -0.036607   0.536063   0.004581   0.004839
    23  C   -0.010792  -0.586903  -0.000696   0.004581   6.192136   0.476754
    24  H    0.003375  -0.118960  -0.005190   0.004839   0.476754   0.510149
    25  H   -0.000004  -0.110700  -0.002793  -0.002780   0.444426  -0.028493
    26  H   -0.000481  -0.119523   0.004837  -0.005195   0.474483  -0.032271
              25         26
     1  C   -0.002486  -0.008894
     2  C   -0.000016  -0.000573
     3  C   -0.000018  -0.000249
     4  C    0.000002  -0.000002
     5  C   -0.000004   0.000017
     6  C    0.000000   0.000001
     7  H    0.000000   0.000000
     8  C    0.000000  -0.000001
     9  H    0.000000   0.000000
    10  C    0.000000   0.000000
    11  H    0.000000   0.000000
    12  H    0.000000   0.000000
    13  H    0.000000   0.000000
    14  C   -0.002028   0.001065
    15  C    0.021880  -0.001338
    16  H    0.000000  -0.000002
    17  H    0.000000  -0.000002
    18  H   -0.000004   0.003368
    19  H   -0.000004  -0.000481
    20  C   -0.110700  -0.119523
    21  H   -0.002793   0.004837
    22  H   -0.002780  -0.005195
    23  C    0.444426   0.474483
    24  H   -0.028493  -0.032271
    25  H    0.512321  -0.028421
    26  H   -0.028421   0.509692
 Mulliken charges:
               1
     1  C    0.519032
     2  C    0.120994
     3  C    0.111460
     4  C   -0.267365
     5  C   -0.255269
     6  C   -0.043557
     7  H    0.188462
     8  C   -0.062369
     9  H    0.188105
    10  C   -0.190058
    11  H    0.179010
    12  H    0.178901
    13  H    0.176722
    14  C   -1.270009
    15  C   -0.310010
    16  H    0.227017
    17  H    0.228127
    18  H    0.209473
    19  H    0.208760
    20  C   -0.234985
    21  H    0.195244
    22  H    0.195307
    23  C   -0.898769
    24  H    0.203171
    25  H    0.199118
    26  H    0.203488
 Sum of Mulliken charges =   0.00000
 Mulliken charges with hydrogens summed into heavy atoms:
               1
     1  C    0.519032
     2  C    0.120994
     3  C    0.111460
     4  C   -0.078903
     5  C   -0.067164
     6  C    0.135453
     8  C    0.116532
    10  C   -0.013336
    14  C   -0.814865
    15  C    0.108223
    20  C    0.155566
    23  C   -0.292992
 Electronic spatial extent (au):  <R**2>=           4541.4547
 Charge=              0.0000 electrons
 Dipole moment (field-independent basis, Debye):
    X=              0.0814    Y=              0.1663    Z=             -0.7218  Tot=              0.7452
 Quadrupole moment (field-independent basis, Debye-Ang):
   XX=            -68.8100   YY=            -77.8876   ZZ=            -63.8706
   XY=             -0.5867   XZ=             -0.0410   YZ=             -0.0811
 Traceless Quadrupole moment (field-independent basis, Debye-Ang):
   XX=              1.3794   YY=             -7.6982   ZZ=              6.3188
   XY=             -0.5867   XZ=             -0.0410   YZ=             -0.0811
 Octapole moment (field-independent basis, Debye-Ang**2):
  XXX=            -61.1750  YYY=           -108.7655  ZZZ=           -153.1657  XYY=            -22.6073
  XXY=            -36.2865  XXZ=            -53.6227  XZZ=            -21.5224  YZZ=            -37.1917
  YYZ=            -84.8486  XYZ=              2.4298
 Hexadecapole moment (field-independent basis, Debye-Ang**3):
 XXXX=           -482.8025 YYYY=           -551.7766 ZZZZ=          -4987.4511 XXXY=           -122.1200
 XXXZ=            218.1557 YYYX=           -132.2983 YYYZ=            389.5092 ZZZX=            223.1652
 ZZZY=            386.8709 XXYY=           -187.4119 XXZZ=           -913.1873 YYZZ=          -1081.5076
 XXYZ=            129.8785 YYXZ=             81.3701 ZZXY=            -51.0737
 N-N= 5.814544036759D+02 E-N=-2.239545154322D+03  KE= 4.614598324489D+02
 Evaluate density.
 Using the total density.
 Monte-Carlo method of calculating molar volume:
 based on  0.001 e/bohr**3 density envelope.
 Number of points per bohr**3 =   20 CutOff= 1.00D-04
 Using the SCF density.
 There are       430 points.  Will hold       430 in memory.
 LenV=  4026354248 MDV=  4026531840.
 Box volume = 9956.287 fraction occupied=0.165
 Integrated density= 6.4590892060940448D+01 error=-2.1409107939059552D+01
 Molar volume = 1643.945 bohr**3/mol (146.704 cm**3/mol)
 Recommended a0 for SCRF calculation =  4.76 angstrom (  9.00 bohr)
 Calling FoFJK, ICntrl=      2127 FMM=F ISym2X=0 I1Cent= 0 IOpClX= 0 NMat=1 NMatS=1 NMatT=0.
 -------------------------------------------------------------------
 Center     Atomic                   Forces (Hartrees/Bohr)
 Number     Number              X              Y              Z
 -------------------------------------------------------------------
      1        6          -0.003842731   -0.006431023   -0.064054379
      2        6           0.000310310    0.000632196    0.002805878
      3        6           0.000236208    0.000330736    0.010069296
      4        6           0.004852115   -0.000017314    0.019047001
      5        6          -0.004894668   -0.000057670    0.019126601
      6        6           0.013207662    0.000037145   -0.010039240
      7        1          -0.009282960   -0.000018989   -0.006804604
      8        6          -0.013184235   -0.000030815   -0.010008961
      9        1           0.009286751    0.000022614   -0.006807773
     10        6           0.000009830   -0.000009275   -0.012717447
     11        1          -0.010687680   -0.000016809    0.005751556
     12        1           0.010685081    0.000012659    0.005757460
     13        1           0.000000283    0.000001289    0.012253512
     14        6           0.012948958    0.022680768    0.055375040
     15        6          -0.013894674   -0.023983911   -0.022562960
     16        1          -0.017137534   -0.002753859   -0.004871042
     17        1           0.006357151   -0.016299764   -0.005037592
     18        1          -0.006336379    0.015379252    0.007937410
     19        1           0.016543553    0.002228298    0.007918204
     20        6           0.015353456    0.026558297    0.019110033
     21        1           0.006320580   -0.016850006   -0.007719714
     22        1          -0.017743210   -0.002963504   -0.007709123
     23        6          -0.012955277   -0.022453881    0.002694078
     24        1           0.017813383    0.002968169    0.004507144
     25        1           0.002389445    0.004136007   -0.018526951
     26        1          -0.006355420    0.016899391    0.004506573
 -------------------------------------------------------------------
 Cartesian Forces:  Max     0.064054379 RMS     0.014605999

 GradGradGradGradGradGradGradGradGradGradGradGradGradGradGradGradGradGrad
 Berny optimization.
 Search for a local minimum.
 Step number   1 out of a maximum of   88
 All quantities printed in internal units (Hartrees-Bohrs-Radians)
 Second derivative matrix not updated -- first step.
 ITU=  0
     Eigenvalues ---    0.00000   0.00034   0.00066   0.00104   0.00242
     Eigenvalues ---    0.00317   0.00412   0.00930   0.01481   0.01566
     Eigenvalues ---    0.02054   0.02808   0.02949   0.03372   0.03741
     Eigenvalues ---    0.04413   0.04985   0.05380   0.05522   0.05886
     Eigenvalues ---    0.06850   0.07031   0.07108   0.07148   0.07326
     Eigenvalues ---    0.07655   0.08578   0.09036   0.09613   0.10211
     Eigenvalues ---    0.10848   0.11612   0.12141   0.12948   0.13779
     Eigenvalues ---    0.14338   0.15301   0.16274   0.17974   0.19369
     Eigenvalues ---    0.20854   0.25712   0.26694   0.28958   0.29560
     Eigenvalues ---    0.32701   0.38385   0.39783   0.43466   0.48372
     Eigenvalues ---    0.50637   0.55896   0.62099   0.67263   0.71471
     Eigenvalues ---    0.79080   0.81691   0.93828   0.94099   0.97792
     Eigenvalues ---    1.01810   1.03282   1.03559   1.08109   1.11585
     Eigenvalues ---    1.13206   1.23790   1.25213   1.45183   1.57739
     Eigenvalues ---    1.59516   2.55142
 RFO step:  Lambda=-1.92727155D-02 EMin= 8.04957383D-08
 Linear search not attempted -- first point.
 B after Tr=    -0.000971   -0.001690   -0.001095
         Rot=    1.000000   -0.000006    0.000009   -0.000001 Ang=   0.00 deg.
 Variable       Old X    -DE/DX   Delta X   Delta X   Delta X     New X
                                 (Linear)    (Quad)   (Total)
    X1        0.00000  -0.00384   0.00000  -0.01748  -0.01845  -0.01845
    Y1        0.00000  -0.00643   0.00000  -0.03225  -0.03394  -0.03394
    Z1        0.00000  -0.06405   0.00000  -0.07371  -0.07481  -0.07481
    X2        0.00000   0.00031   0.00000  -0.01048  -0.01149  -0.01149
    Y2        0.00000   0.00063   0.00000  -0.02111  -0.02283  -0.02283
    Z2        2.26993   0.00281   0.00000  -0.04873  -0.04983   2.22010
    X3        0.00003   0.00024   0.00000  -0.00223  -0.00329  -0.00326
    Y3        0.00000   0.00033   0.00000  -0.00387  -0.00562  -0.00562
    Z3        4.91820   0.01007   0.00000   0.00031  -0.00079   4.91742
    X4       -2.29345   0.00485   0.00000  -0.00162  -0.00271  -2.29615
    Y4       -0.00324  -0.00002   0.00000   0.00021  -0.00156  -0.00480
    Z4        6.24231   0.01905   0.00000   0.02711   0.02597   6.26828
    X5        2.29350  -0.00489   0.00000  -0.00004  -0.00112   2.29238
    Y5        0.00322  -0.00006   0.00000  -0.00010  -0.00186   0.00136
    Z5        6.24236   0.01913   0.00000   0.02379   0.02273   6.26509
    X6       -2.29347   0.01321   0.00000   0.00664   0.00551  -2.28796
    Y6       -0.00334   0.00004   0.00000   0.00288   0.00108  -0.00227
    Z6        8.89059  -0.01004   0.00000   0.01431   0.01317   8.90377
    X7       -4.04455  -0.00928   0.00000  -0.02349  -0.02455  -4.06910
    Y7       -0.00563  -0.00002   0.00000  -0.00119  -0.00295  -0.00859
    Z7        5.23128  -0.00680   0.00000   0.00543   0.00426   5.23554
    X8        2.29347  -0.01318   0.00000  -0.00521  -0.00634   2.28713
    Y8        0.00313  -0.00003   0.00000   0.00240   0.00061   0.00374
    Z8        8.89064  -0.01001   0.00000   0.01152   0.01047   8.90111
    X9        4.04462   0.00929   0.00000   0.02116   0.02010   4.06472
    Y9        0.00575   0.00002   0.00000  -0.00119  -0.00293   0.00282
    Z9        5.23136  -0.00681   0.00000   0.00085  -0.00017   5.23118
   X10       -0.00001   0.00001   0.00000   0.00145   0.00029   0.00028
   Y10       -0.00016  -0.00001   0.00000   0.00282   0.00101   0.00085
   Z10       10.21474  -0.01272   0.00000   0.01269   0.01159  10.22634
   X11       -4.04458  -0.01069   0.00000  -0.02237  -0.02352  -4.06810
   Y11       -0.00586  -0.00002   0.00000   0.00305   0.00123  -0.00462
   Z11        9.90160   0.00575   0.00000   0.02587   0.02471   9.92631
   X12        4.04457   0.01069   0.00000   0.02453   0.02337   4.06794
   Y12        0.00558   0.00001   0.00000   0.00260   0.00081   0.00639
   Z12        9.90169   0.00576   0.00000   0.02194   0.02092   9.92261
   X13       -0.00002   0.00000   0.00000   0.00225   0.00106   0.00104
   Y13       -0.00023   0.00000   0.00000   0.00281   0.00098   0.00075
   Z13       12.23675   0.01225   0.00000   0.04339   0.04229  12.27905
   X14        0.00027   0.01295   0.00000  -0.00047  -0.00139  -0.00111
   Y14        0.00000   0.02268   0.00000  -0.00207  -0.00373  -0.00373
   Z14       -2.91020   0.05538   0.00000   0.05452   0.05342  -2.85677
   X15        1.37053  -0.01389   0.00000  -0.01045  -0.01135   1.35918
   Y15        2.37716  -0.02398   0.00000  -0.01785  -0.01949   2.35767
   Z15       -3.88015  -0.02256   0.00000  -0.00517  -0.00622  -3.88636
   X16       -1.90604  -0.01714   0.00000  -0.04671  -0.04761  -1.95365
   Y16       -0.00142  -0.00275   0.00000  -0.03490  -0.03656  -0.03798
   Z16       -3.58437  -0.00487   0.00000   0.04661   0.04548  -3.53889
   X17        0.95474   0.00636   0.00000  -0.00450  -0.00540   0.94934
   Y17       -1.65026  -0.01630   0.00000  -0.05765  -0.05930  -1.70956
   Z17       -3.58411  -0.00504   0.00000   0.04476   0.04367  -3.54044
   X18        0.41611  -0.00634   0.00000  -0.00663  -0.00756   0.40855
   Y18        4.02745   0.01538   0.00000   0.02791   0.02626   4.05371
   Z18       -3.20626   0.00794   0.00000   0.02932   0.02828  -3.17798
   X19        3.27684   0.01654   0.00000   0.02760   0.02668   3.30351
   Y19        2.37853   0.00223   0.00000   0.00877   0.00712   2.38565
   Z19       -3.20596   0.00792   0.00000   0.02872   0.02771  -3.17825
   X20        1.37084   0.01535   0.00000   0.01497   0.01411   1.38495
   Y20        2.37714   0.02656   0.00000   0.02593   0.02433   2.40147
   Z20       -6.79032   0.01911   0.00000   0.00020  -0.00085  -6.79117
   X21        2.32522   0.00632   0.00000   0.00790   0.00706   2.33228
   Y21        0.72683  -0.01685   0.00000  -0.02796  -0.02955   0.69728
   Z21       -7.46421  -0.00772   0.00000  -0.02776  -0.02881  -7.49302
   X22       -0.53545  -0.01774   0.00000  -0.02815  -0.02900  -0.56445
   Y22        2.37585  -0.00296   0.00000  -0.00693  -0.00853   2.36731
   Z22       -7.46452  -0.00771   0.00000  -0.02762  -0.02870  -7.49322
   X23        2.74121  -0.01296   0.00000   0.00725   0.00640   2.74761
   Y23        4.75421  -0.02245   0.00000   0.01261   0.01102   4.76523
   Z23       -7.76027   0.00269   0.00000  -0.03594  -0.03692  -7.79719
   X24        4.64751   0.01781   0.00000   0.05558   0.05473   4.70224
   Y24        4.75550   0.00297   0.00000   0.04382   0.04222   4.79773
   Z24       -7.08607   0.00451   0.00000  -0.03165  -0.03260  -7.11867
   X25        2.74141   0.00239   0.00000   0.02605   0.02525   2.76666
   Y25        4.75418   0.00414   0.00000   0.04527   0.04370   4.79788
   Z25       -9.78227  -0.01853   0.00000  -0.08145  -0.08244  -9.86471
   X26        1.78685  -0.00636   0.00000   0.01008   0.00922   1.79607
   Y26        6.40454   0.01690   0.00000   0.07006   0.06846   6.47300
   Z26       -7.08639   0.00451   0.00000  -0.03156  -0.03255  -7.11894
         Item               Value     Threshold  Converged?
 Maximum Force            0.064054     0.000450     NO 
 RMS     Force            0.014606     0.000300     NO 
 Maximum Displacement     0.082435     0.001800     NO 
 RMS     Displacement     0.028054     0.001200     NO 
 Predicted change in Energy=-1.022918D-02
 GradGradGradGradGradGradGradGradGradGradGradGradGradGradGradGradGradGrad

                          Input orientation:                          
 ---------------------------------------------------------------------
 Center     Atomic      Atomic             Coordinates (Angstroms)
 Number     Number       Type             X           Y           Z
 ---------------------------------------------------------------------
      1          6           0       -0.009762   -0.017962   -0.039587
      2          6           0       -0.006080   -0.012080    1.174827
      3          6           0       -0.001725   -0.002972    2.602184
      4          6           0       -1.215073   -0.002540    3.317033
      5          6           0        1.213073    0.000720    3.315342
      6          6           0       -1.210736   -0.001199    4.711670
      7          1           0       -2.153277   -0.004544    2.770526
      8          6           0        1.210297    0.001979    4.710263
      9          1           0        2.150957    0.001494    2.768222
     10          6           0        0.000150    0.000451    5.411544
     11          1           0       -2.152743   -0.002447    5.252777
     12          1           0        2.152663    0.003383    5.250819
     13          1           0        0.000550    0.000397    6.497791
     14          6           0       -0.000590   -0.001973   -1.511738
     15          6           0        0.719248    1.247625   -2.056575
     16          1           0       -1.033829   -0.020096   -1.872698
     17          1           0        0.502368   -0.904658   -1.873522
     18          1           0        0.216196    2.145132   -1.681713
     19          1           0        1.748144    1.262432   -1.681857
     20          6           0        0.732886    1.270804   -3.593731
     21          1           0        1.234189    0.368983   -3.965133
     22          1           0       -0.298692    1.252728   -3.965241
     23          6           0        1.453975    2.521651   -4.126096
     24          1           0        2.488319    2.538848   -3.767037
     25          1           0        1.464055    2.538928   -5.220179
     26          1           0        0.950438    3.425366   -3.767180
 ---------------------------------------------------------------------
                    Distance matrix (angstroms):
                    1          2          3          4          5
     1  C    0.000000
     2  C    1.214434   0.000000
     3  C    2.641826   1.427393   0.000000
     4  C    3.566499   2.459838   1.408269   0.000000
     5  C    3.570885   2.463392   1.408667   2.428149   0.000000
     6  C    4.900721   3.736385   2.431387   1.394644   2.797247
     7  H    3.534342   2.675213   2.158128   1.085772   3.410156
     8  C    4.904081   3.738860   2.431670   2.797057   1.394924
     9  H    3.543004   2.681772   2.159081   3.410479   1.085802
    10  C    5.451171   4.236739   2.809362   2.421518   2.421827
    11  H    5.709792   4.608462   3.413579   2.150890   3.883604
    12  H    5.715324   4.612388   3.414191   3.883453   2.151490
    13  H    6.537412   5.322983   3.895609   3.405138   3.405613
    14  C    1.472267   2.686590   4.113923   4.979157   4.977318
    15  C    2.490262   3.543292   4.877277   5.846382   5.536798
    16  H    2.099766   3.216169   4.592396   5.192925   5.653739
    17  H    2.100435   3.216776   4.593375   5.541235   5.314990
    18  H    2.725181   3.586474   4.797251   5.625699   5.528366
    19  H    2.725196   3.586409   4.797531   5.947244   5.181720
    20  C    3.852841   4.993096   6.368008   7.292093   7.041235
    21  H    4.136068   5.301195   6.692944   7.692000   7.289814
    22  H    4.136290   5.301478   6.692985   7.446273   7.540547
    23  C    5.029087   6.054036   7.332294   8.300334   7.860543
    24  H    5.164452   6.095185   7.295762   8.387957   7.630756
    25  H    5.962244   7.040245   8.354588   9.301655   8.908458
    26  H    5.164633   6.095441   7.295815   8.162478   7.871423
                    6          7          8          9         10
     6  C    0.000000
     7  H    2.157877   0.000000
     8  C    2.421036   3.882814   0.000000
     9  H    3.883038   4.304239   2.157861   0.000000
    10  C    1.398596   3.407674   1.398661   3.407803   0.000000
    11  H    1.086358   2.482251   3.406520   4.969393   2.158741
    12  H    3.406341   4.969209   1.086397   2.482598   2.158508
    13  H    2.158111   4.304823   2.158413   4.305106   1.086248
    14  C    6.339974   4.792896   6.338735   4.790327   6.923283
    15  C    7.147975   5.755018   6.898033   5.184719   7.605613
    16  H    6.586772   4.776289   6.954996   5.628630   7.357290
    17  H    6.864089   5.424927   6.683515   5.008468   7.358235
    18  H    6.893347   5.482513   6.814594   5.304754   7.413543
    19  H    7.157439   6.053927   6.537371   4.642783   7.413799
    20  C    8.624115   7.103536   8.413926   6.640521   9.123907
    21  H    9.022285   7.548745   8.683188   6.805409   9.464710
    22  H    8.814361   7.098646   8.894143   7.273644   9.464756
    23  C    9.569304   8.182746   9.191810   7.373507   9.971792
    24  H    9.592879   8.411479   8.940562   7.018661   9.842804
    25  H   10.594734   9.132673  10.252520   8.409814  11.028164
    26  H    9.396963   8.008678   9.146263   7.475000   9.842868
                   11         12         13         14         15
    11  H    0.000000
    12  H    4.305411   0.000000
    13  H    2.487316   2.487276   0.000000
    14  C    7.098621   7.097092   8.009530   0.000000
    15  C    7.952209   7.549889   8.674635   1.541593   0.000000
    16  H    7.212813   7.803768   8.434184   1.094625   2.171222
    17  H    7.658181   7.369142   8.435036   1.094849   2.170914
    18  H    7.636172   7.509793   8.458764   2.164705   1.095035
    19  H    8.056425   7.057680   8.458928   2.164655   1.095107
    20  C    9.391950   9.046999  10.197503   2.548066   1.537391
    21  H    9.827468   9.268821  10.541846   2.771540   2.163278
    22  H    9.486033   9.617992  10.541960   2.771789   2.163154
    23  C   10.360634   9.734289  11.015269   3.913989   2.538875
    24  H   10.457279   9.373526  10.862754   4.211509   2.778947
    25  H   11.367613  10.795600  12.078775   4.727991   3.497226
    26  H   10.136037   9.720063  10.862888   4.211665   2.778880
                   16         17         18         19         20
    16  H    0.000000
    17  H    1.772668   0.000000
    18  H    2.507440   3.069187   0.000000
    19  H    3.069312   2.506985   1.768057   0.000000
    20  C    2.783821   2.782965   2.165001   2.164736   0.000000
    21  H    3.110237   2.555888   3.066762   2.505145   1.096598
    22  H    2.557195   3.109871   2.505194   3.066509   1.096586
    23  C    4.210398   4.209423   2.765659   2.765226   1.538831
    24  H    4.747867   4.403082   3.109040   2.554422   2.172444
    25  H    4.898333   4.897269   3.772661   3.772250   2.188168
    26  H    4.404269   4.747190   2.554854   3.108567   2.172452
                   21         22         23         24         25
    21  H    0.000000
    22  H    1.769387   0.000000
    23  C    2.169838   2.169766   0.000000
    24  H    2.514040   3.075844   1.095028   0.000000
    25  H    2.517269   2.517232   1.094266   1.777846   0.000000
    26  H    3.075903   2.513943   1.095021   1.775103   1.777858
                   26
    26  H    0.000000
 Symmetry turned off by external request.
 Stoichiometry    C12H14
 Framework group  C1[X(C12H14)]
 Deg. of freedom    72
 Full point group                 C1      NOp   1
 Rotational constants (GHZ):           3.2183757           0.2714847           0.2608315
 Standard basis: 6-31+G(d) (6D, 7F)
   256 basis functions,   440 primitive gaussians,   256 cartesian basis functions
    43 alpha electrons       43 beta electrons
       nuclear repulsion energy       579.6185873743 Hartrees.
 NAtoms=   26 NActive=   26 NUniq=   26 SFac= 1.00D+00 NAtFMM=   60 NAOKFM=F Big=F
 Integral buffers will be    131072 words long.
 Raffenetti 2 integral format.
 Two-electron integral symmetry is turned off.
 Nuclear repulsion after empirical dispersion term =      579.6023783699 Hartrees.
 One-electron integrals computed using PRISM.
 NBasis=   256 RedAO= T EigKep=  2.67D-06  NBF=   256
 NBsUse=   254 1.00D-06 EigRej=  1.51D-07 NBFU=   254
 Initial guess from the checkpoint file:  "molecule_34a.chk"
 B after Tr=    -0.001701   -0.002994   -0.001857
         Rot=    1.000000    0.000008    0.000007   -0.000004 Ang=   0.00 deg.
 ExpMin= 4.38D-02 ExpMax= 3.05D+03 ExpMxC= 4.57D+02 IAcc=3 IRadAn=         5 AccDes= 0.00D+00
 Harris functional with IExCor=  402 and IRadAn=       5 diagonalized for initial guess.
 HarFok:  IExCor=  402 AccDes= 0.00D+00 IRadAn=         5 IDoV= 1 UseB2=F ITyADJ=14
 ICtDFT=  3500011 ScaDFX=  1.000000  1.000000  1.000000  1.000000
 FoFCou: FMM=F IPFlag=           0 FMFlag=      100000 FMFlg1=           0
         NFxFlg=           0 DoJE=T BraDBF=F KetDBF=T FulRan=T
         wScrn=  0.000000 ICntrl=       500 IOpCl=  0 I1Cent=   200000004 NGrid=           0
         NMat0=    1 NMatS0=      1 NMatT0=    0 NMatD0=    1 NMtDS0=    0 NMtDT0=    0
 Symmetry not used in FoFCou.
 Requested convergence on RMS density matrix=1.00D-08 within1000 cycles.
 Requested convergence on MAX density matrix=1.00D-06.
 Requested convergence on             energy=1.00D-06.
 No special actions if energy rises.
 SCF Done:  E(RB3LYP) =  -465.694393482     A.U. after   13 cycles
            NFock= 13  Conv=0.47D-08     -V/T= 2.0101
 Calling FoFJK, ICntrl=      2127 FMM=F ISym2X=0 I1Cent= 0 IOpClX= 0 NMat=1 NMatS=1 NMatT=0.
 -------------------------------------------------------------------
 Center     Atomic                   Forces (Hartrees/Bohr)
 Number     Number              X              Y              Z
 -------------------------------------------------------------------
      1        6          -0.001434990   -0.002432099   -0.003461638
      2        6           0.000556847    0.000769472   -0.002386213
      3        6          -0.000012141   -0.000278798   -0.000200872
      4        6          -0.000327509   -0.000066200    0.001582253
      5        6           0.000134447   -0.000095342    0.001413195
      6        6           0.000582153    0.000047376   -0.000549137
      7        1          -0.000137226   -0.000040671   -0.000319468
      8        6          -0.000690660    0.000074583   -0.000653348
      9        1           0.000076784   -0.000048903   -0.000392357
     10        6           0.000008011   -0.000005134    0.000770051
     11        1          -0.000418588    0.000034203    0.000284864
     12        1           0.000428097    0.000028469    0.000199502
     13        1           0.000029876    0.000013823    0.000557685
     14        6           0.002819252    0.005063062    0.013027269
     15        6          -0.002489474   -0.004315648   -0.008007163
     16        1          -0.001617132   -0.001560711   -0.002443631
     17        1          -0.000439204   -0.002231916   -0.002531111
     18        1           0.000238047    0.001412369    0.001595176
     19        1           0.001124999    0.000921679    0.001596070
     20        6           0.003736782    0.006468960    0.003805677
     21        1          -0.000423887   -0.001652770   -0.001326630
     22        1          -0.001221944   -0.001191460   -0.001333104
     23        6          -0.003360014   -0.005824902    0.001289881
     24        1           0.001605347    0.001604501   -0.000664217
     25        1           0.000645692    0.001117593   -0.001190659
     26        1           0.000586433    0.002188464   -0.000662073
 -------------------------------------------------------------------
 Cartesian Forces:  Max     0.013027269 RMS     0.002530359

 GradGradGradGradGradGradGradGradGradGradGradGradGradGradGradGradGradGrad
 Berny optimization.
 Search for a local minimum.
 Step number   2 out of a maximum of   88
 All quantities printed in internal units (Hartrees-Bohrs-Radians)
 Update second derivatives using D2CorN and points    1    2
 DE= -1.09D-02 DEPred=-1.02D-02 R= 1.06D+00
 TightC=F SS=  1.41D+00  RLast= 2.48D-01 DXNew= 5.0454D-01 7.4330D-01
 Trust test= 1.06D+00 RLast= 2.48D-01 DXMaxT set to 5.05D-01
 ITU=  1  0
     Eigenvalues ---    0.00000   0.00034   0.00066   0.00104   0.00242
     Eigenvalues ---    0.00317   0.00409   0.00961   0.01530   0.01566
     Eigenvalues ---    0.02086   0.02809   0.03006   0.03377   0.03749
     Eigenvalues ---    0.04412   0.05010   0.05400   0.05523   0.05879
     Eigenvalues ---    0.06849   0.07033   0.07111   0.07195   0.07326
     Eigenvalues ---    0.07661   0.08474   0.09027   0.09613   0.10234
     Eigenvalues ---    0.10924   0.11647   0.12150   0.12951   0.13787
     Eigenvalues ---    0.14339   0.15576   0.16319   0.17960   0.19356
     Eigenvalues ---    0.20876   0.25964   0.26773   0.28960   0.29560
     Eigenvalues ---    0.32727   0.38387   0.39810   0.43528   0.48369
     Eigenvalues ---    0.50636   0.55885   0.62079   0.67274   0.71471
     Eigenvalues ---    0.79101   0.80984   0.93613   0.94130   0.97796
     Eigenvalues ---    1.01710   1.03287   1.03357   1.08257   1.10188
     Eigenvalues ---    1.12916   1.23764   1.25206   1.45183   1.57735
     Eigenvalues ---    1.59515   2.55092
 RFO step:  Lambda=-7.60142913D-04 EMin= 7.60136878D-08
 Quartic linear search produced a step of  0.14120.
 B after Tr=    -0.000930   -0.001528    0.005066
         Rot=    1.000000   -0.000119    0.000048    0.000042 Ang=  -0.02 deg.
 Variable       Old X    -DE/DX   Delta X   Delta X   Delta X     New X
                                 (Linear)    (Quad)   (Total)
    X1       -0.01845  -0.00143  -0.00260  -0.00048  -0.00401  -0.02246
    Y1       -0.03394  -0.00243  -0.00479  -0.00348  -0.00978  -0.04373
    Z1       -0.07481  -0.00346  -0.01056   0.02299   0.01748  -0.05733
    X2       -0.01149   0.00056  -0.00162  -0.00530  -0.00807  -0.01956
    Y2       -0.02283   0.00077  -0.00322  -0.01097  -0.01625  -0.03908
    Z2        2.22010  -0.00239  -0.00704   0.01931   0.01733   2.23743
    X3       -0.00326  -0.00001  -0.00046  -0.00930  -0.01117  -0.01443
    Y3       -0.00562  -0.00028  -0.00079  -0.02009  -0.02359  -0.02920
    Z3        4.91742  -0.00020  -0.00011   0.01856   0.02351   4.94092
    X4       -2.29615  -0.00033  -0.00038  -0.00697  -0.00889  -2.30505
    Y4       -0.00480  -0.00007  -0.00022  -0.01582  -0.01887  -0.02367
    Z4        6.26828   0.00158   0.00367   0.02459   0.03310   6.30138
    X5        2.29238   0.00013  -0.00016  -0.01046  -0.01216   2.28022
    Y5        0.00136  -0.00010  -0.00026  -0.02099  -0.02447  -0.02311
    Z5        6.26509   0.00141   0.00321   0.01985   0.02834   6.29342
    X6       -2.28796   0.00058   0.00078  -0.00450  -0.00552  -2.29348
    Y6       -0.00227   0.00005   0.00015  -0.00545  -0.00876  -0.01103
    Z6        8.90377  -0.00055   0.00186   0.02710   0.03380   8.93757
    X7       -4.06910  -0.00014  -0.00347  -0.00509  -0.01000  -4.07910
    Y7       -0.00859  -0.00004  -0.00042  -0.01702  -0.01988  -0.02846
    Z7        5.23554  -0.00032   0.00060   0.02800   0.03327   5.26881
    X8        2.28713  -0.00069  -0.00090  -0.00723  -0.00992   2.27721
    Y8        0.00374   0.00007   0.00009  -0.00983  -0.01359  -0.00985
    Z8        8.90111  -0.00065   0.00148   0.02167   0.02843   8.92953
    X9        4.06472   0.00008   0.00284  -0.01505  -0.01365   4.05107
    Y9        0.00282  -0.00005  -0.00041  -0.02637  -0.02990  -0.02707
    Z9        5.23118  -0.00039  -0.00002   0.01863   0.02405   5.25523
   X10        0.00028   0.00001   0.00004  -0.00420  -0.00608  -0.00580
   Y10        0.00085  -0.00001   0.00014  -0.00186  -0.00568  -0.00483
   Z10       10.22634   0.00077   0.00164   0.02921   0.03591  10.26225
   X11       -4.06810  -0.00042  -0.00332  -0.00136  -0.00657  -4.07467
   Y11       -0.00462   0.00003   0.00017   0.00116  -0.00223  -0.00685
   Z11        9.92631   0.00028   0.00349   0.02684   0.03500   9.96131
   X12        4.06794   0.00043   0.00330  -0.00754  -0.00612   4.06182
   Y12        0.00639   0.00003   0.00011  -0.00663  -0.01075  -0.00435
   Z12        9.92261   0.00020   0.00295   0.01627   0.02468   9.94729
   X13        0.00104   0.00003   0.00015  -0.00129  -0.00326  -0.00222
   Y13        0.00075   0.00001   0.00014   0.00721   0.00289   0.00364
   Z13       12.27905   0.00056   0.00597   0.02647   0.03750  12.31655
   X14       -0.00111   0.00282  -0.00020   0.01485   0.01399   0.01288
   Y14       -0.00373   0.00506  -0.00053   0.01974   0.01836   0.01463
   Z14       -2.85677   0.01303   0.00754   0.02048   0.03309  -2.82368
   X15        1.35918  -0.00249  -0.00160   0.00713   0.00517   1.36435
   Y15        2.35767  -0.00432  -0.00275   0.01676   0.01330   2.37097
   Z15       -3.88636  -0.00801  -0.00088  -0.02155  -0.01667  -3.90303
   X16       -1.95365  -0.00162  -0.00672   0.02409   0.01677  -1.93688
   Y16       -0.03798  -0.00156  -0.00516  -0.00234  -0.00803  -0.04600
   Z16       -3.53889  -0.00244   0.00642  -0.00979   0.00150  -3.53739
   X17        0.94934  -0.00044  -0.00076   0.00022  -0.00127   0.94807
   Y17       -1.70956  -0.00223  -0.00837   0.02102   0.01188  -1.69768
   Z17       -3.54044  -0.00253   0.00617  -0.00849   0.00243  -3.53802
   X18        0.40855   0.00024  -0.00107   0.01663   0.01528   0.42383
   Y18        4.05371   0.00141   0.00371   0.01720   0.02011   4.07382
   Z18       -3.17798   0.00160   0.00399  -0.01352  -0.00345  -3.18143
   X19        3.30351   0.00112   0.00377   0.00209   0.00544   3.30895
   Y19        2.38565   0.00092   0.00101   0.03336   0.03332   2.41897
   Z19       -3.17825   0.00160   0.00391  -0.01153  -0.00165  -3.17990
   X20        1.38495   0.00374   0.00199   0.01082   0.01274   1.39769
   Y20        2.40147   0.00647   0.00343   0.01926   0.02268   2.42415
   Z20       -6.79117   0.00381  -0.00012  -0.01973  -0.01407  -6.80524
   X21        2.33228  -0.00042   0.00100  -0.00467  -0.00382   2.32846
   Y21        0.69728  -0.00165  -0.00417   0.01319   0.00908   0.70636
   Z21       -7.49302  -0.00133  -0.00407  -0.02142  -0.02003  -7.51305
   X22       -0.56445  -0.00122  -0.00409   0.01413   0.01003  -0.55442
   Y22        2.36731  -0.00119  -0.00120   0.00025  -0.00065   2.36667
   Z22       -7.49322  -0.00133  -0.00405  -0.02378  -0.02226  -7.51548
   X23        2.74761  -0.00336   0.00090  -0.00019   0.00094   2.74856
   Y23        4.76523  -0.00582   0.00156   0.00154   0.00322   4.76845
   Z23       -7.79719   0.00129  -0.00521  -0.06485  -0.06359  -7.86078
   X24        4.70224   0.00161   0.00773   0.01035   0.01824   4.72048
   Y24        4.79773   0.00160   0.00596   0.03490   0.04066   4.83839
   Z24       -7.11867  -0.00066  -0.00460  -0.10188  -0.09981  -7.21848
   X25        2.76666   0.00065   0.00357  -0.01546  -0.01147   2.75519
   Y25        4.79788   0.00112   0.00617  -0.02644  -0.01965   4.77822
   Z25       -9.86471  -0.00119  -0.01164  -0.06189  -0.06706  -9.93177
   X26        1.79607   0.00059   0.00130   0.02177   0.02338   1.81945
   Y26        6.47300   0.00219   0.00967   0.02687   0.03658   6.50958
   Z26       -7.11894  -0.00066  -0.00460  -0.10302  -0.10082  -7.21976
         Item               Value     Threshold  Converged?
 Maximum Force            0.013027     0.000450     NO 
 RMS     Force            0.002530     0.000300     NO 
 Maximum Displacement     0.100822     0.001800     NO 
 RMS     Displacement     0.026607     0.001200     NO 
 Predicted change in Energy=-5.702962D-04
 GradGradGradGradGradGradGradGradGradGradGradGradGradGradGradGradGradGrad

                          Input orientation:                          
 ---------------------------------------------------------------------
 Center     Atomic      Atomic             Coordinates (Angstroms)
 Number     Number       Type             X           Y           Z
 ---------------------------------------------------------------------
      1          6           0       -0.011885   -0.023139   -0.030337
      2          6           0       -0.010353   -0.020681    1.183997
      3          6           0       -0.007636   -0.015454    2.614624
      4          6           0       -1.219778   -0.012527    3.334548
      5          6           0        1.206641   -0.012227    3.330337
      6          6           0       -1.213656   -0.005834    4.729556
      7          1           0       -2.158567   -0.015062    2.788132
      8          6           0        1.205050   -0.005213    4.725306
      9          1           0        2.143736   -0.014327    2.780950
     10          6           0       -0.003068   -0.002557    5.430548
     11          1           0       -2.156220   -0.003627    5.271297
     12          1           0        2.149423   -0.002304    5.263882
     13          1           0       -0.001175    0.001926    6.517638
     14          6           0        0.006815    0.007744   -1.494227
     15          6           0        0.721982    1.254662   -2.065395
     16          1           0       -1.024955   -0.024344   -1.871905
     17          1           0        0.501695   -0.898371   -1.872237
     18          1           0        0.224283    2.155771   -1.683540
     19          1           0        1.751022    1.280063   -1.682732
     20          6           0        0.739627    1.282805   -3.601177
     21          1           0        1.232168    0.373789   -3.975732
     22          1           0       -0.293384    1.252386   -3.977019
     23          6           0        1.454473    2.523353   -4.159748
     24          1           0        2.497972    2.560365   -3.819855
     25          1           0        1.457983    2.528528   -5.255667
     26          1           0        0.962810    3.444724   -3.820532
 ---------------------------------------------------------------------
                    Distance matrix (angstroms):
                    1          2          3          4          5
     1  C    0.000000
     2  C    1.214337   0.000000
     3  C    2.644975   1.430639   0.000000
     4  C    3.575132   2.467316   1.409818   0.000000
     5  C    3.574780   2.467371   1.409512   2.426422   0.000000
     6  C    4.909291   3.744216   2.434649   1.395038   2.795656
     7  H    3.542891   2.681065   2.157918   1.086232   3.408609
     8  C    4.908910   3.744104   2.434274   2.795363   1.394988
     9  H    3.542614   2.681492   2.157792   3.408768   1.086268
    10  C    5.460931   4.246596   2.815957   2.423571   2.423711
    11  H    5.718905   4.616391   3.416792   2.151279   3.882813
    12  H    5.718430   4.616322   3.416379   3.882518   2.151170
    13  H    6.548032   5.333697   3.903058   3.408411   3.408505
    14  C    1.464335   2.678429   4.108941   4.982168   4.971558
    15  C    2.512528   3.566702   4.903888   5.876698   5.563616
    16  H    2.101829   3.219933   4.600430   5.210110   5.660696
    17  H    2.102948   3.220730   4.601183   5.555070   5.324375
    18  H    2.745270   3.607598   4.821018   5.654028   5.550153
    19  H    2.745284   3.607285   4.820634   5.972398   5.205499
    20  C    3.875714   5.015918   6.393752   7.322666   7.066901
    21  H    4.155883   5.321867   6.717248   7.720199   7.316304
    22  H    4.157223   5.323240   6.718543   7.477781   7.566159
    23  C    5.068221   6.097002   7.380746   8.351453   7.911508
    24  H    5.228224   6.163767   7.369901   8.463269   7.707854
    25  H    5.997965   7.079812   8.400081   9.349821   8.957570
    26  H    5.228928   6.164526   7.370606   8.240840   7.946376
                    6          7          8          9         10
     6  C    0.000000
     7  H    2.159182   0.000000
     8  C    2.418709   3.881579   0.000000
     9  H    3.881909   4.302309   2.159105   0.000000
    10  C    1.398900   3.410086   1.398900   3.410172   0.000000
    11  H    1.087159   2.483192   3.405325   4.969060   2.159033
    12  H    3.405263   4.968730   1.087158   2.482967   2.158934
    13  H    2.160418   4.308578   2.160435   4.308566   1.087101
    14  C    6.342334   4.798750   6.333919   4.779546   6.924789
    15  C    7.176831   5.785023   6.923457   5.207570   7.635146
    16  H    6.604183   4.795947   6.963941   5.629366   7.373638
    17  H    6.879152   5.438408   6.694775   5.012982   7.374818
    18  H    6.918671   5.512381   6.834110   5.322152   7.437762
    19  H    7.180549   6.078722   6.558428   4.664132   7.437788
    20  C    8.653151   7.134933   8.438361   6.662254   9.152912
    21  H    9.050316   7.576157   8.709331   6.828935   9.494501
    22  H    8.845025   7.131101   8.919491   7.294810   9.495339
    23  C    9.619534   8.232293   9.241214   7.422142  10.023892
    24  H    9.667161   8.484202   9.015188   7.094023   9.919361
    25  H   10.642618   9.178888  10.300662   8.457162  11.078639
    26  H    9.473509   8.086258   9.219116   7.545806   9.919634
                   11         12         13         14         15
    11  H    0.000000
    12  H    4.305649   0.000000
    13  H    2.489501   2.489376   0.000000
    14  C    7.102898   7.089633   8.011871   0.000000
    15  C    7.980877   7.572044   8.704066   1.546772   0.000000
    16  H    7.232256   7.810033   8.451819   1.099190   2.173726
    17  H    7.674319   7.378491   8.453012   1.099474   2.172876
    18  H    7.661563   7.525298   8.482287   2.167292   1.097960
    19  H    8.079166   7.075212   8.482328   2.167162   1.098180
    20  C    9.421340   9.067982  10.226429   2.569443   1.536141
    21  H    9.855515   9.292646  10.572144   2.791657   2.164628
    22  H    9.517304   9.640321  10.572930   2.793476   2.164550
    23  C   10.409964   9.780935  11.067207   3.940686   2.555863
    24  H   10.530176   9.444736  10.938698   4.257968   2.817292
    25  H   11.414519  10.841775  12.129450   4.754858   3.513156
    26  H   10.211799   9.788597  10.938916   4.258926   2.816891
                   16         17         18         19         20
    16  H    0.000000
    17  H    1.759144   0.000000
    18  H    2.519718   3.072516   0.000000
    19  H    3.072997   2.518393   1.760056   0.000000
    20  C    2.795133   2.793452   2.169098   2.168723   0.000000
    21  H    3.111142   2.564502   3.073344   2.519602   1.099635
    22  H    2.568411   3.112557   2.518756   3.073127   1.099679
    23  C    4.227594   4.224771   2.789282   2.787350   1.536869
    24  H    4.783957   4.443106   3.145982   2.600847   2.184435
    25  H    4.912431   4.909757   3.797507   3.796103   2.192076
    26  H    4.447785   4.782359   2.602606   3.142805   2.184450
                   21         22         23         24         25
    21  H    0.000000
    22  H    1.760467   0.000000
    23  C    2.168850   2.168814   0.000000
    24  H    2.531338   3.086613   1.098084   0.000000
    25  H    2.516371   2.516102   1.095937   1.773174   0.000000
    26  H    3.086629   2.531572   1.098054   1.771670   1.773195
                   26
    26  H    0.000000
 Symmetry turned off by external request.
 Stoichiometry    C12H14
 Framework group  C1[X(C12H14)]
 Deg. of freedom    72
 Full point group                 C1      NOp   1
 Rotational constants (GHZ):           3.2301562           0.2691836           0.2587675
 Standard basis: 6-31+G(d) (6D, 7F)
   256 basis functions,   440 primitive gaussians,   256 cartesian basis functions
    43 alpha electrons       43 beta electrons
       nuclear repulsion energy       578.4622610766 Hartrees.
 NAtoms=   26 NActive=   26 NUniq=   26 SFac= 1.00D+00 NAtFMM=   60 NAOKFM=F Big=F
 Integral buffers will be    131072 words long.
 Raffenetti 2 integral format.
 Two-electron integral symmetry is turned off.
 Nuclear repulsion after empirical dispersion term =      578.4461373258 Hartrees.
 One-electron integrals computed using PRISM.
 NBasis=   256 RedAO= T EigKep=  2.50D-06  NBF=   256
 NBsUse=   254 1.00D-06 EigRej=  1.46D-07 NBFU=   254
 Initial guess from the checkpoint file:  "molecule_34a.chk"
 B after Tr=    -0.001779   -0.002814    0.008588
         Rot=    1.000000   -0.000225    0.000091    0.000093 Ang=  -0.03 deg.
 ExpMin= 4.38D-02 ExpMax= 3.05D+03 ExpMxC= 4.57D+02 IAcc=3 IRadAn=         5 AccDes= 0.00D+00
 Harris functional with IExCor=  402 and IRadAn=       5 diagonalized for initial guess.
 HarFok:  IExCor=  402 AccDes= 0.00D+00 IRadAn=         5 IDoV= 1 UseB2=F ITyADJ=14
 ICtDFT=  3500011 ScaDFX=  1.000000  1.000000  1.000000  1.000000
 FoFCou: FMM=F IPFlag=           0 FMFlag=      100000 FMFlg1=           0
         NFxFlg=           0 DoJE=T BraDBF=F KetDBF=T FulRan=T
         wScrn=  0.000000 ICntrl=       500 IOpCl=  0 I1Cent=   200000004 NGrid=           0
         NMat0=    1 NMatS0=      1 NMatT0=    0 NMatD0=    1 NMtDS0=    0 NMtDT0=    0
 Symmetry not used in FoFCou.
 Requested convergence on RMS density matrix=1.00D-08 within1000 cycles.
 Requested convergence on MAX density matrix=1.00D-06.
 Requested convergence on             energy=1.00D-06.
 No special actions if energy rises.
 SCF Done:  E(RB3LYP) =  -465.694929212     A.U. after   11 cycles
            NFock= 11  Conv=0.90D-08     -V/T= 2.0103
 Calling FoFJK, ICntrl=      2127 FMM=F ISym2X=0 I1Cent= 0 IOpClX= 0 NMat=1 NMatS=1 NMatT=0.
 -------------------------------------------------------------------
 Center     Atomic                   Forces (Hartrees/Bohr)
 Number     Number              X              Y              Z
 -------------------------------------------------------------------
      1        6           0.000021548   -0.000059437   -0.001077816
      2        6           0.000248187    0.000412638    0.000581414
      3        6          -0.000350696   -0.000208706    0.000066297
      4        6           0.000121843    0.000041682    0.000079741
      5        6           0.000041825    0.000035293    0.000049920
      6        6          -0.000044940   -0.000060536   -0.000211384
      7        1          -0.000067446   -0.000005066    0.000096042
      8        6           0.000057375   -0.000036055   -0.000066236
      9        1           0.000045281   -0.000018690    0.000090377
     10        6           0.000016674    0.000014420   -0.000035857
     11        1          -0.000018466   -0.000000751   -0.000060032
     12        1           0.000022693   -0.000010797   -0.000060123
     13        1           0.000005381    0.000029877   -0.000121721
     14        6           0.000451679    0.001016304   -0.000133861
     15        6          -0.000053184   -0.000236284   -0.000619618
     16        1          -0.000086141   -0.000161313   -0.000233685
     17        1          -0.000033264   -0.000231027   -0.000242304
     18        1           0.000040870    0.000191908    0.000097603
     19        1           0.000084585    0.000138585    0.000089274
     20        6           0.000369882    0.000715445    0.000878692
     21        1           0.000007707   -0.000063569   -0.000119228
     22        1          -0.000030868   -0.000032028   -0.000112210
     23        6          -0.000546021   -0.000963460    0.001796154
     24        1          -0.000299316    0.000014464   -0.000231403
     25        1          -0.000161464   -0.000278396   -0.000272714
     26        1           0.000156276   -0.000244503   -0.000227322
 -------------------------------------------------------------------
 Cartesian Forces:  Max     0.001796154 RMS     0.000364951

 GradGradGradGradGradGradGradGradGradGradGradGradGradGradGradGradGradGrad
 Berny optimization.
 Search for a local minimum.
 Step number   3 out of a maximum of   88
 All quantities printed in internal units (Hartrees-Bohrs-Radians)
 Update second derivatives using D2CorN and points    1    2    3
 DE= -5.36D-04 DEPred=-5.70D-04 R= 9.39D-01
 TightC=F SS=  1.41D+00  RLast= 2.35D-01 DXNew= 8.4853D-01 7.0495D-01
 Trust test= 9.39D-01 RLast= 2.35D-01 DXMaxT set to 7.05D-01
 ITU=  1  1  0
     Eigenvalues ---    0.00000   0.00034   0.00064   0.00104   0.00242
     Eigenvalues ---    0.00317   0.00411   0.01049   0.01566   0.01732
     Eigenvalues ---    0.02151   0.02810   0.03066   0.03383   0.03757
     Eigenvalues ---    0.04412   0.05071   0.05440   0.05530   0.05913
     Eigenvalues ---    0.06850   0.07033   0.07112   0.07210   0.07326
     Eigenvalues ---    0.07664   0.08443   0.09022   0.09613   0.10240
     Eigenvalues ---    0.10955   0.11651   0.12154   0.12951   0.13793
     Eigenvalues ---    0.14336   0.15666   0.16346   0.17958   0.19350
     Eigenvalues ---    0.20880   0.26043   0.26798   0.28956   0.29560
     Eigenvalues ---    0.32799   0.38392   0.39816   0.43542   0.48368
     Eigenvalues ---    0.50633   0.55886   0.62078   0.67273   0.71471
     Eigenvalues ---    0.79112   0.80809   0.93532   0.94197   0.97795
     Eigenvalues ---    1.01663   1.03290   1.03323   1.08331   1.09835
     Eigenvalues ---    1.12887   1.23758   1.25205   1.45183   1.57735
     Eigenvalues ---    1.59515   2.55071
 RFO step:  Lambda=-6.79820132D-05 EMin=-1.24865292D-06
 Quartic linear search produced a step of -0.02518.
 B after Tr=     0.000973    0.002072    0.001463
         Rot=    1.000000   -0.000178   -0.000054    0.000525 Ang=  -0.06 deg.
 Variable       Old X    -DE/DX   Delta X   Delta X   Delta X     New X
                                 (Linear)    (Quad)   (Total)
    X1       -0.02246   0.00002   0.00010   0.04063   0.04167   0.01921
    Y1       -0.04373  -0.00006   0.00025   0.01883   0.02115  -0.02258
    Z1       -0.05733  -0.00108  -0.00044   0.00578   0.00679  -0.05054
    X2       -0.01956   0.00025   0.00020   0.02892   0.03032   0.01075
    Y2       -0.03908   0.00041   0.00041   0.01773   0.01940  -0.01968
    Z2        2.23743   0.00058  -0.00044   0.00656   0.00758   2.24500
    X3       -0.01443  -0.00035   0.00028   0.01102   0.01278  -0.00165
    Y3       -0.02920  -0.00021   0.00059   0.00605   0.00695  -0.02225
    Z3        4.94092   0.00007  -0.00059   0.00699   0.00785   4.94877
    X4       -2.30505   0.00012   0.00022   0.00286   0.00476  -2.30028
    Y4       -0.02367   0.00004   0.00048   0.04438   0.04709   0.02342
    Z4        6.30138   0.00008  -0.00083  -0.00684  -0.00595   6.29543
    X5        2.28022   0.00004   0.00031   0.00315   0.00504   2.28526
    Y5       -0.02311   0.00004   0.00062  -0.04676  -0.04872  -0.07183
    Z5        6.29342   0.00005  -0.00071   0.02162   0.02209   6.31552
    X6       -2.29348  -0.00004   0.00014  -0.01327  -0.01116  -2.30464
    Y6       -0.01103  -0.00006   0.00022   0.03144   0.03297   0.02195
    Z6        8.93757  -0.00021  -0.00085  -0.00740  -0.00653   8.93103
    X7       -4.07910  -0.00007   0.00025   0.00777   0.00962  -4.06948
    Y7       -0.02846  -0.00001   0.00050   0.08274   0.08772   0.05925
    Z7        5.26881   0.00010  -0.00084  -0.01560  -0.01451   5.25429
    X8        2.27721   0.00006   0.00025  -0.01291  -0.01079   2.26643
[...]
 ,-0.00000403,0.00001380,-0.00000479,-0.00000917,0.00002551,0.00001133,
 0.00000407,0.00001704,-0.00003481,0.00000754,-0.00000414,-0.00000133,0
 .00002318,-0.00000057,-0.00000302,-0.00000013,0.00000179,-0.00000538,0
 .00000939,0.00000292,-0.00000247,0.00000027,-0.00977739,-0.00239299,-0
 .00300169,-0.26193194,-0.04102708,-0.08452153,0.00088296,-0.00191047,0
 .00103008,0.00083990,-0.00027655,0.00003820,-0.01854080,-0.00347715,-0
 .00724929,0.28311711,-0.00013382,0.00043487,-0.00175082,0.00030688,0.0
 0023489,0.00072548,-0.00001629,-0.00004650,-0.00005195,-0.00001286,-0.
 00000063,0.00000010,-0.00003396,-0.00002080,0.00004544,0.00000648,0.00
 000441,-0.00000130,0.00000475,-0.00000692,-0.00000085,0.00002053,0.000
 00249,-0.00001278,0.00000860,-0.00000120,0.00001004,-0.00000870,-0.000
 00326,-0.00000023,0.00000136,-0.00000080,-0.00000106,-0.00000005,0.000
 00196,0.00000258,0.00000204,0.00000099,-0.00000174,-0.02843811,-0.0078
 9791,-0.00880846,-0.03981385,-0.05780251,-0.01777253,-0.00216373,-0.00
 493155,0.00236260,0.00023436,0.00094440,-0.00075740,0.02243988,0.00513
 538,0.00932487,0.04834038,0.06360656,0.00114772,0.00014810,0.00116396,
 -0.00018791,-0.00013459,-0.00010893,-0.00003045,0.00000538,-0.00009108
 ,0.00001886,-0.00000366,0.00005051,0.00000722,0.00000654,0.00000765,0.
 00000104,0.00001132,-0.00000545,-0.00000444,-0.00000220,0.00000033,-0.
 00002059,-0.00001085,-0.00000556,-0.00000619,0.00001268,-0.00000458,0.
 00000355,0.00000189,0.00002530,-0.00000381,0.00000125,0.00000661,0.000
 00364,-0.00000028,0.00000504,-0.00000131,-0.00000016,0.00000405,0.0125
 7152,0.00343781,0.00358174,-0.08557433,-0.01842272,-0.08253737,0.00098
 114,0.00262172,-0.00068119,-0.00051564,-0.00064574,0.00011261,0.009385
 85,0.00231600,0.00370023,0.09273171,0.01669678,0.09354460,-0.00045881,
 -0.00208554,0.00076032,0.00024123,0.00002979,0.00061747,0.00004862,0.0
 0014590,-0.00016895,0.00001896,0.00001282,0.00005097,-0.00003517,-0.00
 002863,0.00008972,0.00001384,-0.00004524,-0.00001183,0.00000669,0.0000
 1581,-0.00000526,-0.00002137,0.00003882,-0.00002042,0.00000660,-0.0000
 2361,-0.00000021,-0.00000904,-0.00000024,0.00006993,-0.00000703,0.0000
 0005,0.00001113,0.00000936,-0.00000150,0.00000846,0.00000158,0.0000008
 5,0.00000594,-0.00151047,-0.00035983,0.01180190,-0.08152667,0.00106188
 ,0.00125116,-0.00002088,-0.00029198,0.00129417,0.00031548,0.00092577,-
 0.00085918,-0.00053063,0.00008570,0.02193097,0.00154312,-0.00071764,-0
 .03165846,0.57893862,-0.00215464,-0.00538313,0.00186122,-0.00004245,0.
 00032154,0.00181835,0.00015843,0.00036572,-0.00051115,0.00002954,-0.00
 001376,0.00021561,-0.00005534,0.00003933,0.00022774,0.00005367,-0.0000
 1249,-0.00004067,-0.00000372,-0.00001067,-0.00002079,-0.00005102,-0.00
 005471,-0.00003794,0.00000485,0.00001014,-0.00001852,-0.00000238,0.000
 00781,0.00018151,-0.00002468,0.00000372,0.00002969,0.00002042,-0.00000
 625,0.00003518,-0.00000010,0.00000314,0.00001944,-0.00142366,-0.001420
 76,0.03134314,0.00108914,-0.07977715,-0.00797893,0.00053789,0.00090983
 ,0.00030992,-0.00006226,0.00064409,0.00107974,0.00025421,-0.00049292,-
 0.02470042,0.00028058,-0.00048499,-0.00540672,-0.02558644,0.52120000,0
 .00025937,0.00045152,-0.00168737,0.00003741,0.00027032,0.00124188,0.00
 002904,0.00001278,-0.00048459,-0.00003381,0.00001007,0.00012295,0.0000
 3048,-0.00000730,0.00012550,0.00002437,-0.00000949,-0.00004346,0.00000
 970,0.00000408,-0.00001155,-0.00002826,-0.00001178,-0.00004614,-0.0000
 0714,0.00001278,-0.00001334,-0.00000235,0.00000744,0.00010084,-0.00001
 323,0.00000370,0.00001445,0.00001278,-0.00000064,0.00001529,-0.0000007
 4,0.00000020,0.00001382,0.00210892,0.00433585,-0.01468846,0.00151159,-
 0.00722484,-0.18507406,-0.00063343,-0.00132309,0.00090698,-0.00039116,
 -0.00135524,0.00082471,-0.00003254,-0.00025692,-0.01238089,0.00083231,
 -0.00056728,-0.01448166,0.01572369,0.03097252,0.47387812,0.00005237,-0
 .00033271,-0.00010723,0.00000495,-0.00002097,-0.00003894,-0.00000995,0
 .00002756,-0.00002187,-0.00000771,-0.00000365,0.00000304,0.00000136,-0
 .00000085,0.00000088,0.00000504,-0.00000103,-0.00000241,0.00000334,0.0
 0000438,-0.00000169,-0.00000470,-0.00000765,-0.00000263,0.00000193,0.0
 0000849,-0.00000106,-0.00000025,0.00000005,0.00000604,-0.00000076,0.00
 000203,-0.00000006,0.00000199,0.00000147,0.00000114,0.00000045,0.00000
 133,0.00000180,-0.00005766,0.00030016,0.00013181,-0.00083270,0.0005318
 9,0.00027553,-0.00007427,0.00014851,0.00001410,0.00012897,-0.00051657,
 0.00041728,0.00152356,-0.00051711,0.00014691,0.00077550,-0.00051320,0.
 00032698,-0.14309619,0.11136314,0.04404857,0.15152332,-0.00012408,0.00
 017500,0.00005013,-0.00000556,0.00000268,-0.00008647,0.00001139,-0.000
 01564,0.00003256,0.00000410,0.00000462,-0.00000818,0.00001011,-0.00000
 293,-0.00000934,-0.00000920,0.00000002,0.00000495,-0.00000449,-0.00000
 413,0.00000089,0.00000506,0.00000610,0.00000291,-0.00000273,-0.0000050
 4,-0.00000006,0.00000006,0.00000112,-0.00001167,0.00000051,-0.00000234
 ,-0.00000005,-0.00000250,-0.00000116,-0.00000324,-0.00000074,-0.000001
 56,-0.00000167,-0.00050238,0.00080982,0.00056488,0.00044353,-0.0010048
 8,-0.00040184,-0.00004161,-0.00001430,-0.00005028,0.00016308,0.0003954
 6,-0.00000348,-0.00050326,0.00071314,0.00006257,-0.00021865,-0.0001007
 7,-0.00039133,0.11076900,-0.18342667,-0.05561210,-0.12153464,0.2032572
 5,-0.00045202,0.00015103,0.00022382,-0.00002364,0.00008576,0.00015961,
 0.00002970,-0.00000816,0.00006381,0.00000839,-0.00000533,-0.00000498,0
 .00000780,-0.00000034,-0.00000956,-0.00001236,0.00001109,0.00000760,-0
 .00000746,-0.00000768,0.00000199,0.00000574,-0.00000160,0.00000863,-0.
 00000359,-0.00000383,-0.00000089,0.00000177,-0.00000216,-0.00001650,0.
 00000141,-0.00000195,-0.00000047,-0.00000301,-0.00000070,-0.00000291,-
 0.00000089,-0.00000039,-0.00000247,0.00034599,-0.00145011,0.00074529,0
 .02249869,-0.02547063,-0.01276364,-0.00001361,0.00009661,-0.00000962,-
 0.00014556,0.00123020,-0.00024914,0.00005328,0.00027868,-0.00679263,-0
 .00055497,-0.00007600,0.00119150,0.04363490,-0.05546303,-0.07069794,-0
 .05075613,0.05876543,0.08070553,0.00028709,0.00021978,0.00011192,0.000
 01648,0.00001197,-0.00003793,-0.00003537,-0.00001839,0.00003237,-0.000
 00595,0.00000064,-0.00000514,-0.00000853,0.00000629,-0.00000631,-0.000
 00436,0.00000793,0.00000353,0.00000172,-0.00000679,0.00000014,0.000011
 66,-0.00000043,0.00000612,0.00000297,-0.00000732,0.00000206,0.00000089
 ,0.,-0.00001308,0.00000269,-0.00000237,-0.00000268,-0.00000172,-0.0000
 0198,0.00000086,0.00000043,-0.00000178,-0.00000221,0.00046054,0.000108
 84,0.00023102,0.00096143,0.00017382,0.00050136,0.00037256,0.00044366,-
 0.00029481,-0.00010231,-0.00008401,-0.00004543,0.00079081,-0.00019711,
 -0.00052403,0.00164941,-0.00029796,0.00053257,-0.25793984,-0.04165808,
 -0.08158062,-0.01887940,-0.00332473,-0.00699301,0.28017453,0.00000857,
 -0.00010852,-0.00001729,0.00000453,-0.00000213,-0.00008923,-0.00000252
 ,0.00000298,0.00001360,-0.00000681,-0.00000070,-0.00000722,0.00000053,
 -0.00000094,-0.00000449,-0.00000136,-0.00000098,0.00000080,0.00000206,
 0.00000288,-0.00000021,0.00000374,0.00000082,0.00000273,0.00000102,-0.
 00000250,-0.00000015,0.00000058,0.,-0.00000560,0.00000102,0.00000010,-
 0.00000172,-0.00000020,-0.00000051,0.00000005,0.00000016,-0.00000026,-
 0.00000031,0.00078377,0.00035537,0.00057276,-0.00094641,-0.00059931,-0
 .00050552,-0.00016762,0.00014423,0.00024371,0.00011746,0.00001563,-0.0
 0002215,-0.00049180,-0.00011579,-0.00009575,-0.00030090,0.00054511,-0.
 00006764,-0.04106525,-0.05879108,-0.01805239,0.02260542,0.00512389,0.0
 0934785,0.04921209,0.06360542,0.00044435,-0.00014472,0.00026208,0.0000
 6407,0.00005634,0.00017039,-0.00003483,0.00001624,0.00005651,-0.000010
 42,0.00000205,-0.00001383,-0.00001579,-0.00000158,-0.00000236,-0.00000
 330,-0.00000576,0.00000588,0.00000414,-0.00000089,-0.00000047,0.000016
 39,0.00000887,0.00000757,0.00000640,-0.00001320,0.00000508,-0.00000166
 ,-0.00000150,-0.00001455,0.00000314,-0.00000137,-0.00000355,-0.0000019
 6,-0.00000116,-0.00000037,0.00000138,-0.00000058,-0.00000283,-0.001237
 88,-0.00090139,0.00069729,-0.03258383,-0.00562534,-0.01493688,0.000947
 59,0.00088939,-0.00024490,0.00005991,0.00005921,-0.00001220,0.00036307
 ,-0.00039316,0.00119537,0.00073447,0.00004424,-0.00675216,-0.08117706,
 -0.01824418,-0.08049877,0.00919275,0.00249013,0.00359384,0.08942785,0.
 01691951,0.09167158,0.00061378,-0.00005328,-0.00004188,-0.00006264,0.0
 0001518,-0.00010532,-0.00003988,-0.00000304,0.00005892,0.00000257,0.00
 000451,-0.00000997,0.00001435,-0.00001286,-0.00003564,-0.00000467,0.00
 000207,0.00000433,-0.00000721,-0.00000275,0.00000228,0.00000187,0.0000
 0028,0.00000319,-0.00000133,0.00000741,0.00000378,0.00000084,-0.000001
 12,-0.00001692,0.00000042,-0.00000086,-0.00000137,-0.00000359,0.000002
 33,-0.00000705,-0.00000064,0.00000028,-0.00000260,-0.00037151,0.000347
 93,-0.00042561,-0.00104347,-0.00126848,0.00263875,0.00038212,0.0001720
 8,0.00008718,0.00012984,-0.00038897,-0.00001718,-0.00010400,-0.0006203
 8,0.00026651,0.00054379,0.00089684,-0.00115449,-0.09238485,-0.03217408
 ,0.01309759,0.00734314,0.01766941,-0.00836144,-0.00954981,-0.02836629,
 0.01309074,0.55659325,0.00002802,0.00069613,-0.00016221,0.00001768,-0.
 00006856,-0.00036404,-0.00001267,-0.00004606,0.00020180,-0.00001210,-0
 .00000819,-0.00007665,0.00001076,-0.00000842,-0.00007070,-0.00001287,0
 .00000417,0.00001122,-0.00000266,0.00000638,0.00001050,0.00001328,0.00
 000481,0.00001297,0.00000588,-0.00000096,0.00001062,0.00000114,-0.0000
 0519,-0.00005924,0.00000979,0.00000063,-0.00001268,-0.00000697,0.00000
 333,-0.00001228,0.00000078,0.00000097,-0.00000910,0.00038210,0.0003514
 1,-0.00183020,-0.00021337,-0.00045424,0.00560772,-0.00004562,-0.000146
 48,0.00005230,-0.00017673,0.00013187,0.00007696,0.00024610,0.00090212,
 -0.00138028,0.00016316,0.00030482,-0.00086936,-0.03220633,-0.16586457,
 0.03489785,-0.00982261,-0.02293222,0.01076383,-0.00213856,-0.00691994,
 0.00310132,-0.02794700,0.49308259,0.00067668,0.00183798,0.00020039,-0.
 00001567,-0.00013441,-0.00073294,-0.00005898,-0.00011199,0.00033396,-0
 .00000934,-0.00000554,-0.00011195,0.00001737,-0.00001309,-0.00011969,-
 0.00002697,0.00001159,0.00002533,-0.00000328,0.00000172,0.00001212,0.0
 0002832,0.00001433,0.00002711,0.00000135,-0.00000364,0.00001229,0.0000
 0230,-0.00000667,-0.00010064,0.00001349,-0.00000132,-0.00001646,-0.000
 01187,0.00000388,-0.00001860,0.00000038,-0.00000009,-0.00001223,-0.000
 13569,-0.00103267,-0.00637942,0.01214486,0.03204132,-0.01613901,0.0003
 0641,-0.00010111,0.00002839,-0.00029158,0.00008361,0.00000060,0.000042
 71,0.00057450,0.00113634,0.00028698,0.00054236,0.00110704,0.01275221,0
 .03395568,-0.09344702,-0.00347528,-0.00775727,0.00374136,-0.00315839,-
 0.00994229,0.00463315,0.01148144,0.03144897,0.56265605,0.00000708,-0.0
 0006405,0.00004092,0.00001113,0.00000670,0.00007485,-0.00000258,0.0000
 0285,-0.00003992,-0.00000331,0.00000446,0.00001276,-0.00000979,0.00000
 988,0.00002074,0.00000365,-0.00000127,-0.00000092,0.00000392,-0.000002
 69,-0.00000303,0.00000303,0.00000223,0.00000046,0.00000067,-0.00000816
 ,-0.00000290,-0.00000025,0.00000214,0.00001174,-0.00000126,-0.00000117
 ,0.00000120,0.00000193,-0.00000323,0.00000517,0.00000008,-0.00000154,0
 .00000198,0.00036213,0.00001176,0.00025861,0.00001829,0.00043434,-0.00
 070389,0.00012510,0.00022012,-0.00012134,-0.00002697,0.00002242,-0.000
 02411,-0.00007681,-0.00003223,-0.00001707,0.00028319,-0.00019253,0.000
 95272,-0.00987835,-0.00218040,-0.00324265,0.00086612,-0.00035372,0.000
 11992,0.00098628,-0.00217888,0.00102393,-0.26854210,-0.04636123,-0.079
 16421,0.29160197,0.00013087,0.00003984,0.00006271,-0.00000704,-0.00000
 920,0.00003529,-0.00000873,-0.00000350,-0.00001925,0.00000182,0.000000
 83,0.00000917,-0.00000958,0.00000222,0.00001031,0.00000139,-0.00000100
 ,-0.00000068,0.00000237,-0.00000093,-0.00000177,0.00000202,0.00000005,
 -0.00000029,0.00000014,-0.00000045,-0.00000086,-0.00000010,0.00000014,
 0.00000391,-0.00000054,0.00000028,0.00000130,0.00000093,0.00000015,0.0
 0000262,0.00000031,0.00000012,0.00000091,0.00014713,-0.00006714,-0.000
 11767,-0.00024438,0.00080163,-0.00142314,0.00022234,0.00014353,-0.0000
 3567,-0.00003235,-0.00003068,-0.00003844,0.00011154,0.00000860,0.00012
 680,0.00044362,0.00016140,0.00081373,-0.02890654,-0.00648992,-0.009960
 65,0.00037790,0.00077479,-0.00079576,-0.00206864,-0.00513005,0.0028945
 3,-0.04577314,-0.05843078,-0.01737962,0.05373395,0.06356122,-0.0000804
 9,-0.00006536,-0.00006830,-0.00000146,-0.00000797,0.00004165,0.0000068
 0,0.00000222,-0.00005006,0.00000263,0.00000198,0.00001571,-0.00000194,
 0.00000127,0.00001660,0.00000374,-0.00000249,-0.00000289,0.00000258,0.
 00000084,-0.00000264,-0.00000545,-0.00000238,-0.00000440,-0.00000221,0
 .00000395,-0.00000373,-0.00000024,0.00000118,0.00001286,-0.00000265,0.
 00000092,0.00000265,0.00000289,-0.00000002,0.00000360,-0.00000024,0.00
 000034,0.00000348,0.00003139,0.00008550,0.00009139,0.00140534,0.000073
 37,0.00108859,-0.00012962,-0.00004411,-0.00009976,0.00000850,-0.000036
 01,0.00001374,0.00001048,-0.00002189,-0.00004061,-0.00032535,0.0001716
 1,-0.00015938,0.01253129,0.00228504,0.00376943,-0.00043243,-0.00074875
 ,0.00017897,0.00123804,0.00246611,-0.00040688,-0.07982509,-0.01764678,
 -0.07825810,0.08751133,0.01691729,0.08087914,-0.00005401,-0.00022848,0
 .00002007,-0.00001132,0.00001572,0.00009832,0.00000715,0.00001323,-0.0
 0005525,0.00000264,-0.00000022,0.00002042,-0.00000587,0.00000323,0.000
 02079,0.00000455,-0.00000274,-0.00000397,0.00000190,0.00000044,-0.0000
 0299,-0.00000359,0.00000021,-0.00000271,-0.00000080,-0.00000163,-0.000
 00263,-0.00000015,0.00000076,0.00001683,-0.00000266,0.00000047,0.00000
 340,0.00000220,-0.00000111,0.00000366,0.00000008,-0.00000011,0.0000026
 2,0.00051893,-0.00001659,0.00071231,-0.00058588,-0.00224622,0.00005522
 ,-0.00000344,0.00010889,-0.00004200,-0.00000889,-0.00005043,0.00001651
 ,0.00009701,-0.00010281,-0.00045743,0.00030553,-0.00002820,0.00040544,
 -0.00133370,0.00119968,0.01159106,0.00027265,0.00026230,-0.00056948,-0
 .00005746,0.00042409,0.00024781,-0.04910839,0.00061737,0.00635807,0.00
 215739,-0.00109175,-0.03143565,0.04831784,-0.00022086,-0.00057687,0.00
 004908,0.00000571,0.00003532,0.00025481,0.00001922,0.00003625,-0.00013
 322,0.00000723,-0.00000145,0.00004906,-0.00001160,0.00000424,0.0000514
 5,0.00001048,-0.00000118,-0.00000728,0.00000225,-0.00000263,-0.0000068
 0,-0.00000990,-0.00000237,-0.00000793,-0.00000209,0.00000003,-0.000007
 17,-0.00000133,0.00000145,0.00004110,-0.00000637,0.00000033,0.00000800
 ,0.00000551,-0.00000214,0.00000897,-0.00000032,-0.00000021,0.00000616,
 -0.00011212,0.00044695,0.00184768,-0.00211587,-0.00563500,0.00021458,-
 0.00003858,0.00006566,-0.00002835,0.00010398,0.00007395,-0.00004213,-0
 .00033346,0.00015034,0.00008461,0.00019764,-0.00009468,-0.00020221,-0.
 00010868,0.00183792,0.03118811,0.00074248,0.00083847,-0.00023813,-0.00
 000050,0.00108954,-0.00056598,0.00065295,-0.04849585,-0.01114203,0.000
 90985,-0.00111285,-0.00610785,0.00115075,0.05186076,0.00011021,0.00030
 140,-0.00004918,0.00000594,0.00000015,-0.00014386,-0.00001202,-0.00001
 345,0.00014446,-0.00001517,0.00000478,-0.00005507,0.00001772,-0.000004
 20,-0.00005399,-0.00001381,0.00000408,0.00000606,-0.00000807,-0.000001
 47,0.00001090,0.00001525,0.00000170,0.00000747,0.00000660,-0.00000641,
 0.00001185,0.00000147,-0.00000106,-0.00004345,0.00000954,-0.00000275,-
 0.00001112,-0.00000890,0.00000098,-0.00001163,0.00000035,-0.00000090,-
 0.00001134,-0.00014395,-0.00054174,-0.00060856,0.00120141,0.00340606,0
 .00075960,0.00006261,0.00003466,-0.00001804,-0.00002864,0.00006068,-0.
 00002149,-0.00007799,-0.00010151,0.00032867,-0.00001083,-0.00011957,0.
 00036643,-0.00024804,-0.00168779,-0.01035832,-0.00048227,0.00049859,0.
 00034758,0.00066146,0.00008885,0.00042610,0.00668043,-0.01024334,-0.30
 980567,0.00025013,-0.00077406,-0.00990751,-0.00796894,0.00977393,0.336
 52007,-0.00001411,0.00011593,0.00000963,0.00000493,-0.00001931,-0.0000
 3670,-0.00000061,-0.00000641,0.00002102,-0.00000044,-0.00000393,-0.000
 00919,-0.00000402,-0.00000150,-0.00000587,-0.00000035,-0.00000182,-0.0
 0000032,0.00000122,0.00000404,0.00000186,0.00000114,-0.00000142,-0.000
 00004,0.00000142,0.00000249,0.00000183,-0.00000016,-0.00000150,-0.0000
 0729,0.00000190,0.00000173,-0.00000182,-0.00000052,0.00000195,-0.00000
 073,0.00000044,0.00000136,-0.00000129,0.00012509,-0.00016885,-0.000267
 55,0.00034914,-0.00005194,-0.00041630,-0.00002069,-0.00002697,-0.00000
 745,-0.00009489,-0.00002116,0.00007117,0.00010114,0.00023659,-0.000204
 08,-0.00008499,0.00010878,0.00008766,0.00760890,-0.00957227,-0.0033509
 7,0.00045890,-0.00271026,0.00118956,0.00086527,0.00036301,-0.00056128,
 -0.14440187,0.11746264,0.04223869,-0.01789053,0.02296646,0.00948781,-0
 .00051172,-0.00084637,-0.00000449,0.15350543,-0.00008879,0.00005705,0.
 00006690,-0.00000992,-0.00000220,0.00007318,0.00000933,-0.00000425,-0.
 00003799,0.00001152,0.00000372,0.00002080,0.00000007,0.00000318,0.0000
 1529,-0.00000175,0.00000230,0.00000036,-0.00000190,-0.00000548,-0.0000
 0296,-0.00000269,0.00000155,-0.00000083,-0.00000439,-0.00000226,-0.000
 00381,0.00000011,0.00000147,0.00001065,-0.00000298,-0.00000131,0.00000
 467,0.00000098,-0.00000148,0.00000219,-0.00000071,-0.00000103,0.000002
 15,-0.00029795,0.00019014,0.00004921,0.00078094,0.00056417,-0.00147541
 ,0.00002934,-0.00003534,-0.00004296,-0.00002471,0.00034757,-0.00011634
 ,-0.00047531,0.00036706,0.00118150,-0.00004531,0.00001525,0.00008425,0
 .01834104,-0.02311418,-0.00778549,-0.00284381,-0.00459072,0.00279532,-
 0.00037636,0.00078674,-0.00058100,0.11684097,-0.19210776,-0.05288421,-
 0.00397958,0.00578171,0.00267199,-0.00002686,-0.00051596,-0.00067760,-
 0.12783128,0.21226008,0.00002760,-0.00009770,-0.00006672,-0.00000499,-
 0.00000412,0.00003856,-0.00000030,0.00000202,-0.00004917,0.00000217,0.
 00000087,0.00001637,-0.00000215,0.00000197,0.00001454,0.00000419,-0.00
 000290,-0.00000389,0.00000289,0.00000186,-0.00000297,-0.00000483,-0.00
 000174,-0.00000391,-0.00000204,0.00000291,-0.00000266,-0.00000023,0.00
 000105,0.00001233,-0.00000284,0.00000108,0.00000325,0.00000250,0.00000
 002,0.00000263,0.,0.00000034,0.00000333,0.00003799,0.00007019,0.000071
 47,-0.00110144,0.00096819,0.00098998,-0.00003275,-0.00002372,0.0000124
 4,0.00007327,-0.00012919,-0.00008321,0.00038054,-0.00008281,-0.0001634
 2,-0.00002188,-0.00000413,-0.00004025,-0.00838483,0.00977536,0.0028996
 0,0.00075518,0.00261269,-0.00041878,-0.00008567,-0.00084402,0.00016490
 ,0.04258942,-0.05345920,-0.06877240,-0.00696642,0.00966929,0.00288648,
 0.02096849,-0.02508846,-0.00782997,-0.04823388,0.05663015,0.07032146\\
 -0.00000354,0.00000237,0.00000199,0.00000939,0.00000156,0.00000209,0.0
 0001998,-0.00000388,0.00001932,-0.00000208,-0.00000075,-0.00000719,-0.
 00002113,0.00000781,-0.00002886,0.00002517,-0.00001090,0.00002983,0.00
 002557,-0.00000183,0.00001658,0.00000742,0.00000022,0.00001254,-0.0000
 0115,0.00000126,-0.00000379,-0.00004790,0.00001518,-0.00002185,0.00001
 453,-0.00000387,0.00000109,-0.00001999,0.00000099,-0.00001165,-0.00000
 691,-0.00000024,0.00000535,0.00000863,-0.00001040,-0.00000300,-0.00000
 219,-0.00000256,-0.00000942,-0.00003123,-0.00000387,-0.00000278,0.0000
 1391,-0.00001991,-0.00000066,-0.00002268,0.00002353,0.00000949,0.00004
 373,0.00000472,0.00001702,0.00000679,-0.00000546,0.00002458,0.00003073
 ,-0.00003463,-0.00001401,-0.00005616,-0.00000818,-0.00002372,-0.000016
 12,0.00002366,-0.00003422,0.00003733,0.00000366,0.00001301,0.00000334,
 -0.00000113,0.00000057,-0.00001545,0.00002263,0.00000769\\\@


 ARTHROPOD AXIOM: A COMPUTER SYSTEM IS LIKE A SPIDER'S WEB.
 YOU CANNOT PULL ON ONE END WITHOUT MAKING THE OTHER END MOVE.
     -- GREG WETTSTEIN
 Job cpu time:       0 days  1 hours  8 minutes 48.4 seconds.
 Elapsed time:       0 days  0 hours  2 minutes 17.7 seconds.
 File lengths (MBytes):  RWF=    179 Int=      0 D2E=      0 Chk=      7 Scr=      1
 Normal termination of Gaussian 16 at Mon Sep 18 07:49:55 2023.
