 Entering Gaussian System, Link 0=g16
 Input=/home/ubuntu/products/MOLECULE_1 .gjf
 Output=/home/ubuntu/products/MOLECULE_1 .log
 Initial command:
 /home/ubuntu/g16/l1.exe "/home/ubuntu/Scratch/Gau-5748.inp" -scrdir="/home/ubuntu/Scratch/"
 Entering Link 1 = /home/ubuntu/g16/l1.exe PID=      5752.
  
 Copyright (c) 1988-2017, Gaussian, Inc.  All Rights Reserved.
  
 This is part of the Gaussian(R) 16 program.  It is based on
 the Gaussian(R) 09 system (copyright 2009, Gaussian, Inc.),
 the Gaussian(R) 03 system (copyright 2003, Gaussian, Inc.),
 the Gaussian(R) 98 system (copyright 1998, Gaussian, Inc.),
 the Gaussian(R) 94 system (copyright 1995, Gaussian, Inc.),
 the Gaussian 92(TM) system (copyright 1992, Gaussian, Inc.),
 the Gaussian 90(TM) system (copyright 1990, Gaussian, Inc.),
 the Gaussian 88(TM) system (copyright 1988, Gaussian, Inc.),
 the Gaussian 86(TM) system (copyright 1986, Carnegie Mellon
 University), and the Gaussian 82(TM) system (copyright 1983,
 Carnegie Mellon University). Gaussian is a federally registered
 trademark of Gaussian, Inc.
  
 This software contains proprietary and confidential information,
 including trade secrets, belonging to Gaussian, Inc.
  
 This software is provided under written license and may be
 used, copied, transmitted, or stored only in accord with that
 written license.
  
 The following legend is applicable only to US Government
 contracts under FAR:
  
                    RESTRICTED RIGHTS LEGEND
  
 Use, reproduction and disclosure by the US Government is
 subject to restrictions as set forth in subparagraphs (a)
 and (c) of the Commercial Computer Software - Restricted
 Rights clause in FAR 52.227-19.
  
 Gaussian, Inc.
 340 Quinnipiac St., Bldg. 40, Wallingford CT 06492
  
  
 ---------------------------------------------------------------
 Warning -- This program may not be used in any manner that
 competes with the business of Gaussian, Inc. or will provide
 assistance to any competitor of Gaussian, Inc.  The licensee
 of this program is prohibited from giving any competitor of
 Gaussian, Inc. access to this program.  By using this program,
 the user acknowledges that Gaussian, Inc. is engaged in the
 business of creating and licensing software in the field of
 computational chemistry and represents and warrants to the
 licensee that it is not a competitor of Gaussian, Inc. and that
 it will not use this program in any manner prohibited above.
 ---------------------------------------------------------------
  

 Cite this work as:
 Gaussian 16, Revision B.01,
 M. J. Frisch, G. W. Trucks, H. B. Schlegel, G. E. Scuseria, 
 M. A. Robb, J. R. Cheeseman, G. Scalmani, V. Barone, 
 G. A. Petersson, H. Nakatsuji, X. Li, M. Caricato, A. V. Marenich, 
 J. Bloino, B. G. Janesko, R. Gomperts, B. Mennucci, H. P. Hratchian, 
 J. V. Ortiz, A. F. Izmaylov, J. L. Sonnenberg, D. Williams-Young, 
 F. Ding, F. Lipparini, F. Egidi, J. Goings, B. Peng, A. Petrone, 
 T. Henderson, D. Ranasinghe, V. G. Zakrzewski, J. Gao, N. Rega, 
 G. Zheng, W. Liang, M. Hada, M. Ehara, K. Toyota, R. Fukuda, 
 J. Hasegawa, M. Ishida, T. Nakajima, Y. Honda, O. Kitao, H. Nakai, 
 T. Vreven, K. Throssell, J. A. Montgomery, Jr., J. E. Peralta, 
 F. Ogliaro, M. J. Bearpark, J. J. Heyd, E. N. Brothers, K. N. Kudin, 
 V. N. Staroverov, T. A. Keith, R. Kobayashi, J. Normand, 
 K. Raghavachari, A. P. Rendell, J. C. Burant, S. S. Iyengar, 
 J. Tomasi, M. Cossi, J. M. Millam, M. Klene, C. Adamo, R. Cammi, 
 J. W. Ochterski, R. L. Martin, K. Morokuma, O. Farkas, 
 J. B. Foresman, and D. J. Fox, Gaussian, Inc., Wallingford CT, 2016.
 
 ******************************************
 Gaussian 16:  EM64L-G16RevB.01 20-Dec-2017
                17-Sep-2023 
 ******************************************
 %nprocshared=30
 Will use up to   30 processors via shared memory.
 %mem=30GB
 %chk=MOLECULE_1 .chk
 ---------------------------------------------------------
 # opt freq b3lyp/6-31+g(d) empiricaldispersion=gd3 volume
 ---------------------------------------------------------
 1/18=20,19=15,26=3,38=1/1,3;
 2/9=110,12=2,17=6,18=5,40=1/2;
 3/5=1,6=6,7=11,11=2,25=1,30=1,71=1,74=-5,124=31/1,2,3;
 4//1;
 5/5=2,38=5/2;
 6/7=2,8=2,9=2,10=2,28=1,44=1/1,4;
 7//1,2,3,16;
 1/18=20,19=15,26=3/3(2);
 2/9=110/2;
 99//99;
 2/9=110/2;
 3/5=1,6=6,7=11,11=2,25=1,30=1,71=1,74=-5,124=31/1,2,3;
 4/5=5,16=3,69=1/1;
 5/5=2,38=5/2;
 7//1,2,3,16;
 1/18=20,19=15,26=3/3(-5);
 2/9=110/2;
 6/7=2,8=2,9=2,10=2,19=2,28=1,44=1/1,4;
 99/9=1/99;
 -------------------
 Title Card Required
 -------------------
 Symbolic Z-matrix:
 Charge =  0 Multiplicity = 1
 C                     4.98542  -1.28676   0.00007 
 C                     3.59215  -1.25074   0.00015 
 C                     2.91273  -0.01435   0.00008 
 C                     3.66398   1.17969  -0.00012 
 C                     5.05695   1.13367  -0.00023 
 C                     5.72234  -0.09727  -0.00013 
 H                     5.49816  -2.24506   0.00014 
 H                     3.01695  -2.17204   0.00026 
 H                     3.14419   2.13335  -0.00018 
 H                     5.62532   2.06006  -0.00039 
 C                     1.48867   0.02749   0.00004 
 C                     0.27155   0.06319   0.00043 
 C                    -1.15005   0.10119   0.00006 
 C                    -1.83439   1.33566   0.00004 
 C                    -1.89866  -1.10028  -0.00007 
 C                    -3.22497   1.36239  -0.00003 
 H                    -1.26377   2.25937   0.00006 
 C                    -3.28523  -1.06443  -0.00006 
 H                    -1.37195  -2.04988  -0.0002 
 C                    -3.96265   0.16806   0.00003 
 H                    -3.74714   2.31732  -0.00012 
 H                    -3.86889  -1.98043  -0.00008 
 C                    -5.43984   0.21718   0.00035 
 O                    -6.16928  -0.76025  -0.00048 
 H                     6.79187  -0.12887  -0.00022 
 C                    -6.04272   1.63427   0.00106 
 H                    -5.71786   2.15964   0.87475 
 H                    -5.71855   2.16022  -0.87255 
 H                    -7.11064   1.56754   0.00146 
 

 GradGradGradGradGradGradGradGradGradGradGradGradGradGradGradGradGradGrad
 Berny optimization.
 Initialization pass.
                           ----------------------------
                           !    Initial Parameters    !
                           ! (Angstroms and Degrees)  !
 --------------------------                            --------------------------
 ! Name  Definition              Value          Derivative Info.                !
 --------------------------------------------------------------------------------
 ! R1    R(1,2)                  1.3937         estimate D2E/DX2                !
 ! R2    R(1,6)                  1.3993         estimate D2E/DX2                !
 ! R3    R(1,7)                  1.0868         estimate D2E/DX2                !
 ! R4    R(2,3)                  1.4108         estimate D2E/DX2                !
 ! R5    R(2,8)                  1.0861         estimate D2E/DX2                !
 ! R6    R(3,4)                  1.4107         estimate D2E/DX2                !
 ! R7    R(3,11)                 1.4247         estimate D2E/DX2                !
 ! R8    R(4,5)                  1.3937         estimate D2E/DX2                !
 ! R9    R(4,9)                  1.0861         estimate D2E/DX2                !
 ! R10   R(5,6)                  1.3993         estimate D2E/DX2                !
 ! R11   R(5,10)                 1.0869         estimate D2E/DX2                !
 ! R12   R(6,25)                 1.07           estimate D2E/DX2                !
 ! R13   R(11,12)                1.2176         estimate D2E/DX2                !
 ! R14   R(12,13)                1.4221         estimate D2E/DX2                !
 ! R15   R(13,14)                1.4115         estimate D2E/DX2                !
 ! R16   R(13,15)                1.4156         estimate D2E/DX2                !
 ! R17   R(14,16)                1.3908         estimate D2E/DX2                !
 ! R18   R(14,17)                1.0858         estimate D2E/DX2                !
 ! R19   R(15,18)                1.387          estimate D2E/DX2                !
 ! R20   R(15,19)                1.0859         estimate D2E/DX2                !
 ! R21   R(16,20)                1.4038         estimate D2E/DX2                !
 ! R22   R(16,21)                1.0884         estimate D2E/DX2                !
 ! R23   R(18,20)                1.4064         estimate D2E/DX2                !
 ! R24   R(18,22)                1.0861         estimate D2E/DX2                !
 ! R25   R(20,23)                1.478          estimate D2E/DX2                !
 ! R26   R(23,24)                1.2196         estimate D2E/DX2                !
 ! R27   R(23,26)                1.54           estimate D2E/DX2                !
 ! R28   R(26,27)                1.07           estimate D2E/DX2                !
 ! R29   R(26,28)                1.07           estimate D2E/DX2                !
 ! R30   R(26,29)                1.07           estimate D2E/DX2                !
 ! A1    A(2,1,6)              120.298          estimate D2E/DX2                !
 ! A2    A(2,1,7)              119.6298         estimate D2E/DX2                !
 ! A3    A(6,1,7)              120.0723         estimate D2E/DX2                !
 ! A4    A(1,2,3)              120.2706         estimate D2E/DX2                !
 ! A5    A(1,2,8)              120.4969         estimate D2E/DX2                !
 ! A6    A(3,2,8)              119.2325         estimate D2E/DX2                !
 ! A7    A(2,3,4)              119.0337         estimate D2E/DX2                !
 ! A8    A(2,3,11)             120.4724         estimate D2E/DX2                !
 ! A9    A(4,3,11)             120.4939         estimate D2E/DX2                !
 ! A10   A(3,4,5)              120.2845         estimate D2E/DX2                !
 ! A11   A(3,4,9)              119.2306         estimate D2E/DX2                !
 ! A12   A(5,4,9)              120.4849         estimate D2E/DX2                !
 ! A13   A(4,5,6)              120.2858         estimate D2E/DX2                !
 ! A14   A(4,5,10)             119.6381         estimate D2E/DX2                !
 ! A15   A(6,5,10)             120.0761         estimate D2E/DX2                !
 ! A16   A(1,6,5)              119.8276         estimate D2E/DX2                !
 ! A17   A(1,6,25)             120.0862         estimate D2E/DX2                !
 ! A18   A(5,6,25)             120.0862         estimate D2E/DX2                !
 ! A19   A(12,13,14)           120.5332         estimate D2E/DX2                !
 ! A20   A(12,13,15)           120.3947         estimate D2E/DX2                !
 ! A21   A(14,13,15)           119.072          estimate D2E/DX2                !
 ! A22   A(13,14,16)           120.1031         estimate D2E/DX2                !
 ! A23   A(13,14,17)           119.2928         estimate D2E/DX2                !
 ! A24   A(16,14,17)           120.6041         estimate D2E/DX2                !
 ! A25   A(13,15,18)           120.4451         estimate D2E/DX2                !
 ! A26   A(13,15,19)           119.0582         estimate D2E/DX2                !
 ! A27   A(18,15,19)           120.4967         estimate D2E/DX2                !
 ! A28   A(14,16,20)           120.6007         estimate D2E/DX2                !
 ! A29   A(14,16,21)           119.7721         estimate D2E/DX2                !
 ! A30   A(20,16,21)           119.6272         estimate D2E/DX2                !
 ! A31   A(15,18,20)           120.2758         estimate D2E/DX2                !
 ! A32   A(15,18,22)           121.0237         estimate D2E/DX2                !
 ! A33   A(20,18,22)           118.7004         estimate D2E/DX2                !
 ! A34   A(16,20,18)           119.5032         estimate D2E/DX2                !
 ! A35   A(16,20,23)           119.7973         estimate D2E/DX2                !
 ! A36   A(18,20,23)           120.6995         estimate D2E/DX2                !
 ! A37   A(20,23,24)           124.8289         estimate D2E/DX2                !
 ! A38   A(20,23,26)           114.9515         estimate D2E/DX2                !
 ! A39   A(24,23,26)           120.2197         estimate D2E/DX2                !
 ! A40   A(23,26,27)           109.4712         estimate D2E/DX2                !
 ! A41   A(23,26,28)           109.4712         estimate D2E/DX2                !
 ! A42   A(23,26,29)           109.4712         estimate D2E/DX2                !
 ! A43   A(27,26,28)           109.4713         estimate D2E/DX2                !
 ! A44   A(27,26,29)           109.4712         estimate D2E/DX2                !
 ! A45   A(28,26,29)           109.4712         estimate D2E/DX2                !
 ! A46   L(3,11,12,8,-1)       179.9973         estimate D2E/DX2                !
 ! A47   L(11,12,13,19,-1)     179.8512         estimate D2E/DX2                !
 ! A48   L(3,11,12,8,-2)       179.9753         estimate D2E/DX2                !
 ! A49   L(11,12,13,19,-2)     180.0413         estimate D2E/DX2                !
 ! D1    D(6,1,2,3)             -0.0017         estimate D2E/DX2                !
 ! D2    D(6,1,2,8)            179.9972         estimate D2E/DX2                !
 ! D3    D(7,1,2,3)            179.9991         estimate D2E/DX2                !
 ! D4    D(7,1,2,8)             -0.0021         estimate D2E/DX2                !
 ! D5    D(2,1,6,5)              0.0009         estimate D2E/DX2                !
 ! D6    D(2,1,6,25)          -179.9991         estimate D2E/DX2                !
 ! D7    D(7,1,6,5)           -179.9999         estimate D2E/DX2                !
 ! D8    D(7,1,6,25)             0.0001         estimate D2E/DX2                !
 ! D9    D(1,2,3,4)              0.0014         estimate D2E/DX2                !
 ! D10   D(1,2,3,11)           179.9941         estimate D2E/DX2                !
 ! D11   D(8,2,3,4)           -179.9975         estimate D2E/DX2                !
 ! D12   D(8,2,3,11)            -0.0047         estimate D2E/DX2                !
 ! D13   D(2,3,4,5)             -0.0003         estimate D2E/DX2                !
 ! D14   D(2,3,4,9)            179.9997         estimate D2E/DX2                !
 ! D15   D(11,3,4,5)          -179.993          estimate D2E/DX2                !
 ! D16   D(11,3,4,9)             0.0069         estimate D2E/DX2                !
 ! D17   D(2,3,13,14)          179.9975         estimate D2E/DX2                !
 ! D18   D(2,3,13,15)           -0.0095         estimate D2E/DX2                !
 ! D19   D(4,3,13,14)           -0.0084         estimate D2E/DX2                !
 ! D20   D(4,3,13,15)          179.9847         estimate D2E/DX2                !
 ! D21   D(3,4,5,6)             -0.0005         estimate D2E/DX2                !
 ! D22   D(3,4,5,10)           179.9989         estimate D2E/DX2                !
 ! D23   D(9,4,5,6)            179.9996         estimate D2E/DX2                !
 ! D24   D(9,4,5,10)            -0.001          estimate D2E/DX2                !
 ! D25   D(4,5,6,1)              0.0002         estimate D2E/DX2                !
 ! D26   D(4,5,6,25)          -179.9998         estimate D2E/DX2                !
 ! D27   D(10,5,6,1)          -179.9992         estimate D2E/DX2                !
 ! D28   D(10,5,6,25)            0.0008         estimate D2E/DX2                !
 ! D29   D(12,13,14,16)       -179.9862         estimate D2E/DX2                !
 ! D30   D(12,13,14,17)          0.0155         estimate D2E/DX2                !
 ! D31   D(15,13,14,16)          0.0036         estimate D2E/DX2                !
 ! D32   D(15,13,14,17)       -179.9947         estimate D2E/DX2                !
 ! D33   D(12,13,15,18)        179.9823         estimate D2E/DX2                !
 ! D34   D(12,13,15,19)         -0.019          estimate D2E/DX2                !
 ! D35   D(14,13,15,18)         -0.0075         estimate D2E/DX2                !
 ! D36   D(14,13,15,19)        179.9912         estimate D2E/DX2                !
 ! D37   D(13,14,16,20)          0.0053         estimate D2E/DX2                !
 ! D38   D(13,14,16,21)       -179.9959         estimate D2E/DX2                !
 ! D39   D(17,14,16,20)       -179.9964         estimate D2E/DX2                !
 ! D40   D(17,14,16,21)          0.0023         estimate D2E/DX2                !
 ! D41   D(13,15,18,20)          0.0025         estimate D2E/DX2                !
 ! D42   D(13,15,18,22)       -179.995          estimate D2E/DX2                !
 ! D43   D(19,15,18,20)       -179.9962         estimate D2E/DX2                !
 ! D44   D(19,15,18,22)          0.0063         estimate D2E/DX2                !
 ! D45   D(14,16,20,18)         -0.0103         estimate D2E/DX2                !
 ! D46   D(14,16,20,23)        179.982          estimate D2E/DX2                !
 ! D47   D(21,16,20,18)        179.991          estimate D2E/DX2                !
 ! D48   D(21,16,20,23)         -0.0168         estimate D2E/DX2                !
 ! D49   D(15,18,20,16)          0.0063         estimate D2E/DX2                !
 ! D50   D(15,18,20,23)       -179.9859         estimate D2E/DX2                !
 ! D51   D(22,18,20,16)       -179.9961         estimate D2E/DX2                !
 ! D52   D(22,18,20,23)          0.0118         estimate D2E/DX2                !
 ! D53   D(16,20,23,24)        179.9487         estimate D2E/DX2                !
 ! D54   D(16,20,23,26)         -0.0187         estimate D2E/DX2                !
 ! D55   D(18,20,23,24)         -0.0592         estimate D2E/DX2                !
 ! D56   D(18,20,23,26)        179.9734         estimate D2E/DX2                !
 ! D57   D(20,23,26,27)        -59.9882         estimate D2E/DX2                !
 ! D58   D(20,23,26,28)         60.0118         estimate D2E/DX2                !
 ! D59   D(20,23,26,29)       -179.9882         estimate D2E/DX2                !
 ! D60   D(24,23,26,27)        120.0428         estimate D2E/DX2                !
 ! D61   D(24,23,26,28)       -119.9572         estimate D2E/DX2                !
 ! D62   D(24,23,26,29)          0.0428         estimate D2E/DX2                !
 --------------------------------------------------------------------------------
 Trust Radius=3.00D-01 FncErr=1.00D-07 GrdErr=1.00D-06 EigMax=2.50D+02 EigMin=1.00D-04
 Number of steps in this run=    151 maximum allowed number of steps=    174.
 GradGradGradGradGradGradGradGradGradGradGradGradGradGradGradGradGradGrad

                          Input orientation:                          
 ---------------------------------------------------------------------
 Center     Atomic      Atomic             Coordinates (Angstroms)
 Number     Number       Type             X           Y           Z
 ---------------------------------------------------------------------
      1          6           0        4.985424   -1.286760    0.000065
      2          6           0        3.592147   -1.250739    0.000153
      3          6           0        2.912729   -0.014351    0.000078
      4          6           0        3.663981    1.179692   -0.000116
      5          6           0        5.056949    1.133671   -0.000226
      6          6           0        5.722335   -0.097268   -0.000134
      7          1           0        5.498159   -2.245062    0.000139
      8          1           0        3.016951   -2.172036    0.000261
      9          1           0        3.144187    2.133353   -0.000180
     10          1           0        5.625320    2.060065   -0.000393
     11          6           0        1.488671    0.027487    0.000042
     12          6           0        0.271548    0.063187    0.000433
     13          6           0       -1.150054    0.101190    0.000063
     14          6           0       -1.834385    1.335658    0.000042
     15          6           0       -1.898661   -1.100280   -0.000069
     16          6           0       -3.224967    1.362388   -0.000032
     17          1           0       -1.263768    2.259374    0.000056
     18          6           0       -3.285226   -1.064433   -0.000061
     19          1           0       -1.371950   -2.049875   -0.000198
     20          6           0       -3.962653    0.168062    0.000025
     21          1           0       -3.747144    2.317317   -0.000115
     22          1           0       -3.868886   -1.980431   -0.000081
     23          6           0       -5.439837    0.217184    0.000348
     24          8           0       -6.169283   -0.760250   -0.000475
     25          1           0        6.791868   -0.128875   -0.000216
     26          6           0       -6.042722    1.634269    0.001056
     27          1           0       -5.717862    2.159644    0.874753
     28          1           0       -5.718552    2.160223   -0.872550
     29          1           0       -7.110639    1.567537    0.001455
 ---------------------------------------------------------------------
                    Distance matrix (angstroms):
                    1          2          3          4          5
     1  C    0.000000
     2  C    1.393743   0.000000
     3  C    2.432096   1.410767   0.000000
     4  C    2.798142   2.431492   1.410716   0.000000
     5  C    2.421488   2.798402   2.432208   1.393728   0.000000
     6  C    1.399260   2.422436   2.810829   2.422282   1.399267
     7  H    1.086849   2.149781   3.414750   3.884990   3.407419
     8  H    2.158379   1.086112   2.160201   3.413609   3.884494
     9  H    3.884241   3.413612   2.160140   1.086119   2.158245
    10  H    3.407448   3.885256   3.414872   2.149862   1.086854
    11  C    3.735576   2.461397   1.424672   2.461615   3.735807
    12  C    4.903365   3.571103   2.642319   3.571440   4.903672
    13  C    6.290508   4.931144   4.064426   4.933366   6.292289
    14  C    7.306632   6.011381   4.935344   5.500578   6.894294
    15  C    6.886610   5.492869   4.932415   6.011760   7.305549
    16  C    8.627196   7.300786   6.290208   6.891370   8.285074
    17  H    7.185226   5.991728   4.755308   5.044643   6.420177
    18  C    8.273638   6.879896   6.286280   7.302573   8.626908
    19  H    6.403011   5.028009   4.743610   5.982533   7.173960
    20  C    9.065572   7.686872   6.877801   7.693435   9.071142
    21  H    9.447069   8.160650   7.056244   7.497931   8.883303
    22  H    8.881440   7.496630   7.060862   8.168872   9.453474
    23  C   10.533182   9.150494   8.355774   9.154558  10.536720
    24  O   11.167126   9.773745   9.112591  10.022797  11.384868
    25  H    2.145679   3.390692   3.880829   3.390579   2.145686
    26  C   11.408436  10.057533   9.105935   9.717341  11.110954
    27  H   11.278436   9.953487   8.943065   9.473367  10.858857
    28  H   11.279107   9.954164   8.943672   9.473885  10.859382
    29  H   12.428264  11.067624  10.147427  10.781598  12.175321
                    6          7          8          9         10
     6  C    0.000000
     7  H    2.159462   0.000000
     8  H    3.409364   2.482282   0.000000
     9  H    3.409181   4.971087   4.307269   0.000000
    10  H    2.159513   4.307005   4.971345   2.482215   0.000000
    11  C    4.235502   4.608739   2.678347   2.678695   4.609039
    12  C    5.453148   5.713622   3.540263   3.540853   5.714053
    13  C    6.875254   7.050080   4.746734   4.750810   7.052864
    14  C    7.691378   8.160132   5.986600   5.042073   7.494796
    15  C    7.686717   7.484883   5.031094   5.990551   8.160764
    16  C    9.065584   9.439630   7.173123   6.415646   8.877744
    17  H    7.372883   8.124875   6.161327   4.409756   6.891971
    18  C    9.059336   8.862378   6.398767   7.180751   9.442474
    19  H    7.358094   6.872881   4.390601   6.155883   8.115010
    20  C    9.688622   9.763715   7.361449   7.373571   9.772866
    21  H    9.772474  10.309749   8.118329   6.893786   9.375994
    22  H    9.774345   9.370782   6.888502   8.130585  10.318215
    23  C   11.166600  11.211709   8.787812   8.795293  11.217572
    24  O   11.910085  11.761542   9.294086   9.752623  12.127112
    25  H    1.070000   2.480309   4.292378   4.292232   2.480381
    26  C   11.891795  12.175432   9.826781   9.200456  11.675809
    27  H   11.693468  12.081619   9.789032   8.905174  11.377327
    28  H   11.694070  12.082331   9.789754   8.905610  11.377791
    29  H   12.940510  13.172612  10.795948  10.270424  12.745479
                   11         12         13         14         15
    11  C    0.000000
    12  C    1.217647   0.000000
    13  C    2.639754   1.422110   0.000000
    14  C    3.571276   2.460515   1.411460   0.000000
    15  C    3.570137   2.462410   1.415607   2.436786   0.000000
    16  C    4.899015   3.730086   2.428144   1.390839   2.797109
    17  H    3.543620   2.679633   2.161178   1.085751   3.419117
    18  C    4.897181   3.731242   2.432619   2.804528   1.387028
    19  H    3.535334   2.676960   2.162480   3.416969   1.085889
    20  C    5.453136   4.235500   2.813394   2.427510   2.422551
    21  H    5.714637   4.607710   3.414102   2.149954   3.885468
    22  H    5.721464   4.617312   3.424207   3.890455   2.157881
    23  C    6.931104   5.713461   4.291351   3.774953   3.778312
    24  O    7.698363   6.493254   5.092616   4.814994   4.284137
    25  H    5.305502   6.523148   7.945254   8.749691   8.744651
    26  C    7.700885   6.506789   5.127234   4.218918   4.964977
    27  H    7.566065   6.405670   5.085979   4.065153   5.096932
    28  H    7.566640   6.406322   5.086476   4.065474   5.097418
    29  H    8.736125   7.533907   6.138302   5.281347   5.855080
                   16         17         18         19         20
    16  C    0.000000
    17  H    2.156591   0.000000
    18  C    2.427569   3.890242   0.000000
    19  H    3.882938   4.310607   2.152143   0.000000
    20  C    1.403779   3.414318   1.406397   3.410423   0.000000
    21  H    1.088374   2.484052   3.413151   4.971309   2.160033
    22  H    3.404272   4.976202   1.086145   2.497901   2.150538
    23  C    2.493420   4.648666   2.506968   4.656958   1.478001
    24  O    3.629682   5.760400   2.900054   4.967649   2.393946
    25  H   10.127233   8.402202  10.120430   8.386785  10.758620
    26  C    2.830841   4.819664   3.858339   5.948868   2.544887
    27  H    2.759600   4.540264   4.132516   6.113309   2.795050
    28  H    2.759673   4.540526   4.132882   6.113826   2.795223
    29  H    3.891084   5.887660   4.643388   6.783673   3.445047
                   21         22         23         24         25
    21  H    0.000000
    22  H    4.299472   0.000000
    23  C    2.697363   2.701370   0.000000
    24  O    3.916398   2.603972   1.219619   0.000000
    25  H   10.819179  10.820348  12.236599  12.976520   0.000000
    26  C    2.395044   4.218011   1.540000   2.397862  12.955129
    27  H    2.161940   4.617821   2.148263   3.081491  12.747401
    28  H    2.161544   4.618168   2.148263   3.081044  12.748002
    29  H    3.446051   4.805938   2.148263   2.510926  14.005624
                   26         27         28         29
    26  C    0.000000
    27  H    1.070000   0.000000
    28  H    1.070000   1.747303   0.000000
    29  H    1.070000   1.747303   1.747303   0.000000
 Stoichiometry    C16H12O
 Framework group  C1[X(C16H12O)]
 Deg. of freedom    81
 Full point group                 C1      NOp   1
 Largest Abelian subgroup         C1      NOp   1
 Largest concise Abelian subgroup C1      NOp   1
                         Standard orientation:                         
 ---------------------------------------------------------------------
 Center     Atomic      Atomic             Coordinates (Angstroms)
 Number     Number       Type             X           Y           Z
 ---------------------------------------------------------------------
      1          6           0        5.465431   -1.166428   -0.000014
      2          6           0        4.071946   -1.193183    0.000074
      3          6           0        3.337542    0.011356   -0.000001
      4          6           0        4.034264    1.238017   -0.000195
      5          6           0        5.427891    1.254768   -0.000305
      6          6           0        6.148032    0.055040   -0.000213
      7          1           0        6.020799   -2.100670    0.000060
      8          1           0        3.538819   -2.139447    0.000182
      9          1           0        3.472054    2.167304   -0.000259
     10          1           0        5.953970    2.205816   -0.000472
     11          6           0        1.913045   -0.010974   -0.000037
     12          6           0        0.695549   -0.030117    0.000354
     13          6           0       -0.726323   -0.056168   -0.000016
     14          6           0       -1.465548    1.146232   -0.000037
     15          6           0       -1.420068   -1.290129   -0.000148
     16          6           0       -2.855923    1.110317   -0.000111
     17          1           0       -0.937105    2.094706   -0.000023
     18          6           0       -2.806841   -1.316756   -0.000140
     19          1           0       -0.851131   -2.215043   -0.000277
     20          6           0       -3.539080   -0.116016   -0.000054
     21          1           0       -3.420571    2.040764   -0.000194
     22          1           0       -3.348661   -2.258107   -0.000160
     23          6           0       -5.016977   -0.133461    0.000269
     24          8           0       -5.701669   -1.142751   -0.000554
     25          1           0        7.217903    0.071627   -0.000294
     26          6           0       -5.683062    1.255038    0.000977
     27          1           0       -5.382190    1.794508    0.874674
     28          1           0       -5.382905    1.795056   -0.872628
     29          1           0       -6.746891    1.140285    0.001376
 ---------------------------------------------------------------------
 Rotational constants (GHZ):           2.2092738           0.1391426           0.1310029
 Standard basis: 6-31+G(d) (6D, 7F)
 There are   347 symmetry adapted cartesian basis functions of A   symmetry.
 There are   347 symmetry adapted basis functions of A   symmetry.
   347 basis functions,   592 primitive gaussians,   347 cartesian basis functions
    58 alpha electrons       58 beta electrons
       nuclear repulsion energy       955.6734936504 Hartrees.
 NAtoms=   29 NActive=   29 NUniq=   29 SFac= 1.00D+00 NAtFMM=   60 NAOKFM=F Big=F
 Integral buffers will be    131072 words long.
 Raffenetti 2 integral format.
 Two-electron integral symmetry is turned on.
 Nuclear repulsion after empirical dispersion term =      955.6529787313 Hartrees.
 One-electron integrals computed using PRISM.
 NBasis=   347 RedAO= T EigKep=  1.66D-06  NBF=   347
 NBsUse=   342 1.00D-06 EigRej=  9.87D-07 NBFU=   342
 ExpMin= 4.38D-02 ExpMax= 5.48D+03 ExpMxC= 8.25D+02 IAcc=3 IRadAn=         5 AccDes= 0.00D+00
 Harris functional with IExCor=  402 and IRadAn=       5 diagonalized for initial guess.
 HarFok:  IExCor=  402 AccDes= 0.00D+00 IRadAn=         5 IDoV= 1 UseB2=F ITyADJ=14
 ICtDFT=  3500011 ScaDFX=  1.000000  1.000000  1.000000  1.000000
 FoFCou: FMM=F IPFlag=           0 FMFlag=      100000 FMFlg1=           0
         NFxFlg=           0 DoJE=T BraDBF=F KetDBF=T FulRan=T
         wScrn=  0.000000 ICntrl=       500 IOpCl=  0 I1Cent=   200000004 NGrid=           0
         NMat0=    1 NMatS0=      1 NMatT0=    0 NMatD0=    1 NMtDS0=    0 NMtDT0=    0
 Petite list used in FoFCou.
 Requested convergence on RMS density matrix=1.00D-08 within 128 cycles.
 Requested convergence on MAX density matrix=1.00D-06.
 Requested convergence on             energy=1.00D-06.
 No special actions if energy rises.
 SCF Done:  E(RB3LYP) =  -692.152120456     A.U. after   16 cycles
            NFock= 16  Conv=0.53D-08     -V/T= 2.0096

 **********************************************************************

            Population analysis using the SCF Density.

 **********************************************************************

 Orbital symmetries:
       Occupied  (A) (A) (A) (A) (A) (A) (A) (A) (A) (A) (A) (A)
                 (A) (A) (A) (A) (A) (A) (A) (A) (A) (A) (A) (A)
                 (A) (A) (A) (A) (A) (A) (A) (A) (A) (A) (A) (A)
                 (A) (A) (A) (A) (A) (A) (A) (A) (A) (A) (A) (A)
                 (A) (A) (A) (A) (A) (A) (A) (A) (A) (A)
       Virtual   (A) (A) (A) (A) (A) (A) (A) (A) (A) (A) (A) (A)
                 (A) (A) (A) (A) (A) (A) (A) (A) (A) (A) (A) (A)
                 (A) (A) (A) (A) (A) (A) (A) (A) (A) (A) (A) (A)
                 (A) (A) (A) (A) (A) (A) (A) (A) (A) (A) (A) (A)
                 (A) (A) (A) (A) (A) (A) (A) (A) (A) (A) (A) (A)
                 (A) (A) (A) (A) (A) (A) (A) (A) (A) (A) (A) (A)
                 (A) (A) (A) (A) (A) (A) (A) (A) (A) (A) (A) (A)
                 (A) (A) (A) (A) (A) (A) (A) (A) (A) (A) (A) (A)
                 (A) (A) (A) (A) (A) (A) (A) (A) (A) (A) (A) (A)
                 (A) (A) (A) (A) (A) (A) (A) (A) (A) (A) (A) (A)
                 (A) (A) (A) (A) (A) (A) (A) (A) (A) (A) (A) (A)
                 (A) (A) (A) (A) (A) (A) (A) (A) (A) (A) (A) (A)
                 (A) (A) (A) (A) (A) (A) (A) (A) (A) (A) (A) (A)
                 (A) (A) (A) (A) (A) (A) (A) (A) (A) (A) (A) (A)
                 (A) (A) (A) (A) (A) (A) (A) (A) (A) (A) (A) (A)
                 (A) (A) (A) (A) (A) (A) (A) (A) (A) (A) (A) (A)
                 (A) (A) (A) (A) (A) (A) (A) (A) (A) (A) (A) (A)
                 (A) (A) (A) (A) (A) (A) (A) (A) (A) (A) (A) (A)
                 (A) (A) (A) (A) (A) (A) (A) (A) (A) (A) (A) (A)
                 (A) (A) (A) (A) (A) (A) (A) (A) (A) (A) (A) (A)
                 (A) (A) (A) (A) (A) (A) (A) (A) (A) (A) (A) (A)
                 (A) (A) (A) (A) (A) (A) (A) (A) (A) (A) (A) (A)
                 (A) (A) (A) (A) (A) (A) (A) (A) (A) (A) (A) (A)
                 (A) (A) (A) (A) (A) (A) (A) (A)
 The electronic state is 1-A.
 Alpha  occ. eigenvalues --  -19.14950 -10.28474 -10.24099 -10.23321 -10.21874
 Alpha  occ. eigenvalues --  -10.21743 -10.21586 -10.21482 -10.21364 -10.21358
 Alpha  occ. eigenvalues --  -10.21344 -10.21100 -10.21080 -10.21026 -10.20997
 Alpha  occ. eigenvalues --  -10.20704 -10.18702  -1.04719  -0.88513  -0.87744
 Alpha  occ. eigenvalues --   -0.81481  -0.79179  -0.77259  -0.76508  -0.75243
 Alpha  occ. eigenvalues --   -0.72837  -0.66397  -0.63120  -0.62860  -0.62382
 Alpha  occ. eigenvalues --   -0.56732  -0.56178  -0.54090  -0.49896  -0.48739
 Alpha  occ. eigenvalues --   -0.47915  -0.47095  -0.46543  -0.45624  -0.45116
 Alpha  occ. eigenvalues --   -0.44518  -0.44003  -0.42477  -0.40720  -0.40331
 Alpha  occ. eigenvalues --   -0.39192  -0.38931  -0.37596  -0.37112  -0.36754
 Alpha  occ. eigenvalues --   -0.36434  -0.33097  -0.28704  -0.28648  -0.27685
 Alpha  occ. eigenvalues --   -0.27148  -0.25828  -0.23070
 Alpha virt. eigenvalues --   -0.08727  -0.03745  -0.02971  -0.02612  -0.00470
 Alpha virt. eigenvalues --    0.00284   0.01529   0.01647   0.01744   0.02627
 Alpha virt. eigenvalues --    0.03306   0.03446   0.04116   0.04461   0.04626
 Alpha virt. eigenvalues --    0.05100   0.05192   0.06166   0.06533   0.06760
 Alpha virt. eigenvalues --    0.07491   0.07735   0.08386   0.08569   0.08942
 Alpha virt. eigenvalues --    0.09112   0.09820   0.09919   0.10986   0.11077
 Alpha virt. eigenvalues --    0.11892   0.11942   0.13492   0.13506   0.14111
 Alpha virt. eigenvalues --    0.14189   0.14295   0.14410   0.14416   0.14962
 Alpha virt. eigenvalues --    0.15083   0.15818   0.16704   0.17039   0.17230
 Alpha virt. eigenvalues --    0.17567   0.17810   0.18655   0.19005   0.19100
 Alpha virt. eigenvalues --    0.19868   0.20351   0.20460   0.20929   0.20973
 Alpha virt. eigenvalues --    0.21774   0.22390   0.22763   0.22763   0.23256
 Alpha virt. eigenvalues --    0.23366   0.23943   0.24224   0.25025   0.25117
 Alpha virt. eigenvalues --    0.25299   0.25648   0.26562   0.26794   0.27116
 Alpha virt. eigenvalues --    0.28006   0.28546   0.28679   0.29232   0.29614
 Alpha virt. eigenvalues --    0.30381   0.30724   0.31418   0.31835   0.32647
 Alpha virt. eigenvalues --    0.32743   0.33198   0.33544   0.33687   0.34672
 Alpha virt. eigenvalues --    0.35214   0.36704   0.38417   0.38529   0.39346
 Alpha virt. eigenvalues --    0.40955   0.41709   0.43485   0.44749   0.45885
 Alpha virt. eigenvalues --    0.48789   0.51213   0.56000   0.58024   0.58902
 Alpha virt. eigenvalues --    0.59262   0.63100   0.64140   0.65267   0.65919
 Alpha virt. eigenvalues --    0.66689   0.68561   0.68906   0.69160   0.69645
 Alpha virt. eigenvalues --    0.70122   0.70845   0.71012   0.72034   0.72291
 Alpha virt. eigenvalues --    0.72369   0.73234   0.73963   0.74525   0.74804
 Alpha virt. eigenvalues --    0.75230   0.76228   0.76817   0.77644   0.78394
 Alpha virt. eigenvalues --    0.78693   0.79165   0.80120   0.80466   0.82204
 Alpha virt. eigenvalues --    0.82329   0.84325   0.84738   0.85368   0.87099
 Alpha virt. eigenvalues --    0.89430   0.91206   0.92036   0.92944   0.93974
 Alpha virt. eigenvalues --    0.95689   0.96860   0.97665   0.98105   0.98218
 Alpha virt. eigenvalues --    1.00613   1.00976   1.02168   1.04770   1.06674
 Alpha virt. eigenvalues --    1.07760   1.09681   1.11902   1.12482   1.13117
 Alpha virt. eigenvalues --    1.14820   1.16135   1.17399   1.19002   1.19716
 Alpha virt. eigenvalues --    1.20134   1.22323   1.22909   1.23045   1.23532
 Alpha virt. eigenvalues --    1.24706   1.26327   1.26670   1.28139   1.29998
 Alpha virt. eigenvalues --    1.31158   1.33424   1.33652   1.33735   1.36933
 Alpha virt. eigenvalues --    1.38783   1.39473   1.41602   1.41775   1.42066
 Alpha virt. eigenvalues --    1.43553   1.44160   1.44551   1.45167   1.46136
 Alpha virt. eigenvalues --    1.47128   1.48656   1.49023   1.51905   1.55125
 Alpha virt. eigenvalues --    1.57110   1.58242   1.59540   1.70068   1.71512
 Alpha virt. eigenvalues --    1.75098   1.75779   1.76347   1.81702   1.82825
 Alpha virt. eigenvalues --    1.84102   1.86453   1.86933   1.87347   1.89228
 Alpha virt. eigenvalues --    1.89772   1.89951   1.90918   1.95313   1.97330
 Alpha virt. eigenvalues --    1.97687   1.98739   1.99563   2.03301   2.05931
 Alpha virt. eigenvalues --    2.06569   2.08650   2.09526   2.09597   2.10758
 Alpha virt. eigenvalues --    2.13277   2.13811   2.14120   2.15445   2.17173
 Alpha virt. eigenvalues --    2.20101   2.21918   2.23197   2.26027   2.27694
 Alpha virt. eigenvalues --    2.28699   2.29353   2.29440   2.32143   2.33112
 Alpha virt. eigenvalues --    2.35517   2.41582   2.44209   2.46171   2.49696
 Alpha virt. eigenvalues --    2.52455   2.54142   2.58478   2.58985   2.60899
 Alpha virt. eigenvalues --    2.62548   2.62682   2.66077   2.66445   2.69589
 Alpha virt. eigenvalues --    2.73453   2.73799   2.74841   2.78225   2.81549
 Alpha virt. eigenvalues --    2.84302   2.87200   2.90986   2.95343   3.00236
 Alpha virt. eigenvalues --    3.01704   3.10775   3.21817   3.28559   3.33583
 Alpha virt. eigenvalues --    3.40460   3.59334   4.20704   4.21608   4.22901
 Alpha virt. eigenvalues --    4.23318   4.24291   4.24907   4.28856   4.34031
 Alpha virt. eigenvalues --    4.34884   4.39041   4.40579   4.40622   4.53110
 Alpha virt. eigenvalues --    4.60136   4.67887   4.77449   4.98271
          Condensed to atoms (all electrons):
               1          2          3          4          5          6
     1  C    7.978298  -5.750734   1.034566   4.047106  -1.688313   0.656460
     2  C   -5.750734  23.581269  -3.130689 -14.307817   5.061244  -0.688741
     3  C    1.034566  -3.130689  11.119865  -3.082229   1.369591   0.288512
     4  C    4.047106 -14.307817  -3.082229  27.959338  -8.804261  -0.036851
     5  C   -1.688313   5.061244   1.369591  -8.804261   9.643863   0.445031
     6  C    0.656460  -0.688741   0.288512  -0.036851   0.445031   5.433708
     7  H    0.292137  -0.022565   0.008695   0.002493   0.001748   0.016071
     8  H   -0.065687   0.318393  -0.024232   0.023317  -0.006547   0.007119
     9  H   -0.005877   0.021830  -0.023792   0.317380  -0.063619   0.006613
    10  H    0.002671   0.000384   0.006814  -0.018694   0.291063   0.016042
    11  C   -0.407780   1.470535  -2.494635   0.943341  -0.333217  -0.225551
    12  C   -0.015522  -0.247272   0.491457  -0.287263   0.032039   0.033644
    13  C    0.018283   0.141398   0.103471  -0.348169   0.138574  -0.019241
    14  C    0.030974  -0.110722  -0.045666   0.138364  -0.046390  -0.000153
    15  C   -0.079862   0.339131  -0.247921  -0.249479   0.053166   0.000789
    16  C    0.003598   0.022891   0.016701  -0.046163   0.003575  -0.001567
    17  H    0.000049  -0.000250  -0.000327   0.002668  -0.000211   0.000032
    18  C    0.037878  -0.250361   0.207410   0.179483  -0.033279   0.001294
    19  H   -0.000066   0.001909   0.001779   0.000097  -0.000010   0.000041
    20  C   -0.003714   0.030961  -0.028913  -0.031427   0.006309  -0.000584
    21  H   -0.000002  -0.000036  -0.000104   0.000115   0.000007   0.000000
    22  H    0.000008   0.000049  -0.000051  -0.000015  -0.000002   0.000000
    23  C   -0.000198   0.001554   0.005366  -0.002643   0.000442  -0.000022
    24  O    0.000001   0.000004   0.000011   0.000000   0.000000   0.000000
    25  H   -0.012103   0.013614  -0.000295   0.010949  -0.010976   0.292142
    26  C    0.000055  -0.000350  -0.000495   0.000394  -0.000085  -0.000001
    27  H    0.000000   0.000000  -0.000001   0.000001   0.000000   0.000000
    28  H    0.000000   0.000000  -0.000001   0.000001   0.000000   0.000000
    29  H    0.000000   0.000000   0.000000   0.000000   0.000000   0.000000
               7          8          9         10         11         12
     1  C    0.292137  -0.065687  -0.005877   0.002671  -0.407780  -0.015522
     2  C   -0.022565   0.318393   0.021830   0.000384   1.470535  -0.247272
     3  C    0.008695  -0.024232  -0.023792   0.006814  -2.494635   0.491457
     4  C    0.002493   0.023317   0.317380  -0.018694   0.943341  -0.287263
     5  C    0.001748  -0.006547  -0.063619   0.291063  -0.333217   0.032039
     6  C    0.016071   0.007119   0.006613   0.016042  -0.225551   0.033644
     7  H    0.530820  -0.004553   0.000016  -0.000158  -0.004470  -0.000452
     8  H   -0.004553   0.526635  -0.000143   0.000016   0.026493   0.002442
     9  H    0.000016  -0.000143   0.528108  -0.004574   0.025106   0.003805
    10  H   -0.000158   0.000016  -0.004574   0.531256  -0.004140  -0.000563
    11  C   -0.004470   0.026493   0.025106  -0.004140   8.173819  -0.414927
    12  C   -0.000452   0.002442   0.003805  -0.000563  -0.414927   6.472454
    13  C   -0.000120  -0.000766  -0.000554  -0.000113  -0.488832   0.242675
    14  C   -0.000042   0.000215   0.001449   0.000109   0.072355  -0.062385
    15  C    0.000115   0.001358   0.000304  -0.000042   0.235585  -0.339036
    16  C   -0.000002  -0.000011   0.000048   0.000004  -0.132536   0.031561
    17  H    0.000000   0.000000   0.000002   0.000000   0.001134   0.022300
    18  C    0.000005   0.000272  -0.000039  -0.000001  -0.241330   0.339518
    19  H    0.000000   0.000003   0.000000   0.000000  -0.005437   0.031853
    20  C    0.000000  -0.000061  -0.000032   0.000000  -0.029484  -0.365286
    21  H    0.000000   0.000000   0.000000   0.000000   0.001104  -0.005172
    22  H    0.000000   0.000000   0.000000   0.000000  -0.000580  -0.004441
    23  C    0.000000  -0.000004  -0.000003   0.000000  -0.021715   0.059953
    24  O    0.000000   0.000000   0.000000   0.000000  -0.000210   0.000716
    25  H   -0.004849  -0.000147  -0.000147  -0.004851  -0.001061   0.000173
    26  C    0.000000   0.000000   0.000000   0.000000  -0.000130  -0.009151
    27  H    0.000000   0.000000   0.000000   0.000000   0.000008   0.000103
    28  H    0.000000   0.000000   0.000000   0.000000   0.000010   0.000097
    29  H    0.000000   0.000000   0.000000   0.000000  -0.000011  -0.000085
              13         14         15         16         17         18
     1  C    0.018283   0.030974  -0.079862   0.003598   0.000049   0.037878
     2  C    0.141398  -0.110722   0.339131   0.022891  -0.000250  -0.250361
     3  C    0.103471  -0.045666  -0.247921   0.016701  -0.000327   0.207410
     4  C   -0.348169   0.138364  -0.249479  -0.046163   0.002668   0.179483
     5  C    0.138574  -0.046390   0.053166   0.003575  -0.000211  -0.033279
     6  C   -0.019241  -0.000153   0.000789  -0.001567   0.000032   0.001294
     7  H   -0.000120  -0.000042   0.000115  -0.000002   0.000000   0.000005
     8  H   -0.000766   0.000215   0.001358  -0.000011   0.000000   0.000272
     9  H   -0.000554   0.001449   0.000304   0.000048   0.000002  -0.000039
    10  H   -0.000113   0.000109  -0.000042   0.000004   0.000000  -0.000001
    11  C   -0.488832   0.072355   0.235585  -0.132536   0.001134  -0.241330
    12  C    0.242675  -0.062385  -0.339036   0.031561   0.022300   0.339518
    13  C    6.583256   0.617060  -0.098528  -0.465880  -0.028915   0.212912
    14  C    0.617060   7.024662  -1.243578   1.478778   0.329399  -0.780042
    15  C   -0.098528  -1.243578  11.048780  -0.766412   0.013950  -2.523459
    16  C   -0.465880   1.478778  -0.766412   8.837783  -0.070903  -2.620726
    17  H   -0.028915   0.329399   0.013950  -0.070903   0.519778   0.002160
    18  C    0.212912  -0.780042  -2.523459  -2.620726   0.002160  12.088522
    19  H   -0.035591   0.018172   0.370367  -0.012553  -0.000139  -0.084969
    20  C   -0.450784  -0.454417  -0.901094   0.646785   0.011897  -1.503925
    21  H    0.045059  -0.056460   0.011212   0.244083  -0.004045   0.034844
    22  H    0.007269   0.003664  -0.108612   0.007754   0.000015   0.345315
    23  C   -0.198808  -0.440122   0.579597   0.323256   0.002718   0.159811
    24  O    0.005278  -0.021830   0.124752  -0.119618   0.000031   0.172198
    25  H   -0.000038  -0.000002  -0.000002   0.000000   0.000000   0.000000
    26  C   -0.004935   0.016867  -0.059394  -0.454068   0.001689   0.225457
    27  H    0.004622   0.032935  -0.005076   0.055361  -0.000005  -0.027844
    28  H    0.004687   0.032776  -0.005094   0.055120  -0.000005  -0.027453
    29  H   -0.001660   0.001088  -0.001376  -0.002807   0.000000  -0.022166
              19         20         21         22         23         24
     1  C   -0.000066  -0.003714  -0.000002   0.000008  -0.000198   0.000001
     2  C    0.001909   0.030961  -0.000036   0.000049   0.001554   0.000004
     3  C    0.001779  -0.028913  -0.000104  -0.000051   0.005366   0.000011
     4  C    0.000097  -0.031427   0.000115  -0.000015  -0.002643   0.000000
     5  C   -0.000010   0.006309   0.000007  -0.000002   0.000442   0.000000
     6  C    0.000041  -0.000584   0.000000   0.000000  -0.000022   0.000000
     7  H    0.000000   0.000000   0.000000   0.000000   0.000000   0.000000
     8  H    0.000003  -0.000061   0.000000   0.000000  -0.000004   0.000000
     9  H    0.000000  -0.000032   0.000000   0.000000  -0.000003   0.000000
    10  H    0.000000   0.000000   0.000000   0.000000   0.000000   0.000000
    11  C   -0.005437  -0.029484   0.001104  -0.000580  -0.021715  -0.000210
    12  C    0.031853  -0.365286  -0.005172  -0.004441   0.059953   0.000716
    13  C   -0.035591  -0.450784   0.045059   0.007269  -0.198808   0.005278
    14  C    0.018172  -0.454417  -0.056460   0.003664  -0.440122  -0.021830
    15  C    0.370367  -0.901094   0.011212  -0.108612   0.579597   0.124752
    16  C   -0.012553   0.646785   0.244083   0.007754   0.323256  -0.119618
    17  H   -0.000139   0.011897  -0.004045   0.000015   0.002718   0.000031
    18  C   -0.084969  -1.503925   0.034844   0.345315   0.159811   0.172198
    19  H    0.517054  -0.000931   0.000016  -0.003561   0.002759   0.000094
    20  C   -0.000931  10.406619   0.045270   0.041485  -1.861967  -0.365744
    21  H    0.000016   0.045270   0.533678  -0.000137  -0.042431  -0.000738
    22  H   -0.003561   0.041485  -0.000137   0.490368  -0.015618   0.006602
    23  C    0.002759  -1.861967  -0.042431  -0.015618   7.477958   0.391330
    24  O    0.000094  -0.365744  -0.000738   0.006602   0.391330   8.301869
    25  H    0.000000   0.000000   0.000000   0.000000   0.000000   0.000000
    26  C    0.000067  -0.089941   0.006276   0.009476  -0.689362  -0.045807
    27  H    0.000000  -0.020232  -0.001684  -0.000003  -0.110520   0.003161
    28  H    0.000000  -0.020349  -0.001683  -0.000003  -0.110216   0.003138
    29  H    0.000000   0.041279   0.000334  -0.000005  -0.099685   0.000331
              25         26         27         28         29
     1  C   -0.012103   0.000055   0.000000   0.000000   0.000000
     2  C    0.013614  -0.000350   0.000000   0.000000   0.000000
     3  C   -0.000295  -0.000495  -0.000001  -0.000001   0.000000
     4  C    0.010949   0.000394   0.000001   0.000001   0.000000
     5  C   -0.010976  -0.000085   0.000000   0.000000   0.000000
     6  C    0.292142  -0.000001   0.000000   0.000000   0.000000
     7  H   -0.004849   0.000000   0.000000   0.000000   0.000000
     8  H   -0.000147   0.000000   0.000000   0.000000   0.000000
     9  H   -0.000147   0.000000   0.000000   0.000000   0.000000
    10  H   -0.004851   0.000000   0.000000   0.000000   0.000000
    11  C   -0.001061  -0.000130   0.000008   0.000010  -0.000011
    12  C    0.000173  -0.009151   0.000103   0.000097  -0.000085
    13  C   -0.000038  -0.004935   0.004622   0.004687  -0.001660
    14  C   -0.000002   0.016867   0.032935   0.032776   0.001088
    15  C   -0.000002  -0.059394  -0.005076  -0.005094  -0.001376
    16  C    0.000000  -0.454068   0.055361   0.055120  -0.002807
    17  H    0.000000   0.001689  -0.000005  -0.000005   0.000000
    18  C    0.000000   0.225457  -0.027844  -0.027453  -0.022166
    19  H    0.000000   0.000067   0.000000   0.000000   0.000000
    20  C    0.000000  -0.089941  -0.020232  -0.020349   0.041279
    21  H    0.000000   0.006276  -0.001684  -0.001683   0.000334
    22  H    0.000000   0.009476  -0.000003  -0.000003  -0.000005
    23  C    0.000000  -0.689362  -0.110520  -0.110216  -0.099685
    24  O    0.000000  -0.045807   0.003161   0.003138   0.000331
    25  H    0.535114   0.000000   0.000000   0.000000   0.000000
    26  C    0.000000   6.741218   0.404133   0.403946   0.435432
    27  H    0.000000   0.404133   0.489852  -0.031361  -0.022082
    28  H    0.000000   0.403946  -0.031361   0.489803  -0.022073
    29  H    0.000000   0.435432  -0.022082  -0.022073   0.452345
 Mulliken charges:
               1
     1  C   -0.072224
     2  C   -0.495629
     3  C    0.425113
     4  C   -0.410036
     5  C   -0.059742
     6  C   -0.224788
     7  H    0.185111
     8  H    0.195887
     9  H    0.194121
    10  H    0.184776
    11  C   -0.143445
    12  C   -0.013234
    13  C    0.018391
    14  C   -0.537058
    15  C   -0.150141
    16  C   -1.034055
    17  H    0.196976
    18  C    0.108514
    19  H    0.199046
    20  C    0.898277
    21  H    0.190492
    22  H    0.221023
    23  C    0.588568
    24  O   -0.455566
    25  H    0.182479
    26  C   -0.891291
    27  H    0.228631
    28  H    0.228660
    29  H    0.241142
 Sum of Mulliken charges =   0.00000
 Mulliken charges with hydrogens summed into heavy atoms:
               1
     1  C    0.112887
     2  C   -0.299742
     3  C    0.425113
     4  C   -0.215915
     5  C    0.125034
     6  C   -0.042310
    11  C   -0.143445
    12  C   -0.013234
    13  C    0.018391
    14  C   -0.340081
    15  C    0.048906
    16  C   -0.843563
    18  C    0.329538
    20  C    0.898277
    23  C    0.588568
    24  O   -0.455566
    26  C   -0.192857
 Electronic spatial extent (au):  <R**2>=           7684.3795
 Charge=              0.0000 electrons
 Dipole moment (field-independent basis, Debye):
    X=              3.5451    Y=              2.3142    Z=              0.0011  Tot=              4.2335
 Quadrupole moment (field-independent basis, Debye-Ang):
   XX=           -102.2129   YY=            -90.5150   ZZ=           -104.8309
   XY=            -14.4176   XZ=             -0.0106   YZ=             -0.0026
 Traceless Quadrupole moment (field-independent basis, Debye-Ang):
   XX=             -3.0267   YY=              8.6713   ZZ=             -5.6446
   XY=            -14.4176   XZ=             -0.0106   YZ=             -0.0026
 Octapole moment (field-independent basis, Debye-Ang**2):
  XXX=            215.7301  YYY=             -1.1378  ZZZ=              0.0008  XYY=             15.3774
  XXY=             85.2591  XXZ=              0.0435  XZZ=            -26.0494  YZZ=             -0.2381
  YYZ=             -0.0026  XYZ=              0.0060
 Hexadecapole moment (field-independent basis, Debye-Ang**3):
 XXXX=          -9842.6267 YYYY=           -711.7618 ZZZZ=           -131.6250 XXXY=           -490.7729
 XXXZ=             -0.2407 YYYX=              3.6909 YYYZ=             -0.0405 ZZZX=              0.1399
 ZZZY=             -0.0259 XXYY=          -1697.4746 XXZZ=          -1752.2402 YYZZ=           -160.4984
 XXYZ=             -0.0980 YYXZ=              0.0410 ZZXY=              0.8757
 N-N= 9.556529787313D+02 E-N=-3.515260684683D+03  KE= 6.855537548257D+02
 Evaluate density.
 Using the total density.
 Monte-Carlo method of calculating molar volume:
 based on  0.001 e/bohr**3 density envelope.
 Number of points per bohr**3 =   20 CutOff= 1.00D-04
 Using the SCF density.
 There are       404 points.  Will hold       404 in memory.
 LenV=  4026269280 MDV=  4026531840.
 Box volume = 8244.630 fraction occupied=0.220
 Integrated density= 9.0085295907949885D+01 error=-2.5914704092050115D+01
 Molar volume = 1816.268 bohr**3/mol (162.082 cm**3/mol)
 Recommended a0 for SCRF calculation =  4.91 angstrom (  9.28 bohr)
 Calling FoFJK, ICntrl=      2127 FMM=F ISym2X=0 I1Cent= 0 IOpClX= 0 NMat=1 NMatS=1 NMatT=0.
 ***** Axes restored to original set *****
 -------------------------------------------------------------------
 Center     Atomic                   Forces (Hartrees/Bohr)
 Number     Number              X              Y              Z
 -------------------------------------------------------------------
      1        6          -0.000278733    0.000106905    0.000000817
      2        6          -0.000003494   -0.000028777   -0.000000440
      3        6          -0.000069174   -0.000023266   -0.000016566
      4        6          -0.000011765    0.000062380    0.000000498
      5        6          -0.000293039   -0.000123841    0.000001573
      6        6          -0.011327266    0.000343402    0.000001339
      7        1           0.000045399   -0.000025648   -0.000000207
      8        1          -0.000016578    0.000025444    0.000000902
      9        1          -0.000022800   -0.000013319   -0.000000918
     10        1           0.000047016    0.000027311    0.000000731
     11        6           0.000018209    0.000004190    0.000040431
     12        6           0.000307295    0.000021720   -0.000050934
     13        6          -0.000311402   -0.000750216    0.000024758
     14        6          -0.000008626   -0.000895545   -0.000008341
     15        6           0.001267562    0.000496679   -0.000004455
     16        6           0.004252992    0.001339021    0.000003807
     17        1          -0.000029595    0.000046212    0.000001470
     18        6          -0.000899807    0.001329836   -0.000002912
     19        1           0.000057688   -0.000017617    0.000006015
     20        6           0.004644075   -0.005085360    0.000020969
     21        1           0.006030816   -0.002295503    0.000003753
     22        1          -0.000083966    0.000152196   -0.000000329
     23        6          -0.011977113    0.019499220   -0.000070346
     24        8           0.003199715   -0.008966400    0.000023957
     25        1           0.011989114   -0.000355927   -0.000001047
     26        6           0.000962521   -0.025033594    0.000022626
     27        1           0.003932568    0.011256698    0.013520005
     28        1           0.003922996    0.011255676   -0.013519502
     29        1          -0.015344608   -0.002351877    0.000002345
 -------------------------------------------------------------------
 Cartesian Forces:  Max     0.025033594 RMS     0.005382188

 GradGradGradGradGradGradGradGradGradGradGradGradGradGradGradGradGradGrad
 Berny optimization.
 FormGI is forming the generalized inverse of G from B-inverse, IUseBI=4.
 Internal  Forces:  Max     0.027318193 RMS     0.004965244
 Search for a local minimum.
 Step number   1 out of a maximum of  151
 All quantities printed in internal units (Hartrees-Bohrs-Radians)
 Mixed Optimization -- RFO/linear search
 Second derivative matrix not updated -- first step.
 ITU=  0
     Eigenvalues ---    0.00230   0.00237   0.00585   0.01031   0.01057
     Eigenvalues ---    0.01395   0.01727   0.01796   0.01870   0.01946
     Eigenvalues ---    0.01971   0.02044   0.02047   0.02051   0.02066
     Eigenvalues ---    0.02097   0.02098   0.02109   0.02111   0.02120
     Eigenvalues ---    0.02137   0.02141   0.02142   0.02160   0.03786
     Eigenvalues ---    0.04501   0.07243   0.07243   0.16000   0.16000
     Eigenvalues ---    0.16000   0.16000   0.16000   0.16000   0.16000
     Eigenvalues ---    0.16000   0.16000   0.16000   0.16000   0.16000
     Eigenvalues ---    0.22000   0.22000   0.22000   0.22963   0.23473
     Eigenvalues ---    0.24000   0.25000   0.25000   0.25000   0.25000
     Eigenvalues ---    0.25000   0.28519   0.34800   0.35001   0.35179
     Eigenvalues ---    0.35179   0.35262   0.35265   0.35266   0.35292
     Eigenvalues ---    0.35308   0.37230   0.37230   0.37230   0.37230
     Eigenvalues ---    0.40481   0.40831   0.41393   0.41492   0.41764
     Eigenvalues ---    0.42144   0.44153   0.44223   0.44567   0.44989
     Eigenvalues ---    0.45880   0.45985   0.46675   0.47553   0.95552
     Eigenvalues ---    0.96434
 RFO step:  Lambda=-1.18479938D-02 EMin= 2.30000000D-03
 Linear search not attempted -- first point.
 Iteration  1 RMS(Cart)=  0.10421942 RMS(Int)=  0.00436603
 Iteration  2 RMS(Cart)=  0.01626868 RMS(Int)=  0.00012743
 Iteration  3 RMS(Cart)=  0.00020268 RMS(Int)=  0.00007006
 Iteration  4 RMS(Cart)=  0.00000004 RMS(Int)=  0.00007006
 Variable       Old X    -DE/DX   Delta X   Delta X   Delta X     New X
                                 (Linear)    (Quad)   (Total)
    R1        2.63379   0.00009   0.00000   0.00019   0.00019   2.63398
    R2        2.64422   0.00016   0.00000   0.00035   0.00035   2.64457
    R3        2.05385   0.00004   0.00000   0.00012   0.00012   2.05397
    R4        2.66596  -0.00002   0.00000  -0.00006  -0.00006   2.66591
    R5        2.05245  -0.00001   0.00000  -0.00004  -0.00004   2.05242
    R6        2.66587  -0.00001   0.00000  -0.00003  -0.00003   2.66583
    R7        2.69224   0.00006   0.00000   0.00014   0.00014   2.69238
    R8        2.63376   0.00009   0.00000   0.00019   0.00019   2.63396
    R9        2.05247   0.00000   0.00000   0.00000   0.00000   2.05247
   R10        2.64423   0.00015   0.00000   0.00035   0.00035   2.64458
   R11        2.05386   0.00005   0.00000   0.00013   0.00013   2.05399
   R12        2.02201   0.01199   0.00000   0.03122   0.03122   2.05323
   R13        2.30102   0.00008   0.00000   0.00008   0.00008   2.30110
   R14        2.68740   0.00038   0.00000   0.00089   0.00089   2.68828
   R15        2.66727  -0.00138   0.00000  -0.00334  -0.00337   2.66391
   R16        2.67511  -0.00272   0.00000  -0.00667  -0.00668   2.66843
   R17        2.62830   0.00074   0.00000   0.00176   0.00175   2.63005
   R18        2.05177   0.00002   0.00000   0.00007   0.00007   2.05184
   R19        2.62110   0.00066   0.00000   0.00111   0.00112   2.62223
   R20        2.05203   0.00004   0.00000   0.00012   0.00012   2.05215
   R21        2.65276   0.00599   0.00000   0.01347   0.01349   2.66624
   R22        2.05673  -0.00491   0.00000  -0.01356  -0.01356   2.04317
   R23        2.65770   0.00051   0.00000   0.00138   0.00140   2.65910
   R24        2.05252  -0.00008   0.00000  -0.00023  -0.00023   2.05229
   R25        2.79302   0.01548   0.00000   0.04303   0.04303   2.83604
   R26        2.30475   0.00527   0.00000   0.00545   0.00545   2.31019
   R27        2.91018  -0.00193   0.00000  -0.00649  -0.00649   2.90368
   R28        2.02201   0.01776   0.00000   0.04623   0.04623   2.06824
   R29        2.02201   0.01776   0.00000   0.04623   0.04623   2.06824
   R30        2.02201   0.01546   0.00000   0.04025   0.04025   2.06226
    A1        2.09960   0.00016   0.00000   0.00073   0.00073   2.10032
    A2        2.08793  -0.00005   0.00000  -0.00020  -0.00020   2.08774
    A3        2.09566  -0.00011   0.00000  -0.00053  -0.00053   2.09513
    A4        2.09912   0.00005   0.00000   0.00015   0.00015   2.09927
    A5        2.10307   0.00000   0.00000   0.00009   0.00009   2.10316
    A6        2.08100  -0.00005   0.00000  -0.00024  -0.00024   2.08076
    A7        2.07753  -0.00009   0.00000  -0.00042  -0.00042   2.07711
    A8        2.10264   0.00006   0.00000   0.00027   0.00027   2.10291
    A9        2.10302   0.00003   0.00000   0.00015   0.00015   2.10316
   A10        2.09936   0.00003   0.00000   0.00007   0.00007   2.09943
   A11        2.08097  -0.00004   0.00000  -0.00019  -0.00019   2.08078
   A12        2.10286   0.00001   0.00000   0.00012   0.00012   2.10298
   A13        2.09938   0.00018   0.00000   0.00081   0.00081   2.10019
   A14        2.08808  -0.00006   0.00000  -0.00025  -0.00025   2.08783
   A15        2.09572  -0.00012   0.00000  -0.00056  -0.00056   2.09516
   A16        2.09139  -0.00033   0.00000  -0.00134  -0.00134   2.09005
   A17        2.09590   0.00016   0.00000   0.00066   0.00066   2.09656
   A18        2.09590   0.00017   0.00000   0.00068   0.00068   2.09658
   A19        2.10370   0.00055   0.00000   0.00306   0.00308   2.10678
   A20        2.10128   0.00065   0.00000   0.00346   0.00348   2.10476
   A21        2.07820  -0.00119   0.00000  -0.00651  -0.00655   2.07165
   A22        2.09620   0.00186   0.00000   0.00736   0.00732   2.10352
   A23        2.08205  -0.00088   0.00000  -0.00338  -0.00337   2.07869
   A24        2.10494  -0.00098   0.00000  -0.00397  -0.00396   2.10098
   A25        2.10216   0.00024   0.00000  -0.00111  -0.00112   2.10105
   A26        2.07796  -0.00016   0.00000   0.00031   0.00031   2.07827
   A27        2.10306  -0.00008   0.00000   0.00081   0.00081   2.10387
   A28        2.10488   0.00110   0.00000   0.00563   0.00564   2.11052
   A29        2.09042  -0.00486   0.00000  -0.02789  -0.02789   2.06252
   A30        2.08789   0.00376   0.00000   0.02226   0.02225   2.11014
   A31        2.09921   0.00426   0.00000   0.01777   0.01781   2.11702
   A32        2.11226  -0.00197   0.00000  -0.00798  -0.00799   2.10427
   A33        2.07171  -0.00229   0.00000  -0.00980  -0.00982   2.06190
   A34        2.08572  -0.00627   0.00000  -0.02314  -0.02310   2.06262
   A35        2.09086   0.02100   0.00000   0.07980   0.07978   2.17064
   A36        2.10660  -0.01473   0.00000  -0.05666  -0.05668   2.04992
   A37        2.17867  -0.02279   0.00000  -0.08705  -0.08705   2.09162
   A38        2.00628   0.02732   0.00000   0.10433   0.10433   2.11061
   A39        2.09823  -0.00452   0.00000  -0.01728  -0.01728   2.08095
   A40        1.91063   0.00426   0.00000   0.02621   0.02601   1.93664
   A41        1.91063   0.00424   0.00000   0.02608   0.02588   1.93651
   A42        1.91063  -0.00368   0.00000  -0.02427  -0.02413   1.88651
   A43        1.91063  -0.00307   0.00000  -0.01218  -0.01269   1.89794
   A44        1.91063  -0.00087   0.00000  -0.00790  -0.00775   1.90288
   A45        1.91063  -0.00087   0.00000  -0.00794  -0.00779   1.90284
   A46        3.14154   0.00002   0.00000   0.00036   0.00036   3.14191
   A47        3.13900   0.00002   0.00000   0.00076   0.00076   3.13975
   A48        3.14116   0.00002   0.00000   0.00037   0.00037   3.14153
   A49        3.14231  -0.00003   0.00000  -0.00098  -0.00098   3.14134
    D1       -0.00003   0.00000   0.00000   0.00001   0.00001  -0.00002
    D2        3.14154   0.00000   0.00000   0.00004   0.00004   3.14158
    D3        3.14158   0.00000   0.00000   0.00000   0.00000   3.14157
    D4       -0.00004   0.00000   0.00000   0.00003   0.00003  -0.00001
    D5        0.00002   0.00000   0.00000  -0.00001  -0.00001   0.00001
    D6       -3.14158   0.00000   0.00000  -0.00001  -0.00001  -3.14159
    D7       -3.14159   0.00000   0.00000   0.00001   0.00001  -3.14158
    D8        0.00000   0.00000   0.00000   0.00000   0.00000   0.00001
    D9        0.00002   0.00000   0.00000   0.00000   0.00000   0.00003
   D10        3.14149   0.00000   0.00000   0.00008   0.00008   3.14157
   D11       -3.14155   0.00000   0.00000  -0.00003  -0.00003  -3.14158
   D12       -0.00008   0.00000   0.00000   0.00005   0.00005  -0.00003
   D13        0.00000   0.00000   0.00000  -0.00002  -0.00002  -0.00002
   D14        3.14159   0.00000   0.00000   0.00001   0.00001  -3.14159
   D15       -3.14147   0.00000   0.00000  -0.00009  -0.00009  -3.14157
   D16        0.00012   0.00000   0.00000  -0.00007  -0.00007   0.00005
   D17        3.14155   0.00000   0.00000  -0.00023  -0.00023   3.14132
   D18       -0.00017   0.00000   0.00000   0.00006   0.00006  -0.00010
   D19       -0.00015   0.00000   0.00000  -0.00005  -0.00005  -0.00020
   D20        3.14132   0.00000   0.00000   0.00024   0.00024   3.14156
   D21       -0.00001   0.00000   0.00000   0.00002   0.00002   0.00001
   D22        3.14157   0.00000   0.00000   0.00002   0.00002  -3.14159
   D23        3.14159   0.00000   0.00000  -0.00001  -0.00001   3.14158
   D24       -0.00002   0.00000   0.00000   0.00000   0.00000  -0.00002
   D25        0.00000   0.00000   0.00000  -0.00001  -0.00001   0.00000
   D26       -3.14159   0.00000   0.00000   0.00000   0.00000   3.14159
   D27       -3.14158   0.00000   0.00000  -0.00001  -0.00001  -3.14159
   D28        0.00001   0.00000   0.00000  -0.00001  -0.00001   0.00001
   D29       -3.14135  -0.00001   0.00000  -0.00016  -0.00016  -3.14151
   D30        0.00027  -0.00001   0.00000  -0.00018  -0.00018   0.00009
   D31        0.00006   0.00000   0.00000   0.00003   0.00002   0.00009
   D32       -3.14150   0.00000   0.00000   0.00000   0.00000  -3.14150
   D33        3.14128   0.00001   0.00000   0.00024   0.00024   3.14152
   D34       -0.00033   0.00001   0.00000   0.00022   0.00022  -0.00011
   D35       -0.00013   0.00000   0.00000   0.00005   0.00005  -0.00008
   D36        3.14144   0.00000   0.00000   0.00003   0.00003   3.14147
   D37        0.00009   0.00000   0.00000  -0.00011  -0.00011  -0.00002
   D38       -3.14152   0.00000   0.00000  -0.00002  -0.00002  -3.14154
   D39       -3.14153   0.00000   0.00000  -0.00009  -0.00009   3.14157
   D40        0.00004   0.00000   0.00000   0.00000   0.00000   0.00004
   D41        0.00004   0.00000   0.00000  -0.00004  -0.00004   0.00000
   D42       -3.14151   0.00000   0.00000  -0.00008  -0.00008  -3.14158
   D43       -3.14153   0.00000   0.00000  -0.00003  -0.00002  -3.14155
   D44        0.00011   0.00000   0.00000  -0.00006  -0.00006   0.00005
   D45       -0.00018   0.00000   0.00000   0.00012   0.00012  -0.00006
   D46        3.14128   0.00001   0.00000   0.00023   0.00023   3.14151
   D47        3.14143   0.00000   0.00000   0.00003   0.00003   3.14146
   D48       -0.00029   0.00000   0.00000   0.00014   0.00014  -0.00015
   D49        0.00011   0.00000   0.00000  -0.00004  -0.00004   0.00007
   D50       -3.14135  -0.00001   0.00000  -0.00016  -0.00016  -3.14150
   D51       -3.14152   0.00000   0.00000  -0.00001  -0.00001  -3.14153
   D52        0.00021   0.00000   0.00000  -0.00013  -0.00012   0.00008
   D53        3.14070   0.00002   0.00000   0.00081   0.00079   3.14149
   D54       -0.00033  -0.00001   0.00000  -0.00065  -0.00063  -0.00096
   D55       -0.00103   0.00002   0.00000   0.00092   0.00091  -0.00013
   D56        3.14113  -0.00001   0.00000  -0.00054  -0.00052   3.14061
   D57       -1.04699  -0.00071   0.00000  -0.00781  -0.00806  -1.05505
   D58        1.04740   0.00073   0.00000   0.00929   0.00956   1.05697
   D59       -3.14139   0.00001   0.00000   0.00067   0.00069  -3.14070
   D60        2.09514  -0.00073   0.00000  -0.00918  -0.00945   2.08569
   D61       -2.09365   0.00071   0.00000   0.00792   0.00817  -2.08548
   D62        0.00075  -0.00001   0.00000  -0.00069  -0.00071   0.00004
         Item               Value     Threshold  Converged?
 Maximum Force            0.027318     0.000450     NO 
 RMS     Force            0.004965     0.000300     NO 
 Maximum Displacement     0.605612     0.001800     NO 
 RMS     Displacement     0.118429     0.001200     NO 
 Predicted change in Energy=-6.177446D-03
 GradGradGradGradGradGradGradGradGradGradGradGradGradGradGradGradGradGrad

                          Input orientation:                          
 ---------------------------------------------------------------------
 Center     Atomic      Atomic             Coordinates (Angstroms)
 Number     Number       Type             X           Y           Z
 ---------------------------------------------------------------------
      1          6           0        5.004521   -1.329238    0.000444
      2          6           0        3.611859   -1.271862    0.000202
      3          6           0        2.951296   -0.025333   -0.000147
      4          6           0        3.721064    1.156837   -0.000278
      5          6           0        5.113252    1.089189   -0.000041
      6          6           0        5.760534   -0.151573    0.000318
      7          1           0        5.502347   -2.295441    0.000731
      8          1           0        3.022539   -2.184167    0.000290
      9          1           0        3.216020    2.118389   -0.000545
     10          1           0        5.695745    2.006851   -0.000141
     11          6           0        1.527981    0.038494   -0.000422
     12          6           0        0.311533    0.093428   -0.000593
     13          6           0       -1.109713    0.154988   -0.000500
     14          6           0       -1.776493    1.397003   -0.000513
     15          6           0       -1.880313   -1.028280   -0.000402
     16          6           0       -3.167143    1.452694   -0.000327
     17          1           0       -1.190375    2.311002   -0.000679
     18          6           0       -3.266404   -0.963084   -0.000224
     19          1           0       -1.373000   -1.988449   -0.000504
     20          6           0       -3.940060    0.272320   -0.000141
     21          1           0       -3.639083    2.425453   -0.000393
     22          1           0       -3.862002   -1.871221   -0.000138
     23          6           0       -5.440527    0.242160    0.000171
     24          8           0       -6.027410   -0.830258    0.000208
     25          1           0        6.845960   -0.200385    0.000502
     26          6           0       -6.256612    1.544094    0.001578
     27          1           0       -6.037275    2.142714    0.891185
     28          1           0       -6.039028    2.143375   -0.888013
     29          1           0       -7.315533    1.280240    0.002498
 ---------------------------------------------------------------------
                    Distance matrix (angstroms):
                    1          2          3          4          5
     1  C    0.000000
     2  C    1.393843   0.000000
     3  C    2.432263   1.410736   0.000000
     4  C    2.797826   2.431152   1.410698   0.000000
     5  C    2.420870   2.797989   2.432327   1.393830   0.000000
     6  C    1.399447   2.423190   2.812074   2.423092   1.399452
     7  H    1.086913   2.149804   3.414858   3.884738   3.406922
     8  H    2.158508   1.086093   2.160009   3.413245   3.884062
     9  H    3.883925   3.413281   2.160005   1.086118   2.158412
    10  H    3.406946   3.884912   3.414934   2.149859   1.086924
    11  C    3.735909   2.461621   1.424745   2.461768   3.736057
    12  C    4.903888   3.571578   2.642433   3.571518   4.903880
    13  C    6.291803   4.932458   4.065010   4.933569   6.292696
    14  C    7.308525   6.013084   4.937107   5.502801   6.896618
    15  C    6.891409   5.497571   4.934607   6.012500   7.307094
    16  C    8.632221   7.306030   6.294431   6.894558   8.288370
    17  H    7.185269   5.991525   4.755197   5.045228   6.420945
    18  C    8.279026   6.885190   6.288018   7.301970   8.627309
    19  H    6.411500   5.036102   4.749038   5.986845   7.179368
    20  C    9.086832   7.708176   6.897781   7.712016   9.090090
    21  H    9.423884   8.139183   7.031319   7.468678   8.853754
    22  H    8.883072   7.497855   7.058918   8.165293   9.450883
    23  C   10.562591   9.178124   8.396085   9.207138  10.587715
    24  O   11.043209   9.649379   9.014713   9.948934  11.304805
    25  H    2.159909   3.406974   3.898596   3.406909   2.159926
    26  C   11.621926  10.262374   9.340700   9.985188  11.378961
    27  H   11.609010  10.274189   9.289204   9.848443  11.235588
    28  H   11.610701  10.275816   9.290723   9.849910  11.237133
    29  H   12.593375  11.221458  10.349507  11.037287  12.430253
                    6          7          8          9         10
     6  C    0.000000
     7  H    2.159359   0.000000
     8  H    3.409993   2.482303   0.000000
     9  H    3.409880   4.970834   4.306904   0.000000
    10  H    2.159397   4.306637   4.970982   2.482233   0.000000
    11  C    4.236818   4.608995   2.678418   2.678700   4.609196
    12  C    5.454507   5.714127   3.540761   3.540693   5.714100
    13  C    6.877083   7.051520   4.748384   4.750463   7.052918
    14  C    7.694470   8.161841   5.987945   5.044362   7.497084
    15  C    7.690979   7.490618   5.037265   5.989502   8.161414
    16  C    9.070673   9.445029   7.179061   6.417781   8.880196
    17  H    7.374240   8.124767   6.160778   4.410602   6.892834
    18  C    9.063342   8.869395   6.406391   7.177555   9.441432
    19  H    7.366236   6.882197   4.399894   6.158346   8.119704
    20  C    9.709851   9.785318   7.383232   7.390362   9.790676
    21  H    9.746480  10.288468   8.100975   6.861977   9.344210
    22  H    9.774988   9.373952   6.891650   8.124984  10.314551
    23  C   11.207979  11.233250   8.804008   8.857541  11.275225
    24  O   11.807465  11.622480   9.150663   9.702345  12.061574
    25  H    1.086523   2.488887   4.307428   4.307340   2.488953
    26  C   12.136190  12.369929  10.000129   9.490025  11.961313
    27  H   12.051792  12.395684  10.079475   9.296194  11.767612
    28  H   12.053447  12.397431  10.081106   9.297534  11.769106
    29  H   13.154225  13.307274  10.903112  10.564852  13.031551
                   11         12         13         14         15
    11  C    0.000000
    12  C    1.217688   0.000000
    13  C    2.640265   1.422578   0.000000
    14  C    3.572828   2.461536   1.409679   0.000000
    15  C    3.571341   2.462198   1.412072   2.427503   0.000000
    16  C    4.903484   3.734808   2.432501   1.391765   2.794845
    17  H    3.543128   2.678313   2.157522   1.085785   3.409812
    18  C    4.897886   3.730663   2.429280   2.791029   1.387623
    19  H    3.538954   2.678034   2.159547   3.409412   1.085952
    20  C    5.473039   4.255355   2.832778   2.438428   2.436004
    21  H    5.691760   4.587560   3.398930   2.127663   3.875763
    22  H    5.718298   4.612834   3.417692   3.876935   2.153518
    23  C    6.971484   5.753983   4.331692   3.841719   3.780098
    24  O    7.605174   6.405887   5.015422   4.799060   4.151822
    25  H    5.323341   6.541029   7.963606   8.769170   8.765458
    26  C    7.928854   6.726438   5.331059   4.482533   5.076328
    27  H    7.902899   6.730691   5.387673   4.416500   5.303815
    28  H    7.904301   6.731970   5.388832   4.417457   5.304918
    29  H    8.930268   7.718851   6.307012   5.540271   5.905157
                   16         17         18         19         20
    16  C    0.000000
    17  H    2.155065   0.000000
    18  C    2.417816   3.876794   0.000000
    19  H    3.880775   4.303328   2.153219   0.000000
    20  C    1.410915   3.423009   1.407137   3.420654   0.000000
    21  H    1.081197   2.451381   3.408969   4.961619   2.174067
    22  H    3.395767   4.962719   1.086024   2.491760   2.144961
    23  C    2.575590   4.726933   2.485845   4.639008   1.500770
    24  O    3.659644   5.767532   2.764199   4.796346   2.360658
    25  H   10.148641   8.419605  10.141085   8.411212  10.796373
    26  C    3.090821   5.123955   3.902216   6.027315   2.642693
    27  H    3.083598   4.931144   4.256561   6.294209   2.948075
    28  H    3.084274   4.932028   4.257429   6.295352   2.948700
    29  H    4.151973   6.211283   4.629034   6.782185   3.522744
                   21         22         23         24         25
    21  H    0.000000
    22  H    4.302452   0.000000
    23  C    2.830542   2.637825   0.000000
    24  O    4.037791   2.402623   1.222503   0.000000
    25  H   10.808846  10.837534  12.294455  12.888770   0.000000
    26  C    2.761930   4.171155   1.536563   2.385389  13.218192
    27  H    2.574136   4.651660   2.182227   3.103627  13.124830
    28  H    2.574329   4.652391   2.182130   3.103476  13.126522
    29  H    3.850689   4.675317   2.143189   2.472543  14.238684
                   26         27         28         29
    26  C    0.000000
    27  H    1.094466   0.000000
    28  H    1.094464   1.779198   0.000000
    29  H    1.091299   1.779766   1.779740   0.000000
 Stoichiometry    C16H12O
 Framework group  C1[X(C16H12O)]
 Deg. of freedom    81
 Full point group                 C1      NOp   1
 Largest Abelian subgroup         C1      NOp   1
 Largest concise Abelian subgroup C1      NOp   1
                         Standard orientation:                         
 ---------------------------------------------------------------------
 Center     Atomic      Atomic             Coordinates (Angstroms)
 Number     Number       Type             X           Y           Z
 ---------------------------------------------------------------------
      1          6           0        5.470771   -1.189224    0.000434
      2          6           0        4.076982   -1.201466    0.000192
      3          6           0        3.354994    0.010520   -0.000157
      4          6           0        4.064766    1.229656   -0.000289
      5          6           0        5.458595    1.231615   -0.000051
      6          6           0        6.167031    0.024725    0.000308
      7          1           0        6.016226   -2.129361    0.000721
      8          1           0        3.533955   -2.142062    0.000280
      9          1           0        3.512334    2.164787   -0.000555
     10          1           0        5.994536    2.177221   -0.000152
     11          6           0        1.930268    0.003191   -0.000433
     12          6           0        0.712594   -0.002691   -0.000604
     13          6           0       -0.709953   -0.012182   -0.000510
     14          6           0       -1.437925    1.194986   -0.000523
     15          6           0       -1.420502   -1.232455   -0.000412
     16          6           0       -2.829621    1.181161   -0.000337
     17          1           0       -0.898181    2.137114   -0.000689
     18          6           0       -2.808119   -1.236559   -0.000234
     19          1           0       -0.865873   -2.166093   -0.000514
     20          6           0       -3.542628   -0.036338   -0.000152
[...]
 0002,0.00000130,-0.00000237,0.,0.00000155,0.00000333,0.,-0.00000379,0.
 00000012,0.,0.00000106,0.00000054,0.,0.00000008,0.00000112,0.,0.000000
 09,-0.00000083,0.,0.00000009,-0.00000075,0.,0.00012396,-0.00004035,0.0
 0000005,0.00002339,0.00026437,-0.00000003,0.00161205,0.00135371,-0.000
 00045,0.00066767,0.00020068,0.00000008,0.00325823,0.00664154,0.0000000
 9,0.00396467,-0.00320854,-0.00000062,-0.00009766,0.00001953,0.00000007
 ,-0.12870322,-0.26207247,-0.00001367,-0.00027752,0.00081318,0.00000035
 ,-0.01506138,-0.02015953,-0.00000150,-0.00087840,-0.00100135,-0.000000
 09,0.13832004,0.27689182,0.,0.,-0.00001633,0.00000001,0.,0.00002663,-0
 .00000002,0.,0.00002940,0.,0.,-0.00002788,0.,0.,0.00000341,0.,0.,0.000
 00094,0.,0.,0.00000074,0.,0.,0.00000853,0.,0.,0.00000175,0.,0.,0.00000
 231,0.00000003,0.,-0.00022527,-0.00000003,0.00000007,0.00013533,0.0000
 0018,-0.00000041,0.00783666,0.00000006,0.00000009,-0.00080766,0.000000
 31,0.00000033,0.00448476,0.00000019,-0.00000059,0.00579085,-0.00000002
 ,0.00000005,-0.00097105,-0.00000787,-0.00001358,-0.04030090,-0.0000000
 1,0.00000029,-0.00448310,-0.00000016,-0.00000175,0.00417561,-0.0000000
 5,-0.00000007,0.00052313,0.00000807,0.00001561,0.02740829,0.00014460,0
 .00046034,-0.00000003,0.00033903,0.00066474,-0.00000002,-0.00029828,0.
 00001829,0.00000011,0.00027742,-0.00068383,-0.00000007,0.00011572,-0.0
 0048046,-0.00000003,0.00066503,-0.00002141,-0.00000006,0.00014644,-0.0
 0013544,-0.00000002,-0.00013079,0.00004919,0.00000002,-0.00013702,-0.0
 0003877,0.00000001,0.00015636,0.00012446,0.,-0.00244540,0.00012113,0.0
 0000052,0.00528969,-0.00033760,-0.00000078,-0.00530618,-0.00010079,0.0
 0000029,0.00751212,-0.00363840,-0.00000016,0.00791747,0.00440371,0.000
 00017,-0.01926047,-0.01515945,-0.00000196,0.00089480,0.00043395,0.0000
 0001,-0.03142810,0.01911095,0.00000207,0.00041361,-0.00039840,-0.00000
 002,-0.17214314,0.01957622,0.00000341,0.00060551,0.00232810,0.00000025
 ,0.00000885,-0.00277800,-0.00000053,0.59058114,0.00005604,0.00005206,0
 .,-0.00005303,0.00013967,0.,0.00030619,0.00000703,-0.00000007,-0.00007
 399,-0.00010898,-0.00000002,0.00005757,-0.00006306,0.,0.00001675,-0.00
 000063,0.,0.00001617,-0.00001227,0.,-0.00001296,-0.00000388,0.,-0.0000
 0424,-0.00000305,0.,0.00000371,0.00000514,0.,-0.00098990,0.00008990,0.
 00000030,0.00163773,-0.00017474,-0.00000027,-0.00232543,-0.00374017,-0
 .00000003,-0.00307214,-0.00535733,-0.00000068,0.00641057,-0.00626559,-
 0.00000062,-0.02970840,0.00535599,0.00000040,-0.00141108,0.00017150,-0
 .00000003,0.02676056,0.01304034,0.00000080,0.00206695,-0.00005899,-0.0
 0000005,0.03615545,-0.10860557,-0.00000330,-0.00068683,-0.00114394,0.0
 0000017,0.00098210,-0.00297604,-0.00000022,0.16414346,0.81616439,0.,0.
 ,-0.00002367,-0.00000001,0.00000002,0.00000939,0.00000008,0.,0.0002033
 4,-0.00000002,-0.00000001,-0.00000953,0.00000001,0.,-0.00000874,0.,0.,
 0.00000762,0.,0.,0.00000058,0.,0.,0.00000667,0.,0.,0.00000132,0.,0.,0.
 00000510,-0.00000019,0.00000003,-0.00037165,0.00000025,-0.00000006,-0.
 00066801,-0.00000041,-0.00000019,-0.00118836,-0.00000015,-0.00000063,0
 .00777550,0.00000067,-0.00000116,0.00698620,-0.00000189,0.00000009,-0.
 00095814,-0.00000002,-0.00000003,0.00056208,0.00000135,0.00000151,0.00
 217701,0.00000025,-0.00000005,0.00028713,0.00000616,-0.00000235,-0.076
 20241,-0.00000022,0.00000006,-0.00392980,0.00000011,-0.00000028,-0.003
 60909,0.00003353,0.00010772,0.22006753,-0.00005244,-0.00020111,0.,-0.0
 0020501,-0.00029096,0.00000003,0.00027920,-0.00000853,-0.00000004,-0.0
 0016472,0.00029095,0.00000003,-0.00004495,0.00021497,0.00000001,-0.000
 31806,0.00000826,0.00000003,-0.00007423,0.00006749,0.,0.00006927,-0.00
 002931,-0.00000001,0.00007293,0.00002802,0.,-0.00007578,-0.00006034,0.
 ,0.00080278,-0.00000505,-0.00000028,-0.00199755,0.00008477,0.00000035,
 0.00172064,-0.00183471,-0.00000017,-0.00443514,-0.00066366,0.00000033,
 -0.00027098,-0.00215075,0.00000008,-0.00399561,0.00856577,0.00000052,-
 0.00105360,-0.00005744,0.00000005,0.00028123,-0.00391912,-0.00000100,-
 0.00013812,0.00017659,-0.00000006,-0.04763575,-0.05100983,-0.00000947,
 0.00024812,-0.00066521,-0.00000022,-0.00267194,-0.00025052,-0.00000022
 ,-0.24734259,-0.25712576,-0.00005004,0.28450047,-0.00007952,-0.0001457
 7,0.,-0.00003601,-0.00028242,0.,-0.00020142,-0.00001955,0.00000002,0.0
 0001154,0.00023967,0.00000003,-0.00007586,0.00017236,0.,-0.00016908,0.
 00000218,0.00000002,-0.00004783,0.00004142,0.,0.00003623,-0.00000117,0
 .,0.00003650,0.00001377,0.,-0.00003740,-0.00003247,0.,0.00139538,-0.00
 005743,-0.00000030,-0.00257081,0.00045351,0.00000034,0.00297507,0.0001
 8764,-0.00000009,-0.00224504,0.00139565,0.00000039,-0.00332064,0.00069
 074,0.00000008,0.00259589,0.00482713,0.00000029,-0.00034486,-0.0000276
 8,0.00000003,0.00773536,-0.00904179,-0.00000042,-0.00048241,0.00009785
 ,-0.00000001,-0.04453418,-0.00412419,-0.00000442,0.00061977,0.00051200
 ,-0.00000027,0.00047209,0.00285988,0.00000032,-0.24531794,-0.54610797,
 -0.00009197,0.30081364,0.61633117,-0.00000001,-0.00000002,0.00000163,0
 .,-0.00000004,-0.00000021,-0.00000003,0.,-0.00000839,0.,0.00000003,-0.
 00001072,-0.00000001,0.00000002,0.00000788,-0.00000002,0.,0.00000135,0
 .,0.,-0.00000365,0.,0.,-0.00000588,0.,0.,-0.00000476,0.,0.,-0.00000204
 ,0.00000020,-0.00000002,0.00005749,-0.00000037,0.00000007,0.00014783,0
 .00000044,-0.00000005,-0.00011451,-0.00000042,0.00000002,-0.00153174,-
 0.00000038,0.00000004,-0.00054869,-0.00000001,0.00000091,0.00308791,-0
 .00000012,0.00000002,-0.00036457,0.00000103,-0.00000133,0.00002524,-0.
 00000008,0.00000002,0.00013848,-0.00000828,-0.00000471,0.01871709,0.00
 000015,0.00000003,0.00063583,0.00000006,0.00000034,-0.00022927,-0.0000
 4774,-0.00009151,-0.06655237,0.00005883,0.00011335,0.02426571,-0.01228
 044,0.00323593,0.00000163,0.00045524,-0.00335579,0.00000057,0.00072455
 ,-0.00007970,-0.00000017,0.00087785,0.00291731,0.00000068,-0.01017568,
 -0.00194016,0.00000130,-0.33928282,0.01119506,0.00003034,0.00076027,-0
 .00042739,-0.00000047,-0.00068895,0.00024895,0.00000009,-0.00059152,-0
 .00018724,0.00000007,0.00076792,0.00042541,-0.00000045,0.00012926,0.00
 000268,-0.00000010,-0.00013895,0.00000674,0.00000002,0.00013398,-0.000
 00700,0.,-0.00005782,0.00001208,0.,-0.00005730,-0.00000497,0.,0.000026
 19,0.00000750,0.,0.00000892,-0.00000720,0.,0.00002371,-0.00001152,0.,0
 .00000964,0.00000701,0.,-0.00009772,0.00001439,0.,-0.00000553,0.000005
 24,0.,-0.00000261,-0.00000055,0.,0.00013629,0.00000858,0.,-0.00006899,
 -0.00003760,0.,0.35941087,-0.02808481,0.00595558,0.00000284,-0.0023120
 4,-0.00456330,-0.00000004,-0.00007843,-0.00123818,0.,0.00187098,-0.004
 98053,-0.00000048,0.02938034,0.00384678,-0.00000289,0.01119728,-0.0608
 2849,-0.00000169,0.00032935,0.00072375,0.00000007,-0.00140493,0.000153
 98,0.00000014,0.00146717,0.00005303,-0.00000015,-0.00033314,0.00071636
 ,0.00000015,0.00000357,0.00020726,0.00000003,0.00000614,0.00002625,0.,
 -0.00000582,-0.00001357,0.,-0.00000170,-0.00000834,0.,0.00000614,-0.00
 000877,0.,-0.00000115,0.00000386,0.,-0.00000342,0.00000400,0.,-0.00000
 092,0.00000469,0.,0.00000292,0.00000320,0.,0.00000370,-0.00000109,0.,-
 0.00000032,-0.00000011,0.,0.00000079,0.,0.,-0.00000523,0.00000015,0.,0
 .00000298,0.00000200,0.,-0.01203924,0.05994185,0.00000088,-0.00000028,
 0.00336467,0.00000064,0.00000005,0.00701083,-0.00000018,0.,-0.00092384
 ,0.00000070,-0.00000057,0.00701177,0.00000204,0.00000022,0.00335490,0.
 00003026,-0.00000168,-0.03639362,-0.00000044,0.00000014,-0.00387728,0.
 00000004,-0.00000002,0.00011399,0.00000010,0.00000002,0.00011799,-0.00
 000046,0.00000007,-0.00387731,-0.00000011,0.00000003,-0.00097552,0.000
 00003,0.,0.00001908,0.,0.,0.00004619,0.,0.,-0.00000091,0.,0.,-0.000000
 12,0.,0.,-0.00000141,0.,0.,0.00000102,0.,0.,-0.00000154,0.,0.,0.000000
 98,0.,0.,0.00000583,0.,0.,0.00000150,0.,0.,0.00000170,-0.00000001,0.,-
 0.00000237,0.,0.,-0.00000192,-0.00003349,0.00000202,0.02500428,0.00000
 326,-0.00002448,0.,-0.00005995,-0.00002044,0.00000001,0.00015806,-0.00
 000763,-0.00000003,-0.00006879,0.00003235,0.,0.00000604,0.00002342,0.,
 -0.00005976,0.00000388,0.,-0.00001259,0.00001131,0.,0.00001458,-0.0000
 1068,0.,0.00001673,0.00000691,0.,-0.00001602,-0.00001144,0.,-0.0001204
 6,-0.00001194,0.00000009,0.00005988,0.00000471,-0.00000014,0.00005331,
 0.00023725,0.00000006,0.00025384,0.00035867,-0.00000005,-0.00047946,0.
 00177019,0.,-0.00255730,0.00056144,0.00000016,-0.00007765,-0.00005449,
 0.00000003,-0.00504890,-0.00228375,0.00000004,-0.00049427,0.00002136,-
 0.00000003,-0.01199477,0.02687158,0.00000447,-0.00209059,0.00058884,0.
 00000022,0.00002138,0.00012274,0.00000002,-0.13026653,0.05251327,0.000
 00952,0.01870197,-0.01969390,-0.00000300,-0.00001303,0.00000012,0.,0.5
 7988201,0.00001028,0.00003615,0.,0.00002807,0.00004012,0.,-0.00003925,
 0.00000006,0.00000001,0.00002663,-0.00005295,0.00000001,0.00000556,-0.
 00003099,0.,0.00004993,-0.00000170,0.,0.00000967,-0.00000999,0.,-0.000
 01048,0.00000640,0.,-0.00001062,-0.00000197,0.,0.00001371,0.00001040,0
 .,-0.00014153,-0.00001089,-0.00000002,0.00033388,0.00006752,-0.0000000
 1,-0.00031396,-0.00052682,-0.00000007,0.00001124,-0.00009762,0.0000002
 8,0.00070986,0.00121065,0.00000015,0.00083021,-0.00074030,0.,0.0000083
 4,0.00002847,0.,-0.00342502,0.00115314,-0.00000028,-0.00018328,0.00004
 292,0.00000005,0.00504653,0.00366798,-0.00000247,-0.00014603,0.0002661
 7,-0.00000020,-0.00042586,0.00027961,-0.00000006,0.04729397,-0.1376812
 0,-0.00000953,0.00304305,-0.05945727,-0.00001534,0.00001107,-0.0000005
 5,0.,0.05893037,0.49012867,0.,0.,-0.00000818,0.,0.,0.00000293,-0.00000
 002,0.,-0.00001627,0.,0.,-0.00000421,0.,0.,-0.00000134,0.,0.,0.0000017
 0,0.,0.,0.00000133,0.,0.,0.00000327,0.,0.,0.00000326,0.,0.,0.00000041,
 0.00000004,-0.00000003,0.00005295,-0.00000007,0.00000005,0.00006517,0.
 00000005,-0.00000003,0.00045436,-0.00000008,0.00000009,-0.00161266,-0.
 00000015,-0.00000001,-0.00077007,-0.00000021,-0.00000002,-0.00107642,-
 0.00000003,0.,0.00002783,0.00000013,0.00000013,0.00188654,0.,0.0000000
 2,-0.00027742,0.00000066,-0.00000303,0.01540698,0.00000021,-0.00000010
 ,0.00156608,-0.00000011,0.00000004,0.00012952,0.00000979,-0.00001030,-
 0.08795800,0.00000085,-0.00001619,0.02516256,0.,0.,0.00000094,0.000010
 47,0.00000214,0.52916246,-0.00000349,-0.00000419,0.00000248,0.00000773
 ,-0.00000629,-0.00000445,-0.00002823,0.00000343,0.00000302,0.00000744,
 0.00000910,-0.00000466,-0.00000261,0.00000296,0.00000114,-0.00000014,0
 .00000016,-0.00000048,0.00000052,-0.00000054,0.00000001,-0.00000102,0.
 00000132,-0.00000077,-0.00000167,-0.00000242,0.00000077,0.00000004,0.0
 0000027,-0.00000025,0.00006548,-0.00000611,0.00004065,-0.00010406,-0.0
 0002685,-0.00011997,0.00008239,0.00025142,-0.00003273,0.00005259,-0.00
 011941,0.00034813,-0.00033010,-0.00029431,0.00019974,-0.00098831,0.000
 43455,0.00018799,0.00000127,-0.00000257,-0.00000569,0.00058000,-0.0003
 7855,-0.00033621,0.00000970,-0.00000783,0.00004175,-0.00138299,0.00012
 125,-0.00163175,-0.00175145,-0.00004656,0.00057881,0.00006519,-0.00005
 445,-0.00002192,0.00621889,0.00432747,0.01604737,0.00003759,0.00210373
 ,-0.00173079,0.00000097,-0.00000027,-0.00000042,-0.06449283,-0.0317734
 5,-0.05107945,0.06524905,0.00000336,0.00000229,-0.00000028,-0.00000467
 ,0.00000579,0.00000279,0.00002135,-0.00000174,0.00000035,-0.00000589,-
 0.00000500,0.00000493,0.00000433,-0.00000270,-0.00000122,-0.00000024,0
 .00000018,0.00000058,0.00000018,-0.00000026,-0.00000050,-0.00000001,-0
 .00000070,-0.00000077,0.00000026,0.00000062,-0.00000092,-0.00000008,0.
 00000015,-0.00000055,-0.00004988,0.00000055,-0.00002381,0.00008406,0.0
 0000429,0.00002651,-0.00004715,0.00025879,0.00007663,0.00041131,-0.000
 06989,-0.00012447,-0.00019211,0.00001759,-0.00020964,-0.00025816,0.000
 22484,0.00034300,0.00000479,0.00000224,0.00000356,0.00020154,-0.000184
 48,0.00044694,0.00000753,-0.00000997,-0.00005152,0.00047478,0.00010407
 ,0.00193652,-0.00005991,0.00033814,-0.00004382,-0.00014534,0.00007086,
 0.00002407,-0.01167889,-0.01350483,-0.02466584,0.00319926,-0.00550952,
 0.00373771,0.00000009,0.,-0.00000010,-0.03324977,-0.12077905,-0.119888
 74,0.03736871,0.13075390,0.00000087,0.00000006,0.00000187,-0.00000849,
 -0.00000239,-0.00000161,0.00001949,-0.00000523,0.00000611,-0.00000732,
 -0.00000234,0.00000078,0.00000009,0.00000182,-0.00000054,-0.00000495,0
 .00000014,-0.00000044,-0.00000207,0.00000161,-0.00000016,0.00000199,-0
 .00000069,-0.00000061,0.00000210,0.00000212,-0.00000018,-0.00000086,-0
 .00000098,-0.00000034,-0.00002759,0.00000475,-0.00001248,0.00001713,0.
 00004714,-0.00001613,-0.00007301,0.00006861,-0.00005184,0.00004294,0.0
 0038619,0.00021915,-0.00009951,0.00000783,0.00000059,-0.00038287,-0.00
 098457,0.00038836,0.00002237,-0.00001107,0.00000296,0.00027373,0.00006
 389,0.00002206,0.00001833,0.00000677,0.00000238,0.00012503,-0.00052714
 ,-0.00017335,0.00032410,0.00059479,-0.00037538,-0.00006860,0.00006290,
 0.00001864,-0.00012455,0.00173685,0.00216257,0.00061385,0.00081281,-0.
 00090462,-0.00000168,0.00000019,-0.00000008,-0.05154574,-0.11584419,-0
 .21634422,0.05753953,0.12686765,0.23512381,-0.00000349,-0.00000419,-0.
 00000247,0.00000773,-0.00000629,0.00000444,-0.00002823,0.00000343,-0.0
 0000300,0.00000745,0.00000911,0.00000466,-0.00000261,0.00000296,-0.000
 00114,-0.00000014,0.00000016,0.00000048,0.00000052,-0.00000054,-0.0000
 0001,-0.00000102,0.00000132,0.00000077,-0.00000167,-0.00000242,-0.0000
 0077,0.00000004,0.00000027,0.00000025,0.00006548,-0.00000609,-0.000040
 71,-0.00010408,-0.00002689,0.00012006,0.00008241,0.00025138,0.00003270
 ,0.00005258,-0.00011942,-0.00034817,-0.00033010,-0.00029433,-0.0001998
 0,-0.00098834,0.00043469,-0.00018770,0.00000126,-0.00000256,0.00000570
 ,0.00058001,-0.00037852,0.00033617,0.00000970,-0.00000782,-0.00004175,
 -0.00138289,0.00012052,0.00163226,-0.00175175,-0.00004651,-0.00057857,
 0.00006518,-0.00005447,0.00002194,0.00621671,0.00433281,-0.01604670,0.
 00003747,0.00210211,0.00173119,0.00000097,-0.00000027,0.00000042,-0.06
 447601,-0.03176935,0.05104824,0.00124798,0.00454675,-0.00678533,0.0652
 3197,0.00000336,0.00000229,0.00000028,-0.00000467,0.00000579,-0.000002
 78,0.00002136,-0.00000174,-0.00000036,-0.00000589,-0.00000501,-0.00000
 494,0.00000433,-0.00000270,0.00000122,-0.00000024,0.00000018,-0.000000
 58,0.00000018,-0.00000026,0.00000050,-0.00000001,-0.00000070,0.0000007
 7,0.00000026,0.00000062,0.00000092,-0.00000008,0.00000015,0.00000055,-
 0.00004990,0.00000055,0.00002383,0.00008408,0.00000431,-0.00002653,-0.
 00004721,0.00025873,-0.00007659,0.00041123,-0.00006970,0.00012443,-0.0
 0019202,0.00001762,0.00020967,-0.00025818,0.00022446,-0.00034307,0.000
 00480,0.00000224,-0.00000356,0.00020141,-0.00018438,-0.00044693,0.0000
 0753,-0.00000998,0.00005152,0.00047484,0.00010460,-0.00193674,-0.00005
 983,0.00033840,0.00004400,-0.00014533,0.00007087,-0.00002411,-0.011674
 99,-0.01351290,0.02466425,0.00319892,-0.00550644,-0.00374047,0.0000000
 9,0.,0.00000010,-0.03324635,-0.12083671,0.11991478,0.00454290,0.011272
 08,-0.01517987,0.03736528,0.13081633,-0.00000087,-0.00000006,0.0000018
 8,0.00000848,0.00000239,-0.00000162,-0.00001948,0.00000523,0.00000611,
 0.00000732,0.00000234,0.00000078,-0.00000009,-0.00000182,-0.00000054,0
 .00000495,-0.00000014,-0.00000044,0.00000207,-0.00000161,-0.00000016,-
 0.00000199,0.00000068,-0.00000061,-0.00000210,-0.00000212,-0.00000017,
 0.00000086,0.00000098,-0.00000034,0.00002756,-0.00000474,-0.00001246,-
 0.00001708,-0.00004715,-0.00001616,0.00007300,-0.00006851,-0.00005186,
 -0.00004275,-0.00038628,0.00021920,0.00009945,-0.00000778,0.00000071,0
 .00038303,0.00098461,0.00038823,-0.00002236,0.00001107,0.00000296,-0.0
 0027373,-0.00006396,0.00002182,-0.00001834,-0.00000678,0.00000239,-0.0
 0012477,0.00052740,-0.00017391,-0.00032394,-0.00059468,-0.00037519,0.0
 0006854,-0.00006287,0.00001863,0.00012048,-0.00174080,0.00217081,-0.00
 061307,-0.00081432,-0.00090634,0.00000168,-0.00000019,-0.00000008,0.05
 151542,0.11586886,-0.21629426,0.00678341,0.01518758,-0.02143004,-0.057
 50536,-0.12689634,0.23507126,-0.00000093,-0.00001152,0.,-0.00001928,-0
 .00001416,0.,0.00004175,-0.00000207,0.00000002,-0.00001860,0.00001490,
 0.,-0.00000026,0.00001204,0.,-0.00002246,0.00000092,0.,-0.00000513,0.0
 0000480,0.,0.00000553,-0.00000331,0.,0.00000586,0.00000276,0.,-0.00000
 561,-0.00000443,0.,0.00000466,-0.00000223,-0.00000008,-0.00005285,0.00
 000313,0.00000010,0.00010114,0.00005982,-0.00000004,0.00005459,-0.0000
 0998,0.00000004,-0.00012040,0.00030589,0.,0.00058547,0.00026629,-0.000
 00004,-0.00003721,-0.00000995,0.,-0.00071033,-0.00051309,0.,-0.0001020
 2,0.00000586,0.,-0.00004861,0.00300473,0.00000053,0.00013301,0.0000717
 3,-0.00000004,0.00001173,0.00006364,0.00000002,-0.01888120,-0.00433161
 ,0.00000036,0.00379377,-0.00170280,-0.00000061,-0.00000527,0.00000021,
 0.,-0.31684217,-0.04812354,0.00000966,-0.00453995,-0.00063619,0.000131
 01,-0.00453713,-0.00063588,-0.00013033,0.34121190,-0.00000016,0.000003
 10,0.,0.00000143,0.00000194,0.,-0.00000326,-0.00000234,0.,0.00000273,-
 0.00000467,0.,0.00000048,-0.00000181,0.,0.00000452,-0.00000048,0.,0.00
 000057,-0.00000041,0.,-0.00000072,0.00000030,0.,0.00000005,0.00000073,
 0.,0.00000086,0.00000038,0.,-0.00000920,-0.00000158,0.,0.00001416,0.00
 005123,0.00000001,-0.00011548,-0.00009152,-0.00000003,-0.00003016,0.00
 038634,0.00000002,0.00016298,-0.00041456,0.00000004,-0.00052883,-0.001
 10062,-0.00000005,0.00004178,-0.00000047,0.,0.00146550,0.00052763,0.,0
 .00014376,-0.00000465,0.,0.00088194,-0.00540280,-0.00000097,-0.0001744
 9,0.00058239,0.00000008,-0.00000335,0.00001760,-0.00000002,0.03372107,
 0.00429497,-0.00000159,-0.00142235,0.00248671,0.00000091,0.00000022,0.
 00000018,0.,-0.05344353,-0.05671027,0.00000121,-0.01644346,-0.00298825
 ,0.00189233,-0.01645111,-0.00298875,-0.00189100,0.05218404,0.06135968,
 0.,0.,0.00000160,0.,0.,-0.00000155,0.,0.,0.00000578,0.,0.,0.00000123,0
 .,0.,-0.00000085,0.,0.,-0.00000089,0.,0.,0.00000043,0.,0.,0.00000041,0
 .,0.,0.00000052,0.,0.,0.00000020,-0.00000001,0.00000001,-0.00003176,0.
 00000002,-0.00000001,0.00002506,-0.00000003,0.00000003,-0.00002663,0.0
 0000006,-0.00000001,0.00019453,0.00000001,-0.00000008,-0.00019601,-0.0
 0000015,-0.00000013,0.00012702,0.,0.,0.00000806,0.00000027,0.00000007,
 0.00035580,0.00000002,0.,-0.00003860,0.00000009,-0.00000105,0.00146692
 ,-0.00000007,0.00000008,-0.00041893,0.,0.,0.00007373,0.00000531,0.0000
 0167,-0.00094069,-0.00000038,0.00000030,-0.00105933,0.,0.,0.00000032,0
 .00000847,0.00000069,-0.04956522,-0.02680525,-0.00364665,0.00136275,0.
 02680221,0.00364604,0.00135944,-0.00001059,-0.00000096,0.04729666\\0.0
 0000102,-0.00000056,0.00000048,-0.00000063,0.00000030,0.00000006,-0.00
 000014,-0.00000136,-0.00000319,-0.00000012,0.00000004,0.,0.00000044,0.
 00000036,0.00000047,0.00000038,-0.00000061,-0.00000034,-0.00000024,-0.
 00000002,0.00000004,-0.00000018,-0.00000021,0.,-0.00000009,-0.00000011
 ,0.,-0.00000007,-0.00000047,0.00000003,-0.00000012,0.00000035,0.000000
 83,-0.00000024,0.00000116,0.00000517,0.00000209,-0.00000343,-0.0000035
 7,-0.00000287,0.00000113,-0.00000028,-0.00000207,0.00000097,-0.0000002
 4,0.00000109,-0.00000079,0.00000012,-0.00000108,0.00000025,-0.00000014
 ,-0.00000040,0.00000080,0.00000047,-0.00000101,-0.00000053,0.,-0.00000
 487,0.00000020,0.00000020,-0.00000215,0.00000137,-0.00000011,0.0000000
 3,-0.00000176,-0.00000002,0.00000799,-0.00000400,-0.00000021,0.0000031
 3,-0.00000364,-0.00000070,-0.00000088,-0.00000026,0.,-0.00000374,0.000
 01280,0.00000253,0.00000008,0.00000068,-0.00000130,0.00000045,0.000000
 24,0.00000020,0.00000420,-0.00000289,-0.00000050\\\@


 NATURE WILL TELL YOU A DIRECT LIE IF SHE CAN.

                                -- CHARLES DARWIN
 Job cpu time:       0 days  2 hours 33 minutes 37.5 seconds.
 Elapsed time:       0 days  0 hours  5 minutes 14.3 seconds.
 File lengths (MBytes):  RWF=    354 Int=      0 D2E=      0 Chk=     12 Scr=      1
 Normal termination of Gaussian 16 at Sun Sep 17 14:59:00 2023.
