 Entering Gaussian System, Link 0=/home/ubuntu/g16/g16
 Input=/home/ubuntu/ml products/molecule_61.gjf
 Output=/home/ubuntu/ml products/molecule_61.log
 Initial command:
 /home/ubuntu/g16/l1.exe "/home/ubuntu/Scratch/Gau-14987.inp" -scrdir="/home/ubuntu/Scratch/"
 Entering Link 1 = /home/ubuntu/g16/l1.exe PID=     14991.
  
 Copyright (c) 1988-2017, Gaussian, Inc.  All Rights Reserved.
  
 This is part of the Gaussian(R) 16 program.  It is based on
 the Gaussian(R) 09 system (copyright 2009, Gaussian, Inc.),
 the Gaussian(R) 03 system (copyright 2003, Gaussian, Inc.),
 the Gaussian(R) 98 system (copyright 1998, Gaussian, Inc.),
 the Gaussian(R) 94 system (copyright 1995, Gaussian, Inc.),
 the Gaussian 92(TM) system (copyright 1992, Gaussian, Inc.),
 the Gaussian 90(TM) system (copyright 1990, Gaussian, Inc.),
 the Gaussian 88(TM) system (copyright 1988, Gaussian, Inc.),
 the Gaussian 86(TM) system (copyright 1986, Carnegie Mellon
 University), and the Gaussian 82(TM) system (copyright 1983,
 Carnegie Mellon University). Gaussian is a federally registered
 trademark of Gaussian, Inc.
  
 This software contains proprietary and confidential information,
 including trade secrets, belonging to Gaussian, Inc.
  
 This software is provided under written license and may be
 used, copied, transmitted, or stored only in accord with that
 written license.
  
 The following legend is applicable only to US Government
 contracts under FAR:
  
                    RESTRICTED RIGHTS LEGEND
  
 Use, reproduction and disclosure by the US Government is
 subject to restrictions as set forth in subparagraphs (a)
 and (c) of the Commercial Computer Software - Restricted
 Rights clause in FAR 52.227-19.
  
 Gaussian, Inc.
 340 Quinnipiac St., Bldg. 40, Wallingford CT 06492
  
  
 ---------------------------------------------------------------
 Warning -- This program may not be used in any manner that
 competes with the business of Gaussian, Inc. or will provide
 assistance to any competitor of Gaussian, Inc.  The licensee
 of this program is prohibited from giving any competitor of
 Gaussian, Inc. access to this program.  By using this program,
 the user acknowledges that Gaussian, Inc. is engaged in the
 business of creating and licensing software in the field of
 computational chemistry and represents and warrants to the
 licensee that it is not a competitor of Gaussian, Inc. and that
 it will not use this program in any manner prohibited above.
 ---------------------------------------------------------------
  

 Cite this work as:
 Gaussian 16, Revision B.01,
 M. J. Frisch, G. W. Trucks, H. B. Schlegel, G. E. Scuseria, 
 M. A. Robb, J. R. Cheeseman, G. Scalmani, V. Barone, 
 G. A. Petersson, H. Nakatsuji, X. Li, M. Caricato, A. V. Marenich, 
 J. Bloino, B. G. Janesko, R. Gomperts, B. Mennucci, H. P. Hratchian, 
 J. V. Ortiz, A. F. Izmaylov, J. L. Sonnenberg, D. Williams-Young, 
 F. Ding, F. Lipparini, F. Egidi, J. Goings, B. Peng, A. Petrone, 
 T. Henderson, D. Ranasinghe, V. G. Zakrzewski, J. Gao, N. Rega, 
 G. Zheng, W. Liang, M. Hada, M. Ehara, K. Toyota, R. Fukuda, 
 J. Hasegawa, M. Ishida, T. Nakajima, Y. Honda, O. Kitao, H. Nakai, 
 T. Vreven, K. Throssell, J. A. Montgomery, Jr., J. E. Peralta, 
 F. Ogliaro, M. J. Bearpark, J. J. Heyd, E. N. Brothers, K. N. Kudin, 
 V. N. Staroverov, T. A. Keith, R. Kobayashi, J. Normand, 
 K. Raghavachari, A. P. Rendell, J. C. Burant, S. S. Iyengar, 
 J. Tomasi, M. Cossi, J. M. Millam, M. Klene, C. Adamo, R. Cammi, 
 J. W. Ochterski, R. L. Martin, K. Morokuma, O. Farkas, 
 J. B. Foresman, and D. J. Fox, Gaussian, Inc., Wallingford CT, 2016.
 
 ******************************************
 Gaussian 16:  EM64L-G16RevB.01 20-Dec-2017
                16-Sep-2023 
 ******************************************
 %nprocshared=30
 Will use up to   30 processors via shared memory.
 %mem=30GB
 %chk=molecule_61.chk
 ---------------------------------------------------------
 # opt freq b3lyp/6-31+g(d) empiricaldispersion=gd3 volume
 ---------------------------------------------------------
 1/18=20,19=15,26=3,38=1/1,3;
 2/9=110,12=2,17=6,18=5,40=1/2;
 3/5=1,6=6,7=11,11=2,25=1,30=1,71=1,74=-5,124=31/1,2,3;
 4//1;
 5/5=2,38=5/2;
 6/7=2,8=2,9=2,10=2,28=1,44=1/1,4;
 7//1,2,3,16;
 1/18=20,19=15,26=3/3(2);
 2/9=110/2;
 99//99;
 2/9=110/2;
 3/5=1,6=6,7=11,11=2,25=1,30=1,71=1,74=-5,124=31/1,2,3;
 4/5=5,16=3,69=1/1;
 5/5=2,38=5/2;
 7//1,2,3,16;
 1/18=20,19=15,26=3/3(-5);
 2/9=110/2;
 6/7=2,8=2,9=2,10=2,19=2,28=1,44=1/1,4;
 99/9=1/99;
 -------------------
 Title Card Required
 -------------------
 Symbolic Z-matrix:
 Charge =  0 Multiplicity = 1
 C                    -5.30642  -0.95004   1.13808 
 C                    -3.91026  -0.97885   1.0873 
 C                    -3.24353  -0.49817  -0.05029 
 C                    -3.96927  -0.06568  -1.15526 
 C                    -5.36722  -0.03465  -1.10341 
 C                    -6.03529  -0.47585   0.04315 
 H                    -3.33932  -1.35081   1.9443 
 H                    -3.4475    0.28095  -2.05001 
 C                    -1.70232  -0.51098  -0.00174 
 C                    -0.50316  -0.51544   0.00061 
 C                     1.03814  -0.52118   0.00361 
 C                     1.73324  -0.49899   1.21632 
 C                     1.73531  -0.50038  -1.20582 
 C                     3.13124  -0.50192   1.21672 
 H                     1.18549  -0.5016    2.1622 
 C                     3.13359  -0.50384  -1.20525 
 H                     1.18944  -0.5035   -2.1542 
 C                     3.82894  -0.50274   0.00634 
 H                     3.67742  -0.50148   2.16417 
 H                     3.6812   -0.50459  -2.15173 
 H                     4.89894  -0.50253   0.00735 
 H                    -7.10427  -0.45055   0.08253 
 C                    -6.17038   0.48736  -2.30925 
 H                    -5.92317   1.51343  -2.48522 
 H                    -5.92887  -0.09144  -3.17618 
 H                    -7.21713   0.40278  -2.10417 
 C                    -6.04207  -1.43622   2.40064 
 H                    -5.71635  -2.42587   2.64438 
 H                    -5.82447  -0.7782    3.21585 
 H                    -7.0965   -1.44239   2.21893 
 

 GradGradGradGradGradGradGradGradGradGradGradGradGradGradGradGradGradGrad
 Berny optimization.
 Initialization pass.
                           ----------------------------
                           !    Initial Parameters    !
                           ! (Angstroms and Degrees)  !
 --------------------------                            --------------------------
 ! Name  Definition              Value          Derivative Info.                !
 --------------------------------------------------------------------------------
 ! R1    R(1,2)                  1.3974         estimate D2E/DX2                !
 ! R2    R(1,6)                  1.3982         estimate D2E/DX2                !
 ! R3    R(1,27)                 1.54           estimate D2E/DX2                !
 ! R4    R(2,3)                  1.4035         estimate D2E/DX2                !
 ! R5    R(2,7)                  1.0949         estimate D2E/DX2                !
 ! R6    R(3,4)                  1.3909         estimate D2E/DX2                !
 ! R7    R(3,9)                  1.542          estimate D2E/DX2                !
 ! R8    R(4,5)                  1.3993         estimate D2E/DX2                !
 ! R9    R(4,8)                  1.0922         estimate D2E/DX2                !
 ! R10   R(5,6)                  1.3984         estimate D2E/DX2                !
 ! R11   R(5,23)                 1.54           estimate D2E/DX2                !
 ! R12   R(6,22)                 1.07           estimate D2E/DX2                !
 ! R13   R(9,10)                 1.1992         estimate D2E/DX2                !
 ! R14   R(10,11)                1.5413         estimate D2E/DX2                !
 ! R15   R(11,12)                1.398          estimate D2E/DX2                !
 ! R16   R(11,13)                1.3961         estimate D2E/DX2                !
 ! R17   R(12,14)                1.398          estimate D2E/DX2                !
 ! R18   R(12,15)                1.093          estimate D2E/DX2                !
 ! R19   R(13,16)                1.3983         estimate D2E/DX2                !
 ! R20   R(13,17)                1.0943         estimate D2E/DX2                !
 ! R21   R(14,18)                1.3971         estimate D2E/DX2                !
 ! R22   R(14,19)                1.0936         estimate D2E/DX2                !
 ! R23   R(16,18)                1.3969         estimate D2E/DX2                !
 ! R24   R(16,20)                1.0935         estimate D2E/DX2                !
 ! R25   R(18,21)                1.07           estimate D2E/DX2                !
 ! R26   R(23,24)                1.07           estimate D2E/DX2                !
 ! R27   R(23,25)                1.07           estimate D2E/DX2                !
 ! R28   R(23,26)                1.07           estimate D2E/DX2                !
 ! R29   R(27,28)                1.07           estimate D2E/DX2                !
 ! R30   R(27,29)                1.07           estimate D2E/DX2                !
 ! R31   R(27,30)                1.07           estimate D2E/DX2                !
 ! A1    A(2,1,6)              119.958          estimate D2E/DX2                !
 ! A2    A(2,1,27)             120.0372         estimate D2E/DX2                !
 ! A3    A(6,1,27)             120.0045         estimate D2E/DX2                !
 ! A4    A(1,2,3)              119.8047         estimate D2E/DX2                !
 ! A5    A(1,2,7)              119.971          estimate D2E/DX2                !
 ! A6    A(3,2,7)              120.204          estimate D2E/DX2                !
 ! A7    A(2,3,4)              120.1683         estimate D2E/DX2                !
 ! A8    A(2,3,9)              116.5157         estimate D2E/DX2                !
 ! A9    A(4,3,9)              123.304          estimate D2E/DX2                !
 ! A10   A(3,4,5)              119.9162         estimate D2E/DX2                !
 ! A11   A(3,4,8)              120.0131         estimate D2E/DX2                !
 ! A12   A(5,4,8)              120.0388         estimate D2E/DX2                !
 ! A13   A(4,5,6)              120.0444         estimate D2E/DX2                !
 ! A14   A(4,5,23)             119.9699         estimate D2E/DX2                !
 ! A15   A(6,5,23)             119.9857         estimate D2E/DX2                !
 ! A16   A(1,6,5)              120.0015         estimate D2E/DX2                !
 ! A17   A(1,6,22)             119.9992         estimate D2E/DX2                !
 ! A18   A(5,6,22)             119.9992         estimate D2E/DX2                !
 ! A19   A(10,11,12)           119.9238         estimate D2E/DX2                !
 ! A20   A(10,11,13)           119.8422         estimate D2E/DX2                !
 ! A21   A(12,11,13)           120.1945         estimate D2E/DX2                !
 ! A22   A(11,12,14)           119.8308         estimate D2E/DX2                !
 ! A23   A(11,12,15)           120.098          estimate D2E/DX2                !
 ! A24   A(14,12,15)           120.0575         estimate D2E/DX2                !
 ! A25   A(11,13,16)           119.9314         estimate D2E/DX2                !
 ! A26   A(11,13,17)           120.108          estimate D2E/DX2                !
 ! A27   A(16,13,17)           119.947          estimate D2E/DX2                !
 ! A28   A(12,14,18)           119.944          estimate D2E/DX2                !
 ! A29   A(12,14,19)           119.9792         estimate D2E/DX2                !
 ! A30   A(18,14,19)           120.0767         estimate D2E/DX2                !
 ! A31   A(13,16,18)           119.8756         estimate D2E/DX2                !
 ! A32   A(13,16,20)           120.0284         estimate D2E/DX2                !
 ! A33   A(18,16,20)           120.0958         estimate D2E/DX2                !
 ! A34   A(14,18,16)           120.1873         estimate D2E/DX2                !
 ! A35   A(14,18,21)           119.9063         estimate D2E/DX2                !
 ! A36   A(16,18,21)           119.9063         estimate D2E/DX2                !
 ! A37   A(5,23,24)            109.4712         estimate D2E/DX2                !
 ! A38   A(5,23,25)            109.4712         estimate D2E/DX2                !
 ! A39   A(5,23,26)            109.4712         estimate D2E/DX2                !
 ! A40   A(24,23,25)           109.4713         estimate D2E/DX2                !
 ! A41   A(24,23,26)           109.4712         estimate D2E/DX2                !
 ! A42   A(25,23,26)           109.4712         estimate D2E/DX2                !
 ! A43   A(1,27,28)            109.4712         estimate D2E/DX2                !
 ! A44   A(1,27,29)            109.4712         estimate D2E/DX2                !
 ! A45   A(1,27,30)            109.4712         estimate D2E/DX2                !
 ! A46   A(28,27,29)           109.4713         estimate D2E/DX2                !
 ! A47   A(28,27,30)           109.4712         estimate D2E/DX2                !
 ! A48   A(29,27,30)           109.4712         estimate D2E/DX2                !
 ! A49   L(3,9,10,7,-1)        181.6583         estimate D2E/DX2                !
 ! A50   L(9,10,11,17,-1)      179.9996         estimate D2E/DX2                !
 ! A51   L(3,9,10,7,-2)        179.4663         estimate D2E/DX2                !
 ! A52   L(9,10,11,17,-2)      179.9998         estimate D2E/DX2                !
 ! D1    D(6,1,2,3)              1.6809         estimate D2E/DX2                !
 ! D2    D(6,1,2,7)           -179.9557         estimate D2E/DX2                !
 ! D3    D(27,1,2,3)          -178.1363         estimate D2E/DX2                !
 ! D4    D(27,1,2,7)             0.227          estimate D2E/DX2                !
 ! D5    D(2,1,6,5)              0.1967         estimate D2E/DX2                !
 ! D6    D(2,1,6,22)          -179.8033         estimate D2E/DX2                !
 ! D7    D(27,1,6,5)          -179.986          estimate D2E/DX2                !
 ! D8    D(27,1,6,22)            0.014          estimate D2E/DX2                !
 ! D9    D(2,1,27,28)          -53.8224         estimate D2E/DX2                !
 ! D10   D(2,1,27,29)           66.1776         estimate D2E/DX2                !
 ! D11   D(2,1,27,30)         -173.8224         estimate D2E/DX2                !
 ! D12   D(6,1,27,28)          126.3604         estimate D2E/DX2                !
 ! D13   D(6,1,27,29)         -113.6396         estimate D2E/DX2                !
 ! D14   D(6,1,27,30)            6.3604         estimate D2E/DX2                !
 ! D15   D(1,2,3,4)             -3.6992         estimate D2E/DX2                !
 ! D16   D(1,2,3,9)            177.5162         estimate D2E/DX2                !
 ! D17   D(7,2,3,4)            177.9414         estimate D2E/DX2                !
 ! D18   D(7,2,3,9)             -0.8433         estimate D2E/DX2                !
 ! D19   D(2,3,4,5)              3.816          estimate D2E/DX2                !
 ! D20   D(2,3,4,8)           -178.2399         estimate D2E/DX2                !
 ! D21   D(9,3,4,5)           -177.4853         estimate D2E/DX2                !
 ! D22   D(9,3,4,8)              0.4589         estimate D2E/DX2                !
 ! D23   D(2,3,11,12)          -24.1431         estimate D2E/DX2                !
 ! D24   D(2,3,11,13)          158.2445         estimate D2E/DX2                !
 ! D25   D(4,3,11,12)          157.4038         estimate D2E/DX2                !
 ! D26   D(4,3,11,13)          -20.2086         estimate D2E/DX2                !
 ! D27   D(3,4,5,6)             -1.9249         estimate D2E/DX2                !
 ! D28   D(3,4,5,23)           178.0            estimate D2E/DX2                !
 ! D29   D(8,4,5,6)           -179.8685         estimate D2E/DX2                !
 ! D30   D(8,4,5,23)             0.0564         estimate D2E/DX2                !
 ! D31   D(4,5,6,1)             -0.0841         estimate D2E/DX2                !
 ! D32   D(4,5,6,22)           179.9159         estimate D2E/DX2                !
 ! D33   D(23,5,6,1)           179.991          estimate D2E/DX2                !
 ! D34   D(23,5,6,22)           -0.009          estimate D2E/DX2                !
 ! D35   D(4,5,23,24)          -62.101          estimate D2E/DX2                !
 ! D36   D(4,5,23,25)           57.899          estimate D2E/DX2                !
 ! D37   D(4,5,23,26)          177.899          estimate D2E/DX2                !
 ! D38   D(6,5,23,24)          117.824          estimate D2E/DX2                !
 ! D39   D(6,5,23,25)         -122.176          estimate D2E/DX2                !
 ! D40   D(6,5,23,26)           -2.176          estimate D2E/DX2                !
 ! D41   D(10,11,12,14)       -179.8905         estimate D2E/DX2                !
 ! D42   D(10,11,12,15)          1.4544         estimate D2E/DX2                !
 ! D43   D(13,11,12,14)         -2.1768         estimate D2E/DX2                !
 ! D44   D(13,11,12,15)        179.1681         estimate D2E/DX2                !
 ! D45   D(10,11,13,16)        179.9195         estimate D2E/DX2                !
 ! D46   D(10,11,13,17)         -1.4191         estimate D2E/DX2                !
 ! D47   D(12,11,13,16)          2.2039         estimate D2E/DX2                !
 ! D48   D(12,11,13,17)       -179.1347         estimate D2E/DX2                !
 ! D49   D(11,12,14,18)          1.1475         estimate D2E/DX2                !
 ! D50   D(11,12,14,19)       -178.9793         estimate D2E/DX2                !
 ! D51   D(15,12,14,18)        179.8032         estimate D2E/DX2                !
 ! D52   D(15,12,14,19)         -0.3236         estimate D2E/DX2                !
 ! D53   D(11,13,16,18)         -1.1998         estimate D2E/DX2                !
 ! D54   D(11,13,16,20)        178.9699         estimate D2E/DX2                !
 ! D55   D(17,13,16,18)       -179.8633         estimate D2E/DX2                !
 ! D56   D(17,13,16,20)          0.3064         estimate D2E/DX2                !
 ! D57   D(12,14,18,16)         -0.1518         estimate D2E/DX2                !
 ! D58   D(12,14,18,21)        179.8482         estimate D2E/DX2                !
 ! D59   D(19,14,18,16)        179.9751         estimate D2E/DX2                !
 ! D60   D(19,14,18,21)         -0.0249         estimate D2E/DX2                !
 ! D61   D(13,16,18,14)          0.1766         estimate D2E/DX2                !
 ! D62   D(13,16,18,21)       -179.8234         estimate D2E/DX2                !
 ! D63   D(20,16,18,14)       -179.9932         estimate D2E/DX2                !
 ! D64   D(20,16,18,21)          0.0068         estimate D2E/DX2                !
 --------------------------------------------------------------------------------
 Trust Radius=3.00D-01 FncErr=1.00D-07 GrdErr=1.00D-06 EigMax=2.50D+02 EigMin=1.00D-04
 Number of steps in this run=    157 maximum allowed number of steps=    180.
 GradGradGradGradGradGradGradGradGradGradGradGradGradGradGradGradGradGrad

                          Input orientation:                          
 ---------------------------------------------------------------------
 Center     Atomic      Atomic             Coordinates (Angstroms)
 Number     Number       Type             X           Y           Z
 ---------------------------------------------------------------------
      1          6           0       -5.306420   -0.950037    1.138085
      2          6           0       -3.910257   -0.978854    1.087296
      3          6           0       -3.243530   -0.498173   -0.050288
      4          6           0       -3.969271   -0.065678   -1.155262
      5          6           0       -5.367223   -0.034654   -1.103412
      6          6           0       -6.035290   -0.475849    0.043153
      7          1           0       -3.339319   -1.350808    1.944296
      8          1           0       -3.447499    0.280946   -2.050008
      9          6           0       -1.702325   -0.510980   -0.001736
     10          6           0       -0.503164   -0.515444    0.000607
     11          6           0        1.038137   -0.521178    0.003607
     12          6           0        1.733241   -0.498994    1.216317
     13          6           0        1.735313   -0.500380   -1.205823
     14          6           0        3.131236   -0.501924    1.216721
     15          1           0        1.185494   -0.501600    2.162198
     16          6           0        3.133594   -0.503838   -1.205245
     17          1           0        1.189441   -0.503497   -2.154202
     18          6           0        3.828940   -0.502741    0.006338
     19          1           0        3.677424   -0.501477    2.164168
     20          1           0        3.681197   -0.504590   -2.151735
     21          1           0        4.898939   -0.502526    0.007349
     22          1           0       -7.104266   -0.450549    0.082533
     23          6           0       -6.170379    0.487357   -2.309250
     24          1           0       -5.923172    1.513428   -2.485220
     25          1           0       -5.928870   -0.091443   -3.176178
     26          1           0       -7.217131    0.402780   -2.104174
     27          6           0       -6.042065   -1.436218    2.400643
     28          1           0       -5.716349   -2.425866    2.644378
     29          1           0       -5.824471   -0.778203    3.215855
     30          1           0       -7.096504   -1.442386    2.218929
 ---------------------------------------------------------------------
                    Distance matrix (angstroms):
                    1          2          3          4          5
     1  C    0.000000
     2  C    1.397384   0.000000
     3  C    2.423205   1.403451   0.000000
     4  C    2.798124   2.422073   1.390941   0.000000
     5  C    2.421968   2.795257   2.415365   1.399257   0.000000
     6  C    1.398207   2.420541   2.793413   2.423402   1.398420
     7  H    2.163349   1.094883   2.171296   3.414038   3.890139
     8  H    3.890352   3.412318   2.155808   1.092229   2.163558
     9  C    3.805452   2.505965   1.542023   2.582240   3.856430
    10  C    4.955199   3.606095   2.740893   3.681334   5.010897
    11  C    6.459440   5.086300   4.282068   5.159902   6.518499
    12  C    7.054530   5.665332   5.135421   6.191187   7.484206
    13  C    7.435193   6.112265   5.111179   5.721346   7.118525
    14  C    8.449913   7.058812   6.499459   7.498920   8.821857
    15  H    6.587476   5.229709   4.950895   6.145499   7.336235
    16  C    8.770639   7.422750   6.480869   7.116542   8.514363
    17  H    7.296215   6.061368   4.906905   5.272748   6.656861
    18  C    9.216058   7.828813   7.072698   7.896355   9.274699
    19  H    9.053370   7.678571   7.266598   8.347484   9.628117
    20  H    9.581158   8.267189   7.236571   7.727564   9.121058
    21  H   10.277557   8.887919   8.142675   8.954756  10.336671
    22  H    2.143812   3.389742   3.863313   3.392412   2.144004
    23  C    3.833620   4.335256   3.826306   2.546058   1.540000
    24  H    4.424634   4.798559   4.141970   2.842551   2.148263
    25  H    4.442690   4.799949   4.140974   2.815102   2.148263
    26  H    3.999146   4.798938   4.562857   3.415916   2.148263
    27  C    1.540000   2.545323   3.836508   4.338124   3.833823
    28  H    2.148263   2.789322   4.134254   4.802086   4.459340
    29  H    2.148263   2.869711   4.172213   4.801679   4.406587
    30  H    2.148263   3.412862   4.570152   4.802091   4.001259
                    6          7          8          9         10
     6  C    0.000000
     7  H    3.412940   0.000000
     8  H    3.413316   4.316107   0.000000
     9  C    4.333341   2.678077   2.805031   0.000000
    10  C    5.532432   3.538295   3.675373   1.199171   0.000000
    11  C    7.073683   4.859699   4.998166   2.740486   1.541315
    12  C    7.856649   5.194844   6.173917   3.645121   2.545531
    13  C    7.870376   6.033106   5.308923   3.642429   2.542927
    14  C    9.241382   6.566433   7.386755   4.984779   3.832490
    15  H    7.525340   4.608966   6.310283   3.608627   2.743033
    16  C    9.253525   7.248142   6.681339   4.983432   3.831478
    17  H    7.551548   6.166464   4.703979   3.604924   2.740120
    18  C    9.864335   7.473876   7.601926   5.531276   4.332126
    19  H    9.941639   7.071378   8.314806   5.799390   4.707283
    20  H    9.961349   8.171976   7.172567   5.796968   4.705483
    21  H   10.934321   8.505306   8.631893   6.601275   5.402123
    22  H    1.070000   4.295516   4.295900   5.402937   6.601930
    23  C    2.545548   5.430138   2.742970   5.126871   6.201482
    24  H    3.219078   5.873735   2.799532   5.299196   6.298583
    25  H    3.243946   5.874609   2.750298   5.302526   6.301590
    26  H    2.603795   5.873892   3.771989   5.972294   7.095815
    27  C    2.545607   2.742332   5.430351   5.045873   6.106343
    28  H    3.266598   2.701137   5.874672   5.175046   6.149515
    29  H    3.194041   2.849688   5.873764   5.236066   6.222794
    30  H    2.606601   3.768322   5.874430   5.907287   7.017999
                   11         12         13         14         15
    11  C    0.000000
    12  C    1.397972   0.000000
    13  C    1.396141   2.422141   0.000000
    14  C    2.419314   1.397998   2.795948   0.000000
    15  H    2.163703   1.093035   3.412604   2.163294   0.000000
    16  C    2.419207   2.797315   1.398285   2.421968   3.890343
    17  H    2.163180   3.414109   1.094262   3.890205   4.316402
    18  C    2.790865   2.419920   2.419217   1.397075   3.411091
    19  H    3.410902   2.162932   3.889555   1.093608   2.491931
    20  H    3.410504   3.890801   2.163615   3.413057   4.983830
    21  H    3.860849   3.388695   3.388262   2.141811   4.293373
    22  H    8.143092   8.910070   8.933113  10.298278   8.546797
    23  C    7.637352   8.710323   8.043205   9.996559   8.664914
    24  H    7.667706   8.739101   8.021513   9.987408   8.728801
    25  H    7.670391   8.841271   7.923966  10.077281   8.903969
    26  H    8.570058   9.588953   9.042621  10.905757   9.466992
    27  C    7.530760   7.920632   8.623804   9.296452   7.291637
    28  H    7.498306   7.826148   8.605743   9.166216   7.181277
    29  H    7.581556   7.822732   8.762349   9.180281   7.094104
    30  H    8.481077   8.936421   9.519312  10.319668   8.335454
                   16         17         18         19         20
    16  C    0.000000
    17  H    2.163389   0.000000
    18  C    1.396940   3.410995   0.000000
    19  H    3.413020   4.983813   2.163144   0.000000
    20  H    1.093486   2.491757   2.163125   4.315906   0.000000
    21  H    2.141689   4.293330   1.070000   2.478703   2.478820
    22  H   10.318672   8.590190  10.933596  10.980922  11.014585
    23  C    9.421528   7.427838  10.311577  10.861330   9.902641
    24  H    9.366574   7.400461  10.265305  10.855787   9.819751
    25  H    9.283475   7.203095  10.271924  10.998560   9.673343
    26  H   10.429167   8.455430  11.282283  11.735747  10.936139
    27  C    9.902751   8.597166  10.200040   9.767197  10.776544
    28  H    9.840492   8.626228  10.088122   9.600878  10.724172
    29  H    9.993414   8.837869  10.176700   9.563924  10.919872
    30  H   10.828700   9.416086  11.186770  10.815075  11.667947
                   21         22         23         24         25
    21  H    0.000000
    22  H   12.003553   0.000000
    23  C   11.352370   2.733576   0.000000
    24  H   11.286942   3.441736   1.070000   0.000000
    25  H   11.293595   3.482773   1.070000   1.747303   0.000000
    26  H   12.331961   2.350020   1.070000   1.747303   1.747303
    27  C   11.238559   2.733761   5.089175   5.708433   5.737784
    28  H   11.105742   3.520120   5.764672   6.470981   6.274836
    29  H   11.196519   3.400432   5.678739   6.145207   6.429667
    30  H   12.233768   2.355417   5.008595   5.678254   5.682921
                   26         27         28         29         30
    26  H    0.000000
    27  C    5.005604   0.000000
    28  H    5.727331   1.070000   0.000000
    29  H    5.624671   1.070000   1.747303   0.000000
    30  H    4.701958   1.070000   1.747303   1.747303   0.000000
 Stoichiometry    C16H14
 Framework group  C1[X(C16H14)]
 Deg. of freedom    84
 Full point group                 C1      NOp   1
 Largest Abelian subgroup         C1      NOp   1
 Largest concise Abelian subgroup C1      NOp   1
                         Standard orientation:                         
 ---------------------------------------------------------------------
 Center     Atomic      Atomic             Coordinates (Angstroms)
 Number     Number       Type             X           Y           Z
 ---------------------------------------------------------------------
      1          6           0        3.460189    1.218068   -0.110799
      2          6           0        2.063958    1.175990   -0.148866
      3          6           0        1.399351   -0.053424   -0.020364
      4          6           0        2.127025   -1.235595    0.067266
      5          6           0        3.525053   -1.193147    0.107748
      6          6           0        4.191131    0.033292    0.019627
      7          1           0        1.491396    2.103548   -0.251721
      8          1           0        1.606814   -2.193355    0.138260
      9          6           0       -0.141910   -0.005409   -0.013575
     10          6           0       -1.341080   -0.003541   -0.013411
     11          6           0       -2.882392   -0.001153   -0.013199
     12          6           0       -3.577932    1.150905    0.365367
     13          6           0       -3.578980   -1.164615   -0.345360
     14          6           0       -4.975928    1.150192    0.367052
     15          1           0       -3.030598    2.056838    0.638199
     16          6           0       -4.977265   -1.165008   -0.344129
     17          1           0       -3.032719   -2.069728   -0.627811
     18          6           0       -5.673117   -0.007851    0.013947
     19          1           0       -5.522514    2.055195    0.646678
     20          1           0       -5.524465   -2.070539   -0.620349
     21          1           0       -6.743110   -0.008446    0.017791
     22          1           0        5.260170    0.065032    0.052012
     23          6           0        4.330489   -2.497869    0.251184
     24          1           0        4.086844   -2.966986    1.181488
     25          1           0        4.087384   -3.157599   -0.555387
     26          1           0        5.376861   -2.275548    0.227111
     27          6           0        4.193642    2.568685   -0.208171
     28          1           0        3.864463    3.091124   -1.082012
     29          1           0        3.977939    3.155122    0.660427
     30          1           0        5.248131    2.398223   -0.270584
 ---------------------------------------------------------------------
 Rotational constants (GHZ):           1.3389542           0.1824010           0.1618835
 Standard basis: 6-31+G(d) (6D, 7F)
 There are   332 symmetry adapted cartesian basis functions of A   symmetry.
 There are   332 symmetry adapted basis functions of A   symmetry.
   332 basis functions,   568 primitive gaussians,   332 cartesian basis functions
    55 alpha electrons       55 beta electrons
       nuclear repulsion energy       876.4659363080 Hartrees.
 NAtoms=   30 NActive=   30 NUniq=   30 SFac= 1.00D+00 NAtFMM=   60 NAOKFM=F Big=F
 Integral buffers will be    131072 words long.
 Raffenetti 2 integral format.
 Two-electron integral symmetry is turned on.
 Nuclear repulsion after empirical dispersion term =      876.4461976426 Hartrees.
 One-electron integrals computed using PRISM.
 NBasis=   332 RedAO= T EigKep=  1.95D-06  NBF=   332
 NBsUse=   328 1.00D-06 EigRej=  6.24D-07 NBFU=   328
 ExpMin= 4.38D-02 ExpMax= 3.05D+03 ExpMxC= 4.57D+02 IAcc=3 IRadAn=         5 AccDes= 0.00D+00
 Harris functional with IExCor=  402 and IRadAn=       5 diagonalized for initial guess.
 HarFok:  IExCor=  402 AccDes= 0.00D+00 IRadAn=         5 IDoV= 1 UseB2=F ITyADJ=14
 ICtDFT=  3500011 ScaDFX=  1.000000  1.000000  1.000000  1.000000
 FoFCou: FMM=F IPFlag=           0 FMFlag=      100000 FMFlg1=           0
         NFxFlg=           0 DoJE=T BraDBF=F KetDBF=T FulRan=T
         wScrn=  0.000000 ICntrl=       500 IOpCl=  0 I1Cent=   200000004 NGrid=           0
         NMat0=    1 NMatS0=      1 NMatT0=    0 NMatD0=    1 NMtDS0=    0 NMtDT0=    0
 Petite list used in FoFCou.
 Requested convergence on RMS density matrix=1.00D-08 within 128 cycles.
 Requested convergence on MAX density matrix=1.00D-06.
 Requested convergence on             energy=1.00D-06.
 No special actions if energy rises.
 SCF Done:  E(RB3LYP) =  -618.118973673     A.U. after   15 cycles
            NFock= 15  Conv=0.73D-08     -V/T= 2.0102

 **********************************************************************

            Population analysis using the SCF Density.

 **********************************************************************

 Orbital symmetries:
       Occupied  (A) (A) (A) (A) (A) (A) (A) (A) (A) (A) (A) (A)
                 (A) (A) (A) (A) (A) (A) (A) (A) (A) (A) (A) (A)
                 (A) (A) (A) (A) (A) (A) (A) (A) (A) (A) (A) (A)
                 (A) (A) (A) (A) (A) (A) (A) (A) (A) (A) (A) (A)
                 (A) (A) (A) (A) (A) (A) (A)
       Virtual   (A) (A) (A) (A) (A) (A) (A) (A) (A) (A) (A) (A)
                 (A) (A) (A) (A) (A) (A) (A) (A) (A) (A) (A) (A)
                 (A) (A) (A) (A) (A) (A) (A) (A) (A) (A) (A) (A)
                 (A) (A) (A) (A) (A) (A) (A) (A) (A) (A) (A) (A)
                 (A) (A) (A) (A) (A) (A) (A) (A) (A) (A) (A) (A)
                 (A) (A) (A) (A) (A) (A) (A) (A) (A) (A) (A) (A)
                 (A) (A) (A) (A) (A) (A) (A) (A) (A) (A) (A) (A)
                 (A) (A) (A) (A) (A) (A) (A) (A) (A) (A) (A) (A)
                 (A) (A) (A) (A) (A) (A) (A) (A) (A) (A) (A) (A)
                 (A) (A) (A) (A) (A) (A) (A) (A) (A) (A) (A) (A)
                 (A) (A) (A) (A) (A) (A) (A) (A) (A) (A) (A) (A)
                 (A) (A) (A) (A) (A) (A) (A) (A) (A) (A) (A) (A)
                 (A) (A) (A) (A) (A) (A) (A) (A) (A) (A) (A) (A)
                 (A) (A) (A) (A) (A) (A) (A) (A) (A) (A) (A) (A)
                 (A) (A) (A) (A) (A) (A) (A) (A) (A) (A) (A) (A)
                 (A) (A) (A) (A) (A) (A) (A) (A) (A) (A) (A) (A)
                 (A) (A) (A) (A) (A) (A) (A) (A) (A) (A) (A) (A)
                 (A) (A) (A) (A) (A) (A) (A) (A) (A) (A) (A) (A)
                 (A) (A) (A) (A) (A) (A) (A) (A) (A) (A) (A) (A)
                 (A) (A) (A) (A) (A) (A) (A) (A) (A) (A) (A) (A)
                 (A) (A) (A) (A) (A) (A) (A) (A) (A) (A) (A) (A)
                 (A) (A) (A) (A) (A) (A) (A) (A) (A) (A) (A) (A)
                 (A) (A) (A) (A) (A) (A) (A) (A) (A)
 The electronic state is 1-A.
 Alpha  occ. eigenvalues --  -10.23262 -10.22907 -10.20695 -10.20569 -10.20517
 Alpha  occ. eigenvalues --  -10.20515 -10.20404 -10.20398 -10.20111 -10.19727
 Alpha  occ. eigenvalues --  -10.19598 -10.19478 -10.19472 -10.19120 -10.18346
 Alpha  occ. eigenvalues --  -10.18287  -0.86924  -0.86775  -0.78808  -0.78590
 Alpha  occ. eigenvalues --   -0.77003  -0.75635  -0.72808  -0.70011  -0.69037
 Alpha  occ. eigenvalues --   -0.62620  -0.61527  -0.60558  -0.57863  -0.53964
 Alpha  occ. eigenvalues --   -0.51315  -0.48754  -0.48064  -0.46697  -0.46143
 Alpha  occ. eigenvalues --   -0.43984  -0.43511  -0.43152  -0.42612  -0.41639
 Alpha  occ. eigenvalues --   -0.40822  -0.40736  -0.38993  -0.38369  -0.36518
 Alpha  occ. eigenvalues --   -0.36388  -0.35809  -0.35284  -0.33972  -0.31026
 Alpha  occ. eigenvalues --   -0.28266  -0.26413  -0.26289  -0.24535  -0.22778
 Alpha virt. eigenvalues --   -0.04361  -0.01947  -0.01449  -0.00796   0.00230
 Alpha virt. eigenvalues --    0.00826   0.01949   0.02320   0.02546   0.03668
 Alpha virt. eigenvalues --    0.03932   0.04046   0.04369   0.05291   0.05745
 Alpha virt. eigenvalues --    0.06138   0.06291   0.06389   0.06522   0.07319
 Alpha virt. eigenvalues --    0.07544   0.07798   0.08908   0.09178   0.09211
 Alpha virt. eigenvalues --    0.09536   0.10562   0.11287   0.11384   0.11500
 Alpha virt. eigenvalues --    0.11849   0.12717   0.13360   0.13628   0.13890
 Alpha virt. eigenvalues --    0.14152   0.15008   0.15100   0.15457   0.15760
 Alpha virt. eigenvalues --    0.16214   0.16480   0.16789   0.17056   0.17970
 Alpha virt. eigenvalues --    0.18093   0.18562   0.18911   0.19378   0.20033
 Alpha virt. eigenvalues --    0.20650   0.21025   0.21070   0.21220   0.21527
 Alpha virt. eigenvalues --    0.21805   0.22177   0.22537   0.22727   0.23283
 Alpha virt. eigenvalues --    0.23797   0.24339   0.25193   0.25379   0.25701
 Alpha virt. eigenvalues --    0.26060   0.26633   0.27210   0.27246   0.27505
 Alpha virt. eigenvalues --    0.28024   0.28351   0.29313   0.29683   0.30214
 Alpha virt. eigenvalues --    0.30539   0.31191   0.31702   0.32119   0.33334
 Alpha virt. eigenvalues --    0.33459   0.33785   0.33898   0.35124   0.35771
 Alpha virt. eigenvalues --    0.36446   0.37293   0.38168   0.39900   0.41061
 Alpha virt. eigenvalues --    0.43093   0.44154   0.46623   0.47371   0.54861
 Alpha virt. eigenvalues --    0.57117   0.59139   0.59993   0.64698   0.65183
 Alpha virt. eigenvalues --    0.66489   0.67454   0.68430   0.68675   0.69088
 Alpha virt. eigenvalues --    0.69761   0.70189   0.70356   0.71089   0.71672
 Alpha virt. eigenvalues --    0.72272   0.72758   0.73062   0.73312   0.74431
 Alpha virt. eigenvalues --    0.74519   0.74833   0.75088   0.75645   0.76323
 Alpha virt. eigenvalues --    0.77255   0.78012   0.78953   0.80237   0.80850
 Alpha virt. eigenvalues --    0.81385   0.81703   0.83643   0.83859   0.84825
 Alpha virt. eigenvalues --    0.85531   0.86201   0.88666   0.89794   0.91635
 Alpha virt. eigenvalues --    0.92085   0.93176   0.93624   0.95153   0.95798
 Alpha virt. eigenvalues --    0.96680   0.97020   0.97555   0.99352   1.01169
 Alpha virt. eigenvalues --    1.01998   1.04274   1.08092   1.08591   1.09797
 Alpha virt. eigenvalues --    1.11868   1.14505   1.14562   1.15671   1.16717
 Alpha virt. eigenvalues --    1.17898   1.18815   1.19557   1.20410   1.21066
 Alpha virt. eigenvalues --    1.21820   1.24302   1.24950   1.25865   1.26848
 Alpha virt. eigenvalues --    1.27252   1.27782   1.28982   1.32958   1.34403
 Alpha virt. eigenvalues --    1.36413   1.38276   1.39403   1.40134   1.41614
 Alpha virt. eigenvalues --    1.42163   1.44423   1.46302   1.46901   1.48121
 Alpha virt. eigenvalues --    1.48202   1.48387   1.49861   1.56010   1.57062
 Alpha virt. eigenvalues --    1.59185   1.60449   1.64115   1.69779   1.78950
 Alpha virt. eigenvalues --    1.80742   1.81685   1.84279   1.84510   1.86460
 Alpha virt. eigenvalues --    1.87210   1.88424   1.88799   1.89933   1.90348
 Alpha virt. eigenvalues --    1.92267   1.93346   1.94060   1.94505   1.95960
 Alpha virt. eigenvalues --    1.97804   1.98794   2.08114   2.09050   2.09518
 Alpha virt. eigenvalues --    2.11476   2.12440   2.14526   2.14636   2.17001
 Alpha virt. eigenvalues --    2.17295   2.18041   2.19960   2.21310   2.23219
 Alpha virt. eigenvalues --    2.25470   2.29414   2.30012   2.30553   2.31094
 Alpha virt. eigenvalues --    2.33835   2.35734   2.36646   2.37844   2.39981
 Alpha virt. eigenvalues --    2.40338   2.43360   2.48899   2.50430   2.53114
 Alpha virt. eigenvalues --    2.58131   2.61171   2.63888   2.64168   2.65479
 Alpha virt. eigenvalues --    2.70785   2.72447   2.74174   2.74944   2.75872
 Alpha virt. eigenvalues --    2.78295   2.80613   2.82023   2.83652   2.92194
 Alpha virt. eigenvalues --    2.92528   2.99805   3.07000   3.17855   3.31433
 Alpha virt. eigenvalues --    3.39959   3.55642   4.19345   4.21557   4.23634
 Alpha virt. eigenvalues --    4.24037   4.26074   4.28028   4.33481   4.35357
 Alpha virt. eigenvalues --    4.36913   4.39813   4.40075   4.50169   4.55553
 Alpha virt. eigenvalues --    4.63948   4.76029   4.89775
          Condensed to atoms (all electrons):
               1          2          3          4          5          6
     1  C    7.771402  -0.764603  -0.121233  -0.458630   0.336853  -0.124986
     2  C   -0.764603   9.055432  -0.025524   0.123675  -0.316345  -1.845997
     3  C   -0.121233  -0.025524   6.186289   0.226930  -0.210426   0.434659
     4  C   -0.458630   0.123675   0.226930   7.978471  -0.387502  -1.287536
     5  C    0.336853  -0.316345  -0.210426  -0.387502   7.717295  -0.271293
     6  C   -0.124986  -1.845997   0.434659  -1.287536  -0.271293   9.941715
     7  H   -0.008485   0.231973  -0.020633  -0.011020   0.010062   0.080220
     8  H    0.016672  -0.012374  -0.016587   0.263108  -0.037913   0.068000
     9  C    0.385106  -0.606935   0.214506  -0.419510   0.200442  -0.173444
    10  C   -0.180390   0.049975   0.071902   0.056924  -0.205278  -0.021858
    11  C    0.116086  -0.169682  -0.150338  -0.132628   0.078112  -0.009897
    12  C   -0.087987   0.241769   0.178110  -0.137639   0.050527  -0.000733
    13  C    0.053030  -0.172365  -0.235724   0.186722  -0.085971   0.000396
    14  C    0.032563   0.013904  -0.046053  -0.020666  -0.012672   0.001674
    15  H   -0.000361   0.000767   0.004119   0.000266  -0.000053   0.000017
    16  C   -0.014641  -0.010447   0.071412   0.014606   0.025555  -0.001156
    17  H   -0.000067   0.000105   0.002721   0.001167  -0.000053   0.000052
    18  C   -0.000267   0.002700  -0.016563   0.002618  -0.000575   0.000206
    19  H   -0.000001   0.000025  -0.000081  -0.000013  -0.000001   0.000000
    20  H    0.000000  -0.000015  -0.000076   0.000028  -0.000001   0.000000
    21  H    0.000000  -0.000001  -0.000013  -0.000001   0.000000   0.000000
    22  H    0.037288   0.027904   0.015029   0.017707   0.029625   0.190397
    23  C   -0.136014   0.134341  -0.289042  -0.284630  -0.622741   0.199949
    24  H   -0.005181  -0.002382  -0.006750  -0.037062  -0.063148   0.045838
    25  H   -0.010287   0.003312  -0.006182  -0.020305  -0.105452   0.041341
    26  H    0.006564   0.006927  -0.007301   0.038894  -0.131584  -0.065003
    27  C   -0.696641  -0.080669  -0.301482   0.114198  -0.125256   0.103340
    28  H   -0.106447  -0.012845   0.005772   0.000588  -0.012547   0.038972
    29  H   -0.060649  -0.049322  -0.010115   0.000398  -0.004347   0.047946
    30  H   -0.137780   0.061246  -0.013718   0.008493   0.009499  -0.081131
               7          8          9         10         11         12
     1  C   -0.008485   0.016672   0.385106  -0.180390   0.116086  -0.087987
     2  C    0.231973  -0.012374  -0.606935   0.049975  -0.169682   0.241769
     3  C   -0.020633  -0.016587   0.214506   0.071902  -0.150338   0.178110
     4  C   -0.011020   0.263108  -0.419510   0.056924  -0.132628  -0.137639
     5  C    0.010062  -0.037913   0.200442  -0.205278   0.078112   0.050527
     6  C    0.080220   0.068000  -0.173444  -0.021858  -0.009897  -0.000733
     7  H    0.531917  -0.000152   0.006815   0.002278  -0.000939   0.001686
     8  H   -0.000152   0.533430   0.012650  -0.000196  -0.000985  -0.000301
     9  C    0.006815   0.012650   6.219614  -0.162966   0.875560  -0.292743
    10  C    0.002278  -0.000196  -0.162966   7.573971  -2.389767   1.348077
    11  C   -0.000939  -0.000985   0.875560  -2.389767  11.285882  -3.662812
    12  C    0.001686  -0.000301  -0.292743   1.348077  -3.662812  27.343287
    13  C   -0.000181   0.001642  -0.428337   1.021322  -2.808288 -15.623395
    14  C   -0.000221  -0.000032   0.024811  -0.487339   1.381734  -7.737581
    15  H    0.000000   0.000000   0.002668   0.033516  -0.028087   0.316488
    16  C   -0.000062  -0.000086   0.084806  -0.380204   1.114721   4.884404
    17  H    0.000000   0.000000   0.003036   0.031091  -0.023671   0.018053
    18  C    0.000042   0.000027   0.029746  -0.218115   0.244320  -0.438401
    19  H    0.000000   0.000000  -0.000244  -0.005627   0.004098  -0.029653
    20  H    0.000000   0.000000  -0.000305  -0.005338   0.001851   0.000211
    21  H    0.000000   0.000000   0.000183   0.000087  -0.001057   0.012398
    22  H   -0.000146  -0.000145   0.001936   0.000565   0.000029   0.000000
    23  C    0.002305  -0.020765  -0.054220  -0.035804  -0.000812   0.001735
    24  H    0.000000   0.000795  -0.003693   0.000068  -0.000070  -0.000004
    25  H    0.000000   0.000869  -0.001289  -0.001050  -0.000005   0.000000
    26  H    0.000000   0.000080  -0.000195   0.000096   0.000000   0.000000
    27  C   -0.018780   0.002407  -0.050349  -0.033024  -0.003739  -0.001358
    28  H    0.001007   0.000000  -0.003199  -0.000277  -0.000103   0.000049
    29  H    0.000640   0.000000  -0.001080  -0.000821   0.000007  -0.000015
    30  H    0.000089   0.000000  -0.001055   0.000060  -0.000007  -0.000002
              13         14         15         16         17         18
     1  C    0.053030   0.032563  -0.000361  -0.014641  -0.000067  -0.000267
     2  C   -0.172365   0.013904   0.000767  -0.010447   0.000105   0.002700
     3  C   -0.235724  -0.046053   0.004119   0.071412   0.002721  -0.016563
     4  C    0.186722  -0.020666   0.000266   0.014606   0.001167   0.002618
     5  C   -0.085971  -0.012672  -0.000053   0.025555  -0.000053  -0.000575
     6  C    0.000396   0.001674   0.000017  -0.001156   0.000052   0.000206
     7  H   -0.000181  -0.000221   0.000000  -0.000062   0.000000   0.000042
     8  H    0.001642  -0.000032   0.000000  -0.000086   0.000000   0.000027
     9  C   -0.428337   0.024811   0.002668   0.084806   0.003036   0.029746
    10  C    1.021322  -0.487339   0.033516  -0.380204   0.031091  -0.218115
    11  C   -2.808288   1.381734  -0.028087   1.114721  -0.023671   0.244320
    12  C  -15.623395  -7.737581   0.316488   4.884404   0.018053  -0.438401
    13  C   27.161591   4.989597   0.015683  -7.520446   0.314770  -0.429716
    14  C    4.989597   8.917054  -0.061433  -1.880780  -0.004728   0.612429
    15  H    0.015683  -0.061433   0.524784  -0.002722  -0.000142   0.003851
    16  C   -7.520446  -1.880780  -0.002722   8.812817  -0.063052   0.606316
    17  H    0.314770  -0.004728  -0.000142  -0.063052   0.524944   0.005106
    18  C   -0.429716   0.612429   0.003851   0.606316   0.005106   5.507636
    19  H    0.001728   0.294591  -0.004506   0.002846   0.000015   0.025705
    20  H   -0.026697   0.003935   0.000015   0.293606  -0.004514   0.026277
    21  H    0.009403  -0.008558  -0.000149  -0.008372  -0.000149   0.287290
    22  H   -0.000002   0.000000   0.000000   0.000000   0.000000   0.000000
    23  C   -0.003658  -0.000090   0.000001   0.000732  -0.000005  -0.000043
    24  H    0.000013   0.000000   0.000000   0.000000   0.000000   0.000000
    25  H    0.000000   0.000000   0.000000   0.000003   0.000000   0.000000
    26  H   -0.000001   0.000000   0.000000   0.000000   0.000000   0.000000
    27  C    0.000298   0.000176   0.000003   0.000145   0.000001  -0.000055
    28  H   -0.000011   0.000002   0.000000   0.000000   0.000000   0.000000
    29  H    0.000003   0.000002   0.000000   0.000000   0.000000   0.000000
    30  H    0.000000   0.000000   0.000000   0.000000   0.000000   0.000000
              19         20         21         22         23         24
     1  C   -0.000001   0.000000   0.000000   0.037288  -0.136014  -0.005181
     2  C    0.000025  -0.000015  -0.000001   0.027904   0.134341  -0.002382
     3  C   -0.000081  -0.000076  -0.000013   0.015029  -0.289042  -0.006750
     4  C   -0.000013   0.000028  -0.000001   0.017707  -0.284630  -0.037062
     5  C   -0.000001  -0.000001   0.000000   0.029625  -0.622741  -0.063148
     6  C    0.000000   0.000000   0.000000   0.190397   0.199949   0.045838
     7  H    0.000000   0.000000   0.000000  -0.000146   0.002305   0.000000
     8  H    0.000000   0.000000   0.000000  -0.000145  -0.020765   0.000795
     9  C   -0.000244  -0.000305   0.000183   0.001936  -0.054220  -0.003693
    10  C   -0.005627  -0.005338   0.000087   0.000565  -0.035804   0.000068
    11  C    0.004098   0.001851  -0.001057   0.000029  -0.000812  -0.000070
    12  C   -0.029653   0.000211   0.012398   0.000000   0.001735  -0.000004
    13  C    0.001728  -0.026697   0.009403  -0.000002  -0.003658   0.000013
    14  C    0.294591   0.003935  -0.008558   0.000000  -0.000090   0.000000
    15  H   -0.004506   0.000015  -0.000149   0.000000   0.000001   0.000000
    16  C    0.002846   0.293606  -0.008372   0.000000   0.000732   0.000000
    17  H    0.000015  -0.004514  -0.000149   0.000000  -0.000005   0.000000
    18  C    0.025705   0.026277   0.287290   0.000000  -0.000043   0.000000
    19  H    0.533032  -0.000155  -0.004986   0.000000   0.000000   0.000000
    20  H   -0.000155   0.532850  -0.004975   0.000000   0.000000   0.000000
    21  H   -0.004986  -0.004975   0.540080   0.000000   0.000000   0.000000
    22  H    0.000000   0.000000   0.000000   0.557918  -0.029916   0.000144
    23  C    0.000000   0.000000   0.000000  -0.029916   6.493616   0.407076
    24  H    0.000000   0.000000   0.000000   0.000144   0.407076   0.491788
    25  H    0.000000   0.000000   0.000000   0.000113   0.436095  -0.031095
    26  H    0.000000   0.000000   0.000000   0.004449   0.495172  -0.025920
    27  C    0.000000   0.000000   0.000000  -0.027673  -0.015177   0.000886
    28  H    0.000000   0.000000   0.000000   0.000099   0.000382   0.000000
    29  H    0.000000   0.000000   0.000000   0.000168   0.000518   0.000000
    30  H    0.000000   0.000000   0.000000   0.004436  -0.001274   0.000000
              25         26         27         28         29         30
     1  C   -0.010287   0.006564  -0.696641  -0.106447  -0.060649  -0.137780
     2  C    0.003312   0.006927  -0.080669  -0.012845  -0.049322   0.061246
     3  C   -0.006182  -0.007301  -0.301482   0.005772  -0.010115  -0.013718
     4  C   -0.020305   0.038894   0.114198   0.000588   0.000398   0.008493
     5  C   -0.105452  -0.131584  -0.125256  -0.012547  -0.004347   0.009499
     6  C    0.041341  -0.065003   0.103340   0.038972   0.047946  -0.081131
     7  H    0.000000   0.000000  -0.018780   0.001007   0.000640   0.000089
     8  H    0.000869   0.000080   0.002407   0.000000   0.000000   0.000000
     9  C   -0.001289  -0.000195  -0.050349  -0.003199  -0.001080  -0.001055
    10  C   -0.001050   0.000096  -0.033024  -0.000277  -0.000821   0.000060
    11  C   -0.000005   0.000000  -0.003739  -0.000103   0.000007  -0.000007
    12  C    0.000000   0.000000  -0.001358   0.000049  -0.000015  -0.000002
    13  C    0.000000  -0.000001   0.000298  -0.000011   0.000003   0.000000
    14  C    0.000000   0.000000   0.000176   0.000002   0.000002   0.000000
    15  H    0.000000   0.000000   0.000003   0.000000   0.000000   0.000000
    16  C    0.000003   0.000000   0.000145   0.000000   0.000000   0.000000
    17  H    0.000000   0.000000   0.000001   0.000000   0.000000   0.000000
    18  C    0.000000   0.000000  -0.000055   0.000000   0.000000   0.000000
    19  H    0.000000   0.000000   0.000000   0.000000   0.000000   0.000000
    20  H    0.000000   0.000000   0.000000   0.000000   0.000000   0.000000
    21  H    0.000000   0.000000   0.000000   0.000000   0.000000   0.000000
    22  H    0.000113   0.004449  -0.027673   0.000099   0.000168   0.004436
    23  C    0.436095   0.495172  -0.015177   0.000382   0.000518  -0.001274
    24  H   -0.031095  -0.025920   0.000886   0.000000   0.000000   0.000000
    25  H    0.494027  -0.025558   0.000192   0.000000   0.000000   0.000000
    26  H   -0.025558   0.500708  -0.002185   0.000000   0.000000  -0.000001
    27  C    0.000192  -0.002185   6.508154   0.427506   0.412958   0.496637
    28  H    0.000000   0.000000   0.427506   0.494388  -0.030786  -0.025603
    29  H    0.000000   0.000000   0.412958  -0.030786   0.491105  -0.026040
    30  H    0.000000  -0.000001   0.496637  -0.025603  -0.026040   0.501305
 Mulliken charges:
               1
     1  C    0.159087
     2  C    0.115451
     3  C    0.066392
     4  C    0.162348
     5  C    0.135188
     6  C   -1.311689
     7  H    0.191586
     8  H    0.189855
     9  C    0.137685
    10  C   -0.061878
    11  C    0.280486
    12  C   -0.384172
    13  C   -0.421410
    14  C   -0.012317
    15  H    0.195272
    16  C   -0.030000
    17  H    0.195318
    18  C   -0.250534
    19  H    0.183225
    20  H    0.183304
    21  H    0.178820
    22  H    0.170075
    23  C   -0.677732
    24  H    0.228694
    25  H    0.225271
    26  H    0.204858
    27  C   -0.710513
    28  H    0.223055
    29  H    0.229432
    30  H    0.204845
 Sum of Mulliken charges =   0.00000
 Mulliken charges with hydrogens summed into heavy atoms:
               1
     1  C    0.159087
     2  C    0.307036
     3  C    0.066392
     4  C    0.352203
     5  C    0.135188
     6  C   -1.141615
     9  C    0.137685
    10  C   -0.061878
    11  C    0.280486
    12  C   -0.188901
    13  C   -0.226092
    14  C    0.170908
    16  C    0.153303
    18  C   -0.071714
    23  C   -0.018909
    27  C   -0.053181
 Electronic spatial extent (au):  <R**2>=           6428.8642
 Charge=              0.0000 electrons
 Dipole moment (field-independent basis, Debye):
    X=              0.4837    Y=             -0.0038    Z=              0.0468  Tot=              0.4859
 Quadrupole moment (field-independent basis, Debye-Ang):
   XX=            -75.5912   YY=            -85.5074   ZZ=           -101.0748
   XY=             -0.0674   XZ=              0.2371   YZ=              1.7004
 Traceless Quadrupole moment (field-independent basis, Debye-Ang):
   XX=             11.7999   YY=              1.8837   ZZ=            -13.6837
   XY=             -0.0674   XZ=              0.2371   YZ=              1.7004
 Octapole moment (field-independent basis, Debye-Ang**2):
  XXX=            -21.3496  YYY=             -0.3922  ZZZ=              0.4592  XYY=              0.1314
  XXY=             -0.4604  XXZ=              1.5463  XZZ=              9.3615  YZZ=              0.1579
  YYZ=             -0.1375  XYZ=            -12.3974
 Hexadecapole moment (field-independent basis, Debye-Ang**3):
 XXXX=          -6966.9171 YYYY=          -1152.9180 ZZZZ=           -170.0271 XXXY=              0.9743
 XXXZ=              3.5620 YYYX=             -0.9727 YYYZ=             12.6383 ZZZX=              1.9347
 ZZZY=             -2.9906 XXYY=          -1387.8678 XXZZ=          -1426.4509 YYZZ=           -224.0744
 XXYZ=             44.0596 YYXZ=              0.2604 ZZXY=             -0.4904
 N-N= 8.764461976426D+02 E-N=-3.182185324364D+03  KE= 6.118768304153D+02
 Evaluate density.
 Using the total density.
 Monte-Carlo method of calculating molar volume:
 based on  0.001 e/bohr**3 density envelope.
 Number of points per bohr**3 =   20 CutOff= 1.00D-04
 Using the SCF density.
 There are       436 points.  Will hold       436 in memory.
 LenV=  4026274788 MDV=  4026531840.
 Box volume =10370.745 fraction occupied=0.174
 Integrated density= 5.4089191906611774D+01 error=-5.5910808093388226D+01
 Molar volume = 1807.744 bohr**3/mol (161.321 cm**3/mol)
 Recommended a0 for SCRF calculation =  4.90 angstrom (  9.26 bohr)
 Calling FoFJK, ICntrl=      2127 FMM=F ISym2X=0 I1Cent= 0 IOpClX= 0 NMat=1 NMatS=1 NMatT=0.
 ***** Axes restored to original set *****
 -------------------------------------------------------------------
 Center     Atomic                   Forces (Hartrees/Bohr)
 Number     Number              X              Y              Z
 -------------------------------------------------------------------
      1        6          -0.007982534   -0.007488122    0.015328416
      2        6          -0.002153555    0.002384635    0.003718752
      3        6           0.060730981   -0.010120352    0.015295662
      4        6           0.001429256    0.007045653   -0.007202500
      5        6          -0.009771222    0.004515648   -0.013909194
      6        6           0.020303985    0.000433574   -0.001679545
      7        1          -0.002282673    0.002445449   -0.004842615
      8        1          -0.001496921   -0.000943260    0.003176392
      9        6          -0.088603924    0.002422172   -0.010511089
     10        6           0.089106050   -0.000785859    0.000503652
     11        6          -0.062140893    0.004467723    0.001567303
     12        6           0.001772402   -0.002988000    0.009792551
     13        6           0.001846383   -0.002731229   -0.011972646
     14        6          -0.000909037    0.000703816    0.003140205
     15        1           0.001528825    0.000244467   -0.004756074
     16        6          -0.000955159    0.000842183   -0.002635109
     17        1           0.001811984    0.000141717    0.005460123
     18        6          -0.007877142   -0.000316926   -0.000097859
     19        1          -0.002629803    0.000268135   -0.003734425
     20        1          -0.002670293    0.000239042    0.003664513
     21        1           0.012279891   -0.000150711    0.000028983
     22        1          -0.012419452    0.000346464    0.000395697
     23        6           0.018153874   -0.012851184    0.028148161
     24        1           0.002567524    0.017203036   -0.005657635
     25        1           0.002397816   -0.007578528   -0.016482280
     26        1          -0.017165730   -0.000034703    0.000268776
     27        6           0.016259474    0.010541496   -0.030049360
     28        1           0.003844013   -0.016310496    0.006971959
     29        1           0.002257141    0.009210064    0.015729001
     30        1          -0.017231261   -0.001155903    0.000340185
 -------------------------------------------------------------------
 Cartesian Forces:  Max     0.089106050 RMS     0.018353038

 GradGradGradGradGradGradGradGradGradGradGradGradGradGradGradGradGradGrad
 Berny optimization.
 FormGI is forming the generalized inverse of G from B-inverse, IUseBI=4.
 Internal  Forces:  Max     0.057944031 RMS     0.008560217
 Search for a local minimum.
 Step number   1 out of a maximum of  157
 All quantities printed in internal units (Hartrees-Bohrs-Radians)
 Mixed Optimization -- RFO/linear search
 Second derivative matrix not updated -- first step.
 ITU=  0
     Eigenvalues ---    0.00230   0.00230   0.00230   0.00237   0.00237
     Eigenvalues ---    0.01329   0.01391   0.01537   0.01652   0.02080
     Eigenvalues ---    0.02095   0.02111   0.02112   0.02116   0.02117
     Eigenvalues ---    0.02119   0.02122   0.02124   0.02126   0.02128
     Eigenvalues ---    0.02132   0.02143   0.02163   0.03985   0.04701
     Eigenvalues ---    0.07243   0.07243   0.07243   0.07243   0.15990
     Eigenvalues ---    0.15994   0.15995   0.15996   0.16000   0.16000
     Eigenvalues ---    0.16000   0.16000   0.16000   0.16000   0.16000
     Eigenvalues ---    0.16000   0.16000   0.16000   0.21994   0.22000
     Eigenvalues ---    0.23460   0.23465   0.23476   0.23496   0.24980
     Eigenvalues ---    0.24994   0.25000   0.25000   0.28340   0.28403
     Eigenvalues ---    0.28519   0.28519   0.34254   0.34325   0.34399
     Eigenvalues ---    0.34413   0.34464   0.34556   0.37230   0.37230
     Eigenvalues ---    0.37230   0.37230   0.37230   0.37230   0.37230
     Eigenvalues ---    0.37230   0.41705   0.41750   0.42025   0.42202
     Eigenvalues ---    0.45389   0.45833   0.45928   0.45974   0.45996
     Eigenvalues ---    0.46091   0.46204   0.46785   1.05241
 RFO step:  Lambda=-3.11403266D-02 EMin= 2.30000000D-03
 Linear search not attempted -- first point.
 Maximum step size (   0.300) exceeded in Quadratic search.
    -- Step size scaled by   0.966
 Iteration  1 RMS(Cart)=  0.08210599 RMS(Int)=  0.00069795
 Iteration  2 RMS(Cart)=  0.00164194 RMS(Int)=  0.00006267
 Iteration  3 RMS(Cart)=  0.00000360 RMS(Int)=  0.00006266
 Iteration  4 RMS(Cart)=  0.00000000 RMS(Int)=  0.00006266
 Variable       Old X    -DE/DX   Delta X   Delta X   Delta X     New X
                                 (Linear)    (Quad)   (Total)
    R1        2.64067  -0.00051   0.00000  -0.00111  -0.00111   2.63957
    R2        2.64223   0.00474   0.00000   0.00909   0.00912   2.65135
    R3        2.91018  -0.00892   0.00000  -0.02725  -0.02725   2.88293
    R4        2.65214   0.00113   0.00000   0.00241   0.00238   2.65452
    R5        2.06903  -0.00581   0.00000  -0.01503  -0.01503   2.05400
    R6        2.62850   0.00599   0.00000   0.01177   0.01174   2.64024
    R7        2.91400  -0.05773   0.00000  -0.17739  -0.17738   2.73662
    R8        2.64421  -0.00079   0.00000  -0.00146  -0.00146   2.64275
    R9        2.06401  -0.00362   0.00000  -0.00928  -0.00928   2.05473
   R10        2.64263   0.00322   0.00000   0.00621   0.00624   2.64887
   R11        2.91018  -0.00913   0.00000  -0.02788  -0.02788   2.88230
   R12        2.02201   0.01243   0.00000   0.02978   0.02978   2.05179
   R13        2.26611   0.03117   0.00000   0.02780   0.02780   2.29390
   R14        2.91266  -0.05794   0.00000  -0.17769  -0.17769   2.73497
   R15        2.64178   0.00372   0.00000   0.00752   0.00751   2.64930
   R16        2.63832   0.00484   0.00000   0.00970   0.00970   2.64802
   R17        2.64183  -0.00136   0.00000  -0.00272  -0.00272   2.63911
   R18        2.06554  -0.00488   0.00000  -0.01256  -0.01256   2.05298
   R19        2.64238  -0.00140   0.00000  -0.00273  -0.00273   2.63965
   R20        2.06786  -0.00564   0.00000  -0.01455  -0.01455   2.05330
   R21        2.64009   0.00215   0.00000   0.00401   0.00401   2.64410
   R22        2.06662  -0.00455   0.00000  -0.01172  -0.01172   2.05490
   R23        2.63983   0.00212   0.00000   0.00396   0.00397   2.64380
   R24        2.06639  -0.00451   0.00000  -0.01161  -0.01161   2.05478
   R25        2.02201   0.01228   0.00000   0.02942   0.02942   2.05143
   R26        2.02201   0.01802   0.00000   0.04317   0.04317   2.06518
   R27        2.02201   0.01800   0.00000   0.04311   0.04311   2.06512
   R28        2.02201   0.01685   0.00000   0.04036   0.04036   2.06237
   R29        2.02201   0.01784   0.00000   0.04275   0.04275   2.06475
   R30        2.02201   0.01811   0.00000   0.04338   0.04338   2.06538
   R31        2.02201   0.01693   0.00000   0.04056   0.04056   2.06256
    A1        2.09366  -0.00458   0.00000  -0.01667  -0.01668   2.07698
    A2        2.09504   0.00029   0.00000   0.00147   0.00148   2.09652
    A3        2.09447   0.00428   0.00000   0.01520   0.01520   2.10968
    A4        2.09099   0.00110   0.00000   0.00404   0.00393   2.09492
    A5        2.09389   0.00037   0.00000   0.00277   0.00277   2.09666
    A6        2.09796  -0.00145   0.00000  -0.00642  -0.00642   2.09154
    A7        2.09733   0.00146   0.00000   0.00547   0.00536   2.10270
    A8        2.03358   0.00914   0.00000   0.03126   0.03130   2.06489
    A9        2.15206  -0.01059   0.00000  -0.03657  -0.03653   2.11553
   A10        2.09293   0.00016   0.00000   0.00111   0.00098   2.09392
   A11        2.09462  -0.00034   0.00000  -0.00167  -0.00168   2.09295
   A12        2.09507   0.00021   0.00000   0.00112   0.00111   2.09619
   A13        2.09517  -0.00425   0.00000  -0.01497  -0.01499   2.08018
   A14        2.09387  -0.00036   0.00000  -0.00106  -0.00105   2.09282
   A15        2.09414   0.00461   0.00000   0.01603   0.01604   2.11019
   A16        2.09442   0.00618   0.00000   0.02267   0.02268   2.11710
   A17        2.09438  -0.00301   0.00000  -0.01094  -0.01095   2.08343
   A18        2.09438  -0.00317   0.00000  -0.01173  -0.01174   2.08265
   A19        2.09307   0.00018   0.00000   0.00038   0.00035   2.09342
   A20        2.09164  -0.00011   0.00000  -0.00062  -0.00065   2.09099
   A21        2.09779  -0.00005   0.00000   0.00079   0.00074   2.09853
   A22        2.09144  -0.00074   0.00000  -0.00243  -0.00247   2.08898
   A23        2.09611  -0.00072   0.00000  -0.00420  -0.00421   2.09190
   A24        2.09540   0.00147   0.00000   0.00686   0.00685   2.10225
   A25        2.09320  -0.00112   0.00000  -0.00370  -0.00373   2.08946
   A26        2.09628  -0.00063   0.00000  -0.00407  -0.00408   2.09220
   A27        2.09347   0.00176   0.00000   0.00799   0.00798   2.10145
   A28        2.09342   0.00144   0.00000   0.00506   0.00506   2.09847
   A29        2.09403  -0.00115   0.00000  -0.00469  -0.00469   2.08934
   A30        2.09573  -0.00029   0.00000  -0.00037  -0.00037   2.09537
   A31        2.09222   0.00160   0.00000   0.00588   0.00587   2.09809
   A32        2.09489  -0.00129   0.00000  -0.00543  -0.00542   2.08947
   A33        2.09607  -0.00031   0.00000  -0.00045  -0.00044   2.09562
   A34        2.09766  -0.00110   0.00000  -0.00501  -0.00501   2.09265
   A35        2.09276   0.00053   0.00000   0.00242   0.00242   2.09518
   A36        2.09276   0.00057   0.00000   0.00259   0.00259   2.09536
   A37        1.91063   0.00293   0.00000   0.01427   0.01414   1.92478
   A38        1.91063   0.00327   0.00000   0.01621   0.01607   1.92670
   A39        1.91063   0.00358   0.00000   0.01896   0.01879   1.92943
   A40        1.91063  -0.00359   0.00000  -0.01981  -0.01990   1.89073
   A41        1.91063  -0.00307   0.00000  -0.01489  -0.01504   1.89559
   A42        1.91063  -0.00312   0.00000  -0.01474  -0.01492   1.89572
   A43        1.91063   0.00326   0.00000   0.01625   0.01611   1.92674
   A44        1.91063   0.00281   0.00000   0.01356   0.01344   1.92407
   A45        1.91063   0.00378   0.00000   0.02000   0.01982   1.93045
   A46        1.91063  -0.00355   0.00000  -0.01972  -0.01980   1.89084
   A47        1.91063  -0.00314   0.00000  -0.01460  -0.01480   1.89583
   A48        1.91063  -0.00316   0.00000  -0.01549  -0.01564   1.89499
   A49        3.17054  -0.00304   0.00000  -0.03795  -0.03798   3.13255
   A50        3.14159   0.00123   0.00000   0.03677   0.03676   3.17834
   A51        3.13228   0.00075   0.00000   0.00994   0.00981   3.14208
   A52        3.14159  -0.00011   0.00000  -0.00032  -0.00017   3.14142
    D1        0.02934  -0.00067   0.00000  -0.01297  -0.01296   0.01638
    D2       -3.14082   0.00019   0.00000   0.00269   0.00270  -3.13812
    D3       -3.10907  -0.00066   0.00000  -0.01240  -0.01239  -3.12146
    D4        0.00396   0.00019   0.00000   0.00326   0.00327   0.00723
    D5        0.00343  -0.00006   0.00000  -0.00109  -0.00106   0.00237
    D6       -3.13816  -0.00001   0.00000  -0.00024  -0.00025  -3.13841
    D7       -3.14135  -0.00007   0.00000  -0.00168  -0.00165   3.14018
    D8        0.00024  -0.00003   0.00000  -0.00083  -0.00084  -0.00060
    D9       -0.93938   0.00037   0.00000   0.00364   0.00368  -0.93569
   D10        1.15502  -0.00026   0.00000  -0.00225  -0.00228   1.15274
   D11       -3.03377  -0.00009   0.00000  -0.00067  -0.00069  -3.03447
   D12        2.20541   0.00040   0.00000   0.00427   0.00432   2.20972
   D13       -1.98338  -0.00024   0.00000  -0.00162  -0.00165  -1.98503
   D14        0.11101  -0.00007   0.00000  -0.00004  -0.00006   0.11095
   D15       -0.06456   0.00146   0.00000   0.02826   0.02827  -0.03630
   D16        3.09824   0.00128   0.00000   0.02054   0.02038   3.11863
   D17        3.10566   0.00057   0.00000   0.01241   0.01250   3.11816
   D18       -0.01472   0.00039   0.00000   0.00469   0.00462  -0.01010
   D19        0.06660  -0.00154   0.00000  -0.02949  -0.02947   0.03713
   D20       -3.11087  -0.00057   0.00000  -0.01139  -0.01138  -3.12226
   D21       -3.09770  -0.00108   0.00000  -0.02032  -0.02048  -3.11818
   D22        0.00801  -0.00011   0.00000  -0.00223  -0.00240   0.00561
   D23       -0.42138   0.00103   0.00000   0.02150   0.02144  -0.39993
   D24        2.76189   0.00005   0.00000   0.00206   0.00222   2.76411
   D25        2.74721   0.00010   0.00000   0.00228   0.00212   2.74933
   D26       -0.35271  -0.00088   0.00000  -0.01717  -0.01711  -0.36982
   D27       -0.03360   0.00087   0.00000   0.01552   0.01544  -0.01815
   D28        3.10669   0.00087   0.00000   0.01567   0.01562   3.12231
   D29       -3.13930  -0.00010   0.00000  -0.00252  -0.00262   3.14127
   D30        0.00098  -0.00010   0.00000  -0.00237  -0.00244  -0.00145
   D31       -0.00147   0.00000   0.00000  -0.00003  -0.00006  -0.00153
   D32        3.14013  -0.00004   0.00000  -0.00088  -0.00087   3.13925
   D33        3.14144   0.00001   0.00000  -0.00017  -0.00023   3.14121
   D34       -0.00016  -0.00004   0.00000  -0.00102  -0.00104  -0.00120
   D35       -1.08387   0.00027   0.00000   0.00218   0.00219  -1.08168
   D36        1.01053  -0.00033   0.00000  -0.00343  -0.00347   1.00705
   D37        3.10492   0.00004   0.00000   0.00006   0.00006   3.10499
   D38        2.05642   0.00026   0.00000   0.00231   0.00235   2.05876
   D39       -2.13237  -0.00034   0.00000  -0.00329  -0.00332  -2.13569
   D40       -0.03798   0.00003   0.00000   0.00020   0.00022  -0.03776
   D41       -3.13968   0.00017   0.00000   0.00161   0.00154  -3.13814
   D42        0.02538  -0.00045   0.00000  -0.00976  -0.00980   0.01559
   D43       -0.03799   0.00089   0.00000   0.01757   0.01761  -0.02038
   D44        3.12707   0.00027   0.00000   0.00620   0.00627   3.13335
   D45        3.14019  -0.00018   0.00000  -0.00192  -0.00185   3.13834
   D46       -0.02477   0.00040   0.00000   0.00878   0.00882  -0.01595
   D47        0.03847  -0.00091   0.00000  -0.01789  -0.01792   0.02055
   D48       -3.12649  -0.00033   0.00000  -0.00718  -0.00725  -3.13374
   D49        0.02003  -0.00047   0.00000  -0.00911  -0.00913   0.01090
   D50       -3.12378  -0.00046   0.00000  -0.00899  -0.00901  -3.13278
   D51        3.13816   0.00012   0.00000   0.00210   0.00212   3.14028
   D52       -0.00565   0.00012   0.00000   0.00223   0.00225  -0.00340
   D53       -0.02094   0.00050   0.00000   0.00970   0.00971  -0.01123
   D54        3.12361   0.00045   0.00000   0.00868   0.00870   3.13231
   D55       -3.13921  -0.00005   0.00000  -0.00082  -0.00084  -3.14005
   D56        0.00535  -0.00010   0.00000  -0.00184  -0.00186   0.00349
   D57       -0.00265   0.00007   0.00000   0.00100   0.00100  -0.00165
   D58        3.13894   0.00007   0.00000   0.00139   0.00138   3.14033
   D59        3.14116   0.00007   0.00000   0.00088   0.00088  -3.14115
   D60       -0.00043   0.00007   0.00000   0.00127   0.00127   0.00083
   D61        0.00308  -0.00008   0.00000  -0.00127  -0.00127   0.00181
   D62       -3.13851  -0.00008   0.00000  -0.00165  -0.00166  -3.14017
   D63       -3.14147  -0.00003   0.00000  -0.00026  -0.00026   3.14145
   D64        0.00012  -0.00004   0.00000  -0.00064  -0.00064  -0.00053
         Item               Value     Threshold  Converged?
 Maximum Force            0.057944     0.000450     NO 
 RMS     Force            0.008560     0.000300     NO 
 Maximum Displacement     0.336996     0.001800     NO 
 RMS     Displacement     0.083079     0.001200     NO 
 Predicted change in Energy=-1.704264D-02
 GradGradGradGradGradGradGradGradGradGradGradGradGradGradGradGradGradGrad

                          Input orientation:                          
 ---------------------------------------------------------------------
 Center     Atomic      Atomic             Coordinates (Angstroms)
 Number     Number       Type             X           Y           Z
 ---------------------------------------------------------------------
      1          6           0       -5.226075   -0.950365    1.155922
      2          6           0       -3.830989   -0.964600    1.088248
      3          6           0       -3.178148   -0.492881   -0.062621
      4          6           0       -3.915007   -0.047340   -1.162882
      5          6           0       -5.312201   -0.027422   -1.106283
      6          6           0       -5.955786   -0.478780    0.054275
      7          1           0       -3.247624   -1.329151    1.929794
      8          1           0       -3.400395    0.299040   -2.055887
      9          6           0       -1.730123   -0.497776   -0.081457
     10          6           0       -0.516280   -0.505677   -0.086942
     11          6           0        0.930221   -0.515253   -0.040303
     12          6           0        1.590570   -0.507287    1.196359
     13          6           0        1.665633   -0.503615   -1.233031
     14          6           0        2.986582   -0.512406    1.235120
     15          1           0        1.014213   -0.508623    2.117257
     16          6           0        3.061666   -0.508940   -1.185836
     17          1           0        1.147707   -0.502483   -2.188210
     18          6           0        3.724403   -0.512245    0.046267
     19          1           0        3.499094   -0.514551    2.194172
     20          1           0        3.632292   -0.508674   -2.111414
     21          1           0        4.809443   -0.515041    0.079975
     22          1           0       -7.040389   -0.462273    0.101531
     23          6           0       -6.114476    0.482942   -2.298869
     24          1           0       -5.878574    1.532210   -2.493019
     25          1           0       -5.874160   -0.094831   -3.194786
     26          1           0       -7.185090    0.396699   -2.105459
     27          6           0       -5.936513   -1.437645    2.414984
     28          1           0       -5.599178   -2.443178    2.677524
     29          1           0       -5.718479   -0.771845    3.253864
     30          1           0       -7.016889   -1.461385    2.261644
 ---------------------------------------------------------------------
                    Distance matrix (angstroms):
                    1          2          3          4          5
     1  C    0.000000
     2  C    1.396799   0.000000
     3  C    2.426550   1.404713   0.000000
     4  C    2.812687   2.432285   1.397155   0.000000
     5  C    2.444753   2.808605   2.420758   1.398482   0.000000
     6  C    1.403032   2.412444   2.780132   2.415034   1.401721
     7  H    2.157921   1.086928   2.161918   3.413661   3.895478
     8  H    3.899979   3.415814   2.156303   1.087319   2.159473
     9  C    3.735990   2.449443   1.448155   2.479130   3.755367
    10  C    4.891281   3.546686   2.662010   3.594310   4.926322
    11  C    6.286514   4.913722   4.108491   4.995534   6.351545
    12  C    6.831149   5.441886   4.932130   6.007407   7.292509
    13  C    7.307689   5.984455   4.983191   5.599701   6.995213
    14  C    8.224707   6.834129   6.299873   7.321108   8.636387
    15  H    6.329335   4.974209   4.725252   5.938796   7.116620
    16  C    8.623534   7.272398   6.340122   6.991964   8.388077
    17  H    7.211720   5.977971   4.819880   5.185511   6.567089
    18  C    9.029636   7.640307   6.903437   7.748468   9.122699
    19  H    8.797526   7.426690   7.048343   8.152115   9.421742
    20  H    9.452050   8.133036   7.111955   7.620647   9.013648
    21  H   10.102415   8.710670   7.988894   8.824934  10.202581
    22  H    2.154463   3.395025   3.865849   3.396899   2.152800
    23  C    3.844373   4.333850   3.817729   2.531665   1.525246
    24  H    4.461357   4.822047   4.159342   2.849533   2.162467
    25  H    4.481140   4.824462   4.151793   2.822972   2.163836
    26  H    4.035955   4.827308   4.584772   3.432065   2.164704
    27  C    1.525582   2.533226   3.826184   4.338267   3.844193
    28  H    2.164016   2.799729   4.144085   4.829615   4.498381
    29  H    2.162335   2.879178   4.186905   4.825460   4.441859
    30  H    2.165821   3.431270   4.590876   4.832036   4.037963
                    6          7          8          9         10
     6  C    0.000000
     7  H    3.402182   0.000000
     8  H    3.404087   4.308132   0.000000
     9  C    4.227884   2.653135   2.706122   0.000000
    10  C    5.441405   3.493648   3.583634   1.213882   0.000000
    11  C    6.886753   4.690213   4.845605   2.660720   1.447284
    12  C    7.632342   4.962006   6.011406   3.558076   2.466917
    13  C    7.729412   5.901277   5.194805   3.585710   2.464603
    14  C    9.020059   6.325738   7.230674   4.897029   3.744053
    15  H    7.268952   4.344152   6.128313   3.516510   2.683452
    16  C    9.102374   7.084281   6.570241   4.917420   3.742896
    17  H    7.449087   6.079496   4.620084   3.566558   2.680333
    18  C    9.680250   7.268023   7.472615   5.456040   4.242779
    19  H    9.694080   6.800858   8.144193   5.702936   4.618093
    20  H    9.829666   8.021084   7.079137   5.733790   4.616183
    21  H   10.765320   8.306680   8.522094   6.541581   5.328346
    22  H    1.085758   4.298732   4.299256   5.313537   6.526976
    23  C    2.547033   5.420711   2.731134   5.010117   6.099982
    24  H    3.246344   5.888171   2.802349   5.210193   6.220642
    25  H    3.272687   5.889275   2.751679   5.198868   6.207606
    26  H    2.634788   5.896225   3.786279   5.886709   7.025790
    27  C    2.548086   2.734467   5.425556   4.980893   6.042113
    28  H    3.296584   2.707391   5.895725   5.134798   6.101806
    29  H    3.221734   2.858125   5.891838   5.206387   6.188272
    30  H    2.638926   3.786156   5.900779   5.862471   6.977619
                   11         12         13         14         15
    11  C    0.000000
    12  C    1.401948   0.000000
    13  C    1.401273   2.430553   0.000000
    14  C    2.419779   1.396559   2.799420   0.000000
    15  H    2.159205   1.086390   3.413035   2.160652   0.000000
    16  C    2.419781   2.799818   1.396840   2.422122   3.886192
    17  H    2.158928   3.413424   1.086562   3.885969   4.307541
    18  C    2.795524   2.424042   2.423883   1.399197   3.410886
    19  H    3.404700   2.153635   3.886826   1.087406   2.486078
    20  H    3.404517   3.887158   2.153910   3.408262   4.973530
    21  H    3.881086   3.406981   3.407001   2.158053   4.307474
    22  H    7.972048   8.700237   8.807815  10.090970   8.303127
    23  C    7.464936   8.518503   7.914506   9.813717   8.444144
    24  H    7.521144   8.576664   7.914999   9.832113   8.539915
    25  H    7.511799   8.670321   7.801543   9.915200   8.708542
    26  H    8.423468   9.419735   8.939072  10.744713   9.267120
    27  C    7.350598   7.681640   8.483694   9.048192   7.018854
    28  H    7.330521   7.591706   8.475366   8.917605   6.913273
    29  H    7.424459   7.597731   8.644611   8.939838   6.833030
    30  H    8.327706   8.725451   9.408309  10.100680   8.088708
                   16         17         18         19         20
    16  C    0.000000
    17  H    2.160565   0.000000
    18  C    1.399038   3.410623   0.000000
    19  H    3.408199   4.973373   2.159691   0.000000
    20  H    1.087341   2.485780   2.159649   4.307649   0.000000
    21  H    2.158017   4.307335   1.085567   2.487336   2.487551
    22  H   10.183860   8.502320  10.765050  10.745351  10.899790
    23  C    9.296465   7.329570  10.163345  10.658476   9.798874
    24  H    9.262986   7.321304  10.141249  10.681743   9.734855
    25  H    9.168226   7.105349  10.139579  10.820116   9.576931
    26  H   10.327725   8.381580  11.156753  11.552878  10.855206
    27  C    9.736305   8.500006   9.990020   9.483224  10.626068
    28  H    9.678690   8.541787   9.878319   9.312990  10.578104
    29  H    9.842307   8.765457   9.976176   9.281853  10.783895
    30  H   10.694370   9.347798  11.008366  10.558738  11.551466
                   21         22         23         24         25
    21  H    0.000000
    22  H   11.849969   0.000000
    23  C   11.224387   2.740924   0.000000
    24  H   11.182363   3.472674   1.092844   0.000000
[...]
 00455,0.00000042,0.00000592,-0.00000641,-0.00000481,0.00000235,0.00002
 164,0.00000097,0.00000039,0.00000505,-0.00000207,0.00000373,0.00000584
 ,0.00000006,-0.00000478,0.00000523,-0.00000078,-0.00000020,-0.00016949
 ,-0.00060921,0.00000236,0.07178682,-0.28022214,-0.02456655,-0.08088070
 ,0.30451202,0.00038418,-0.00127822,0.00012570,-0.00081897,0.00017367,0
 .00001913,-0.00022628,-0.00071327,-0.00111304,0.00108156,0.00031097,-0
 .00064942,-0.01003761,0.02755310,0.00101771,-0.00106048,-0.00026354,-0
 .00055070,0.00001354,0.00003199,0.00001536,-0.00019484,0.00023012,0.00
 023548,0.00014645,-0.00002889,-0.00013781,-0.00014313,0.00001870,0.000
 03697,0.00008785,0.00000384,0.00000484,-0.00002882,0.00000173,-0.00000
 227,-0.00003687,0.00000010,-0.00000499,0.00000510,-0.00000110,0.000003
 73,0.00000627,-0.00000124,0.00000465,0.00000532,0.00000017,0.00000064,
 0.00000506,-0.00000107,-0.00000242,-0.00002107,0.00000049,-0.00000070,
 -0.00000471,0.00000107,-0.00000327,-0.00000614,-0.00000141,0.00000378,
 -0.00000428,-0.00000017,0.00000034,0.00047062,0.00048806,-0.00001139,0
 .00786725,-0.02164129,-0.04864441,-0.00566539,0.02475437,0.05256960,0.
 00059420,0.00054610,-0.00049520,0.00003983,-0.00002938,-0.00007452,0.0
 0027577,-0.00036104,0.00005417,0.00068001,0.00045772,-0.00158628,0.010
 41504,-0.00193258,-0.01558721,-0.00197092,0.00087315,-0.00201932,0.000
 00983,0.00006497,0.00006022,-0.00049644,0.00019033,-0.00000211,0.00003
 700,0.00002067,0.00007550,0.00003139,-0.00001786,0.00000267,-0.0000413
 9,0.00000370,-0.00000460,0.00001663,0.00000327,-0.00000511,0.00001897,
 -0.00000511,0.00000398,-0.00000079,0.,-0.00000562,-0.00000325,0.000001
 18,-0.00000192,-0.00000178,-0.00000135,0.00000575,-0.00000512,0.000000
 20,0.00000296,0.00001601,-0.00000010,-0.00000024,0.00000343,-0.0000004
 3,0.00000257,0.00000503,0.00000148,-0.00000310,0.00000355,0.00000016,0
 .00000036,0.00024329,-0.00000563,-0.00033508,-0.13509138,0.01016690,0.
 12439628,-0.00554769,0.00008178,0.00681465,0.14501372,0.00003337,-0.00
 005670,0.00075251,-0.00031911,-0.00001182,0.00003726,-0.00003751,-0.00
 016872,-0.00017609,-0.00042252,0.00007222,-0.00028666,-0.00603621,-0.0
 0085444,0.00981220,0.00135156,0.00058748,0.00141125,0.00002502,0.00002
 808,0.00001213,0.00006327,0.00038173,-0.00008632,0.00000348,-0.0000490
 8,-0.00002143,0.00000423,-0.00000005,0.00000206,0.00000870,0.00000258,
 0.00000233,-0.00000187,-0.00000082,0.00000192,-0.00000703,-0.00000172,
 -0.00000794,-0.00000057,-0.00000123,0.00000040,0.00000049,0.00000100,0
 .00000186,0.00000040,-0.00000574,-0.00000015,0.00000076,0.00000866,0.0
 0000208,-0.00000097,0.00000036,-0.00000051,-0.00000013,0.00000082,0.00
 000041,-0.00000181,0.00000209,0.00000108,-0.00000014,0.00000106,0.0000
 0048,0.00014280,-0.00008013,-0.00012940,0.01062849,-0.04897745,-0.0177
 9358,0.01862380,-0.00113042,-0.02669153,-0.01385328,0.04871429,0.00148
 117,0.00067684,-0.00017770,-0.00035662,-0.00011621,0.00019413,-0.00019
 072,0.00039867,-0.00009628,0.00224717,0.00013564,0.00114578,0.01580813
 ,-0.00140775,-0.02144688,-0.00436708,0.00091392,-0.00346418,-0.0000908
 4,-0.00007367,0.00001807,-0.00139437,-0.00045490,0.00026329,0.00011341
 ,-0.00002079,0.00001117,-0.00010957,-0.00000098,0.00002893,0.00007856,
 -0.00000334,-0.00000793,-0.00002156,0.00000353,-0.00000339,-0.00003727
 ,0.00000882,-0.00001967,0.00000751,-0.00000452,0.00001200,0.00000408,-
 0.00000211,0.00000465,0.00000624,-0.00000008,-0.00000044,0.00000065,-0
 .00000209,0.00000418,-0.00002592,0.00000124,-0.00000040,-0.00000215,0.
 00000044,-0.00000185,-0.00000720,-0.00000132,0.00000361,-0.00000227,-0
 .00000046,0.00000098,-0.00003142,-0.00025751,0.00012076,0.12116775,-0.
 01633661,-0.22665822,0.00144658,-0.00082063,-0.00203897,-0.13271754,0.
 01615917,0.24757628,-0.00049950,0.00093086,-0.00035067,0.00043559,-0.0
 0003865,-0.00010524,-0.00052569,0.00061415,0.00056119,-0.00057015,0.00
 037220,-0.00329292,-0.01481941,-0.00733990,-0.00233875,0.00068547,-0.0
 0005520,0.00239844,0.00004325,-0.00015413,-0.00011595,0.00036163,-0.00
 033757,-0.00016434,-0.00004713,0.00006923,-0.00021737,-0.00010188,0.00
 000294,-0.00000449,0.00008450,-0.00001062,0.00001568,-0.00003441,-0.00
 000253,0.00001361,-0.00003641,0.00000693,-0.00000665,0.00000243,-0.000
 00043,0.00000446,0.00000764,-0.00000290,0.00000331,0.00000224,0.000004
 21,-0.00000584,0.00000971,-0.00000183,-0.00000720,-0.00002603,0.000000
 66,0.00000087,-0.00000745,0.00000091,-0.00000561,-0.00000759,-0.000002
 97,0.00000512,-0.00000702,-0.00000050,-0.00000056,0.00057672,-0.000615
 87,-0.00054585,-0.22077241,-0.12239123,-0.02473553,0.00934103,0.005512
 93,0.00136022,-0.01412168,-0.01027686,-0.00271564,0.24000139,-0.000150
 36,0.00008067,-0.00037718,0.00040117,0.00009799,-0.00024864,0.00066843
 ,-0.00054740,0.00053672,0.00035812,-0.00010047,0.00115144,0.01119265,0
 .00638883,0.00233921,0.00010148,0.00050613,0.00027140,0.00001145,-0.00
 001256,-0.00000672,0.00003202,0.00011246,0.00010319,-0.00004593,-0.000
 07465,0.00008753,0.00007729,-0.00000573,-0.00001950,-0.00000041,0.0000
 1273,-0.00000360,-0.00000160,0.00000037,0.00000601,0.00000555,-0.00000
 044,0.00000087,-0.00000109,-0.00000169,0.00000234,0.00000095,-0.000000
 44,0.00000012,-0.00000054,0.00000086,-0.00000674,0.00000166,-0.0000003
 8,-0.00000209,-0.00000287,0.00000042,0.00000053,-0.00000124,0.00000052
 ,-0.00000174,-0.00000002,-0.00000081,0.00000123,-0.00000218,0.00000001
 ,-0.00000018,-0.00000046,0.00002676,-0.00031319,-0.12346095,-0.1315765
 2,-0.01889410,-0.02665001,-0.01799155,-0.00304564,0.00376337,0.0016889
 1,0.00114487,0.13372068,0.14139572,0.00003050,0.00005056,0.00033992,-0
 .00016867,-0.00010182,-0.00021610,-0.00073583,0.00070477,0.00056978,-0
 .00045651,0.00095692,-0.00372623,-0.02259128,-0.01540108,-0.00334371,-
 0.00131762,0.00031714,0.00083441,0.00005814,0.00004942,0.00001038,-0.0
 0027266,-0.00022008,0.00005709,-0.00001638,0.00016469,-0.00027570,-0.0
 0011468,-0.00003340,0.00002393,0.00005960,-0.00001055,0.00001394,-0.00
 002135,-0.00000127,0.00000314,-0.00003425,0.00000507,-0.00001471,0.000
 00224,-0.00000176,0.00000002,0.00000564,-0.00000100,0.00000521,0.00000
 115,-0.00000106,0.00000627,0.00000398,0.00000127,-0.00000172,-0.000011
 18,0.00000055,0.00000011,-0.00000382,0.00000086,-0.00000176,-0.0000063
 9,-0.00000028,0.00000264,-0.00000286,0.00000024,0.00000062,0.00075172,
 0.00001219,-0.00070475,-0.02411453,-0.01810586,-0.05351038,-0.00296548
 ,-0.00255585,-0.00086063,0.02158503,0.01690559,0.00486611,0.03029957,0
 .01729318,0.05588062,-0.11927984,-0.01572594,0.04829884,-0.01745946,-0
 .01025504,0.02941712,-0.00349293,-0.00002579,-0.00176165,-0.00135857,-
 0.00002134,0.00038239,-0.00134820,0.00262174,-0.00420278,0.01210936,0.
 00365674,-0.00904407,0.00059452,0.00003207,0.00122977,0.00013747,-0.00
 010570,-0.00000257,-0.00029397,-0.00032846,0.00102358,-0.00023983,0.00
 000138,-0.00001667,0.00007132,0.00002850,-0.00007450,-0.00006340,-0.00
 001406,0.00003329,-0.00002735,0.00000728,-0.00000858,-0.00000332,0.000
 00564,-0.00002468,0.00000542,0.00000430,0.00000381,-0.00000347,-0.0000
 0403,0.00000992,0.00000855,0.00000292,-0.00001001,-0.00000110,0.,-0.00
 000104,-0.00001199,0.00000196,-0.00000166,-0.00000605,0.00000018,0.000
 00075,-0.00000278,0.00000046,-0.00000005,0.00063632,-0.00051939,-0.001
 41075,0.00078384,0.00004229,-0.00071264,-0.00003679,0.00005427,-0.0000
 2479,-0.00016186,0.00011257,-0.00035142,-0.00003078,-0.00004559,0.0000
 1409,0.55615656,-0.01527110,-0.08113103,0.02973249,-0.00146909,0.00473
 512,0.00104533,0.00168678,0.00692402,0.00137448,-0.00074836,-0.0008689
 0,0.00038082,0.00164756,0.00557567,0.00065983,-0.00446037,0.00047699,0
 .00999878,0.00002698,-0.00368528,-0.00151595,-0.00001217,-0.00068902,-
 0.00027008,0.00005192,0.00061468,-0.00007676,0.00010990,-0.00039529,-0
 .00011582,0.00001759,0.00008263,0.00004971,-0.00000592,0.00000583,0.00
 001228,-0.00000393,-0.00002786,-0.00000893,0.00000080,-0.00000297,0.00
 000179,0.00000126,-0.00000092,-0.00000058,0.00000025,0.00000299,-0.000
 00557,0.00000246,0.00000209,-0.00000295,-0.00000694,-0.00000182,0.0000
 0080,-0.00000252,0.00000003,-0.00000211,-0.00000044,0.00000112,0.00000
 169,-0.00000190,-0.00000028,-0.00000076,-0.00006227,-0.00258215,-0.000
 68925,-0.00006016,-0.00000636,0.00009773,-0.00003699,-0.00001582,0.000
 05995,0.00002996,-0.00012287,0.00001468,-0.00002634,0.00000521,-0.0000
 1645,-0.01845560,0.53383933,0.05170054,0.03257241,-0.17078626,0.006210
 43,0.00147982,-0.00068184,-0.00202228,0.00098871,0.00126535,0.00050913
 ,-0.00023238,-0.00021504,-0.00407100,0.00208787,0.00009098,0.01447650,
 0.01075156,-0.02799809,-0.00196076,-0.00072451,0.00067886,0.00008278,-
 0.00008822,-0.00000313,-0.00003249,0.00014237,0.00050427,-0.00027003,-
 0.00010257,-0.00009797,0.00013284,0.00003328,-0.00002204,-0.00007404,-
 0.00001575,0.00004018,-0.00004624,-0.00000165,-0.00001537,0.00000498,0
 .00000013,0.00000084,0.00000672,0.00000274,0.00000134,0.00000691,0.000
 00327,-0.00001502,0.00000964,0.00000355,-0.00000894,-0.00004250,-0.000
 00035,0.00000017,-0.00001522,0.00000314,-0.00000639,-0.00000814,-0.000
 00056,0.00000477,-0.00000604,0.00000033,-0.00000083,0.00130486,-0.0011
 7640,0.00079216,0.00068954,0.00007925,-0.00047284,0.00002545,-0.000005
 39,0.00001464,-0.00012525,0.00004171,-0.00022368,0.00001237,0.00000109
 ,0.00005750,0.04153051,0.01351651,0.52160801,0.01059282,0.00162339,0.0
 1518185,0.00066528,-0.00046929,0.00158864,0.00028819,0.00035767,-0.000
 06623,0.00005719,0.00002532,0.00007824,0.00055984,-0.00054763,0.000498
 77,-0.00189559,-0.00079210,0.00202191,-0.00047412,-0.00017821,0.000014
 89,0.00000819,-0.00006598,-0.00005972,0.00003251,-0.00002314,-0.000076
 44,0.00003386,0.00001700,-0.00000271,-0.00004315,-0.00000262,0.0000053
 6,0.00001991,0.00000474,-0.00000497,0.00001711,-0.00000364,0.00000475,
 -0.00000200,0.00000125,-0.00000572,-0.00000520,0.00000011,-0.00000272,
 -0.00000081,-0.00000009,0.00000589,-0.00000333,-0.00000112,0.00000212,
 0.00001655,-0.00000028,-0.00000011,0.00000524,-0.00000159,0.00000309,0
 .00000343,0.00000037,-0.00000266,0.00000358,-0.00000023,-0.00000040,0.
 00024676,-0.00000758,0.00032922,-0.00015579,-0.00002881,0.00012487,-0.
 00000881,-0.00000408,-0.00000375,0.00004108,-0.00000968,0.00004306,0.0
 0000686,0.00001117,-0.00000007,-0.14054793,-0.00825212,-0.12653100,0.1
 5104025,0.00594266,-0.00104745,0.00930821,0.00040124,0.00007356,-0.000
 33440,0.00002265,-0.00017842,-0.00017521,0.00031820,-0.00002045,0.0000
 2895,-0.00003403,-0.00004231,0.00074080,-0.00125980,0.00064075,0.00138
 701,-0.00004322,0.00038764,-0.00008546,-0.00002425,0.00003033,0.000014
 13,-0.00000598,-0.00004843,-0.00001944,-0.00000500,-0.00000035,0.00000
 222,-0.00000754,0.00000286,0.00000237,0.00000634,-0.00000201,-0.000007
 97,0.00000147,-0.00000078,0.00000177,-0.00000049,-0.00000576,0.,-0.000
 00037,0.00000868,0.00000216,0.00000056,-0.00000124,0.00000025,-0.00000
 035,0.00000104,0.00000182,0.00000056,0.00000034,-0.00000053,0.00000176
 ,0.00000209,0.00000096,0.00000008,0.00000081,0.00000048,0.00000009,0.0
 0000106,0.00000049,-0.00015352,-0.00007639,-0.00013469,-0.00011079,-0.
 00011936,0.00004084,0.00002432,-0.00001020,0.00002872,0.00000882,-0.00
 002209,0.00003520,0.00000707,0.00000326,-0.00001655,-0.00874199,-0.048
 50881,-0.01448377,0.01166929,0.04808100,-0.01648184,-0.00104247,-0.021
 43239,-0.00223339,0.00020095,0.00115884,0.00019286,0.00038671,-0.00009
 887,0.00035641,-0.00012566,0.00018541,-0.00147865,0.00072479,-0.000157
 94,0.00435663,0.00082172,-0.00359244,0.00139742,-0.00048604,0.00023505
 ,0.00008917,-0.00007461,0.00001746,-0.00011432,-0.00001749,0.00001498,
 0.00010941,-0.00000408,0.00002679,-0.00007791,-0.00000132,-0.00000646,
 0.00003668,0.00000780,-0.00002032,0.00002123,0.00000307,-0.00000392,-0
 .00000621,0.00000005,-0.00000020,-0.00000051,-0.00000208,0.00000425,-0
 .00000736,-0.00000433,0.00001203,-0.00000397,-0.00000199,0.00000469,0.
 00002560,0.00000060,-0.00000092,0.00000713,-0.00000147,0.00000340,0.00
 000206,0.00000038,-0.00000184,0.00000221,-0.00000052,0.00000094,0.0000
 2243,-0.00025817,0.00011354,0.00035029,0.00000655,-0.00023327,-0.00000
 653,0.00002056,0.00000144,-0.00004578,0.00003650,-0.00013814,-0.000009
 92,-0.00001033,0.00002677,-0.12326709,-0.01311709,-0.22166083,0.135019
 39,0.01257899,0.24217538,-0.01440232,0.00754661,0.00262017,-0.00051299
 ,-0.00034177,0.00325588,-0.00055305,-0.00059982,-0.00052519,0.00043140
 ,0.00002830,0.00008601,-0.00051193,-0.00091473,0.00035806,0.00066288,0
 .00005708,-0.00238734,0.00037770,0.00032650,0.00016050,0.00004793,0.00
 015360,0.00011503,-0.00004300,-0.00006657,0.00021480,-0.00010140,-0.00
 000129,0.00000649,0.00008319,0.00000866,-0.00001714,-0.00003587,-0.000
 00594,0.00000709,-0.00003411,0.00000336,-0.00001271,0.00000224,-0.0000
 0427,0.00000575,0.00000977,0.00000160,0.00000691,0.00000232,0.00000029
 ,-0.00000445,0.00000750,0.00000268,-0.00000335,-0.00002574,0.,-0.00000
 034,-0.00000748,0.00000313,-0.00000488,-0.00000725,-0.00000070,0.00000
 567,-0.00000688,0.00000068,0.00000071,0.00058687,0.00060210,0.00051208
 ,-0.00002947,0.00002687,-0.00001058,0.00002417,-0.00002999,0.00002655,
 0.00000660,-0.00000748,0.00001007,0.00002467,0.00001393,0.00002365,-0.
 21357279,0.12405290,0.02750844,-0.01431328,0.01101460,0.00313167,0.232
 01492,-0.01061923,0.00647448,0.00249653,-0.00032447,-0.00008302,0.0010
 7666,-0.00065717,-0.00051570,0.00056364,-0.00041436,0.00010730,-0.0002
 4285,0.00015751,0.00009982,-0.00038909,-0.00009953,0.00050715,0.000332
 95,-0.00003648,0.00010502,0.00009983,-0.00001310,-0.00001608,-0.000009
 35,0.00004691,-0.00007416,0.00008121,-0.00007525,-0.00000373,-0.000018
 11,-0.00000144,0.00001248,-0.00000319,-0.00000464,-0.00000015,0.000000
 80,0.00000258,0.00000025,0.00000630,0.00000037,0.00000096,-0.00000689,
 -0.00000196,-0.00000038,-0.00000223,0.00000104,-0.00000172,0.00000243,
 -0.00000115,-0.00000048,0.00000022,0.00000354,0.00000035,0.00000048,0.
 00000022,-0.00000089,0.00000135,0.00000140,0.00000050,-0.00000191,0.00
 000234,-0.00000006,-0.00000024,-0.00001996,0.00001185,-0.00032620,0.00
 004646,0.00000340,0.00000045,-0.00000372,0.00000746,0.00000236,-0.0000
 1146,0.00000373,-0.00001035,-0.00001518,-0.00001485,-0.00001332,0.1251
 0647,-0.13774220,-0.02204557,-0.00334731,0.00151334,0.00114391,-0.1356
 1293,0.14810334,0.02242143,-0.01611166,-0.00384610,0.00041567,0.000953
 33,-0.00380122,0.00077565,0.00069817,0.00056563,0.00015285,-0.00010650
 ,-0.00022127,-0.00001197,0.00006971,0.00033315,0.00132837,0.00028296,0
 .00085628,0.00026065,-0.00023342,0.00004849,-0.00005765,0.00004774,0.0
 0000921,0.00001582,0.00016563,-0.00028040,0.00011631,-0.00003622,0.000
 02152,-0.00006124,-0.00000924,0.00001548,0.00003479,0.00000434,-0.0000
 1554,0.00002206,-0.00000187,0.00000297,-0.00000109,-0.00000095,0.00000
 618,-0.00000418,0.00000134,-0.00000177,-0.00000233,-0.00000171,0.00000
 016,-0.00000571,-0.00000092,0.00000539,0.00001171,0.00000027,-0.000000
 11,0.00000658,-0.00000050,0.00000261,0.00000395,0.00000078,-0.00000196
 ,0.00000302,0.00000016,0.00000055,-0.00077721,0.00001891,-0.00069993,-
 0.00001273,-0.00001665,0.00005800,0.00000158,0.00001844,-0.00000722,0.
 00000006,-0.00001641,0.00002656,-0.00002521,-0.00001300,-0.00003614,0.
 02690752,-0.02122079,-0.05454900,-0.02077227,0.01721828,0.00523282,-0.
 03343640,0.02079655,0.05716296,-0.00670619,-0.01593395,0.00095398,-0.0
 0056526,-0.00008262,0.00200127,-0.00009023,0.00135293,-0.00022769,0.00
 074545,-0.00023247,0.00044541,-0.00119029,0.00024743,0.00096375,0.0001
 5198,0.00062254,-0.00193706,-0.00013293,-0.00070872,-0.00024865,0.0000
 0365,-0.00012671,-0.00001382,-0.00001876,-0.00000633,0.00008463,-0.000
 05771,-0.00001322,-0.00000144,0.00005062,-0.00000129,-0.00000637,-0.00
 002837,-0.00000133,0.00001692,-0.00002030,0.00000037,-0.00000527,0.000
 00063,0.00000400,0.00000337,0.00000512,-0.00000761,-0.00000185,0.00000
 081,0.00000317,-0.00000607,0.00000510,-0.00000065,-0.00000498,-0.00001
 857,0.00000080,-0.00000025,-0.00000702,-0.00000110,-0.00000425,-0.0000
 0388,-0.00000156,0.00000225,-0.00000350,-0.00000076,-0.00000058,0.0000
 9573,-0.00025602,-0.00010486,-0.00003718,0.00003872,-0.00002453,0.0000
 2686,-0.00001540,0.00000250,-0.00000908,-0.00002376,0.00000725,0.00002
 443,0.00000334,-0.00000176,-0.07256096,-0.07875211,-0.00900666,-0.0061
 8864,-0.01903240,-0.00138711,0.00987537,0.02589048,0.00268995,0.076653
 11,-0.00350135,-0.00512106,0.00211975,0.00102433,-0.00009251,0.0002951
 4,-0.00017090,0.00013686,0.00056732,-0.00003090,-0.00006998,-0.0001633
 0,-0.00015356,0.00045513,0.00048798,-0.00071842,0.00097833,-0.00012243
 ,0.00002751,-0.00025812,-0.00006728,0.00000382,-0.00010458,-0.00000534
 ,0.00008932,0.00000004,0.00006441,-0.00008816,0.00002034,-0.00000067,0
 .00007662,-0.00001025,-0.00000739,-0.00002819,0.00000240,0.00000570,-0
 .00002653,0.00000500,-0.00000288,0.00000466,0.00000020,0.00000574,0.00
 000621,-0.00000478,0.00000227,0.00000392,0.00000102,-0.00000550,0.0000
 0544,-0.00000035,-0.00000404,-0.00002113,0.00000149,0.00000083,-0.0000
 0576,0.00000024,-0.00000455,-0.00000493,-0.00000190,0.00000378,-0.0000
 0516,-0.00000063,-0.00000008,0.00015177,-0.00060686,0.00000171,-0.0000
 5383,-0.00001541,-0.00000368,0.00001468,-0.00000855,0.00000797,0.00000
 446,-0.00000971,0.00002030,0.00002993,0.00000663,0.00001788,-0.0774358
 4,-0.27648413,-0.02283064,0.00002518,-0.00066271,-0.00078489,-0.006257
 42,-0.01849800,-0.00250676,0.08703421,0.30034187,0.01087477,0.02762010
 ,0.00078898,-0.00107495,0.00033958,-0.00066790,0.00018779,-0.00074578,
 -0.00111265,0.00080834,0.00015788,-0.00000639,-0.00038938,-0.00127348,
 0.00011429,0.00103922,-0.00030223,-0.00053294,0.00020794,0.00023938,0.
 00023649,-0.00001250,0.00003486,0.00001590,-0.00014948,-0.00002503,-0.
 00013655,0.00014542,0.00001536,0.00003412,-0.00008863,0.00000606,0.000
 00673,0.00003733,-0.00000079,-0.00000607,0.00002921,0.00000100,-0.0000
 0274,-0.00000531,0.00000022,0.00000068,-0.00000524,-0.00000079,-0.0000
 0228,-0.00000506,-0.00000104,0.00000396,-0.00000631,-0.00000107,0.0000
 0487,0.00002143,-0.00000005,-0.00000112,0.00000632,-0.00000155,0.00000
 374,0.00000474,0.00000098,-0.00000340,0.00000435,-0.00000027,0.0000002
 6,-0.00046042,0.00050480,0.00000007,0.00002731,0.00005854,0.00001462,-
 0.00000338,0.00000835,-0.00002674,0.00000468,0.00002910,0.00000121,-0.
 00002712,0.00000296,-0.00000664,-0.00793659,-0.01990379,-0.04830179,-0
 .00739324,-0.02613562,-0.00186626,-0.00165317,-0.00353638,-0.00088730,
 0.00581192,0.02290866,0.05233488\\-0.00000278,-0.00000099,0.00000015,-
 0.00000486,-0.00000144,0.00000369,-0.00000007,0.00000221,-0.00000600,0
 .00000090,-0.00000106,0.00000427,-0.00000096,-0.00000078,-0.00000223,0
 .00000063,0.00000254,-0.00000341,0.00000164,0.00000036,0.00000037,-0.0
 0000056,0.00000066,-0.00000068,0.00000287,-0.00000032,0.00000117,-0.00
 000243,-0.00000130,0.00000117,-0.00000144,0.00000125,-0.00000157,0.000
 00367,-0.00000041,0.00000010,0.00000277,-0.00000045,0.00000070,-0.0000
 0201,-0.00000007,0.00000020,-0.00000064,-0.00000012,0.00000028,-0.0000
 0104,0.00000004,0.00000048,-0.00000052,0.00000028,-0.00000030,0.000001
 03,0.00000014,-0.00000055,-0.00000012,-0.00000019,0.00000010,-0.000000
 23,0.00000016,-0.00000018,-0.00000041,-0.00000001,0.00000004,0.0000005
 5,-0.00000080,0.00000058,0.00000250,-0.00000091,0.00000209,-0.00000074
 ,0.00000041,-0.00000029,-0.00000079,0.00000057,0.00000022,-0.00000051,
 0.00000072,-0.00000033,-0.00000050,-0.00000044,-0.00000423,0.00000071,
 -0.00000045,0.00000244,0.00000170,0.00000006,0.00000094,0.00000165,0.0
 0000034,0.00000076\\\@


     SCHOPENHAUER'S LAW OF ENTROPY
 IF YOU PUT A SPOONFUL OF WINE IN A BARREL FULL
 OF SEWAGE, YOU GET SEWAGE.
 IF YOU PUT A SPOONFUL OF SEWAGE IN A BARREL FULL
 OF WINE, YOU GET SEWAGE.
 Job cpu time:       0 days  2 hours 23 minutes 25.3 seconds.
 Elapsed time:       0 days  0 hours  4 minutes 46.9 seconds.
 File lengths (MBytes):  RWF=    333 Int=      0 D2E=      0 Chk=     10 Scr=      1
 Normal termination of Gaussian 16 at Sat Sep 16 12:25:31 2023.
