 Entering Gaussian System, Link 0=g16
 Input=/home/ubuntu/Downloads/molecule_42.gjf
 Output=/home/ubuntu/Downloads/molecule_42.log
 Initial command:
 /home/ubuntu/g16/l1.exe "/home/ubuntu/Scratch/Gau-322703.inp" -scrdir="/home/ubuntu/Scratch/"
 Entering Link 1 = /home/ubuntu/g16/l1.exe PID=    322707.
  
 Copyright (c) 1988-2017, Gaussian, Inc.  All Rights Reserved.
  
 This is part of the Gaussian(R) 16 program.  It is based on
 the Gaussian(R) 09 system (copyright 2009, Gaussian, Inc.),
 the Gaussian(R) 03 system (copyright 2003, Gaussian, Inc.),
 the Gaussian(R) 98 system (copyright 1998, Gaussian, Inc.),
 the Gaussian(R) 94 system (copyright 1995, Gaussian, Inc.),
 the Gaussian 92(TM) system (copyright 1992, Gaussian, Inc.),
 the Gaussian 90(TM) system (copyright 1990, Gaussian, Inc.),
 the Gaussian 88(TM) system (copyright 1988, Gaussian, Inc.),
 the Gaussian 86(TM) system (copyright 1986, Carnegie Mellon
 University), and the Gaussian 82(TM) system (copyright 1983,
 Carnegie Mellon University). Gaussian is a federally registered
 trademark of Gaussian, Inc.
  
 This software contains proprietary and confidential information,
 including trade secrets, belonging to Gaussian, Inc.
  
 This software is provided under written license and may be
 used, copied, transmitted, or stored only in accord with that
 written license.
  
 The following legend is applicable only to US Government
 contracts under FAR:
  
                    RESTRICTED RIGHTS LEGEND
  
 Use, reproduction and disclosure by the US Government is
 subject to restrictions as set forth in subparagraphs (a)
 and (c) of the Commercial Computer Software - Restricted
 Rights clause in FAR 52.227-19.
  
 Gaussian, Inc.
 340 Quinnipiac St., Bldg. 40, Wallingford CT 06492
  
  
 ---------------------------------------------------------------
 Warning -- This program may not be used in any manner that
 competes with the business of Gaussian, Inc. or will provide
 assistance to any competitor of Gaussian, Inc.  The licensee
 of this program is prohibited from giving any competitor of
 Gaussian, Inc. access to this program.  By using this program,
 the user acknowledges that Gaussian, Inc. is engaged in the
 business of creating and licensing software in the field of
 computational chemistry and represents and warrants to the
 licensee that it is not a competitor of Gaussian, Inc. and that
 it will not use this program in any manner prohibited above.
 ---------------------------------------------------------------
  

 Cite this work as:
 Gaussian 16, Revision B.01,
 M. J. Frisch, G. W. Trucks, H. B. Schlegel, G. E. Scuseria, 
 M. A. Robb, J. R. Cheeseman, G. Scalmani, V. Barone, 
 G. A. Petersson, H. Nakatsuji, X. Li, M. Caricato, A. V. Marenich, 
 J. Bloino, B. G. Janesko, R. Gomperts, B. Mennucci, H. P. Hratchian, 
 J. V. Ortiz, A. F. Izmaylov, J. L. Sonnenberg, D. Williams-Young, 
 F. Ding, F. Lipparini, F. Egidi, J. Goings, B. Peng, A. Petrone, 
 T. Henderson, D. Ranasinghe, V. G. Zakrzewski, J. Gao, N. Rega, 
 G. Zheng, W. Liang, M. Hada, M. Ehara, K. Toyota, R. Fukuda, 
 J. Hasegawa, M. Ishida, T. Nakajima, Y. Honda, O. Kitao, H. Nakai, 
 T. Vreven, K. Throssell, J. A. Montgomery, Jr., J. E. Peralta, 
 F. Ogliaro, M. J. Bearpark, J. J. Heyd, E. N. Brothers, K. N. Kudin, 
 V. N. Staroverov, T. A. Keith, R. Kobayashi, J. Normand, 
 K. Raghavachari, A. P. Rendell, J. C. Burant, S. S. Iyengar, 
 J. Tomasi, M. Cossi, J. M. Millam, M. Klene, C. Adamo, R. Cammi, 
 J. W. Ochterski, R. L. Martin, K. Morokuma, O. Farkas, 
 J. B. Foresman, and D. J. Fox, Gaussian, Inc., Wallingford CT, 2016.
 
 ******************************************
 Gaussian 16:  EM64L-G16RevB.01 20-Dec-2017
                22-Sep-2023 
 ******************************************
 %nprocshared=30
 Will use up to   30 processors via shared memory.
 %mem=30GB
 %chk=molecule_42.chk
 ----------------------------------------------------------------
 # opt freq b3lyp/6-31+g(d) nosymm empiricaldispersion=gd3 volume
 ----------------------------------------------------------------
 1/18=20,19=15,26=3,38=1/1,3;
 2/9=110,12=2,15=1,17=6,18=5,40=1/2;
 3/5=1,6=6,7=11,11=2,25=1,30=1,71=1,74=-5,124=31/1,2,3;
 4//1;
 5/5=2,38=5/2;
 6/7=2,8=2,9=2,10=2,28=1,44=1/1,4;
 7/30=1/1,2,3,16;
 1/18=20,19=15,26=3/3(2);
 2/9=110,15=1/2;
 99//99;
 2/9=110,15=1/2;
 3/5=1,6=6,7=11,11=2,25=1,30=1,71=1,74=-5,124=31/1,2,3;
 4/5=5,16=3,69=1/1;
 5/5=2,38=5/2;
 7/30=1/1,2,3,16;
 1/18=20,19=15,26=3/3(-5);
 2/9=110,15=1/2;
 6/7=2,8=2,9=2,10=2,19=2,28=1,44=1/1,4;
 99/9=1/99;
 -------------------
 Title Card Required
 -------------------
 Symbolic Z-matrix:
 Charge =  0 Multiplicity = 1
 C                     0.07288   0.27769   0.25063 
 C                     0.10193   0.21377   1.63466 
 C                     1.33091   0.11882   2.32957 
 C                     2.5215    0.09097   1.57881 
 C                     2.49864   0.15498   0.18573 
 C                     1.27019   0.2489   -0.48546 
 H                    -0.86622   0.35064  -0.28931 
 H                    -0.82608   0.23641   2.19813 
 H                     3.47339   0.01834   2.0965 
 H                     3.43539   0.13104  -0.3591 
 C                     1.36316   0.05341   3.74715 
 C                     1.39381  -0.00297   4.96828 
 O                     1.13092   0.31718  -1.8388 
 C                     2.30049   0.29358  -2.65113 
 H                     2.95303   1.1496   -2.43403 
 H                     2.86062  -0.64101  -2.51508 
 H                     1.94565   0.35849  -3.68093 
 C                     1.42953  -0.0657    6.32603 
 C                     1.46701  -0.12233   7.54565 
 C                     1.47738  -0.18684   8.97078 
 C                     0.26188  -0.15446   9.68537 
 C                     0.29945  -0.21894   11.07548 
 H                    -0.67789  -0.08043   9.14711 
 C                     2.69024  -0.33867   10.91707 
 C                     1.53876  -0.31332   11.71214 
 H                    -0.62229  -0.19593   11.65102 
 H                     3.67434  -0.41154   11.37708 
 H                     1.61744  -0.36615   12.79413 
 N                     2.67999  -0.27815   9.58305 
 

 GradGradGradGradGradGradGradGradGradGradGradGradGradGradGradGradGradGrad
 Berny optimization.
 Initialization pass.
                           ----------------------------
                           !    Initial Parameters    !
                           ! (Angstroms and Degrees)  !
 --------------------------                            --------------------------
 ! Name  Definition              Value          Derivative Info.                !
 --------------------------------------------------------------------------------
 ! R1    R(1,2)                  1.3858         estimate D2E/DX2                !
 ! R2    R(1,6)                  1.4058         estimate D2E/DX2                !
 ! R3    R(1,7)                  1.0857         estimate D2E/DX2                !
 ! R4    R(2,3)                  1.415          estimate D2E/DX2                !
 ! R5    R(2,8)                  1.0859         estimate D2E/DX2                !
 ! R6    R(3,4)                  1.4078         estimate D2E/DX2                !
 ! R7    R(3,11)                 1.4195         estimate D2E/DX2                !
 ! R8    R(4,5)                  1.3947         estimate D2E/DX2                !
 ! R9    R(4,9)                  1.086          estimate D2E/DX2                !
 ! R10   R(5,6)                  1.403          estimate D2E/DX2                !
 ! R11   R(5,10)                 1.0839         estimate D2E/DX2                !
 ! R12   R(6,13)                 1.3622         estimate D2E/DX2                !
 ! R13   R(11,12)                1.2228         estimate D2E/DX2                !
 ! R14   R(12,18)                1.3597         estimate D2E/DX2                !
 ! R15   R(13,14)                1.4242         estimate D2E/DX2                !
 ! R16   R(14,15)                1.0981         estimate D2E/DX2                !
 ! R17   R(14,16)                1.098          estimate D2E/DX2                !
 ! R18   R(14,17)                1.0912         estimate D2E/DX2                !
 ! R19   R(18,19)                1.2215         estimate D2E/DX2                !
 ! R20   R(19,20)                1.4266         estimate D2E/DX2                !
 ! R21   R(20,21)                1.4104         estimate D2E/DX2                !
 ! R22   R(20,29)                1.3526         estimate D2E/DX2                !
 ! R23   R(21,22)                1.3921         estimate D2E/DX2                !
 ! R24   R(21,23)                1.0855         estimate D2E/DX2                !
 ! R25   R(22,25)                1.3965         estimate D2E/DX2                !
 ! R26   R(22,26)                1.0869         estimate D2E/DX2                !
 ! R27   R(24,25)                1.3995         estimate D2E/DX2                !
 ! R28   R(24,27)                1.0887         estimate D2E/DX2                !
 ! R29   R(24,29)                1.3354         estimate D2E/DX2                !
 ! R30   R(25,28)                1.0861         estimate D2E/DX2                !
 ! A1    A(2,1,6)              120.2745         estimate D2E/DX2                !
 ! A2    A(2,1,7)              121.1922         estimate D2E/DX2                !
 ! A3    A(6,1,7)              118.5333         estimate D2E/DX2                !
 ! A4    A(1,2,3)              120.7814         estimate D2E/DX2                !
 ! A5    A(1,2,8)              119.9566         estimate D2E/DX2                !
 ! A6    A(3,2,8)              119.2619         estimate D2E/DX2                !
 ! A7    A(2,3,4)              118.2911         estimate D2E/DX2                !
 ! A8    A(2,3,11)             120.8819         estimate D2E/DX2                !
 ! A9    A(4,3,11)             120.827          estimate D2E/DX2                !
 ! A10   A(3,4,5)              121.1899         estimate D2E/DX2                !
 ! A11   A(3,4,9)              119.2348         estimate D2E/DX2                !
 ! A12   A(5,4,9)              119.5753         estimate D2E/DX2                !
 ! A13   A(4,5,6)              119.6864         estimate D2E/DX2                !
 ! A14   A(4,5,10)             119.1345         estimate D2E/DX2                !
 ! A15   A(6,5,10)             121.1791         estimate D2E/DX2                !
 ! A16   A(1,6,5)              119.7767         estimate D2E/DX2                !
 ! A17   A(1,6,13)             115.6013         estimate D2E/DX2                !
 ! A18   A(5,6,13)             124.622          estimate D2E/DX2                !
 ! A19   A(6,13,14)            118.8083         estimate D2E/DX2                !
 ! A20   A(13,14,15)           111.2431         estimate D2E/DX2                !
 ! A21   A(13,14,16)           111.2444         estimate D2E/DX2                !
 ! A22   A(13,14,17)           105.68           estimate D2E/DX2                !
 ! A23   A(15,14,16)           109.6268         estimate D2E/DX2                !
 ! A24   A(15,14,17)           109.4798         estimate D2E/DX2                !
 ! A25   A(16,14,17)           109.4791         estimate D2E/DX2                !
 ! A26   A(19,20,21)           119.9231         estimate D2E/DX2                !
 ! A27   A(19,20,29)           117.4969         estimate D2E/DX2                !
 ! A28   A(21,20,29)           122.58           estimate D2E/DX2                !
 ! A29   A(20,21,22)           118.7911         estimate D2E/DX2                !
 ! A30   A(20,21,23)           119.7651         estimate D2E/DX2                !
 ! A31   A(22,21,23)           121.4438         estimate D2E/DX2                !
 ! A32   A(21,22,25)           118.8379         estimate D2E/DX2                !
 ! A33   A(21,22,26)           120.3241         estimate D2E/DX2                !
 ! A34   A(25,22,26)           120.838          estimate D2E/DX2                !
 ! A35   A(25,24,27)           120.3223         estimate D2E/DX2                !
 ! A36   A(25,24,29)           124.0809         estimate D2E/DX2                !
 ! A37   A(27,24,29)           115.5968         estimate D2E/DX2                !
 ! A38   A(22,25,24)           118.1895         estimate D2E/DX2                !
 ! A39   A(22,25,28)           121.4492         estimate D2E/DX2                !
 ! A40   A(24,25,28)           120.3613         estimate D2E/DX2                !
 ! A41   A(20,29,24)           117.5206         estimate D2E/DX2                !
 ! A42   L(3,11,12,9,-1)       179.8661         estimate D2E/DX2                !
 ! A43   L(11,12,18,9,-1)      179.9305         estimate D2E/DX2                !
 ! A44   L(12,18,19,23,-1)     180.2529         estimate D2E/DX2                !
 ! A45   L(18,19,20,23,-1)     178.6566         estimate D2E/DX2                !
 ! A46   L(3,11,12,9,-2)       179.9937         estimate D2E/DX2                !
 ! A47   L(11,12,18,9,-2)      179.997          estimate D2E/DX2                !
 ! A48   L(12,18,19,23,-2)     180.0005         estimate D2E/DX2                !
 ! A49   L(18,19,20,23,-2)     179.9947         estimate D2E/DX2                !
 ! D1    D(6,1,2,3)              0.0001         estimate D2E/DX2                !
 ! D2    D(6,1,2,8)            179.9998         estimate D2E/DX2                !
 ! D3    D(7,1,2,3)           -180.0            estimate D2E/DX2                !
 ! D4    D(7,1,2,8)             -0.0003         estimate D2E/DX2                !
 ! D5    D(2,1,6,5)              0.003          estimate D2E/DX2                !
 ! D6    D(2,1,6,13)          -179.9976         estimate D2E/DX2                !
 ! D7    D(7,1,6,5)           -179.9969         estimate D2E/DX2                !
 ! D8    D(7,1,6,13)             0.0025         estimate D2E/DX2                !
 ! D9    D(1,2,3,4)             -0.0035         estimate D2E/DX2                !
 ! D10   D(1,2,3,11)           179.9914         estimate D2E/DX2                !
 ! D11   D(8,2,3,4)            179.9969         estimate D2E/DX2                !
 ! D12   D(8,2,3,11)            -0.0082         estimate D2E/DX2                !
 ! D13   D(2,3,4,5)              0.0037         estimate D2E/DX2                !
 ! D14   D(2,3,4,9)           -179.9992         estimate D2E/DX2                !
 ! D15   D(11,3,4,5)          -179.9912         estimate D2E/DX2                !
 ! D16   D(11,3,4,9)             0.0058         estimate D2E/DX2                !
 ! D17   D(2,3,20,21)           -0.0643         estimate D2E/DX2                !
 ! D18   D(2,3,20,29)          179.9309         estimate D2E/DX2                !
 ! D19   D(4,3,20,21)          179.925          estimate D2E/DX2                !
 ! D20   D(4,3,20,29)           -0.0798         estimate D2E/DX2                !
 ! D21   D(3,4,5,6)             -0.0007         estimate D2E/DX2                !
 ! D22   D(3,4,5,10)           179.9973         estimate D2E/DX2                !
 ! D23   D(9,4,5,6)           -179.9977         estimate D2E/DX2                !
 ! D24   D(9,4,5,10)             0.0003         estimate D2E/DX2                !
 ! D25   D(4,5,6,1)             -0.0028         estimate D2E/DX2                !
 ! D26   D(4,5,6,13)           179.9979         estimate D2E/DX2                !
 ! D27   D(10,5,6,1)           179.9993         estimate D2E/DX2                !
 ! D28   D(10,5,6,13)            0.0            estimate D2E/DX2                !
 ! D29   D(1,6,13,14)          179.9859         estimate D2E/DX2                !
 ! D30   D(5,6,13,14)           -0.0148         estimate D2E/DX2                !
 ! D31   D(6,13,14,15)         -61.2594         estimate D2E/DX2                !
 ! D32   D(6,13,14,16)          61.2735         estimate D2E/DX2                !
 ! D33   D(6,13,14,17)        -179.993          estimate D2E/DX2                !
 ! D34   D(19,20,21,22)        179.9952         estimate D2E/DX2                !
 ! D35   D(19,20,21,23)         -0.0029         estimate D2E/DX2                !
 ! D36   D(29,20,21,22)         -0.0013         estimate D2E/DX2                !
 ! D37   D(29,20,21,23)       -179.9994         estimate D2E/DX2                !
 ! D38   D(19,20,29,24)       -179.9952         estimate D2E/DX2                !
 ! D39   D(21,20,29,24)          0.0013         estimate D2E/DX2                !
 ! D40   D(20,21,22,25)          0.0002         estimate D2E/DX2                !
 ! D41   D(20,21,22,26)       -179.9981         estimate D2E/DX2                !
 ! D42   D(23,21,22,25)        179.9982         estimate D2E/DX2                !
 ! D43   D(23,21,22,26)         -0.0001         estimate D2E/DX2                !
 ! D44   D(21,22,25,24)          0.0008         estimate D2E/DX2                !
 ! D45   D(21,22,25,28)       -179.9991         estimate D2E/DX2                !
 ! D46   D(26,22,25,24)        179.9991         estimate D2E/DX2                !
 ! D47   D(26,22,25,28)         -0.0008         estimate D2E/DX2                !
 ! D48   D(27,24,25,22)        179.9986         estimate D2E/DX2                !
 ! D49   D(27,24,25,28)         -0.0015         estimate D2E/DX2                !
 ! D50   D(29,24,25,22)         -0.0008         estimate D2E/DX2                !
 ! D51   D(29,24,25,28)        179.9991         estimate D2E/DX2                !
 ! D52   D(25,24,29,20)         -0.0003         estimate D2E/DX2                !
 ! D53   D(27,24,29,20)       -179.9997         estimate D2E/DX2                !
 --------------------------------------------------------------------------------
 Trust Radius=3.00D-01 FncErr=1.00D-07 GrdErr=1.00D-06 EigMax=2.50D+02 EigMin=1.00D-04
 Number of steps in this run=    142 maximum allowed number of steps=    174.
 GradGradGradGradGradGradGradGradGradGradGradGradGradGradGradGradGradGrad

                          Input orientation:                          
 ---------------------------------------------------------------------
 Center     Atomic      Atomic             Coordinates (Angstroms)
 Number     Number       Type             X           Y           Z
 ---------------------------------------------------------------------
      1          6           0        0.072875    0.277685    0.250631
      2          6           0        0.101930    0.213773    1.634662
      3          6           0        1.330910    0.118822    2.329569
      4          6           0        2.521501    0.090970    1.578813
      5          6           0        2.498638    0.154975    0.185726
      6          6           0        1.270192    0.248896   -0.485461
      7          1           0       -0.866223    0.350643   -0.289308
      8          1           0       -0.826081    0.236408    2.198133
      9          1           0        3.473389    0.018340    2.096497
     10          1           0        3.435386    0.131038   -0.359098
     11          6           0        1.363164    0.053414    3.747148
     12          6           0        1.393809   -0.002970    4.968284
     13          8           0        1.130922    0.317181   -1.838796
     14          6           0        2.300491    0.293578   -2.651132
     15          1           0        2.953025    1.149604   -2.434031
     16          1           0        2.860623   -0.641010   -2.515080
     17          1           0        1.945646    0.358494   -3.680933
     18          6           0        1.429533   -0.065703    6.326027
     19          6           0        1.467009   -0.122333    7.545654
     20          6           0        1.477377   -0.186840    8.970781
     21          6           0        0.261875   -0.154460    9.685371
     22          6           0        0.299447   -0.218941   11.075478
     23          1           0       -0.677888   -0.080427    9.147115
     24          6           0        2.690242   -0.338665   10.917070
     25          6           0        1.538761   -0.313321   11.712142
     26          1           0       -0.622294   -0.195930   11.651022
     27          1           0        3.674338   -0.411538   11.377076
     28          1           0        1.617439   -0.366147   12.794134
     29          7           0        2.679992   -0.278154    9.583045
 ---------------------------------------------------------------------
                    Distance matrix (angstroms):
                    1          2          3          4          5
     1  C    0.000000
     2  C    1.385811   0.000000
     3  C    2.435133   1.415028   0.000000
     4  C    2.791899   2.423329   1.407806   0.000000
     5  C    2.429732   2.801264   2.441507   1.394744   0.000000
     6  C    1.405784   2.420948   2.818688   2.419079   1.402994
     7  H    1.085708   2.158174   3.426317   3.877368   3.403856
     8  H    2.145365   1.085917   2.164189   3.407494   3.887180
     9  H    3.877883   3.408551   2.157460   1.085985   2.149385
    10  H    3.420490   3.885081   3.414367   2.142963   1.083929
    11  C    3.733735   2.465568   1.419454   2.458624   3.739431
    12  C    4.907126   3.581754   2.642273   3.573378   4.911054
    13  O    2.342377   3.624145   4.177871   3.696611   2.448601
    14  C    3.658245   4.817475   5.077205   4.240558   2.847145
    15  H    4.032731   5.055570   5.136697   4.172510   2.838817
    16  H    4.032951   5.055828   5.136924   4.172620   2.838834
    17  H    4.355571   5.628124   6.046609   5.297934   3.911301
    18  C    6.234491   4.883599   4.001931   4.873703   6.236584
    19  C    7.437808   6.075873   5.223430   6.063056   7.437049
    20  C    8.844740   7.474690   6.649856   7.470513   8.850819
    21  C    9.446523   8.060713   7.438101   8.419170   9.764329
    22  C   10.838602   9.452791   8.812997   9.758085  11.115887
    23  H    8.935285   7.558546   7.110127   8.218556   9.510637
    24  C   11.000155   9.652339   8.706449   9.349658  10.744400
    25  C   11.569976  10.193033   9.394819  10.188895  11.575791
    26  H   11.431382  10.050862   9.529090  10.555338  11.887656
    27  H   11.715090  10.395564   9.361107   9.878639  11.267188
    28  H   12.654630  11.276830  10.479714  11.260982  12.649902
    29  N    9.705667   8.370495   7.388540   8.014306   9.409043
                    6          7          8          9         10
     6  C    0.000000
     7  H    2.147812   0.000000
     8  H    3.405318   2.490386   0.000000
     9  H    3.402020   4.963338   4.306196   0.000000
    10  H    2.172078   4.307776   4.970979   2.458473   0.000000
    11  C    4.238141   4.620767   2.688071   2.679352   4.600151
    12  C    5.460957   5.733678   3.557942   3.545739   5.706750
    13  O    1.362195   2.527968   4.487001   4.589443   2.744943
    14  C    2.398675   3.950892   5.770103   4.898104   2.562777
    15  H    2.727660   4.452508   6.047521   4.698534   2.361249
    16  H    2.727775   4.452731   6.047812   4.698603   2.361074
    17  H    3.267918   4.405654   6.500830   5.985683   3.647691
    18  C    6.820611   7.014734   4.713658   4.698227   6.982338
    19  C    8.042099   8.188669   5.829489   5.808499   8.150080
    20  C    9.468543   9.567162   7.166158   7.161141   9.538422
    21  C   10.228647  10.050968   7.575959   8.242250  10.537744
    22  C   11.611052  11.438600   8.959989   9.526401  11.861961
    23  H    9.833107   9.448141   6.957780   8.182547  10.360107
    24  C   11.505628  11.777372   9.418869   8.862465  11.310518
    25  C   12.213506  12.258042   9.818913   9.813940  12.227407
    26  H   12.291200  11.955322   9.464965  10.397571  12.681272
    27  H   12.121711  12.542015  10.243369   9.292703  11.751139
    28  H   13.298365  13.336372  10.890780  10.864245  13.287575
    29  N   10.180380  10.508776   8.191108   7.534307   9.979192
                   11         12         13         14         15
    11  C    0.000000
    12  C    1.222821   0.000000
    13  O    5.596988   6.819673   0.000000
    14  C    6.471031   7.678901   1.424198   0.000000
    15  H    6.475822   7.652049   2.089807   1.098050   0.000000
    16  H    6.476118   7.652410   2.089822   1.098050   1.794827
    17  H    7.457127   8.674338   2.014684   1.091155   1.787577
    18  C    2.582481   1.359661   8.179248   9.026463   8.974219
    19  C    3.803987   2.581171   9.400746  10.239244  10.169571
    20  C    5.230402   4.007590  10.826866  11.660925  11.577278
    21  C    6.043057   4.853363  11.566508  12.511834  12.482899
    22  C    7.410134   6.208228  12.952114  13.881163  13.835506
    23  H    5.774379   4.664821  11.140921  12.174122  12.199158
    24  C    7.302236   6.097662  12.867546  13.588515  13.436365
    25  C    7.975366   6.752551  13.571727  14.396256  14.291763
    26  H    8.153247   6.982900  13.612944  14.605954  14.593906
    27  H    7.985832   6.814716  13.478103  14.112947  13.917763
    28  H    9.060278   7.837464  14.656953  15.474432  15.361585
    29  N    5.991800   4.798543  11.541772  12.253407  12.104675
                   16         17         18         19         20
    16  H    0.000000
    17  H    1.787569   0.000000
    18  C    8.974640  10.029235   0.000000
    19  C   10.170032  11.247068   1.221516   0.000000
    20  C   11.577765  12.672116   2.647959   1.426624   0.000000
    21  C   12.483638  13.481702   3.557597   2.455966   1.410366
    22  C   13.836222  14.859175   4.884451   3.719165   2.412115
    23  H   12.200086  13.100931   3.521360   2.677128   2.165083
    24  C   13.436633  14.633596   4.768812   3.592985   2.298289
    25  C   14.292255  15.413100   5.392910   4.171480   2.744964
    26  H   14.594768  15.555402   5.708110   4.607022   3.404760
    27  H   13.917859  15.176461   5.538217   4.431223   3.266096
    28  H   15.362067  16.494261   6.477807   5.256293   3.830117
    29  N   12.104913  13.299537   3.495275   2.376251   1.352586
                   21         22         23         24         25
    21  C    0.000000
    22  C    1.392109   0.000000
    23  H    1.085521   2.166323   0.000000
    24  C    2.729099   2.399026   3.813624   0.000000
    25  C    2.400724   1.396477   3.398108   1.399532   0.000000
    26  H    2.155750   1.086916   2.507186   3.395873   2.165104
    27  H    3.817441   3.393810   4.901452   1.088743   2.163933
    28  H    3.398054   2.170841   4.318670   2.162182   1.086134
    29  N    2.423440   2.810313   3.391827   1.335436   2.415926
                   26         27         28         29
    26  H    0.000000
    27  H    4.310752   0.000000
    28  H    2.520334   2.498189   0.000000
    29  N    3.897228   2.055496   3.383468   0.000000
 Symmetry turned off by external request.
 Stoichiometry    C16H11NO
 Framework group  C1[X(C16H11NO)]
 Deg. of freedom    81
 Full point group                 C1      NOp   1
 Rotational constants (GHZ):           2.5995256           0.0936422           0.0904387
 Standard basis: 6-31+G(d) (6D, 7F)
   364 basis functions,   620 primitive gaussians,   364 cartesian basis functions
    61 alpha electrons       61 beta electrons
       nuclear repulsion energy       991.7844229738 Hartrees.
 NAtoms=   29 NActive=   29 NUniq=   29 SFac= 1.00D+00 NAtFMM=   60 NAOKFM=F Big=F
 Integral buffers will be    131072 words long.
 Raffenetti 2 integral format.
 Two-electron integral symmetry is turned off.
 Nuclear repulsion after empirical dispersion term =      991.7657269098 Hartrees.
 One-electron integrals computed using PRISM.
 NBasis=   364 RedAO= T EigKep=  3.01D-06  NBF=   364
 NBsUse=   358 1.00D-06 EigRej=  8.32D-07 NBFU=   358
 ExpMin= 4.38D-02 ExpMax= 5.48D+03 ExpMxC= 8.25D+02 IAcc=3 IRadAn=         5 AccDes= 0.00D+00
 Harris functional with IExCor=  402 and IRadAn=       5 diagonalized for initial guess.
 HarFok:  IExCor=  402 AccDes= 0.00D+00 IRadAn=         5 IDoV= 1 UseB2=F ITyADJ=14
 ICtDFT=  3500011 ScaDFX=  1.000000  1.000000  1.000000  1.000000
 FoFCou: FMM=F IPFlag=           0 FMFlag=      100000 FMFlg1=           0
         NFxFlg=           0 DoJE=T BraDBF=F KetDBF=T FulRan=T
         wScrn=  0.000000 ICntrl=       500 IOpCl=  0 I1Cent=   200000004 NGrid=           0
         NMat0=    1 NMatS0=      1 NMatT0=    0 NMatD0=    1 NMtDS0=    0 NMtDT0=    0
 Symmetry not used in FoFCou.
 Requested convergence on RMS density matrix=1.00D-08 within 128 cycles.
 Requested convergence on MAX density matrix=1.00D-06.
 Requested convergence on             energy=1.00D-06.
 No special actions if energy rises.
 SCF Done:  E(RB3LYP) =  -746.225339949     A.U. after   15 cycles
            NFock= 15  Conv=0.41D-08     -V/T= 2.0097

 **********************************************************************

            Population analysis using the SCF Density.

 **********************************************************************

 Alpha  occ. eigenvalues --  -19.20222 -14.34512 -10.27037 -10.25841 -10.25642
 Alpha  occ. eigenvalues --  -10.23543 -10.22497 -10.22250 -10.21555 -10.21487
 Alpha  occ. eigenvalues --  -10.21459 -10.21294 -10.21288 -10.21168 -10.20950
 Alpha  occ. eigenvalues --  -10.20892 -10.20662 -10.20432  -1.08524  -0.95601
 Alpha  occ. eigenvalues --   -0.87521  -0.81656  -0.81232  -0.79755  -0.77417
 Alpha  occ. eigenvalues --   -0.76731  -0.73800  -0.71232  -0.66311  -0.64281
 Alpha  occ. eigenvalues --   -0.63286  -0.62472  -0.59429  -0.55618  -0.54788
 Alpha  occ. eigenvalues --   -0.52504  -0.50161  -0.50024  -0.49377  -0.48535
 Alpha  occ. eigenvalues --   -0.46396  -0.44960  -0.44214  -0.43426  -0.41940
 Alpha  occ. eigenvalues --   -0.41699  -0.40667  -0.40089  -0.38651  -0.38124
 Alpha  occ. eigenvalues --   -0.36522  -0.34798  -0.34182  -0.33964  -0.30393
 Alpha  occ. eigenvalues --   -0.29371  -0.27192  -0.26973  -0.25871  -0.25038
 Alpha  occ. eigenvalues --   -0.21249
 Alpha virt. eigenvalues --   -0.07321  -0.03675  -0.02563  -0.02207  -0.02123
 Alpha virt. eigenvalues --   -0.00229   0.00164   0.01433   0.01963   0.02357
 Alpha virt. eigenvalues --    0.03128   0.03316   0.03587   0.04418   0.04663
 Alpha virt. eigenvalues --    0.04925   0.05501   0.05572   0.05800   0.06719
 Alpha virt. eigenvalues --    0.07199   0.07385   0.08651   0.08718   0.08958
 Alpha virt. eigenvalues --    0.09070   0.09286   0.10428   0.10458   0.10974
 Alpha virt. eigenvalues --    0.11523   0.12261   0.12505   0.13436   0.13555
 Alpha virt. eigenvalues --    0.14004   0.14064   0.14463   0.14726   0.14979
 Alpha virt. eigenvalues --    0.15209   0.15238   0.15540   0.15578   0.15923
 Alpha virt. eigenvalues --    0.16880   0.17055   0.17487   0.18222   0.18274
 Alpha virt. eigenvalues --    0.18711   0.19033   0.20080   0.20396   0.20820
 Alpha virt. eigenvalues --    0.20969   0.21238   0.21764   0.22020   0.22694
 Alpha virt. eigenvalues --    0.22752   0.22843   0.23769   0.23825   0.23946
 Alpha virt. eigenvalues --    0.24639   0.24730   0.25512   0.25753   0.25788
 Alpha virt. eigenvalues --    0.26332   0.27046   0.27173   0.27771   0.27904
 Alpha virt. eigenvalues --    0.28933   0.29257   0.29355   0.30049   0.30836
 Alpha virt. eigenvalues --    0.31264   0.31478   0.31662   0.32297   0.32972
 Alpha virt. eigenvalues --    0.34184   0.34584   0.35255   0.35570   0.36229
 Alpha virt. eigenvalues --    0.36341   0.37294   0.38802   0.38998   0.41674
 Alpha virt. eigenvalues --    0.43292   0.43669   0.45566   0.49333   0.50498
 Alpha virt. eigenvalues --    0.54631   0.56097   0.56641   0.59837   0.63926
 Alpha virt. eigenvalues --    0.64677   0.65200   0.65385   0.66868   0.66899
 Alpha virt. eigenvalues --    0.67618   0.67843   0.68254   0.69873   0.70778
 Alpha virt. eigenvalues --    0.70919   0.70963   0.71448   0.72075   0.72314
 Alpha virt. eigenvalues --    0.73182   0.73608   0.74644   0.75495   0.76064
 Alpha virt. eigenvalues --    0.76231   0.77423   0.77792   0.78700   0.80118
 Alpha virt. eigenvalues --    0.81773   0.81967   0.84246   0.86020   0.86887
 Alpha virt. eigenvalues --    0.88238   0.88745   0.89675   0.90130   0.90305
 Alpha virt. eigenvalues --    0.91839   0.91928   0.92988   0.95392   0.95839
 Alpha virt. eigenvalues --    0.96854   0.96867   0.97342   0.98019   0.99047
 Alpha virt. eigenvalues --    1.00062   1.02769   1.02799   1.04703   1.05565
 Alpha virt. eigenvalues --    1.08567   1.09077   1.10576   1.11832   1.12566
 Alpha virt. eigenvalues --    1.13272   1.14233   1.16595   1.17312   1.18634
 Alpha virt. eigenvalues --    1.19993   1.20458   1.21221   1.22598   1.22962
 Alpha virt. eigenvalues --    1.23083   1.23444   1.24697   1.25557   1.26462
 Alpha virt. eigenvalues --    1.27556   1.28610   1.29920   1.31590   1.36169
 Alpha virt. eigenvalues --    1.37246   1.38466   1.41487   1.42489   1.42922
 Alpha virt. eigenvalues --    1.44661   1.45043   1.45088   1.46601   1.47297
 Alpha virt. eigenvalues --    1.47668   1.48563   1.49447   1.49945   1.50538
 Alpha virt. eigenvalues --    1.50918   1.52985   1.54814   1.58999   1.61931
 Alpha virt. eigenvalues --    1.62765   1.64278   1.66911   1.71360   1.78484
 Alpha virt. eigenvalues --    1.79861   1.81823   1.82851   1.83754   1.84183
 Alpha virt. eigenvalues --    1.87084   1.87793   1.88146   1.88962   1.91371
 Alpha virt. eigenvalues --    1.93385   1.94399   1.95747   1.96244   1.98992
 Alpha virt. eigenvalues --    1.99151   2.00430   2.01671   2.02521   2.06771
 Alpha virt. eigenvalues --    2.08491   2.08670   2.09832   2.10990   2.14090
 Alpha virt. eigenvalues --    2.15002   2.16633   2.16823   2.17693   2.18638
 Alpha virt. eigenvalues --    2.21492   2.21894   2.22724   2.25161   2.27998
 Alpha virt. eigenvalues --    2.29214   2.29867   2.31159   2.34007   2.36524
 Alpha virt. eigenvalues --    2.36856   2.38788   2.41136   2.50325   2.52520
 Alpha virt. eigenvalues --    2.54105   2.57042   2.59631   2.61809   2.62595
 Alpha virt. eigenvalues --    2.64241   2.65259   2.65314   2.67221   2.69044
 Alpha virt. eigenvalues --    2.71308   2.73955   2.77267   2.78467   2.80552
 Alpha virt. eigenvalues --    2.82116   2.84098   2.85379   2.92946   3.02017
 Alpha virt. eigenvalues --    3.03956   3.08473   3.16172   3.18782   3.29960
 Alpha virt. eigenvalues --    3.34433   3.39900   3.49057   3.72451   4.19428
 Alpha virt. eigenvalues --    4.22158   4.24037   4.24973   4.26490   4.28006
 Alpha virt. eigenvalues --    4.28873   4.34053   4.38172   4.39008   4.40524
 Alpha virt. eigenvalues --    4.42768   4.50274   4.56172   4.65839   4.77898
 Alpha virt. eigenvalues --    4.88086   5.58333
          Condensed to atoms (all electrons):
               1          2          3          4          5          6
     1  C    9.641732   0.211762   0.390590  -1.830301  -1.438170  -0.621969
     2  C    0.211762   7.258349   0.519121  -0.140285  -1.006525  -0.492011
     3  C    0.390590   0.519121   6.273337   0.223370  -0.628264  -0.727647
     4  C   -1.830301  -0.140285   0.223370   7.980212   0.164694  -0.117334
     5  C   -1.438170  -1.006525  -0.628264   0.164694   7.993765   0.145713
     6  C   -0.621969  -0.492011  -0.727647  -0.117334   0.145713   8.001200
     7  H    0.347196  -0.095124   0.021802  -0.009070   0.029060   0.009963
     8  H   -0.090836   0.366297  -0.032042   0.026025  -0.017038   0.017184
     9  H   -0.011708   0.019825  -0.030161   0.331066  -0.059940   0.002595
    10  H    0.009374   0.007934   0.039218   0.005096   0.257108  -0.008153
    11  C   -0.138165  -0.108739   0.326434  -0.115407   0.039918  -0.155521
    12  C    0.056925   0.124937  -0.254456  -0.165744  -0.117861  -0.164628
    13  O   -0.564029  -0.021461  -0.035311   0.026291   0.145345   0.437685
    14  C    0.013533  -0.024024  -0.059928   0.108560  -0.104849  -0.143682
    15  H   -0.025345   0.001471  -0.001207   0.035399   0.053423  -0.081150
    16  H   -0.025439   0.001481  -0.001224   0.035457   0.053449  -0.081167
    17  H    0.044483   0.001402   0.000794  -0.016945  -0.068163   0.054312
    18  C   -0.004531  -0.091023   0.201849  -0.009460   0.042397   0.035491
    19  C   -0.004819   0.022766  -0.206673  -0.024510  -0.005564  -0.018650
    20  C    0.000212  -0.006203   0.028193   0.001556   0.002903   0.000713
    21  C   -0.000714  -0.001322  -0.040541   0.000433   0.000416  -0.000547
    22  C    0.000120   0.000357   0.010153  -0.000252  -0.000063   0.000098
    23  H   -0.000002  -0.000018   0.000027   0.000008   0.000000   0.000000
    24  C    0.000049   0.000070   0.005041  -0.000047  -0.000084   0.000044
    25  C   -0.000028  -0.000130  -0.002525   0.000087   0.000021  -0.000017
    26  H    0.000000   0.000000  -0.000001   0.000000   0.000000   0.000000
    27  H    0.000000   0.000000   0.000000   0.000000   0.000000   0.000000
    28  H    0.000000   0.000000   0.000000   0.000000   0.000000   0.000000
    29  N    0.000014   0.000084  -0.000844  -0.000248  -0.000012  -0.000005
               7          8          9         10         11         12
     1  C    0.347196  -0.090836  -0.011708   0.009374  -0.138165   0.056925
     2  C   -0.095124   0.366297   0.019825   0.007934  -0.108739   0.124937
     3  C    0.021802  -0.032042  -0.030161   0.039218   0.326434  -0.254456
     4  C   -0.009070   0.026025   0.331066   0.005096  -0.115407  -0.165744
     5  C    0.029060  -0.017038  -0.059940   0.257108   0.039918  -0.117861
     6  C    0.009963   0.017184   0.002595  -0.008153  -0.155521  -0.164628
     7  H    0.516193  -0.004361   0.000014  -0.000145  -0.004624   0.001518
     8  H   -0.004361   0.519774  -0.000152   0.000016   0.024748  -0.008378
     9  H    0.000014  -0.000152   0.517214  -0.004594   0.042554  -0.010534
    10  H   -0.000145   0.000016  -0.004594   0.536553  -0.009360   0.001912
    11  C   -0.004624   0.024748   0.042554  -0.009360   9.801979  -0.862370
    12  C    0.001518  -0.008378  -0.010534   0.001912  -0.862370  10.185193
    13  O   -0.006510  -0.000496  -0.000584  -0.012822  -0.001313   0.000221
    14  C   -0.001818   0.000250   0.000832  -0.002389   0.008730  -0.007531
    15  H    0.000005   0.000000   0.000003  -0.000740   0.000026  -0.000010
    16  H    0.000005   0.000000   0.000003  -0.000739   0.000026  -0.000010
    17  H   -0.000013   0.000000   0.000000   0.000145  -0.000044   0.000006
    18  C   -0.000093   0.000032   0.002622  -0.000210  -1.459730  -2.110747
    19  C    0.000015   0.000061   0.000194   0.000007  -0.103700  -1.521651
    20  C    0.000000  -0.000040   0.000032  -0.000001  -0.114998   0.046755
    21  C    0.000000  -0.000007   0.000004   0.000000   0.051473  -0.606574
    22  C    0.000000  -0.000001   0.000000   0.000000  -0.025791   0.193496
    23  H    0.000000   0.000000   0.000000   0.000000   0.000482   0.001480
    24  C    0.000000   0.000000  -0.000001   0.000000  -0.013971   0.109009
    25  C    0.000000   0.000000   0.000000   0.000000   0.004657  -0.071452
    26  H    0.000000   0.000000   0.000000   0.000000   0.000002  -0.000129
    27  H    0.000000   0.000000   0.000000   0.000000   0.000016  -0.000134
    28  H    0.000000   0.000000   0.000000   0.000000   0.000002  -0.000013
    29  N    0.000000   0.000000   0.000000   0.000000   0.001797  -0.038067
              13         14         15         16         17         18
     1  C   -0.564029   0.013533  -0.025345  -0.025439   0.044483  -0.004531
     2  C   -0.021461  -0.024024   0.001471   0.001481   0.001402  -0.091023
     3  C   -0.035311  -0.059928  -0.001207  -0.001224   0.000794   0.201849
     4  C    0.026291   0.108560   0.035399   0.035457  -0.016945  -0.009460
     5  C    0.145345  -0.104849   0.053423   0.053449  -0.068163   0.042397
     6  C    0.437685  -0.143682  -0.081150  -0.081167   0.054312   0.035491
     7  H   -0.006510  -0.001818   0.000005   0.000005  -0.000013  -0.000093
     8  H   -0.000496   0.000250   0.000000   0.000000   0.000000   0.000032
     9  H   -0.000584   0.000832   0.000003   0.000003   0.000000   0.002622
    10  H   -0.012822  -0.002389  -0.000740  -0.000739   0.000145  -0.000210
    11  C   -0.001313   0.008730   0.000026   0.000026  -0.000044  -1.459730
    12  C    0.000221  -0.007531  -0.000010  -0.000010   0.000006  -2.110747
    13  O    8.457119   0.082716  -0.035282  -0.035275  -0.062168  -0.000121
    14  C    0.082716   5.295029   0.389549   0.389570   0.395024   0.000946
    15  H   -0.035282   0.389549   0.530574  -0.044976  -0.028324   0.000000
    16  H   -0.035275   0.389570  -0.044976   0.530588  -0.028328   0.000000
    17  H   -0.062168   0.395024  -0.028324  -0.028328   0.495482   0.000000
    18  C   -0.000121   0.000946   0.000000   0.000000   0.000000  10.091842
    19  C    0.000020  -0.000225   0.000000   0.000000   0.000000  -0.935652
    20  C   -0.000001   0.000003   0.000000   0.000000   0.000000  -0.326954
    21  C    0.000000  -0.000002   0.000000   0.000000   0.000000  -0.071068
    22  C    0.000000   0.000000   0.000000   0.000000   0.000000  -0.085418
    23  H    0.000000   0.000000   0.000000   0.000000   0.000000   0.002862
    24  C    0.000000   0.000000   0.000000   0.000000   0.000000  -0.081301
    25  C    0.000000   0.000000   0.000000   0.000000   0.000000  -0.008005
    26  H    0.000000   0.000000   0.000000   0.000000   0.000000   0.000006
    27  H    0.000000   0.000000   0.000000   0.000000   0.000000   0.003510
    28  H    0.000000   0.000000   0.000000   0.000000   0.000000   0.000356
    29  N    0.000000   0.000000   0.000000   0.000000   0.000000  -0.051719
              19         20         21         22         23         24
     1  C   -0.004819   0.000212  -0.000714   0.000120  -0.000002   0.000049
     2  C    0.022766  -0.006203  -0.001322   0.000357  -0.000018   0.000070
     3  C   -0.206673   0.028193  -0.040541   0.010153   0.000027   0.005041
     4  C   -0.024510   0.001556   0.000433  -0.000252   0.000008  -0.000047
     5  C   -0.005564   0.002903   0.000416  -0.000063   0.000000  -0.000084
     6  C   -0.018650   0.000713  -0.000547   0.000098   0.000000   0.000044
     7  H    0.000015   0.000000   0.000000   0.000000   0.000000   0.000000
     8  H    0.000061  -0.000040  -0.000007  -0.000001   0.000000   0.000000
     9  H    0.000194   0.000032   0.000004   0.000000   0.000000  -0.000001
    10  H    0.000007  -0.000001   0.000000   0.000000   0.000000   0.000000
    11  C   -0.103700  -0.114998   0.051473  -0.025791   0.000482  -0.013971
    12  C   -1.521651   0.046755  -0.606574   0.193496   0.001480   0.109009
    13  O    0.000020  -0.000001   0.000000   0.000000   0.000000   0.000000
    14  C   -0.000225   0.000003  -0.000002   0.000000   0.000000   0.000000
    15  H    0.000000   0.000000   0.000000   0.000000   0.000000   0.000000
    16  H    0.000000   0.000000   0.000000   0.000000   0.000000   0.000000
    17  H    0.000000   0.000000   0.000000   0.000000   0.000000   0.000000
    18  C   -0.935652  -0.326954  -0.071068  -0.085418   0.002862  -0.081301
    19  C   10.516189   0.175081  -1.381391   0.776292   0.024703   0.555626
    20  C    0.175081   6.771372  -1.552428   0.974705  -0.017009   0.184281
    21  C   -1.381391  -1.552428  12.644005  -3.398547   0.281190  -1.585588
    22  C    0.776292   0.974705  -3.398547   7.424272  -0.003569   0.928238
    23  H    0.024703  -0.017009   0.281190  -0.003569   0.509875  -0.006338
    24  C    0.555626   0.184281  -1.585588   0.928238  -0.006338   5.952385
    25  C   -0.488120  -0.626836   1.664027  -0.673986   0.002161  -0.388144
    26  H   -0.006432   0.001131   0.002063   0.271874  -0.004430  -0.008464
    27  H   -0.005481   0.053393  -0.017264   0.024468   0.000021   0.411915
    28  H    0.000796   0.007412   0.000955   0.004978  -0.000118   0.000204
    29  N   -0.305953   0.284770   0.240173  -0.193523   0.005639   0.084756
              25         26         27         28         29
     1  C   -0.000028   0.000000   0.000000   0.000000   0.000014
     2  C   -0.000130   0.000000   0.000000   0.000000   0.000084
     3  C   -0.002525  -0.000001   0.000000   0.000000  -0.000844
     4  C    0.000087   0.000000   0.000000   0.000000  -0.000248
     5  C    0.000021   0.000000   0.000000   0.000000  -0.000012
     6  C   -0.000017   0.000000   0.000000   0.000000  -0.000005
     7  H    0.000000   0.000000   0.000000   0.000000   0.000000
     8  H    0.000000   0.000000   0.000000   0.000000   0.000000
     9  H    0.000000   0.000000   0.000000   0.000000   0.000000
    10  H    0.000000   0.000000   0.000000   0.000000   0.000000
    11  C    0.004657   0.000002   0.000016   0.000002   0.001797
    12  C   -0.071452  -0.000129  -0.000134  -0.000013  -0.038067
    13  O    0.000000   0.000000   0.000000   0.000000   0.000000
    14  C    0.000000   0.000000   0.000000   0.000000   0.000000
    15  H    0.000000   0.000000   0.000000   0.000000   0.000000
    16  H    0.000000   0.000000   0.000000   0.000000   0.000000
    17  H    0.000000   0.000000   0.000000   0.000000   0.000000
    18  C   -0.008005   0.000006   0.003510   0.000356  -0.051719
    19  C   -0.488120  -0.006432  -0.005481   0.000796  -0.305953
    20  C   -0.626836   0.001131   0.053393   0.007412   0.284770
    21  C    1.664027   0.002063  -0.017264   0.000955   0.240173
    22  C   -0.673986   0.271874   0.024468   0.004978  -0.193523
    23  H    0.002161  -0.004430   0.000021  -0.000118   0.005639
    24  C   -0.388144  -0.008464   0.411915   0.000204   0.084756
    25  C    6.223518   0.031399  -0.110650   0.279200   0.184008
    26  H    0.031399   0.524359  -0.000151  -0.004327   0.001635
    27  H   -0.110650  -0.000151   0.558137  -0.001929  -0.096404
    28  H    0.279200  -0.004327  -0.001929   0.518974   0.004141
    29  N    0.184008   0.001635  -0.096404   0.004141   7.031307
 Mulliken charges:
               1
     1  C    0.040066
     2  C   -0.548991
     3  C   -0.019108
     4  C   -0.508649
     5  C    0.518320
     6  C   -0.092517
     7  H    0.195988
     8  H    0.198963
     9  H    0.200717
    10  H    0.181788
    11  C   -1.189110
    12  C    1.218840
    13  O   -0.374026
    14  C   -0.340296
    15  H    0.206585
    16  H    0.206580
    17  H    0.212338
    18  C    0.854121
    19  C   -1.062926
    20  C    0.111957
    21  C   -0.228745
    22  C   -0.227903
    23  H    0.203037
    24  C   -0.147684
    25  C   -0.019185
    26  H    0.191465
    27  H    0.180554
    28  H    0.189369
    29  N   -0.151548
 Sum of Mulliken charges =   0.00000
 Mulliken charges with hydrogens summed into heavy atoms:
               1
     1  C    0.236053
     2  C   -0.350028
     3  C   -0.019108
     4  C   -0.307933
     5  C    0.700108
     6  C   -0.092517
    11  C   -1.189110
    12  C    1.218840
    13  O   -0.374026
    14  C    0.285207
    18  C    0.854121
    19  C   -1.062926
    20  C    0.111957
    21  C   -0.025708
    22  C   -0.036438
    24  C    0.032870
    25  C    0.170184
    29  N   -0.151548
 Electronic spatial extent (au):  <R**2>=          21053.4806
 Charge=              0.0000 electrons
 Dipole moment (field-independent basis, Debye):
    X=             -0.6763    Y=              0.0971    Z=             -1.3105  Tot=              1.4779
 Quadrupole moment (field-independent basis, Debye-Ang):
   XX=            -99.2717   YY=           -109.8197   ZZ=            -67.9902
   XY=              0.2822   XZ=            -22.8941   YZ=             -1.0607
 Traceless Quadrupole moment (field-independent basis, Debye-Ang):
   XX=             -6.9112   YY=            -17.4592   ZZ=             24.3703
   XY=              0.2822   XZ=            -22.8941   YZ=             -1.0607
 Octapole moment (field-independent basis, Debye-Ang**2):
  XXX=           -438.3696  YYY=             -2.0424  ZZZ=           -827.1001  XYY=           -157.0410
  XXY=              1.1299  XXZ=           -528.7109  XZZ=           -238.9746  YZZ=            -16.8759
  YYZ=           -519.1532  XYZ=             -2.5914
 Hexadecapole moment (field-independent basis, Debye-Ang**3):
 XXXX=          -1925.7356 YYYY=           -168.6792 ZZZZ=         -18033.8062 XXXY=             12.5340
 XXXZ=          -2191.5957 YYYX=             10.6943 YYYZ=            327.3803 ZZZX=          -2433.3907
 ZZZY=             18.8941 XXYY=           -374.1821 XXZZ=          -5068.0332 YYZZ=          -5016.8005
 XXYZ=             94.3645 YYXZ=           -727.5579 ZZXY=            -24.1348
 N-N= 9.917657269098D+02 E-N=-3.713850007151D+03  KE= 7.390275745466D+02
 Evaluate density.
 Using the total density.
 Monte-Carlo method of calculating molar volume:
 based on  0.001 e/bohr**3 density envelope.
 Number of points per bohr**3 =   20 CutOff= 1.00D-04
 Using the SCF density.
 There are       434 points.  Will hold       434 in memory.
 LenV=  4026239268 MDV=  4026531840.
 Box volume =10265.421 fraction occupied=0.230
 Integrated density= 7.3224335388827569D+01 error=-4.8775664611172431D+01
 Molar volume = 2365.304 bohr**3/mol (211.077 cm**3/mol)
 Recommended a0 for SCRF calculation =  5.31 angstrom ( 10.04 bohr)
 Calling FoFJK, ICntrl=      2127 FMM=F ISym2X=0 I1Cent= 0 IOpClX= 0 NMat=1 NMatS=1 NMatT=0.
 -------------------------------------------------------------------
 Center     Atomic                   Forces (Hartrees/Bohr)
 Number     Number              X              Y              Z
 -------------------------------------------------------------------
      1        6          -0.000005029    0.000000252    0.000014266
      2        6          -0.000005589    0.000001460   -0.000013095
      3        6           0.000009747   -0.000000345   -0.000002438
      4        6          -0.000005485   -0.000000197    0.000004405
      5        6          -0.000004132    0.000000271   -0.000006860
      6        6           0.000009631   -0.000000411    0.000002669
      7        1           0.000000379    0.000001194   -0.000003316
      8        1          -0.000000016    0.000000955    0.000000704
      9        1           0.000001005   -0.000000771    0.000000710
     10        1           0.000001205   -0.000000648    0.000000156
     11        6           0.000000245   -0.000000134    0.000005505
     12        6          -0.000001792    0.000000469   -0.000003778
     13        8          -0.000010346    0.000000955    0.000003756
     14        6           0.000011915   -0.000000582   -0.000001386
     15        1          -0.000001569   -0.000001570    0.000000120
     16        1          -0.000002077    0.000001053    0.000000172
     17        1          -0.000001096    0.000000031    0.000000541
     18        6           0.000008133   -0.000000415    0.000002622
     19        6          -0.000007656   -0.000000387   -0.000002100
     20        6           0.000010283   -0.000000626    0.000001335
     21        6          -0.000002127    0.000000183    0.000008228
     22        6          -0.000002238    0.000000603   -0.000005511
     23        1          -0.000000710    0.000000806   -0.000001376
     24        6          -0.000002915   -0.000000351   -0.000001789
     25        6           0.000000799   -0.000000255   -0.000002544
     26        1          -0.000000390    0.000000557   -0.000000161
     27        1           0.000001366   -0.000001189   -0.000001372
     28        1           0.000000915   -0.000000453    0.000000593
     29        7          -0.000002456   -0.000000455   -0.000000056
 -------------------------------------------------------------------
 Cartesian Forces:  Max     0.000014266 RMS     0.000004125

 GradGradGradGradGradGradGradGradGradGradGradGradGradGradGradGradGradGrad
 Berny optimization.
 FormGI is forming the generalized inverse of G from B-inverse, IUseBI=4.
 Internal  Forces:  Max     0.000010509 RMS     0.000002462
 Search for a local minimum.
 Step number   1 out of a maximum of  142
 All quantities printed in internal units (Hartrees-Bohrs-Radians)
 Mixed Optimization -- En-DIIS/RFO-DIIS
 Second derivative matrix not updated -- first step.
 ITU=  0
     Eigenvalues ---    0.00230   0.00947   0.01312   0.01372   0.01737
     Eigenvalues ---    0.01914   0.01957   0.02042   0.02044   0.02056
     Eigenvalues ---    0.02072   0.02091   0.02094   0.02109   0.02115
     Eigenvalues ---    0.02127   0.02147   0.02166   0.02173   0.02192
     Eigenvalues ---    0.02235   0.02364   0.02438   0.02622   0.03596
     Eigenvalues ---    0.04311   0.04432   0.04450   0.10057   0.10670
     Eigenvalues ---    0.16000   0.16000   0.16000   0.16000   0.16000
     Eigenvalues ---    0.16000   0.16000   0.16000   0.16000   0.16000
     Eigenvalues ---    0.16000   0.22000   0.22000   0.22422   0.22962
     Eigenvalues ---    0.24000   0.24420   0.25000   0.25000   0.25000
     Eigenvalues ---    0.25000   0.33899   0.33899   0.34680   0.34958
     Eigenvalues ---    0.35171   0.35263   0.35281   0.35289   0.35313
     Eigenvalues ---    0.35335   0.35524   0.40657   0.41184   0.41473
     Eigenvalues ---    0.41478   0.41834   0.42543   0.44250   0.44259
     Eigenvalues ---    0.44517   0.44908   0.45664   0.46421   0.47520
     Eigenvalues ---    0.52506   0.53016   0.53080   0.56769   0.94144
     Eigenvalues ---    0.94715
 RFO step:  Lambda= 0.00000000D+00 EMin= 2.30000000D-03
 Linear search not attempted -- first point.
 Iteration  1 RMS(Cart)=  0.00025477 RMS(Int)=  0.00000001
 Iteration  2 RMS(Cart)=  0.00000004 RMS(Int)=  0.00000000
 Variable       Old X    -DE/DX   Delta X   Delta X   Delta X     New X
                                 (Linear)    (Quad)   (Total)
    R1        2.61880  -0.00001   0.00000  -0.00002  -0.00002   2.61878
    R2        2.65655   0.00000   0.00000   0.00001   0.00001   2.65655
    R3        2.05169   0.00000   0.00000   0.00000   0.00000   2.05169
    R4        2.67401   0.00001   0.00000   0.00002   0.00002   2.67403
    R5        2.05209   0.00000   0.00000   0.00000   0.00000   2.05209
    R6        2.66037  -0.00001   0.00000  -0.00001  -0.00001   2.66035
    R7        2.68238   0.00000   0.00000   0.00000   0.00000   2.68238
    R8        2.63568   0.00000   0.00000   0.00000   0.00000   2.63569
    R9        2.05221   0.00000   0.00000   0.00000   0.00000   2.05222
   R10        2.65127  -0.00001   0.00000  -0.00001  -0.00001   2.65126
   R11        2.04833   0.00000   0.00000   0.00000   0.00000   2.04833
   R12        2.57418   0.00000   0.00000  -0.00001  -0.00001   2.57417
   R13        2.31080  -0.00001   0.00000  -0.00001  -0.00001   2.31079
   R14        2.56939   0.00000   0.00000   0.00000   0.00000   2.56938
   R15        2.69134   0.00001   0.00000   0.00002   0.00002   2.69136
   R16        2.07501   0.00000   0.00000  -0.00001  -0.00001   2.07501
   R17        2.07501   0.00000   0.00000  -0.00001  -0.00001   2.07501
   R18        2.06198   0.00000   0.00000   0.00000   0.00000   2.06198
   R19        2.30833   0.00000   0.00000  -0.00001  -0.00001   2.30833
   R20        2.69593   0.00000   0.00000  -0.00001  -0.00001   2.69592
   R21        2.66521   0.00000   0.00000   0.00001   0.00001   2.66521
   R22        2.55602  -0.00001   0.00000  -0.00001  -0.00001   2.55601
   R23        2.63070  -0.00001   0.00000  -0.00001  -0.00001   2.63069
   R24        2.05134   0.00000   0.00000   0.00000   0.00000   2.05134
   R25        2.63896   0.00000   0.00000   0.00000   0.00000   2.63896
   R26        2.05397   0.00000   0.00000   0.00000   0.00000   2.05397
   R27        2.64473   0.00000   0.00000   0.00000   0.00000   2.64473
   R28        2.05743   0.00000   0.00000   0.00000   0.00000   2.05743
   R29        2.52361   0.00000   0.00000  -0.00001  -0.00001   2.52360
   R30        2.05250   0.00000   0.00000   0.00000   0.00000   2.05250
    A1        2.09919   0.00000   0.00000  -0.00001  -0.00001   2.09918
    A2        2.11520   0.00000   0.00000   0.00002   0.00002   2.11523
    A3        2.06880   0.00000   0.00000  -0.00002  -0.00002   2.06878
    A4        2.10803   0.00000   0.00000  -0.00001  -0.00001   2.10803
    A5        2.09364   0.00000   0.00000   0.00001   0.00001   2.09364
    A6        2.08151   0.00000   0.00000   0.00000   0.00000   2.08151
    A7        2.06457   0.00000   0.00000   0.00001   0.00001   2.06458
    A8        2.10979   0.00000   0.00000   0.00000   0.00000   2.10978
    A9        2.10883   0.00000   0.00000  -0.00001  -0.00001   2.10882
   A10        2.11516   0.00000   0.00000   0.00000   0.00000   2.11516
   A11        2.08104   0.00000   0.00000   0.00000   0.00000   2.08104
   A12        2.08698   0.00000   0.00000   0.00000   0.00000   2.08698
   A13        2.08892   0.00000   0.00000  -0.00001  -0.00001   2.08891
   A14        2.07929   0.00000   0.00000   0.00000   0.00000   2.07929
   A15        2.11497   0.00000   0.00000   0.00001   0.00001   2.11498
   A16        2.09050   0.00000   0.00000   0.00002   0.00002   2.09051
   A17        2.01762   0.00000   0.00000  -0.00001  -0.00001   2.01762
   A18        2.17506   0.00000   0.00000  -0.00001  -0.00001   2.17505
   A19        2.07360  -0.00001   0.00000  -0.00004  -0.00004   2.07356
   A20        1.94156   0.00000   0.00000   0.00000   0.00000   1.94155
   A21        1.94158   0.00000   0.00000   0.00000   0.00000   1.94158
   A22        1.84446   0.00000   0.00000  -0.00001  -0.00001   1.84445
   A23        1.91335   0.00000   0.00000   0.00001   0.00001   1.91336
   A24        1.91078   0.00000   0.00000   0.00001   0.00001   1.91079
   A25        1.91077   0.00000   0.00000   0.00000   0.00000   1.91078
   A26        2.09305   0.00000   0.00000  -0.00001  -0.00001   2.09304
   A27        2.05071   0.00000   0.00000   0.00000   0.00000   2.05071
   A28        2.13942   0.00000   0.00000   0.00001   0.00001   2.13943
   A29        2.07330   0.00000   0.00000   0.00000   0.00000   2.07330
   A30        2.09030   0.00000   0.00000  -0.00001  -0.00001   2.09029
   A31        2.11959   0.00000   0.00000   0.00001   0.00001   2.11960
   A32        2.07411   0.00000   0.00000  -0.00001  -0.00001   2.07411
   A33        2.10005   0.00000   0.00000   0.00000   0.00000   2.10005
   A34        2.10902   0.00000   0.00000   0.00001   0.00001   2.10903
   A35        2.10002   0.00000   0.00000   0.00001   0.00001   2.10003
   A36        2.16562   0.00000   0.00000   0.00000   0.00000   2.16562
   A37        2.01754   0.00000   0.00000  -0.00001  -0.00001   2.01753
   A38        2.06280   0.00000   0.00000   0.00001   0.00001   2.06280
   A39        2.11969   0.00000   0.00000   0.00000   0.00000   2.11969
   A40        2.10070   0.00000   0.00000  -0.00001  -0.00001   2.10069
   A41        2.05112   0.00000   0.00000  -0.00001  -0.00001   2.05111
   A42        3.13926   0.00000   0.00000   0.00003   0.00003   3.13929
   A43        3.14038   0.00000   0.00000   0.00013   0.00013   3.14050
   A44        3.14601  -0.00001   0.00000  -0.00022  -0.00022   3.14578
   A45        3.11815   0.00000   0.00000   0.00016   0.00016   3.11831
   A46        3.14148   0.00000   0.00000   0.00000   0.00000   3.14149
   A47        3.14154   0.00000   0.00000   0.00001   0.00001   3.14154
   A48        3.14160   0.00000   0.00000   0.00000   0.00000   3.14160
   A49        3.14150   0.00000   0.00000   0.00005   0.00005   3.14155
    D1        0.00000   0.00000   0.00000   0.00000   0.00000   0.00000
    D2        3.14159   0.00000   0.00000   0.00000   0.00000   3.14159
    D3       -3.14159   0.00000   0.00000   0.00000   0.00000   3.14159
    D4       -0.00001   0.00000   0.00000   0.00000   0.00000  -0.00001
    D5        0.00005   0.00000   0.00000   0.00000   0.00000   0.00005
    D6       -3.14155   0.00000   0.00000   0.00000   0.00000  -3.14155
    D7       -3.14154   0.00000   0.00000   0.00000   0.00000  -3.14154
    D8        0.00004   0.00000   0.00000   0.00000   0.00000   0.00004
    D9       -0.00006   0.00000   0.00000   0.00000   0.00000  -0.00006
   D10        3.14144   0.00000   0.00000   0.00000   0.00000   3.14144
   D11        3.14154   0.00000   0.00000   0.00000   0.00000   3.14154
   D12       -0.00014   0.00000   0.00000   0.00000   0.00000  -0.00014
   D13        0.00007   0.00000   0.00000   0.00000   0.00000   0.00007
   D14       -3.14158   0.00000   0.00000   0.00000   0.00000  -3.14158
   D15       -3.14144   0.00000   0.00000   0.00000   0.00000  -3.14144
   D16        0.00010   0.00000   0.00000   0.00000   0.00000   0.00010
   D17       -0.00112   0.00000   0.00000  -0.00005  -0.00005  -0.00117
   D18        3.14039   0.00000   0.00000  -0.00001  -0.00001   3.14038
   D19        3.14028   0.00000   0.00000  -0.00005  -0.00005   3.14023
   D20       -0.00139   0.00000   0.00000  -0.00002  -0.00002  -0.00141
   D21       -0.00001   0.00000   0.00000   0.00000   0.00000  -0.00001
   D22        3.14155   0.00000   0.00000   0.00000   0.00000   3.14154
   D23       -3.14155   0.00000   0.00000   0.00000   0.00000  -3.14155
   D24        0.00000   0.00000   0.00000   0.00000   0.00000   0.00001
   D25       -0.00005   0.00000   0.00000   0.00000   0.00000  -0.00005
   D26        3.14156   0.00000   0.00000   0.00000   0.00000   3.14156
   D27        3.14158   0.00000   0.00000   0.00000   0.00000   3.14158
   D28        0.00000   0.00000   0.00000   0.00000   0.00000   0.00000
   D29        3.14135   0.00000   0.00000   0.00001   0.00001   3.14135
   D30       -0.00026   0.00000   0.00000   0.00000   0.00000  -0.00025
   D31       -1.06918   0.00000   0.00000  -0.00001  -0.00001  -1.06918
   D32        1.06942   0.00000   0.00000   0.00000   0.00000   1.06942
   D33       -3.14147   0.00000   0.00000  -0.00001  -0.00001  -3.14148
   D34        3.14151   0.00000   0.00000   0.00000   0.00000   3.14151
   D35       -0.00005   0.00000   0.00000   0.00000   0.00000  -0.00005
   D36       -0.00002   0.00000   0.00000   0.00000   0.00000  -0.00003
   D37       -3.14158   0.00000   0.00000   0.00000   0.00000  -3.14158
   D38       -3.14151   0.00000   0.00000   0.00000   0.00000  -3.14151
   D39        0.00002   0.00000   0.00000   0.00000   0.00000   0.00003
   D40        0.00000   0.00000   0.00000   0.00000   0.00000   0.00000
   D41       -3.14156   0.00000   0.00000   0.00000   0.00000  -3.14156
   D42        3.14156   0.00000   0.00000   0.00000   0.00000   3.14156
   D43        0.00000   0.00000   0.00000   0.00000   0.00000   0.00000
   D44        0.00001   0.00000   0.00000   0.00000   0.00000   0.00001
   D45       -3.14158   0.00000   0.00000   0.00000   0.00000  -3.14158
   D46        3.14158   0.00000   0.00000   0.00000   0.00000   3.14158
   D47       -0.00001   0.00000   0.00000   0.00000   0.00000  -0.00001
   D48        3.14157   0.00000   0.00000   0.00000   0.00000   3.14157
   D49       -0.00003   0.00000   0.00000   0.00000   0.00000  -0.00002
   D50       -0.00001   0.00000   0.00000   0.00000   0.00000  -0.00002
   D51        3.14158   0.00000   0.00000   0.00000   0.00000   3.14158
   D52        0.00000   0.00000   0.00000   0.00000   0.00000   0.00000
   D53       -3.14159   0.00000   0.00000   0.00000   0.00000  -3.14159
         Item               Value     Threshold  Converged?
 Maximum Force            0.000011     0.000450     YES
 RMS     Force            0.000002     0.000300     YES
 Maximum Displacement     0.001041     0.001800     YES
 RMS     Displacement     0.000255     0.001200     YES
 Predicted change in Energy=-2.515159D-09
 Optimization completed.
    -- Stationary point found.
                           ----------------------------
                           !   Optimized Parameters   !
                           ! (Angstroms and Degrees)  !
 --------------------------                            --------------------------
 ! Name  Definition              Value          Derivative Info.                !
 --------------------------------------------------------------------------------
 ! R1    R(1,2)                  1.3858         -DE/DX =    0.0                 !
 ! R2    R(1,6)                  1.4058         -DE/DX =    0.0                 !
 ! R3    R(1,7)                  1.0857         -DE/DX =    0.0                 !
 ! R4    R(2,3)                  1.415          -DE/DX =    0.0                 !
 ! R5    R(2,8)                  1.0859         -DE/DX =    0.0                 !
 ! R6    R(3,4)                  1.4078         -DE/DX =    0.0                 !
 ! R7    R(3,11)                 1.4195         -DE/DX =    0.0                 !
 ! R8    R(4,5)                  1.3947         -DE/DX =    0.0                 !
 ! R9    R(4,9)                  1.086          -DE/DX =    0.0                 !
 ! R10   R(5,6)                  1.403          -DE/DX =    0.0                 !
 ! R11   R(5,10)                 1.0839         -DE/DX =    0.0                 !
 ! R12   R(6,13)                 1.3622         -DE/DX =    0.0                 !
 ! R13   R(11,12)                1.2228         -DE/DX =    0.0                 !
 ! R14   R(12,18)                1.3597         -DE/DX =    0.0                 !
 ! R15   R(13,14)                1.4242         -DE/DX =    0.0                 !
 ! R16   R(14,15)                1.0981         -DE/DX =    0.0                 !
 ! R17   R(14,16)                1.098          -DE/DX =    0.0                 !
 ! R18   R(14,17)                1.0912         -DE/DX =    0.0                 !
 ! R19   R(18,19)                1.2215         -DE/DX =    0.0                 !
 ! R20   R(19,20)                1.4266         -DE/DX =    0.0                 !
 ! R21   R(20,21)                1.4104         -DE/DX =    0.0                 !
 ! R22   R(20,29)                1.3526         -DE/DX =    0.0                 !
 ! R23   R(21,22)                1.3921         -DE/DX =    0.0                 !
 ! R24   R(21,23)                1.0855         -DE/DX =    0.0                 !
 ! R25   R(22,25)                1.3965         -DE/DX =    0.0                 !
 ! R26   R(22,26)                1.0869         -DE/DX =    0.0                 !
 ! R27   R(24,25)                1.3995         -DE/DX =    0.0                 !
 ! R28   R(24,27)                1.0887         -DE/DX =    0.0                 !
 ! R29   R(24,29)                1.3354         -DE/DX =    0.0                 !
 ! R30   R(25,28)                1.0861         -DE/DX =    0.0                 !
 ! A1    A(2,1,6)              120.2745         -DE/DX =    0.0                 !
 ! A2    A(2,1,7)              121.1922         -DE/DX =    0.0                 !
 ! A3    A(6,1,7)              118.5333         -DE/DX =    0.0                 !
 ! A4    A(1,2,3)              120.7814         -DE/DX =    0.0                 !
 ! A5    A(1,2,8)              119.9566         -DE/DX =    0.0                 !
 ! A6    A(3,2,8)              119.2619         -DE/DX =    0.0                 !
 ! A7    A(2,3,4)              118.2911         -DE/DX =    0.0                 !
 ! A8    A(2,3,11)             120.8819         -DE/DX =    0.0                 !
 ! A9    A(4,3,11)             120.827          -DE/DX =    0.0                 !
 ! A10   A(3,4,5)              121.1899         -DE/DX =    0.0                 !
 ! A11   A(3,4,9)              119.2348         -DE/DX =    0.0                 !
 ! A12   A(5,4,9)              119.5753         -DE/DX =    0.0                 !
 ! A13   A(4,5,6)              119.6864         -DE/DX =    0.0                 !
 ! A14   A(4,5,10)             119.1345         -DE/DX =    0.0                 !
 ! A15   A(6,5,10)             121.1791         -DE/DX =    0.0                 !
 ! A16   A(1,6,5)              119.7767         -DE/DX =    0.0                 !
 ! A17   A(1,6,13)             115.6013         -DE/DX =    0.0                 !
 ! A18   A(5,6,13)             124.622          -DE/DX =    0.0                 !
 ! A19   A(6,13,14)            118.8083         -DE/DX =    0.0                 !
 ! A20   A(13,14,15)           111.2431         -DE/DX =    0.0                 !
 ! A21   A(13,14,16)           111.2444         -DE/DX =    0.0                 !
 ! A22   A(13,14,17)           105.68           -DE/DX =    0.0                 !
 ! A23   A(15,14,16)           109.6268         -DE/DX =    0.0                 !
 ! A24   A(15,14,17)           109.4798         -DE/DX =    0.0                 !
 ! A25   A(16,14,17)           109.4791         -DE/DX =    0.0                 !
 ! A26   A(19,20,21)           119.9231         -DE/DX =    0.0                 !
 ! A27   A(19,20,29)           117.4969         -DE/DX =    0.0                 !
 ! A28   A(21,20,29)           122.58           -DE/DX =    0.0                 !
 ! A29   A(20,21,22)           118.7911         -DE/DX =    0.0                 !
 ! A30   A(20,21,23)           119.7651         -DE/DX =    0.0                 !
 ! A31   A(22,21,23)           121.4438         -DE/DX =    0.0                 !
 ! A32   A(21,22,25)           118.8379         -DE/DX =    0.0                 !
 ! A33   A(21,22,26)           120.3241         -DE/DX =    0.0                 !
 ! A34   A(25,22,26)           120.838          -DE/DX =    0.0                 !
 ! A35   A(25,24,27)           120.3223         -DE/DX =    0.0                 !
 ! A36   A(25,24,29)           124.0809         -DE/DX =    0.0                 !
 ! A37   A(27,24,29)           115.5968         -DE/DX =    0.0                 !
 ! A38   A(22,25,24)           118.1895         -DE/DX =    0.0                 !
 ! A39   A(22,25,28)           121.4492         -DE/DX =    0.0                 !
 ! A40   A(24,25,28)           120.3613         -DE/DX =    0.0                 !
 ! A41   A(20,29,24)           117.5206         -DE/DX =    0.0                 !
 ! A42   L(3,11,12,9,-1)       179.8661         -DE/DX =    0.0                 !
 ! A43   L(11,12,18,9,-1)      179.9305         -DE/DX =    0.0                 !
 ! A44   L(12,18,19,23,-1)     180.2529         -DE/DX =    0.0                 !
 ! A45   L(18,19,20,23,-1)     178.6566         -DE/DX =    0.0                 !
 ! A46   L(3,11,12,9,-2)       179.9937         -DE/DX =    0.0                 !
 ! A47   L(11,12,18,9,-2)      179.997          -DE/DX =    0.0                 !
 ! A48   L(12,18,19,23,-2)     180.0005         -DE/DX =    0.0                 !
 ! A49   L(18,19,20,23,-2)     179.9947         -DE/DX =    0.0                 !
 ! D1    D(6,1,2,3)              0.0001         -DE/DX =    0.0                 !
 ! D2    D(6,1,2,8)            179.9998         -DE/DX =    0.0                 !
 ! D3    D(7,1,2,3)            180.0            -DE/DX =    0.0                 !
 ! D4    D(7,1,2,8)             -0.0003         -DE/DX =    0.0                 !
 ! D5    D(2,1,6,5)              0.003          -DE/DX =    0.0                 !
 ! D6    D(2,1,6,13)          -179.9976         -DE/DX =    0.0                 !
 ! D7    D(7,1,6,5)           -179.9969         -DE/DX =    0.0                 !
 ! D8    D(7,1,6,13)             0.0025         -DE/DX =    0.0                 !
 ! D9    D(1,2,3,4)             -0.0035         -DE/DX =    0.0                 !
 ! D10   D(1,2,3,11)           179.9914         -DE/DX =    0.0                 !
 ! D11   D(8,2,3,4)            179.9969         -DE/DX =    0.0                 !
 ! D12   D(8,2,3,11)            -0.0082         -DE/DX =    0.0                 !
 ! D13   D(2,3,4,5)              0.0037         -DE/DX =    0.0                 !
 ! D14   D(2,3,4,9)           -179.9992         -DE/DX =    0.0                 !
 ! D15   D(11,3,4,5)          -179.9912         -DE/DX =    0.0                 !
 ! D16   D(11,3,4,9)             0.0058         -DE/DX =    0.0                 !
 ! D17   D(2,3,20,21)           -0.0643         -DE/DX =    0.0                 !
 ! D18   D(2,3,20,29)          179.9309         -DE/DX =    0.0                 !
 ! D19   D(4,3,20,21)          179.925          -DE/DX =    0.0                 !
 ! D20   D(4,3,20,29)           -0.0798         -DE/DX =    0.0                 !
 ! D21   D(3,4,5,6)             -0.0007         -DE/DX =    0.0                 !
 ! D22   D(3,4,5,10)           179.9973         -DE/DX =    0.0                 !
 ! D23   D(9,4,5,6)           -179.9977         -DE/DX =    0.0                 !
 ! D24   D(9,4,5,10)             0.0003         -DE/DX =    0.0                 !
 ! D25   D(4,5,6,1)             -0.0028         -DE/DX =    0.0                 !
 ! D26   D(4,5,6,13)           179.9979         -DE/DX =    0.0                 !
 ! D27   D(10,5,6,1)           179.9993         -DE/DX =    0.0                 !
 ! D28   D(10,5,6,13)            0.0            -DE/DX =    0.0                 !
 ! D29   D(1,6,13,14)          179.9859         -DE/DX =    0.0                 !
 ! D30   D(5,6,13,14)           -0.0148         -DE/DX =    0.0                 !
 ! D31   D(6,13,14,15)         -61.2594         -DE/DX =    0.0                 !
 ! D32   D(6,13,14,16)          61.2735         -DE/DX =    0.0                 !
 ! D33   D(6,13,14,17)        -179.993          -DE/DX =    0.0                 !
 ! D34   D(19,20,21,22)        179.9952         -DE/DX =    0.0                 !
 ! D35   D(19,20,21,23)         -0.0029         -DE/DX =    0.0                 !
 ! D36   D(29,20,21,22)         -0.0013         -DE/DX =    0.0                 !
 ! D37   D(29,20,21,23)       -179.9994         -DE/DX =    0.0                 !
 ! D38   D(19,20,29,24)       -179.9952         -DE/DX =    0.0                 !
 ! D39   D(21,20,29,24)          0.0013         -DE/DX =    0.0                 !
 ! D40   D(20,21,22,25)          0.0002         -DE/DX =    0.0                 !
 ! D41   D(20,21,22,26)       -179.9981         -DE/DX =    0.0                 !
 ! D42   D(23,21,22,25)        179.9982         -DE/DX =    0.0                 !
 ! D43   D(23,21,22,26)         -0.0001         -DE/DX =    0.0                 !
 ! D44   D(21,22,25,24)          0.0008         -DE/DX =    0.0                 !
 ! D45   D(21,22,25,28)       -179.9991         -DE/DX =    0.0                 !
 ! D46   D(26,22,25,24)        179.9991         -DE/DX =    0.0                 !
 ! D47   D(26,22,25,28)         -0.0008         -DE/DX =    0.0                 !
 ! D48   D(27,24,25,22)        179.9986         -DE/DX =    0.0                 !
 ! D49   D(27,24,25,28)         -0.0015         -DE/DX =    0.0                 !
 ! D50   D(29,24,25,22)         -0.0008         -DE/DX =    0.0                 !
 ! D51   D(29,24,25,28)        179.9991         -DE/DX =    0.0                 !
 ! D52   D(25,24,29,20)         -0.0003         -DE/DX =    0.0                 !
 ! D53   D(27,24,29,20)       -179.9997         -DE/DX =    0.0                 !
 --------------------------------------------------------------------------------
 GradGradGradGradGradGradGradGradGradGradGradGradGradGradGradGradGradGrad

                          Input orientation:                          
 ---------------------------------------------------------------------
 Center     Atomic      Atomic             Coordinates (Angstroms)
 Number     Number       Type             X           Y           Z
 ---------------------------------------------------------------------
      1          6           0        0.072875    0.277685    0.250631
      2          6           0        0.101930    0.213773    1.634662
      3          6           0        1.330910    0.118822    2.329569
      4          6           0        2.521501    0.090970    1.578813
      5          6           0        2.498638    0.154975    0.185726
      6          6           0        1.270192    0.248896   -0.485461
      7          1           0       -0.866223    0.350643   -0.289308
      8          1           0       -0.826081    0.236408    2.198133
      9          1           0        3.473389    0.018340    2.096497
     10          1           0        3.435386    0.131038   -0.359098
     11          6           0        1.363164    0.053414    3.747148
     12          6           0        1.393809   -0.002970    4.968284
     13          8           0        1.130922    0.317181   -1.838796
     14          6           0        2.300491    0.293578   -2.651132
     15          1           0        2.953025    1.149604   -2.434031
     16          1           0        2.860623   -0.641010   -2.515080
     17          1           0        1.945646    0.358494   -3.680933
     18          6           0        1.429533   -0.065703    6.326027
     19          6           0        1.467009   -0.122333    7.545654
     20          6           0        1.477377   -0.186840    8.970781
     21          6           0        0.261875   -0.154460    9.685371
     22          6           0        0.299447   -0.218941   11.075478
     23          1           0       -0.677888   -0.080427    9.147115
     24          6           0        2.690242   -0.338665   10.917070
     25          6           0        1.538761   -0.313321   11.712142
     26          1           0       -0.622294   -0.195930   11.651022
     27          1           0        3.674338   -0.411538   11.377076
     28          1           0        1.617439   -0.366147   12.794134
     29          7           0        2.679992   -0.278154    9.583045
 ---------------------------------------------------------------------
                    Distance matrix (angstroms):
                    1          2          3          4          5
     1  C    0.000000
     2  C    1.385811   0.000000
     3  C    2.435133   1.415028   0.000000
     4  C    2.791899   2.423329   1.407806   0.000000
     5  C    2.429732   2.801264   2.441507   1.394744   0.000000
     6  C    1.405784   2.420948   2.818688   2.419079   1.402994
     7  H    1.085708   2.158174   3.426317   3.877368   3.403856
     8  H    2.145365   1.085917   2.164189   3.407494   3.887180
     9  H    3.877883   3.408551   2.157460   1.085985   2.149385
    10  H    3.420490   3.885081   3.414367   2.142963   1.083929
    11  C    3.733735   2.465568   1.419454   2.458624   3.739431
    12  C    4.907126   3.581754   2.642273   3.573378   4.911054
    13  O    2.342377   3.624145   4.177871   3.696611   2.448601
    14  C    3.658245   4.817475   5.077205   4.240558   2.847145
    15  H    4.032731   5.055570   5.136697   4.172510   2.838817
    16  H    4.032951   5.055828   5.136924   4.172620   2.838834
    17  H    4.355571   5.628124   6.046609   5.297934   3.911301
    18  C    6.234491   4.883599   4.001931   4.873703   6.236584
    19  C    7.437808   6.075873   5.223430   6.063056   7.437049
    20  C    8.844740   7.474690   6.649856   7.470513   8.850819
    21  C    9.446523   8.060713   7.438101   8.419170   9.764329
    22  C   10.838602   9.452791   8.812997   9.758085  11.115887
    23  H    8.935285   7.558546   7.110127   8.218556   9.510637
    24  C   11.000155   9.652339   8.706449   9.349658  10.744400
    25  C   11.569976  10.193033   9.394819  10.188895  11.575791
    26  H   11.431382  10.050862   9.529090  10.555338  11.887656
    27  H   11.715090  10.395564   9.361107   9.878639  11.267188
    28  H   12.654630  11.276830  10.479714  11.260982  12.649902
    29  N    9.705667   8.370495   7.388540   8.014306   9.409043
                    6          7          8          9         10
     6  C    0.000000
     7  H    2.147812   0.000000
     8  H    3.405318   2.490386   0.000000
     9  H    3.402020   4.963338   4.306196   0.000000
    10  H    2.172078   4.307776   4.970979   2.458473   0.000000
    11  C    4.238141   4.620767   2.688071   2.679352   4.600151
    12  C    5.460957   5.733678   3.557942   3.545739   5.706750
    13  O    1.362195   2.527968   4.487001   4.589443   2.744943
    14  C    2.398675   3.950892   5.770103   4.898104   2.562777
    15  H    2.727660   4.452508   6.047521   4.698534   2.361249
    16  H    2.727775   4.452731   6.047812   4.698603   2.361074
    17  H    3.267918   4.405654   6.500830   5.985683   3.647691
[...]
 07587,-0.00002685,0.00000069,0.00002005,0.00000476,0.00000072,0.000000
 89,0.00000469,-0.00000135,0.00000076,-0.00000021,0.00000022,-0.0000041
 8,0.00006790,-0.00001856,0.00044385,0.00007393,-0.00012520,-0.00040162
 ,-0.01645930,0.00171949,-0.01696280,-0.27397220,0.01804140,-0.12108307
 ,0.00468357,-0.00015546,0.00194310,0.28701059,-0.00000111,-0.00003012,
 -0.00000142,0.00000178,0.00003739,0.00000248,-0.00000082,-0.00001645,-
 0.00000186,-0.00000172,-0.00004227,-0.00000105,0.00000065,0.00002436,0
 .00000113,0.00000026,0.00000196,-0.00000002,0.,0.00000009,0.00000009,0
 .00000070,0.00001729,0.00000065,-0.00000014,-0.00000443,-0.00000033,0.
 00000031,0.00000611,0.00000044,0.00000084,0.00000663,0.00000035,0.0000
 0335,0.00007484,0.00000369,-0.00000039,-0.00000421,-0.00000024,0.00000
 032,0.00000395,0.00000013,-0.00000042,-0.00000060,0.00000027,0.0000003
 5,-0.00000060,-0.00000034,0.00000003,0.00000031,0.00000003,-0.00000752
 ,0.00009451,-0.00002742,-0.00017103,-0.00260737,-0.00009685,0.00029057
 ,0.00157734,0.00044070,0.01810209,-0.03785380,0.01056484,0.00122712,0.
 00331238,0.00049156,-0.01976833,0.02644679,-0.00001189,-0.00000164,0.0
 0002015,-0.00001087,0.00000178,0.00001012,-0.00000411,0.00000108,-0.00
 003536,0.00002038,-0.00000345,0.00001138,0.00000816,-0.00000043,0.0000
 2426,-0.00000697,0.00000343,-0.00006609,0.00000229,-0.00000035,0.00000
 530,-0.00000760,0.00000157,-0.00000933,0.00000362,-0.00000014,-0.00000
 545,-0.00000300,0.00000015,0.00000606,0.00001639,-0.00000233,0.0000394
 6,-0.00008883,0.00001381,-0.00012798,-0.00000933,-0.00000364,0.0000872
 3,0.00002828,-0.00000030,-0.00002182,-0.00000540,-0.00000067,-0.000000
 89,-0.00000527,0.00000124,-0.00000083,-0.00000002,-0.00000019,0.000004
 52,0.00019954,-0.00001456,0.00018500,0.00062707,-0.00015098,0.00001104
 ,0.01483525,-0.00124691,0.01183147,-0.12244306,0.01063766,-0.12858478,
 -0.02881614,0.00212189,-0.00981272,0.13050250,-0.01179359,0.13323152,-
 0.00020959,-0.00000080,0.00018955,-0.00015309,0.00001669,-0.00007816,-
 0.00004200,0.00000225,-0.00000360,0.00016108,-0.00000896,-0.00010221,0
 .00023116,-0.00001826,0.00021584,-0.00009892,0.00003115,-0.00055500,0.
 00001829,-0.00000238,0.00002047,-0.00000521,0.00000219,-0.00001979,0.0
 0000541,-0.00000024,-0.00002033,-0.00002242,0.00000032,0.00002833,-0.0
 0001954,0.00001032,-0.00007692,0.00033254,-0.00005863,-0.00008788,-0.0
 0006752,-0.00003370,0.00081714,0.00026837,-0.00000502,-0.00019601,-0.0
 0004905,-0.00001356,-0.00000721,-0.00004755,0.00001919,-0.00000572,-0.
 00000268,-0.00000140,0.00003445,-0.00033332,0.00002235,0.00011258,-0.0
 0406045,0.00080711,-0.00263403,0.01574320,0.00125554,-0.04379364,-0.01
 629556,-0.00062896,0.02328488,-0.05662648,0.00411762,-0.01624789,0.000
 53169,-0.00007223,0.00056387,0.73931350,0.00000706,-0.00005458,-0.0000
 1420,0.00001719,0.00009231,0.00001409,0.00000203,0.00000193,-0.0000253
 6,-0.00001664,-0.00009505,0.00000758,-0.00000844,0.00006200,-0.0000097
 3,0.00000521,0.00001729,0.00002706,-0.00000121,-0.00000904,-0.00000132
 ,0.00000096,0.00001828,0.00000168,-0.00000120,-0.00001517,0.00000048,0
 .00000135,0.00000793,-0.00000068,0.00000587,0.00010406,0.00006970,-0.0
 0005838,-0.00084053,-0.00013079,0.00000237,-0.00000497,-0.00003535,-0.
 00001132,0.00000027,0.00000877,0.00000389,0.00000097,0.00000017,0.0000
 0037,-0.00000017,0.00000044,0.00000008,0.00000041,-0.00000153,-0.00000
 012,0.00018900,0.00022660,0.00080221,0.00884901,0.00011178,0.00322754,
 0.00205800,0.00485034,-0.00114641,-0.00834035,0.00083222,0.00199526,0.
 00726479,-0.00205082,-0.00012955,-0.00034771,0.00001281,-0.03296288,0.
 15702271,0.00003164,-0.00000562,0.00003555,-0.00009254,0.00001453,-0.0
 0012170,0.00000581,-0.00002531,0.00056017,0.00006891,-0.00000180,-0.00
 013646,-0.00002027,0.00000279,0.00002002,0.00002458,-0.00000385,0.0000
 7628,-0.00000534,0.00000003,-0.00000364,0.00000503,0.00000036,0.000003
 87,0.00000347,-0.00000070,-0.00000269,0.00000573,0.00000051,-0.0000098
 4,0.00002446,0.00006330,-0.00134142,-0.00010511,-0.00012850,0.00215483
 ,0.00001973,0.00000733,-0.00019168,-0.00006704,0.00000175,0.00003801,0
 .00001096,0.00000452,0.00000170,0.00001028,-0.00000571,0.00000125,0.00
 000181,0.00000022,-0.00000660,0.00063355,0.00019750,-0.00497705,-0.002
 56759,0.00011013,0.00951634,-0.08753305,0.00716021,-0.05362094,0.03501
 449,0.00020577,-0.05430561,0.03089013,-0.00454494,0.07186184,0.0018494
 4,-0.00005601,-0.00129851,0.04283273,-0.02579639,0.67745779,0.00022657
 ,-0.00000108,-0.00022741,0.00021191,-0.00001686,0.00011950,0.00003296,
 0.00000820,-0.00019300,-0.00023092,0.00000556,0.00015164,-0.00024203,0
 .00002338,-0.00025507,0.00009973,-0.00003290,0.00059485,-0.00001931,0.
 00000212,-0.00002312,0.00000550,-0.00000148,0.00002362,-0.00000239,-0.
 00000060,0.00001983,0.00002291,0.00000017,-0.00003145,0.00001319,-0.00
 003089,0.00055279,-0.00013628,0.00005931,-0.00079629,0.00006719,0.0000
 3482,-0.00084379,-0.00027522,0.00000518,0.00020191,0.00005080,0.000013
 83,0.00000706,0.00004920,-0.00001954,0.00000542,0.00000303,0.00000140,
 -0.00003526,0.00075913,-0.00009412,0.00068210,-0.00008857,0.00002769,-
 0.00080062,-0.07130178,0.00339322,-0.00309513,0.03179199,0.00203025,-0
 .07559868,-0.29901096,0.01496394,-0.05208056,0.00199258,0.00024982,0.0
 0159215,-0.26831938,0.00860332,0.04522051,0.65676635,-0.00002029,0.000
 00406,0.00002250,-0.00002307,-0.00000191,-0.00001391,-0.00000152,0.000
 01873,0.00003213,0.00002412,0.00000413,-0.00001703,0.00002196,-0.00001
 108,0.00002420,-0.00000985,-0.00001432,-0.00005451,0.00000172,0.000000
 65,0.00000227,-0.00000041,-0.00000160,-0.00000224,0.00000037,0.0000019
 7,-0.00000183,-0.00000204,-0.00000082,0.00000274,-0.00000731,-0.000091
 04,-0.00009039,0.00002702,0.00029537,0.00014384,-0.00000535,0.00000138
 ,0.00007483,0.00002410,0.00000089,-0.00001782,-0.00000552,-0.00000099,
 0.00000069,-0.00000331,0.00000187,-0.00000173,-0.00000032,-0.00000083,
 0.00000309,-0.00007674,-0.00042480,-0.00021352,0.00003697,-0.00024720,
 0.00027552,0.00272396,-0.01009321,-0.00051114,0.00022516,0.00578841,0.
 00524328,0.01782350,-0.06249948,0.00783826,0.00028887,0.00801553,0.000
 52294,0.00539383,-0.06825134,0.00287842,-0.02884744,0.12852691,0.00018
 859,0.00000082,-0.00022800,0.00025888,-0.00002125,0.00016414,0.0000183
 0,0.00002097,-0.00046533,-0.00025891,0.00000463,0.00020391,-0.00021281
 ,0.00002162,-0.00024606,0.00008132,-0.00002724,0.00049350,-0.00001453,
 0.00000182,-0.00002230,0.00000080,-0.00000106,0.00002028,-0.00000328,-
 0.00000059,0.00001945,0.00001736,0.00000015,-0.00002467,0.00003533,-0.
 00006293,0.00126185,-0.00008525,0.00010587,-0.00195521,0.00004492,0.00
 002787,-0.00066473,-0.00020986,0.00000369,0.00015958,0.00004001,0.0000
 0983,0.00000506,0.00003886,-0.00001428,0.00000386,0.00000266,0.0000010
 9,-0.00002781,0.00029788,-0.00019315,0.00351770,-0.00099099,0.00028497
 ,-0.00541692,0.01181335,-0.00130776,0.00514942,-0.03529491,0.00309762,
 -0.02131777,-0.11584783,0.01122867,-0.17429524,0.00073323,0.00056844,-
 0.00545471,0.11679895,-0.00091329,-0.18518180,0.01480720,-0.02888548,0
 .75072504,-0.00002144,-0.00000039,0.00002576,-0.00002476,0.00000222,-0
 .00000857,-0.00000257,-0.00000041,0.00001335,0.00002276,-0.00000129,-0
 .00001263,0.00002484,-0.00000237,0.00002811,-0.00001159,0.00000381,-0.
 00007171,0.00000244,-0.00000027,0.00000357,-0.00000150,0.00000045,-0.0
 0000405,0.00000200,0.00000008,-0.00000383,-0.00000286,0.00000009,0.000
 00362,0.00000649,0.00000226,-0.00006800,-0.00002321,-0.00000068,0.0000
 9985,-0.00000712,-0.00000413,0.00009801,0.00003070,-0.00000041,-0.0000
 2379,-0.00000589,-0.00000111,-0.00000091,-0.00000572,0.00000175,-0.000
 00077,-0.00000007,-0.00000018,0.00000449,-0.00000476,-0.00000250,-0.00
 016506,0.00005254,-0.00001288,0.00012010,0.00208765,0.00041203,-0.0014
 0216,0.00507915,0.00007451,-0.00201144,-0.26173466,0.00610138,0.125520
 99,0.00078530,-0.00028059,0.00034111,-0.00347596,0.00083408,-0.0045450
 7,-0.01800415,0.00043148,0.01737826,0.27517050,0.00000042,-0.00000613,
 -0.00000045,0.00000025,0.00000999,0.00000162,-0.00000015,0.00000149,-0
 .00000208,-0.00000060,-0.00001264,0.00000070,-0.00000048,0.00000332,-0
 .00000006,0.00000003,-0.00000058,0.00000049,0.,0.00000044,0.00000019,0
 .00000009,0.00000353,0.00000005,0.00000016,0.00000021,-0.00000013,0.00
 000013,0.00000199,0.00000021,-0.00000077,-0.00000900,0.00000368,0.0000
 0835,0.00004829,-0.00000320,0.00000003,-0.00000140,-0.00000081,-0.0000
 0017,0.00000197,0.00000032,-0.00000017,-0.00000033,-0.00000012,0.00000
 024,-0.00000042,0.00000010,0.00000002,0.00000032,-0.00000001,-0.000009
 92,-0.00019224,0.00001508,-0.00006552,-0.00008418,0.00001093,0.0004347
 0,0.00861800,0.00069536,-0.00130766,0.00481184,0.00083686,0.00610838,-
 0.04056507,-0.00221530,-0.00024572,-0.00419072,-0.00024090,0.00078109,
 0.00831752,0.00065776,0.00181425,0.00482049,-0.00127745,-0.00711665,0.
 02656407,0.00000914,0.00000045,-0.00002668,0.00003571,-0.00000068,-0.0
 0001532,0.00000791,-0.00000172,0.00003040,-0.00002834,0.00000143,-0.00
 001259,-0.00001529,0.00000226,-0.00002880,0.00001255,-0.00000399,0.000
 07339,-0.00000242,0.00000050,-0.00000788,0.00000375,-0.00000036,0.0000
 0712,-0.00000573,-0.00000004,0.00000748,0.00000285,0.00000025,-0.00000
 680,-0.00000055,0.00000003,-0.00000895,-0.00010177,0.00000752,0.000000
 29,0.00000590,0.00000411,-0.00009937,-0.00003009,0.00000061,0.00002293
 ,0.00000578,0.00000063,0.00000094,0.00000570,-0.00000133,0.00000086,0.
 00000009,0.00000022,-0.00000469,0.00000084,0.00000623,-0.00033125,0.00
 129026,-0.00005110,-0.00047367,-0.00190125,0.00072271,-0.00515435,0.02
 873411,-0.00079289,-0.01147728,0.12535393,-0.00220769,-0.13903810,-0.0
 0043753,-0.00019996,0.00074873,-0.00337782,0.00059562,-0.00087727,-0.0
 1337153,0.00035422,0.01275031,-0.13538400,0.00192650,0.14306376,0.0000
 2654,-0.00000025,-0.00003372,0.00003095,-0.00000183,0.00001019,0.00000
 404,0.00000057,-0.00001711,-0.00003193,0.00000061,0.00001459,-0.000029
 50,0.00000354,-0.00003716,0.00001412,-0.00000513,0.00009413,-0.0000030
 5,0.00000038,-0.00000449,0.00000274,-0.00000023,0.00000540,-0.00000280
 ,-0.00000013,0.00000582,0.00000383,0.00000014,-0.00000547,-0.00000386,
 -0.00000195,0.00008114,0.00001177,-0.00000208,-0.00011827,0.00001107,0
 .00000511,-0.00012723,-0.00004172,0.00000085,0.00003157,0.00000778,0.0
 0000164,0.00000121,0.00000757,-0.00000259,0.00000102,-0.00000003,0.000
 00028,-0.00000584,-0.00004997,0.00000072,0.00014184,0.00006102,0.00003
 377,-0.00023933,0.00300722,0.00031477,0.00205330,0.00043589,-0.0000756
 5,0.00068068,-0.00277265,0.00032710,0.00429821,-0.00004689,-0.00009077
 ,-0.00005819,-0.29159227,0.01762178,-0.09694259,-0.01797254,0.00188088
 ,-0.01286213,-0.00100578,0.00006603,-0.00076470,0.30340170,-0.00000274
 ,-0.00000768,0.00000302,-0.00000308,0.00000476,0.00000008,-0.00000026,
 -0.00000015,0.00000030,0.00000331,-0.00000739,-0.00000092,0.00000283,0
 .00000632,0.00000407,-0.00000144,-0.00000240,-0.00000948,0.00000032,0.
 00000034,0.00000058,-0.00000026,0.00000299,-0.00000053,0.00000033,-0.0
 0000024,-0.00000068,-0.00000029,0.00000169,0.00000079,0.00000235,0.000
 02900,-0.00000460,-0.00001323,-0.00012811,0.00000351,-0.00000127,-0.00
 000159,0.00001264,0.00000434,0.00000208,-0.00000303,-0.00000081,-0.000
 00067,-0.00000018,-0.00000077,-0.00000023,-0.00000008,0.,0.00000025,0.
 00000059,0.00001272,0.00008564,0.00000504,0.00005991,0.00048578,0.0000
 4706,0.00044592,0.01063044,0.00055443,-0.00004009,-0.00040822,-0.00002
 161,0.00037650,0.00700648,0.00017891,-0.00008375,-0.00179933,-0.000087
 26,0.01756311,-0.04275222,0.00756016,0.00054617,0.00653857,0.00045965,
 -0.00001227,-0.00040910,0.00000031,-0.01957532,0.02815742,0.00002104,0
 .00000014,-0.00003504,0.00003715,-0.00000131,-0.00000893,0.00000090,-0
 .00000065,0.00001358,-0.00004410,0.00000209,-0.00000357,-0.00002089,0.
 00000319,-0.00003997,0.00001233,-0.00000515,0.00009716,-0.00000307,0.0
 0000050,-0.00000717,0.00000590,-0.00000055,0.00000837,-0.00000432,-0.0
 0000015,0.00000802,0.00000391,0.00000030,-0.00000934,-0.00001442,0.000
 00048,0.00003514,0.00012897,-0.00000966,-0.00006656,0.00001394,0.00000
 521,-0.00013251,-0.00004499,0.00000096,0.00003249,0.00000812,0.0000019
 6,0.00000124,0.00000787,-0.00000293,0.00000102,0.00000027,0.00000027,-
 0.00000604,-0.00012213,0.00001910,-0.00019447,-0.00082372,0.00007784,-
 0.00026864,-0.00085908,0.00070897,-0.00407754,-0.00010224,0.00001982,-
 0.00073099,0.00318946,0.00023803,-0.00202388,-0.00021443,-0.00007902,0
 .00020320,-0.09566400,0.00749227,-0.09525700,0.01684397,-0.00111606,0.
 01153635,0.00097678,-0.00009211,0.00048569,0.10898454,-0.00982066,0.11
 653449,0.00000512,0.,-0.00000300,0.00000064,-0.00000059,0.00000376,0.0
 0000129,-0.00000010,-0.00000338,-0.00000377,0.00000027,0.00000278,-0.0
 0000383,0.00000020,-0.00000404,0.00000139,-0.00000037,0.00000968,-0.00
 000034,0.00000009,0.,0.00000054,-0.00000003,0.00000086,0.00000055,0.00
 000012,-0.00000037,0.00000040,0.00000002,-0.00000029,0.00000474,-0.000
 00097,0.00000847,-0.00003647,0.00000788,-0.00000422,0.00000102,0.00000
 049,-0.00001339,-0.00000405,0.00000012,0.00000325,0.00000078,0.0000001
 4,0.00000008,0.00000079,-0.00000027,0.00000008,0.00000007,0.00000003,-
 0.00000059,0.00007503,-0.00000370,0.00001876,0.00019964,-0.00010422,0.
 00012100,-0.00208774,0.00012281,-0.00058274,-0.00499000,0.00074967,-0.
 00178832,0.00355502,0.00127691,-0.02947023,0.00017071,0.00007467,-0.00
 147009,0.00898486,-0.00163140,0.02674798,-0.06155506,0.00229263,-0.019
 48055,0.00081833,-0.00027036,0.00043261,0.00031321,-0.00015284,-0.0004
 8324,0.05876587,-0.00000098,0.00000230,0.00000145,-0.00000146,-0.00000
 703,-0.00000051,-0.00000037,-0.00000344,-0.00000039,0.00000144,0.00000
 363,-0.00000013,0.00000098,-0.00000341,0.00000137,-0.00000044,0.000002
 80,-0.00000396,0.00000021,0.00000127,0.00000026,-0.00000015,0.00000075
 ,-0.00000027,0.00000026,0.00000238,-0.00000014,-0.00000015,0.00000045,
 0.00000027,-0.00000074,-0.00000608,-0.00000180,0.00000835,0.00010768,0
 .00000559,-0.00000055,-0.00000141,0.00000543,0.00000182,0.00000103,-0.
 00000132,-0.00000068,-0.00000041,-0.00000025,-0.00000001,-0.00000030,0
 .00000012,0.00000001,0.00000017,0.00000027,-0.00000411,0.00002177,0.00
 000188,-0.00009587,-0.00165439,-0.00008033,0.00007091,-0.00026751,-0.0
 0004102,0.00078607,0.00756463,0.00038644,-0.00011534,0.00256056,0.0020
 7438,-0.00000472,0.00032796,0.00011216,-0.00016265,0.00095503,-0.00082
 183,0.00228996,-0.03564800,0.01477381,-0.00023272,-0.00389009,-0.00023
 094,-0.00019999,-0.00296219,-0.00012633,-0.00279616,0.02543012,0.00001
 802,0.00000036,-0.00002619,0.00002352,-0.00000152,-0.00000049,0.000002
 43,-0.00000071,0.00000967,-0.00002316,0.00000122,0.00000302,-0.0000206
 9,0.00000223,-0.00002882,0.00001098,-0.00000401,0.00007883,-0.00000267
 ,0.00000040,-0.00000459,0.00000362,-0.00000042,0.00000583,-0.00000371,
 0.00000003,0.00000592,0.00000333,0.00000008,-0.00000513,0.00000367,-0.
 00000155,0.00002345,-0.00001515,0.00000618,-0.00001074,0.00000948,0.00
 000421,-0.00010547,-0.00003414,0.00000062,0.00002646,0.00000640,0.0000
 0111,0.00000108,0.00000627,-0.00000189,0.00000096,-0.00000014,0.000000
 25,-0.00000510,0.00002971,0.00000127,-0.00004215,-0.00006460,-0.000070
 59,-0.00001587,0.00056966,-0.00010150,0.00132200,-0.00259806,0.0004296
 1,0.00113156,0.00150426,0.00043059,-0.00870475,0.00029633,0.00001835,-
 0.00042540,-0.00590874,0.00091075,-0.01238170,-0.01943322,0.01477176,-
 0.34042609,-0.00041093,-0.00018626,0.00071044,0.00056378,-0.00018217,0
 .00040668,0.02180776,-0.01621272,0.35937309,0.00018256,0.00000505,-0.0
 0027625,0.00035695,-0.00002996,0.00027508,0.00002384,0.00004636,-0.001
 04013,-0.00041900,0.00000672,0.00031744,-0.00017174,0.00002073,-0.0002
 9584,0.00004878,-0.00002397,0.00046308,-0.00001060,0.00000111,-0.00001
 749,0.00000685,-0.00000248,0.00002427,0.00000426,-0.00000127,0.0000192
 4,0.00001281,0.00000047,-0.00003070,0.00000559,-0.00013832,0.00294409,
 0.00028612,0.00025608,-0.00533552,0.00005290,0.00002216,-0.00054433,-0
 .00018564,0.00000291,0.00013879,0.00003456,0.00001080,0.00000333,0.000
 03316,-0.00001439,0.00000220,0.00000224,0.00000090,-0.00002258,-0.0009
 1380,-0.00036092,0.01054171,-0.00215724,0.00177132,-0.03928100,-0.2732
 5385,0.01357325,-0.06096656,-0.06607331,0.00378383,0.01992146,-0.01818
 343,0.00203666,-0.03368828,-0.00489934,0.00044223,0.00420014,-0.124169
 10,0.00283699,0.00847735,0.04506554,-0.00219341,0.02270512,0.00024932,
 -0.00019600,-0.00048008,0.00621355,0.00087060,-0.03183453,-0.00421873,
 0.00045709,0.00365602,0.44207673,-0.00001349,0.00003804,0.00003237,-0.
 00003954,0.00002514,-0.00001811,0.00000402,0.00001237,0.00009018,0.000
 04206,-0.00001780,-0.00002672,0.00001539,-0.00003057,0.00003110,-0.000
 00690,-0.00000754,-0.00005745,0.00000119,-0.00000506,0.00000336,-0.000
 00280,-0.00001981,-0.00000495,0.00000127,-0.00000353,-0.00000424,-0.00
 000205,-0.00000463,0.00000398,-0.00000563,-0.00010595,-0.00027828,-0.0
 0006585,0.00060242,0.00053183,-0.00000562,0.00000388,0.00006764,0.0000
 2168,-0.00000839,-0.00001744,-0.00000306,0.00000052,-0.00000051,-0.000
 00505,0.00000294,-0.00000029,-0.00000009,-0.00000026,0.00000306,0.0001
 4253,0.00119403,-0.00089094,0.00183170,-0.00227296,0.00419106,0.013765
 15,-0.07017947,0.00631792,0.00600284,0.02185465,-0.00298295,0.00216772
 ,-0.00864675,0.00383950,0.00048238,0.00695012,0.00011681,0.00394692,-0
 .06425038,0.01252537,-0.00502766,0.02326765,0.00209298,-0.00019529,-0.
 00384156,-0.00013291,-0.00030227,-0.00447224,0.00268345,0.00043496,0.0
 0746177,0.00018432,-0.02318452,0.09245337,0.00012868,0.00001103,-0.000
 35794,0.00048805,-0.00002879,0.00010142,-0.00009809,0.00004062,-0.0007
 7244,-0.00046576,0.00001405,0.00020326,-0.00017065,0.00002463,-0.00037
 347,0.00008287,-0.00003739,0.00072289,-0.00001959,0.00000348,-0.000059
 37,0.00003169,-0.00000526,0.00006195,-0.00003795,-0.00000136,0.0000684
 7,0.00002518,0.00000110,-0.00005750,-0.00002250,-0.00012110,0.00261296
 ,0.00186208,0.00014908,-0.00492393,0.00007060,0.00003521,-0.00085504,-
 0.00027258,0.00000396,0.00021630,0.00005269,0.00000785,0.00000756,0.00
 005148,-0.00001373,0.00000659,-0.00000082,0.00000192,-0.00004162,-0.00
 070933,-0.00029205,0.00855775,-0.04058830,0.00425724,-0.04889551,-0.06
 529802,0.00655691,-0.13751434,-0.02950482,-0.00035198,0.06488126,-0.03
 676444,0.00400001,-0.05404020,0.00329761,0.00016495,-0.00057556,-0.016
 11985,0.01381711,-0.35201374,0.08596259,-0.00126500,-0.05028380,-0.000
 50106,-0.00013095,-0.00033934,-0.00575115,0.00130010,-0.02650181,0.004
 14741,0.00015852,-0.00091650,0.10012399,-0.02830015,0.60108171\\0.0000
 0504,-0.00000026,-0.00001422,0.00000557,-0.00000146,0.00001307,-0.0000
 0980,0.00000035,0.00000243,0.00000552,0.00000019,-0.00000439,0.0000041
 4,-0.00000027,0.00000681,-0.00000966,0.00000041,-0.00000271,-0.0000003
 7,-0.00000120,0.00000332,0.00000002,-0.00000096,-0.00000070,-0.0000009
 8,0.00000077,-0.00000070,-0.00000119,0.00000065,-0.00000016,-0.0000002
 5,0.00000014,-0.00000552,0.00000180,-0.00000047,0.00000382,0.00001034,
 -0.00000096,-0.00000375,-0.00001193,0.00000058,0.00000140,0.00000158,0
 .00000157,-0.00000012,0.00000208,-0.00000106,-0.00000017,0.00000110,-0
 .00000003,-0.00000055,-0.00000813,0.00000041,-0.00000259,0.00000769,0.
 00000038,0.00000212,-0.00001037,0.00000063,-0.00000138,0.00000215,-0.0
 0000019,-0.00000820,0.00000230,-0.00000061,0.00000550,0.00000072,-0.00
 000081,0.00000138,0.00000289,0.00000035,0.00000187,-0.00000087,0.00000
 026,0.00000250,0.00000041,-0.00000056,0.00000015,-0.00000134,0.0000011
 9,0.00000136,-0.00000090,0.00000045,-0.00000060,0.00000245,0.00000046,
 0.00000001\\\@


 HOW IS IT THAT THE SKY FEEDS THE STARS?

                           -- LUCRETIUS
 Job cpu time:       0 days  2 hours 34 minutes 33.9 seconds.
 Elapsed time:       0 days  0 hours  9 minutes 18.7 seconds.
 File lengths (MBytes):  RWF=    388 Int=      0 D2E=      0 Chk=     12 Scr=      1
 Normal termination of Gaussian 16 at Fri Sep 22 18:30:45 2023.
