 Entering Gaussian System, Link 0=/home/ubuntu/g16/g16
 Input=/home/ubuntu/products/molecule_20.gjf
 Output=/home/ubuntu/products/molecule_20.log
 Initial command:
 /home/ubuntu/g16/l1.exe "/home/ubuntu/Scratch/Gau-57602.inp" -scrdir="/home/ubuntu/Scratch/"
 Entering Link 1 = /home/ubuntu/g16/l1.exe PID=     57604.
  
 Copyright (c) 1988-2017, Gaussian, Inc.  All Rights Reserved.
  
 This is part of the Gaussian(R) 16 program.  It is based on
 the Gaussian(R) 09 system (copyright 2009, Gaussian, Inc.),
 the Gaussian(R) 03 system (copyright 2003, Gaussian, Inc.),
 the Gaussian(R) 98 system (copyright 1998, Gaussian, Inc.),
 the Gaussian(R) 94 system (copyright 1995, Gaussian, Inc.),
 the Gaussian 92(TM) system (copyright 1992, Gaussian, Inc.),
 the Gaussian 90(TM) system (copyright 1990, Gaussian, Inc.),
 the Gaussian 88(TM) system (copyright 1988, Gaussian, Inc.),
 the Gaussian 86(TM) system (copyright 1986, Carnegie Mellon
 University), and the Gaussian 82(TM) system (copyright 1983,
 Carnegie Mellon University). Gaussian is a federally registered
 trademark of Gaussian, Inc.
  
 This software contains proprietary and confidential information,
 including trade secrets, belonging to Gaussian, Inc.
  
 This software is provided under written license and may be
 used, copied, transmitted, or stored only in accord with that
 written license.
  
 The following legend is applicable only to US Government
 contracts under FAR:
  
                    RESTRICTED RIGHTS LEGEND
  
 Use, reproduction and disclosure by the US Government is
 subject to restrictions as set forth in subparagraphs (a)
 and (c) of the Commercial Computer Software - Restricted
 Rights clause in FAR 52.227-19.
  
 Gaussian, Inc.
 340 Quinnipiac St., Bldg. 40, Wallingford CT 06492
  
  
 ---------------------------------------------------------------
 Warning -- This program may not be used in any manner that
 competes with the business of Gaussian, Inc. or will provide
 assistance to any competitor of Gaussian, Inc.  The licensee
 of this program is prohibited from giving any competitor of
 Gaussian, Inc. access to this program.  By using this program,
 the user acknowledges that Gaussian, Inc. is engaged in the
 business of creating and licensing software in the field of
 computational chemistry and represents and warrants to the
 licensee that it is not a competitor of Gaussian, Inc. and that
 it will not use this program in any manner prohibited above.
 ---------------------------------------------------------------
  

 Cite this work as:
 Gaussian 16, Revision B.01,
 M. J. Frisch, G. W. Trucks, H. B. Schlegel, G. E. Scuseria, 
 M. A. Robb, J. R. Cheeseman, G. Scalmani, V. Barone, 
 G. A. Petersson, H. Nakatsuji, X. Li, M. Caricato, A. V. Marenich, 
 J. Bloino, B. G. Janesko, R. Gomperts, B. Mennucci, H. P. Hratchian, 
 J. V. Ortiz, A. F. Izmaylov, J. L. Sonnenberg, D. Williams-Young, 
 F. Ding, F. Lipparini, F. Egidi, J. Goings, B. Peng, A. Petrone, 
 T. Henderson, D. Ranasinghe, V. G. Zakrzewski, J. Gao, N. Rega, 
 G. Zheng, W. Liang, M. Hada, M. Ehara, K. Toyota, R. Fukuda, 
 J. Hasegawa, M. Ishida, T. Nakajima, Y. Honda, O. Kitao, H. Nakai, 
 T. Vreven, K. Throssell, J. A. Montgomery, Jr., J. E. Peralta, 
 F. Ogliaro, M. J. Bearpark, J. J. Heyd, E. N. Brothers, K. N. Kudin, 
 V. N. Staroverov, T. A. Keith, R. Kobayashi, J. Normand, 
 K. Raghavachari, A. P. Rendell, J. C. Burant, S. S. Iyengar, 
 J. Tomasi, M. Cossi, J. M. Millam, M. Klene, C. Adamo, R. Cammi, 
 J. W. Ochterski, R. L. Martin, K. Morokuma, O. Farkas, 
 J. B. Foresman, and D. J. Fox, Gaussian, Inc., Wallingford CT, 2016.
 
 ******************************************
 Gaussian 16:  EM64L-G16RevB.01 20-Dec-2017
                17-Sep-2023 
 ******************************************
 %nprocshared=30
 Will use up to   30 processors via shared memory.
 %mem=30GB
 %chk=molecule_20.chk
 ---------------------------------------------------------
 # opt freq b3lyp/6-31+g(d) empiricaldispersion=gd3 volume
 ---------------------------------------------------------
 1/18=20,19=15,26=3,38=1/1,3;
 2/9=110,12=2,17=6,18=5,40=1/2;
 3/5=1,6=6,7=11,11=2,25=1,30=1,71=1,74=-5,124=31/1,2,3;
 4//1;
 5/5=2,38=5/2;
 6/7=2,8=2,9=2,10=2,28=1,44=1/1,4;
 7//1,2,3,16;
 1/18=20,19=15,26=3/3(2);
 2/9=110/2;
 99//99;
 2/9=110/2;
 3/5=1,6=6,7=11,11=2,25=1,30=1,71=1,74=-5,124=31/1,2,3;
 4/5=5,16=3,69=1/1;
 5/5=2,38=5/2;
 7//1,2,3,16;
 1/18=20,19=15,26=3/3(-5);
 2/9=110/2;
 6/7=2,8=2,9=2,10=2,19=2,28=1,44=1/1,4;
 99/9=1/99;
 -------------------
 Title Card Required
 -------------------
 Symbolic Z-matrix:
 Charge =  0 Multiplicity = 1
 C                    -5.30642  -0.95004   1.13808 
 C                    -3.91026  -0.97885   1.0873 
 C                    -3.24353  -0.49817  -0.05029 
 C                    -3.96927  -0.06568  -1.15526 
 H                    -5.6236   -0.80455   2.14958 
 H                    -3.55094  -0.41917   1.92547 
 H                    -3.4475    0.28095  -2.05001 
 C                    -1.70232  -0.51098  -0.00174 
 C                    -0.50316  -0.51544   0.00061 
 C                     1.03814  -0.52118   0.00361 
 C                     1.73324  -0.49899   1.21632 
 C                     1.73531  -0.50038  -1.20582 
 C                     3.13124  -0.50192   1.21672 
 H                     1.18549  -0.5016    2.1622 
 C                     3.13359  -0.50384  -1.20525 
 H                     1.18944  -0.5035   -2.1542 
 C                     3.82894  -0.50274   0.00634 
 H                     3.67742  -0.50148   2.16417 
 H                     3.6812   -0.50459  -2.15173 
 H                     4.89832  -0.50317   0.00733 
 H                    -3.60897  -1.99628   1.22506 
 H                    -5.66888  -0.14651   0.53156 
 H                    -5.69585  -1.87698   0.772 
 C                    -5.36936  -0.03461  -1.10333 
 H                    -5.73938  -1.0111   -0.86998 
 H                    -5.68304   0.65552  -0.3482 
 C                    -5.92392   0.41168  -2.46894 
 H                    -6.99317   0.42723  -2.43187 
 H                    -5.56072   1.39165  -2.69839 
 H                    -5.60319  -0.27374  -3.2254 
 

 GradGradGradGradGradGradGradGradGradGradGradGradGradGradGradGradGradGrad
 Berny optimization.
 Initialization pass.
                           ----------------------------
                           !    Initial Parameters    !
                           ! (Angstroms and Degrees)  !
 --------------------------                            --------------------------
 ! Name  Definition              Value          Derivative Info.                !
 --------------------------------------------------------------------------------
 ! R1    R(1,2)                  1.3974         estimate D2E/DX2                !
 ! R2    R(1,5)                  1.07           estimate D2E/DX2                !
 ! R3    R(1,22)                 1.07           estimate D2E/DX2                !
 ! R4    R(1,23)                 1.07           estimate D2E/DX2                !
 ! R5    R(2,3)                  1.4035         estimate D2E/DX2                !
 ! R6    R(2,6)                  1.07           estimate D2E/DX2                !
 ! R7    R(2,21)                 1.07           estimate D2E/DX2                !
 ! R8    R(3,4)                  1.3909         estimate D2E/DX2                !
 ! R9    R(3,8)                  1.542          estimate D2E/DX2                !
 ! R10   R(4,7)                  1.0922         estimate D2E/DX2                !
 ! R11   R(4,24)                 1.4014         estimate D2E/DX2                !
 ! R12   R(8,9)                  1.1992         estimate D2E/DX2                !
 ! R13   R(9,10)                 1.5413         estimate D2E/DX2                !
 ! R14   R(10,11)                1.398          estimate D2E/DX2                !
 ! R15   R(10,12)                1.3961         estimate D2E/DX2                !
 ! R16   R(11,13)                1.398          estimate D2E/DX2                !
 ! R17   R(11,14)                1.093          estimate D2E/DX2                !
 ! R18   R(12,15)                1.3983         estimate D2E/DX2                !
 ! R19   R(12,16)                1.0943         estimate D2E/DX2                !
 ! R20   R(13,17)                1.3971         estimate D2E/DX2                !
 ! R21   R(13,18)                1.0936         estimate D2E/DX2                !
 ! R22   R(15,17)                1.3969         estimate D2E/DX2                !
 ! R23   R(15,19)                1.0935         estimate D2E/DX2                !
 ! R24   R(17,20)                1.0694         estimate D2E/DX2                !
 ! R25   R(24,25)                1.07           estimate D2E/DX2                !
 ! R26   R(24,26)                1.07           estimate D2E/DX2                !
 ! R27   R(24,27)                1.54           estimate D2E/DX2                !
 ! R28   R(27,28)                1.07           estimate D2E/DX2                !
 ! R29   R(27,29)                1.07           estimate D2E/DX2                !
 ! R30   R(27,30)                1.07           estimate D2E/DX2                !
 ! A1    A(2,1,5)              109.4712         estimate D2E/DX2                !
 ! A2    A(2,1,22)             109.4712         estimate D2E/DX2                !
 ! A3    A(2,1,23)             109.4712         estimate D2E/DX2                !
 ! A4    A(5,1,22)             109.4712         estimate D2E/DX2                !
 ! A5    A(5,1,23)             109.4712         estimate D2E/DX2                !
 ! A6    A(22,1,23)            109.4712         estimate D2E/DX2                !
 ! A7    A(1,2,3)              119.8047         estimate D2E/DX2                !
 ! A8    A(1,2,6)              107.2332         estimate D2E/DX2                !
 ! A9    A(1,2,21)             107.2332         estimate D2E/DX2                !
 ! A10   A(3,2,6)              107.2332         estimate D2E/DX2                !
 ! A11   A(3,2,21)             107.2332         estimate D2E/DX2                !
 ! A12   A(6,2,21)             107.5751         estimate D2E/DX2                !
 ! A13   A(2,3,4)              120.1683         estimate D2E/DX2                !
 ! A14   A(2,3,8)              116.5157         estimate D2E/DX2                !
 ! A15   A(4,3,8)              123.304          estimate D2E/DX2                !
 ! A16   A(3,4,7)              120.0131         estimate D2E/DX2                !
 ! A17   A(3,4,24)             119.9162         estimate D2E/DX2                !
 ! A18   A(7,4,24)             120.0388         estimate D2E/DX2                !
 ! A19   A(9,10,11)            119.9238         estimate D2E/DX2                !
 ! A20   A(9,10,12)            119.8422         estimate D2E/DX2                !
 ! A21   A(11,10,12)           120.1945         estimate D2E/DX2                !
 ! A22   A(10,11,13)           119.8308         estimate D2E/DX2                !
 ! A23   A(10,11,14)           120.098          estimate D2E/DX2                !
 ! A24   A(13,11,14)           120.0575         estimate D2E/DX2                !
 ! A25   A(10,12,15)           119.9314         estimate D2E/DX2                !
 ! A26   A(10,12,16)           120.108          estimate D2E/DX2                !
 ! A27   A(15,12,16)           119.947          estimate D2E/DX2                !
 ! A28   A(11,13,17)           119.944          estimate D2E/DX2                !
 ! A29   A(11,13,18)           119.9792         estimate D2E/DX2                !
 ! A30   A(17,13,18)           120.0767         estimate D2E/DX2                !
 ! A31   A(12,15,17)           119.8756         estimate D2E/DX2                !
 ! A32   A(12,15,19)           120.0284         estimate D2E/DX2                !
 ! A33   A(17,15,19)           120.0958         estimate D2E/DX2                !
 ! A34   A(13,17,15)           120.1873         estimate D2E/DX2                !
 ! A35   A(13,17,20)           119.9076         estimate D2E/DX2                !
 ! A36   A(15,17,20)           119.9051         estimate D2E/DX2                !
 ! A37   A(4,24,25)            109.4712         estimate D2E/DX2                !
 ! A38   A(4,24,26)            109.4712         estimate D2E/DX2                !
 ! A39   A(4,24,27)            109.4712         estimate D2E/DX2                !
 ! A40   A(25,24,26)           109.4713         estimate D2E/DX2                !
 ! A41   A(25,24,27)           109.4712         estimate D2E/DX2                !
 ! A42   A(26,24,27)           109.4712         estimate D2E/DX2                !
 ! A43   A(24,27,28)           109.4712         estimate D2E/DX2                !
 ! A44   A(24,27,29)           109.4712         estimate D2E/DX2                !
 ! A45   A(24,27,30)           109.4712         estimate D2E/DX2                !
 ! A46   A(28,27,29)           109.4713         estimate D2E/DX2                !
 ! A47   A(28,27,30)           109.4712         estimate D2E/DX2                !
 ! A48   A(29,27,30)           109.4712         estimate D2E/DX2                !
 ! A49   L(3,8,9,7,-1)         178.3269         estimate D2E/DX2                !
 ! A50   L(8,9,10,16,-1)       179.9996         estimate D2E/DX2                !
 ! A51   L(3,8,9,7,-2)         180.4742         estimate D2E/DX2                !
 ! A52   L(8,9,10,16,-2)       179.9998         estimate D2E/DX2                !
 ! D1    D(5,1,2,3)           -148.1363         estimate D2E/DX2                !
 ! D2    D(5,1,2,6)            -25.7821         estimate D2E/DX2                !
 ! D3    D(5,1,2,21)            89.5094         estimate D2E/DX2                !
 ! D4    D(22,1,2,3)           -28.1363         estimate D2E/DX2                !
 ! D5    D(22,1,2,6)            94.2179         estimate D2E/DX2                !
 ! D6    D(22,1,2,21)         -150.4906         estimate D2E/DX2                !
 ! D7    D(23,1,2,3)            91.8637         estimate D2E/DX2                !
 ! D8    D(23,1,2,6)          -145.7821         estimate D2E/DX2                !
 ! D9    D(23,1,2,21)          -30.4906         estimate D2E/DX2                !
 ! D10   D(1,2,3,4)             -3.6992         estimate D2E/DX2                !
 ! D11   D(1,2,3,8)            177.5162         estimate D2E/DX2                !
 ! D12   D(6,2,3,4)           -126.0534         estimate D2E/DX2                !
 ! D13   D(6,2,3,8)             55.162          estimate D2E/DX2                !
 ! D14   D(21,2,3,4)           118.6551         estimate D2E/DX2                !
 ! D15   D(21,2,3,8)           -60.1296         estimate D2E/DX2                !
 ! D16   D(2,3,4,7)           -178.2399         estimate D2E/DX2                !
 ! D17   D(2,3,4,24)             3.816          estimate D2E/DX2                !
 ! D18   D(8,3,4,7)              0.4589         estimate D2E/DX2                !
 ! D19   D(8,3,4,24)          -177.4853         estimate D2E/DX2                !
 ! D20   D(2,3,10,11)          -24.1431         estimate D2E/DX2                !
 ! D21   D(2,3,10,12)          158.2445         estimate D2E/DX2                !
 ! D22   D(4,3,10,11)          157.4038         estimate D2E/DX2                !
 ! D23   D(4,3,10,12)          -20.2086         estimate D2E/DX2                !
 ! D24   D(3,4,24,25)          -57.1876         estimate D2E/DX2                !
 ! D25   D(3,4,24,26)           62.8124         estimate D2E/DX2                !
 ! D26   D(3,4,24,27)         -177.1876         estimate D2E/DX2                !
 ! D27   D(7,4,24,25)          124.8688         estimate D2E/DX2                !
 ! D28   D(7,4,24,26)         -115.1312         estimate D2E/DX2                !
 ! D29   D(7,4,24,27)            4.8688         estimate D2E/DX2                !
 ! D30   D(9,10,11,13)        -179.8905         estimate D2E/DX2                !
 ! D31   D(9,10,11,14)           1.4544         estimate D2E/DX2                !
 ! D32   D(12,10,11,13)         -2.1768         estimate D2E/DX2                !
 ! D33   D(12,10,11,14)        179.1681         estimate D2E/DX2                !
 ! D34   D(9,10,12,15)         179.9195         estimate D2E/DX2                !
 ! D35   D(9,10,12,16)          -1.4191         estimate D2E/DX2                !
 ! D36   D(11,10,12,15)          2.2039         estimate D2E/DX2                !
 ! D37   D(11,10,12,16)       -179.1347         estimate D2E/DX2                !
 ! D38   D(10,11,13,17)          1.1475         estimate D2E/DX2                !
 ! D39   D(10,11,13,18)       -178.9793         estimate D2E/DX2                !
 ! D40   D(14,11,13,17)        179.8032         estimate D2E/DX2                !
 ! D41   D(14,11,13,18)         -0.3236         estimate D2E/DX2                !
 ! D42   D(10,12,15,17)         -1.1998         estimate D2E/DX2                !
 ! D43   D(10,12,15,19)        178.9699         estimate D2E/DX2                !
 ! D44   D(16,12,15,17)       -179.8633         estimate D2E/DX2                !
 ! D45   D(16,12,15,19)          0.3064         estimate D2E/DX2                !
 ! D46   D(11,13,17,15)         -0.1518         estimate D2E/DX2                !
 ! D47   D(11,13,17,20)        179.8876         estimate D2E/DX2                !
 ! D48   D(18,13,17,15)        179.9751         estimate D2E/DX2                !
 ! D49   D(18,13,17,20)          0.0145         estimate D2E/DX2                !
 ! D50   D(12,15,17,13)          0.1766         estimate D2E/DX2                !
 ! D51   D(12,15,17,20)       -179.8628         estimate D2E/DX2                !
 ! D52   D(19,15,17,13)       -179.9932         estimate D2E/DX2                !
 ! D53   D(19,15,17,20)         -0.0326         estimate D2E/DX2                !
 ! D54   D(4,24,27,28)         179.5126         estimate D2E/DX2                !
 ! D55   D(4,24,27,29)         -60.4874         estimate D2E/DX2                !
 ! D56   D(4,24,27,30)          59.5126         estimate D2E/DX2                !
 ! D57   D(25,24,27,28)         59.5126         estimate D2E/DX2                !
 ! D58   D(25,24,27,29)        179.5126         estimate D2E/DX2                !
 ! D59   D(25,24,27,30)        -60.4874         estimate D2E/DX2                !
 ! D60   D(26,24,27,28)        -60.4874         estimate D2E/DX2                !
 ! D61   D(26,24,27,29)         59.5126         estimate D2E/DX2                !
 ! D62   D(26,24,27,30)        179.5126         estimate D2E/DX2                !
 --------------------------------------------------------------------------------
 Trust Radius=3.00D-01 FncErr=1.00D-07 GrdErr=1.00D-06 EigMax=2.50D+02 EigMin=1.00D-04
 Number of steps in this run=    154 maximum allowed number of steps=    180.
 GradGradGradGradGradGradGradGradGradGradGradGradGradGradGradGradGradGrad

                          Input orientation:                          
 ---------------------------------------------------------------------
 Center     Atomic      Atomic             Coordinates (Angstroms)
 Number     Number       Type             X           Y           Z
 ---------------------------------------------------------------------
      1          6           0       -5.306420   -0.950037    1.138085
      2          6           0       -3.910257   -0.978854    1.087296
      3          6           0       -3.243530   -0.498173   -0.050288
      4          6           0       -3.969271   -0.065678   -1.155262
      5          1           0       -5.623600   -0.804550    2.149584
      6          1           0       -3.550936   -0.419166    1.925471
      7          1           0       -3.447499    0.280946   -2.050008
      8          6           0       -1.702325   -0.510980   -0.001736
      9          6           0       -0.503164   -0.515444    0.000607
     10          6           0        1.038137   -0.521178    0.003607
     11          6           0        1.733241   -0.498994    1.216317
     12          6           0        1.735313   -0.500380   -1.205823
     13          6           0        3.131236   -0.501924    1.216721
     14          1           0        1.185494   -0.501600    2.162198
     15          6           0        3.133594   -0.503838   -1.205245
     16          1           0        1.189441   -0.503497   -2.154202
     17          6           0        3.828940   -0.502741    0.006338
     18          1           0        3.677424   -0.501477    2.164168
     19          1           0        3.681197   -0.504590   -2.151735
     20          1           0        4.898318   -0.503165    0.007326
     21          1           0       -3.608967   -1.996275    1.225059
     22          1           0       -5.668877   -0.146513    0.531559
     23          1           0       -5.695848   -1.876983    0.772001
     24          6           0       -5.369363   -0.034606   -1.103333
     25          1           0       -5.739379   -1.011099   -0.869985
     26          1           0       -5.683039    0.655525   -0.348199
     27          6           0       -5.923922    0.411684   -2.468942
     28          1           0       -6.993167    0.427225   -2.431868
     29          1           0       -5.560715    1.391650   -2.698390
     30          1           0       -5.603195   -0.273739   -3.225401
 ---------------------------------------------------------------------
                    Distance matrix (angstroms):
                    1          2          3          4          5
     1  C    0.000000
     2  C    1.397384   0.000000
     3  C    2.423205   1.403451   0.000000
     4  C    2.798124   2.422073   1.390941   0.000000
     5  H    1.070000   2.023458   3.255462   3.768918   0.000000
     6  H    1.995877   1.070000   2.001091   3.129037   2.120066
     7  H    3.890352   3.412318   2.155808   1.092229   4.852863
     8  C    3.805452   2.505965   1.542023   2.582240   4.482271
     9  C    4.955199   3.606095   2.740893   3.681334   5.560624
    10  C    6.459440   5.086300   4.282068   5.159902   7.004588
    11  C    7.054530   5.665332   5.135421   6.191187   7.422093
    12  C    7.435193   6.112265   5.111179   5.721346   8.093508
    13  C    8.449913   7.058812   6.499459   7.498920   8.809595
    14  H    6.587476   5.229709   4.950895   6.145499   6.815841
    15  C    8.770639   7.422750   6.480869   7.116542   9.382630
    16  H    7.296215   6.061368   4.906905   5.272748   8.064163
    17  C    9.216058   7.828813   7.072698   7.896355   9.697169
    18  H    9.053370   7.678571   7.266598   8.347484   9.305972
    19  H    9.581158   8.267189   7.236571   7.727564  10.255269
    20  H   10.276915   8.887272   8.142054   8.954168  10.742013
    21  H    1.995877   1.070000   2.001091   3.085928   2.516684
    22  H    1.070000   2.023458   2.518833   2.395947   1.747303
    23  H    1.070000   2.023458   2.931064   3.158518   1.747303
    24  C    2.421968   2.796328   2.417222   1.401400   3.352449
    25  H    2.055121   2.679118   2.676612   2.026940   3.028838
    26  H    2.220070   2.806172   2.714954   2.026940   2.893834
    27  C    3.904643   4.316859   3.723201   2.402976   4.785416
    28  H    4.181690   4.885275   4.537407   3.319130   4.937883
    29  H    4.501856   4.761798   3.994148   2.652875   5.322603
    30  H    4.425546   4.686425   3.962288   2.645463   5.401170
                    6          7          8          9         10
     6  H    0.000000
     7  H    4.037980   0.000000
     8  C    2.672063   2.805031   0.000000
     9  C    3.606007   3.675373   1.199171   0.000000
    10  C    4.976300   4.998166   2.740486   1.541315   0.000000
    11  C    5.332148   6.173917   3.645121   2.545531   1.397972
    12  C    6.144593   5.308923   3.642429   2.542927   1.396141
    13  C    6.720164   7.386755   4.984779   3.832490   2.419314
    14  H    4.743058   6.310283   3.608627   2.743033   2.163703
    15  C    7.381835   6.681339   4.983432   3.831478   2.419207
    16  H    6.254760   4.703979   3.604924   2.740120   2.163180
    17  C    7.625787   7.601926   5.531276   4.332126   2.790865
    18  H    7.232769   8.314806   5.799390   4.707283   3.410902
    19  H    8.302689   7.172567   5.796968   4.705483   3.410504
    20  H    8.664654   8.631345   6.600654   5.401500   3.860225
    21  H    1.726620   3.992226   2.710426   3.652144   5.026274
    22  H    2.550099   3.432453   4.018803   5.206017   6.738186
    23  H    2.838375   4.204219   4.291021   5.423357   6.911960
    24  C    3.553620   2.165486   3.858448   5.012962   6.520593
    25  H    3.599200   2.883495   4.159541   5.331186   6.851124
    26  H    3.297029   2.834449   4.162555   5.322025   6.832467
    27  C    5.062830   2.515009   4.975973   6.028504   7.446744
    28  H    5.617093   3.569170   5.897354   6.994691   8.445878
    29  H    5.357085   2.473812   5.077315   6.041558   7.382720
    30  H    5.546566   2.517191   5.066072   6.039525   7.388843
                   11         12         13         14         15
    11  C    0.000000
    12  C    2.422141   0.000000
    13  C    1.397998   2.795948   0.000000
    14  H    1.093035   3.412604   2.163294   0.000000
    15  C    2.797315   1.398285   2.421968   3.890343   0.000000
    16  H    3.414109   1.094262   3.890205   4.316402   2.163389
    17  C    2.419920   2.419217   1.397075   3.411091   1.396940
    18  H    2.162932   3.889555   1.093608   2.491931   3.413020
    19  H    3.890801   2.163615   3.413057   4.983830   1.093486
    20  H    3.388124   3.387674   2.141312   4.292848   2.141163
    21  H    5.548074   6.058731   6.903875   5.108732   7.320920
    22  H    7.442076   7.613525   8.833898   7.054606   8.979291
    23  H    7.568860   7.812104   8.944606   7.153823   9.151725
    24  C    7.486216   7.120666   8.823901   7.338115   8.516504
    25  H    7.775279   7.499643   9.126960   7.576779   8.893782
    26  H    7.666932   7.556692   9.026634   7.403903   8.933738
    27  C    8.546498   7.816087   9.819098   8.533776   9.190958
    28  H    9.503543   8.862844  10.801808   9.426486  10.243181
    29  H    8.491246   7.683721   9.719245   8.527663   9.022935
    30  H    8.579213   7.614707   9.801775   8.669742   8.970253
                   16         17         18         19         20
    16  H    0.000000
    17  C    3.410995   0.000000
    18  H    4.983813   2.163144   0.000000
    19  H    2.491757   2.163125   4.315906   0.000000
    20  H    4.292782   1.069379   2.478418   2.478493   0.000000
    21  H    6.055783   7.683644   7.497189   8.171557   8.722738
    22  H    7.374095   9.518996   9.494460   9.734073  10.586201
    23  H    7.606334   9.653826   9.575405   9.917694  10.710203
    24  C    6.658986   9.276815   9.630104   9.123194  10.338201
    25  H    7.065084   9.621803   9.906663   9.520855  10.685891
    26  H    7.199719   9.588797   9.760580   9.606639  10.650544
    27  C    7.178896  10.103539  10.699787   9.653936  11.139557
    28  H    8.240049  11.132281  11.655366  10.718619  12.174675
    29  H    7.032235   9.953386  10.609978   9.450264  10.968254
    30  H    6.880418   9.973050  10.734487   9.349116  10.990220
                   21         22         23         24         25
    21  H    0.000000
    22  H    2.854084   0.000000
    23  H    2.138823   1.747303   0.000000
    24  C    3.516895   1.665864   2.649117   0.000000
    25  H    3.146178   1.648273   1.856816   1.070000   0.000000
    26  H    3.716041   1.190563   2.769225   1.070000   1.747303
    27  C    4.980254   3.062620   3.974132   1.540000   2.148263
    28  H    5.540693   3.296183   4.154177   2.148263   2.465815
    29  H    5.539027   3.579137   4.769260   2.148263   3.024598
    30  H    5.172105   3.759687   4.307922   2.148263   2.471888
                   26         27         28         29         30
    26  H    0.000000
    27  C    2.148263   0.000000
    28  H    2.471888   1.070000   0.000000
    29  H    2.465814   1.070000   1.747303   0.000000
    30  H    3.024598   1.070000   1.747303   1.747303   0.000000
 Stoichiometry    C14H16
 Framework group  C1[X(C14H16)]
 Deg. of freedom    84
 Full point group                 C1      NOp   1
 Largest Abelian subgroup         C1      NOp   1
 Largest concise Abelian subgroup C1      NOp   1
                         Standard orientation:                         
 ---------------------------------------------------------------------
 Center     Atomic      Atomic             Coordinates (Angstroms)
 Number     Number       Type             X           Y           Z
 ---------------------------------------------------------------------
      1          6           0        3.809697   -1.787580    0.209139
      2          6           0        2.423248   -1.615423    0.237459
      3          6           0        1.874763   -0.338364    0.042622
      4          6           0        2.708266    0.765825   -0.101456
      5          1           0        4.040705   -2.758924   -0.175605
      6          1           0        2.008859   -2.256206   -0.512594
      7          1           0        2.278509    1.762425   -0.224180
      8          6           0        0.335635   -0.244774    0.029972
      9          6           0       -0.858612   -0.136400    0.023425
     10          6           0       -2.393595    0.002907    0.015009
     11          6           0       -3.192015   -1.098278   -0.307859
     12          6           0       -2.980306    1.241023    0.283427
     13          6           0       -4.584004   -0.969137   -0.317130
     14          1           0       -2.730248   -2.063524   -0.531011
     15          6           0       -4.372612    1.369895    0.274623
     16          1           0       -2.353206    2.105414    0.522137
     17          6           0       -5.171826    0.264723   -0.027521
     18          1           0       -5.211419   -1.833245   -0.553026
     19          1           0       -4.834285    2.334904    0.501181
     20          1           0       -6.236615    0.363291   -0.036541
     21          1           0        2.079587   -1.966368    1.188056
     22          1           0        4.249009   -1.041285   -0.419310
     23          1           0        4.201005   -1.694357    1.200646
     24          6           0        4.098597    0.592745   -0.132207
     25          1           0        4.416127    0.096833    0.761184
     26          1           0        4.365626    0.001004   -0.982759
     27          6           0        4.785104    1.967953   -0.227653
     28          1           0        5.846867    1.836289   -0.242567
     29          1           0        4.474115    2.460303   -1.125304
     30          1           0        4.511317    2.562768    0.618595
 ---------------------------------------------------------------------
 Rotational constants (GHZ):           1.8771772           0.2239459           0.2023552
 Standard basis: 6-31+G(d) (6D, 7F)
 There are   298 symmetry adapted cartesian basis functions of A   symmetry.
 There are   298 symmetry adapted basis functions of A   symmetry.
   298 basis functions,   512 primitive gaussians,   298 cartesian basis functions
    50 alpha electrons       50 beta electrons
       nuclear repulsion energy       755.1682811416 Hartrees.
 NAtoms=   30 NActive=   30 NUniq=   30 SFac= 1.00D+00 NAtFMM=   60 NAOKFM=F Big=F
 Integral buffers will be    131072 words long.
 Raffenetti 2 integral format.
 Two-electron integral symmetry is turned on.
 Nuclear repulsion after empirical dispersion term =      755.1479019863 Hartrees.
 One-electron integrals computed using PRISM.
 NBasis=   298 RedAO= T EigKep=  1.13D-06  NBF=   298
 NBsUse=   296 1.00D-06 EigRej=  7.69D-08 NBFU=   296
 ExpMin= 4.38D-02 ExpMax= 3.05D+03 ExpMxC= 4.57D+02 IAcc=3 IRadAn=         5 AccDes= 0.00D+00
 Harris functional with IExCor=  402 and IRadAn=       5 diagonalized for initial guess.
 HarFok:  IExCor=  402 AccDes= 0.00D+00 IRadAn=         5 IDoV= 1 UseB2=F ITyADJ=14
 ICtDFT=  3500011 ScaDFX=  1.000000  1.000000  1.000000  1.000000
 FoFCou: FMM=F IPFlag=           0 FMFlag=      100000 FMFlg1=           0
         NFxFlg=           0 DoJE=T BraDBF=F KetDBF=T FulRan=T
         wScrn=  0.000000 ICntrl=       500 IOpCl=  0 I1Cent=   200000004 NGrid=           0
         NMat0=    1 NMatS0=      1 NMatT0=    0 NMatD0=    1 NMtDS0=    0 NMtDT0=    0
 Petite list used in FoFCou.
 Requested convergence on RMS density matrix=1.00D-08 within 128 cycles.
 Requested convergence on MAX density matrix=1.00D-06.
 Requested convergence on             energy=1.00D-06.
 No special actions if energy rises.
 SCF Done:  E(RB3LYP) =  -542.969156054     A.U. after   15 cycles
            NFock= 15  Conv=0.69D-08     -V/T= 2.0080

 **********************************************************************

            Population analysis using the SCF Density.

 **********************************************************************

 Orbital symmetries:
       Occupied  (A) (A) (A) (A) (A) (A) (A) (A) (A) (A) (A) (A)
                 (A) (A) (A) (A) (A) (A) (A) (A) (A) (A) (A) (A)
                 (A) (A) (A) (A) (A) (A) (A) (A) (A) (A) (A) (A)
                 (A) (A) (A) (A) (A) (A) (A) (A) (A) (A) (A) (A)
                 (A) (A)
       Virtual   (A) (A) (A) (A) (A) (A) (A) (A) (A) (A) (A) (A)
                 (A) (A) (A) (A) (A) (A) (A) (A) (A) (A) (A) (A)
                 (A) (A) (A) (A) (A) (A) (A) (A) (A) (A) (A) (A)
                 (A) (A) (A) (A) (A) (A) (A) (A) (A) (A) (A) (A)
                 (A) (A) (A) (A) (A) (A) (A) (A) (A) (A) (A) (A)
                 (A) (A) (A) (A) (A) (A) (A) (A) (A) (A) (A) (A)
                 (A) (A) (A) (A) (A) (A) (A) (A) (A) (A) (A) (A)
                 (A) (A) (A) (A) (A) (A) (A) (A) (A) (A) (A) (A)
                 (A) (A) (A) (A) (A) (A) (A) (A) (A) (A) (A) (A)
                 (A) (A) (A) (A) (A) (A) (A) (A) (A) (A) (A) (A)
                 (A) (A) (A) (A) (A) (A) (A) (A) (A) (A) (A) (A)
                 (A) (A) (A) (A) (A) (A) (A) (A) (A) (A) (A) (A)
                 (A) (A) (A) (A) (A) (A) (A) (A) (A) (A) (A) (A)
                 (A) (A) (A) (A) (A) (A) (A) (A) (A) (A) (A) (A)
                 (A) (A) (A) (A) (A) (A) (A) (A) (A) (A) (A) (A)
                 (A) (A) (A) (A) (A) (A) (A) (A) (A) (A) (A) (A)
                 (A) (A) (A) (A) (A) (A) (A) (A) (A) (A) (A) (A)
                 (A) (A) (A) (A) (A) (A) (A) (A) (A) (A) (A) (A)
                 (A) (A) (A) (A) (A) (A) (A) (A) (A) (A) (A) (A)
                 (A) (A) (A) (A) (A) (A) (A) (A) (A) (A) (A) (A)
                 (A) (A) (A) (A) (A) (A)
 The electronic state is 1-A.
 Alpha  occ. eigenvalues --  -10.23149 -10.21853 -10.20415 -10.20410 -10.20316
 Alpha  occ. eigenvalues --  -10.20310 -10.20013 -10.19475 -10.19212 -10.19093
 Alpha  occ. eigenvalues --  -10.17887 -10.17094 -10.16834 -10.14520  -0.86943
 Alpha  occ. eigenvalues --   -0.86691  -0.79661  -0.77797  -0.75543  -0.74978
 Alpha  occ. eigenvalues --   -0.71470  -0.68164  -0.61820  -0.61433  -0.59830
 Alpha  occ. eigenvalues --   -0.57197  -0.53838  -0.50642  -0.50305  -0.47675
 Alpha  occ. eigenvalues --   -0.46081  -0.46040  -0.44245  -0.43964  -0.43061
 Alpha  occ. eigenvalues --   -0.41866  -0.39034  -0.38772  -0.38234  -0.37704
 Alpha  occ. eigenvalues --   -0.36570  -0.36049  -0.35712  -0.35602  -0.30806
 Alpha  occ. eigenvalues --   -0.28633  -0.27570  -0.26202  -0.25615  -0.21649
 Alpha virt. eigenvalues --   -0.04231  -0.01855  -0.00614   0.00309   0.00796
 Alpha virt. eigenvalues --    0.01921   0.02329   0.02795   0.03421   0.03962
 Alpha virt. eigenvalues --    0.04378   0.04660   0.05461   0.05679   0.05826
 Alpha virt. eigenvalues --    0.06032   0.06810   0.07141   0.07832   0.08116
 Alpha virt. eigenvalues --    0.08821   0.09049   0.09261   0.09545   0.10688
 Alpha virt. eigenvalues --    0.10748   0.11368   0.11690   0.12168   0.13136
 Alpha virt. eigenvalues --    0.13421   0.14597   0.14724   0.14985   0.15165
 Alpha virt. eigenvalues --    0.15481   0.15828   0.16181   0.16943   0.17075
 Alpha virt. eigenvalues --    0.17488   0.17596   0.18698   0.18912   0.19624
 Alpha virt. eigenvalues --    0.20170   0.20650   0.20890   0.21409   0.21807
 Alpha virt. eigenvalues --    0.22092   0.22310   0.22801   0.23483   0.23960
 Alpha virt. eigenvalues --    0.24125   0.24443   0.24731   0.25287   0.25885
 Alpha virt. eigenvalues --    0.26320   0.27079   0.27497   0.27713   0.28485
 Alpha virt. eigenvalues --    0.28812   0.29269   0.30036   0.30825   0.31905
 Alpha virt. eigenvalues --    0.32404   0.32462   0.32792   0.33891   0.34226
 Alpha virt. eigenvalues --    0.34879   0.35289   0.35887   0.37613   0.39204
 Alpha virt. eigenvalues --    0.40041   0.40979   0.42662   0.43902   0.45499
 Alpha virt. eigenvalues --    0.47378   0.49356   0.56846   0.60048   0.64365
 Alpha virt. eigenvalues --    0.64942   0.66617   0.67272   0.68773   0.68903
 Alpha virt. eigenvalues --    0.69867   0.70049   0.70957   0.71650   0.72253
 Alpha virt. eigenvalues --    0.72982   0.73021   0.73838   0.74133   0.74869
 Alpha virt. eigenvalues --    0.75142   0.75473   0.76024   0.76814   0.77701
 Alpha virt. eigenvalues --    0.78198   0.78867   0.80095   0.81358   0.81603
 Alpha virt. eigenvalues --    0.83180   0.84695   0.85468   0.87087   0.88210
 Alpha virt. eigenvalues --    0.90300   0.91715   0.92157   0.93001   0.93208
 Alpha virt. eigenvalues --    0.95494   0.96321   0.96639   0.97299   0.98557
 Alpha virt. eigenvalues --    1.00187   1.00669   1.01196   1.02053   1.03216
 Alpha virt. eigenvalues --    1.06045   1.07335   1.08502   1.11819   1.12874
 Alpha virt. eigenvalues --    1.14497   1.16099   1.16969   1.17229   1.17620
 Alpha virt. eigenvalues --    1.19880   1.21181   1.22200   1.23009   1.24378
 Alpha virt. eigenvalues --    1.26936   1.28670   1.30407   1.30536   1.34364
 Alpha virt. eigenvalues --    1.35812   1.40509   1.41244   1.41825   1.44298
 Alpha virt. eigenvalues --    1.45133   1.46398   1.47608   1.48319   1.49942
 Alpha virt. eigenvalues --    1.51993   1.56153   1.57011   1.59621   1.63693
 Alpha virt. eigenvalues --    1.68475   1.73388   1.79882   1.80984   1.83040
 Alpha virt. eigenvalues --    1.85966   1.87147   1.88066   1.90567   1.91615
 Alpha virt. eigenvalues --    1.94175   1.94687   1.95271   1.96415   1.97801
 Alpha virt. eigenvalues --    1.99141   2.01765   2.06704   2.08079   2.10370
 Alpha virt. eigenvalues --    2.11135   2.11720   2.14397   2.14708   2.16994
 Alpha virt. eigenvalues --    2.17757   2.18181   2.19564   2.22814   2.24876
 Alpha virt. eigenvalues --    2.28907   2.29862   2.30150   2.30237   2.33453
 Alpha virt. eigenvalues --    2.36425   2.37290   2.39699   2.41807   2.47833
 Alpha virt. eigenvalues --    2.49339   2.53031   2.56042   2.57944   2.60714
 Alpha virt. eigenvalues --    2.62472   2.63465   2.63992   2.68081   2.72707
 Alpha virt. eigenvalues --    2.73654   2.74701   2.76810   2.79096   2.80636
 Alpha virt. eigenvalues --    2.84848   2.90138   3.02096   3.09219   3.16476
 Alpha virt. eigenvalues --    3.35361   3.54992   4.19385   4.22329   4.24154
 Alpha virt. eigenvalues --    4.25708   4.29776   4.32895   4.35512   4.39996
 Alpha virt. eigenvalues --    4.41296   4.52921   4.54607   4.62266   4.74715
 Alpha virt. eigenvalues --    4.89639
          Condensed to atoms (all electrons):
               1          2          3          4          5          6
     1  C    8.875840  -5.803535   1.164396   4.058899   0.518230  -0.132159
     2  C   -5.803535  22.842132  -2.035741 -13.729691  -0.249197   0.660357
     3  C    1.164396  -2.035741  17.544219  -5.417065   0.062424  -0.146591
     4  C    4.058899 -13.729691  -5.417065  28.442435   0.053425  -0.040920
     5  H    0.518230  -0.249197   0.062424   0.053425   0.529785  -0.015409
     6  H   -0.132159   0.660357  -0.146591  -0.040920  -0.015409   0.537926
     7  H    0.002247  -0.023053  -0.067215   0.454366   0.000026  -0.000247
     8  C   -0.814982   1.603113  -4.868338  -1.187862  -0.024259  -0.049804
     9  C   -0.005956  -0.261907   1.413131  -1.175273  -0.002080  -0.044470
    10  C   -0.095871  -0.131212  -2.956186   0.045283  -0.000598  -0.007527
    11  C    0.048126  -0.091872   0.279994   0.162494  -0.000087  -0.000926
    12  C   -0.034390   0.076555   0.098615  -0.190443   0.000034   0.000821
    13  C    0.009022  -0.001957  -0.044007  -0.014842  -0.000004  -0.000176
    14  H   -0.000137   0.000931   0.008259  -0.000113   0.000000   0.000000
    15  C   -0.004291  -0.015007  -0.077004   0.028989   0.000001  -0.000195
    16  H    0.000038  -0.000232   0.008787   0.001725   0.000000   0.000000
    17  C    0.000076   0.001130  -0.005545  -0.000362   0.000000   0.000050
    18  H    0.000001   0.000006  -0.000179  -0.000003   0.000000   0.000000
    19  H   -0.000001  -0.000007  -0.000215   0.000006   0.000000   0.000000
    20  H    0.000000  -0.000001   0.000030   0.000000   0.000000   0.000000
    21  H   -0.026216   0.404785  -0.029599   0.057289  -0.000027  -0.036838
    22  H    0.581255  -0.336178  -0.067176   0.255803  -0.028776  -0.000772
    23  H    0.479521  -0.124257  -0.004386   0.027265  -0.028306   0.007268
    24  C   -1.913277   3.928762   1.803317  -6.428818  -0.008837   0.039554
    25  H   -0.113697   0.153033  -0.030587  -0.212199   0.003305  -0.000574
    26  H   -0.147531   0.083961   0.035646  -0.196832   0.001837   0.001259
    27  C   -0.039833  -0.172947  -0.872263   1.437395  -0.002139   0.006621
    28  H    0.001519  -0.009167  -0.017035   0.036906  -0.000002   0.000000
    29  H   -0.006674   0.010638   0.002248   0.000845   0.000005  -0.000002
    30  H   -0.006100   0.000952  -0.027380   0.053207   0.000001   0.000001
               7          8          9         10         11         12
     1  C    0.002247  -0.814982  -0.005956  -0.095871   0.048126  -0.034390
     2  C   -0.023053   1.603113  -0.261907  -0.131212  -0.091872   0.076555
     3  C   -0.067215  -4.868338   1.413131  -2.956186   0.279994   0.098615
     4  C    0.454366  -1.187862  -1.175273   0.045283   0.162494  -0.190443
     5  H    0.000026  -0.024259  -0.002080  -0.000598  -0.000087   0.000034
     6  H   -0.000247  -0.049804  -0.044470  -0.007527  -0.000926   0.000821
     7  H    0.534046   0.015303  -0.019984  -0.004379   0.000575  -0.000268
     8  C    0.015303  10.356744  -0.368395   2.126991  -0.413650  -0.559501
     9  C   -0.019984  -0.368395  10.016347  -5.104837   0.998296   2.381672
    10  C   -0.004379   2.126991  -5.104837  15.864412  -3.072266  -4.291882
    11  C    0.000575  -0.413650   0.998296  -3.072266  25.590348 -14.908850
    12  C   -0.000268  -0.559501   2.381672  -4.291882 -14.908850  26.937993
    13  C    0.000049   0.005359  -0.462292   1.155466  -6.561820   4.331894
    14  H    0.000000   0.008687   0.053642  -0.057211   0.314890   0.024585
    15  C    0.000057   0.059984  -1.018632   1.811239   4.633507  -7.466909
    16  H   -0.000001   0.008386   0.058933  -0.063775   0.024754   0.322489
    17  C   -0.000005   0.001032  -0.189180   0.198728  -0.517418  -0.391955
    18  H    0.000000  -0.000917  -0.008935   0.005945  -0.032010  -0.003953
    19  H    0.000000  -0.001349  -0.008777   0.003092  -0.005348  -0.024169
    20  H    0.000000   0.000350   0.002645  -0.003059   0.014163   0.010374
    21  H   -0.000259  -0.097816  -0.012202  -0.011045   0.000634  -0.000926
    22  H   -0.000516  -0.084634  -0.013860  -0.002143   0.000125  -0.000139
    23  H   -0.000025   0.010746   0.001373   0.000524   0.000049  -0.000037
    24  C   -0.075834  -0.003192   0.085375  -0.057991  -0.032318   0.039294
    25  H    0.004689  -0.021462  -0.004448  -0.000985  -0.000041   0.000071
    26  H    0.003308   0.000291   0.001916  -0.000069  -0.000119   0.000130
    27  C   -0.012343  -0.163506  -0.071190  -0.006460  -0.000316   0.000322
    28  H    0.000364   0.000659   0.000194   0.000028   0.000001  -0.000006
    29  H    0.000930  -0.005271  -0.000120  -0.000251  -0.000021   0.000094
    30  H    0.000400  -0.002993  -0.000443   0.000007  -0.000001   0.000000
              13         14         15         16         17         18
     1  C    0.009022  -0.000137  -0.004291   0.000038   0.000076   0.000001
     2  C   -0.001957   0.000931  -0.015007  -0.000232   0.001130   0.000006
     3  C   -0.044007   0.008259  -0.077004   0.008787  -0.005545  -0.000179
     4  C   -0.014842  -0.000113   0.028989   0.001725  -0.000362  -0.000003
     5  H   -0.000004   0.000000   0.000001   0.000000   0.000000   0.000000
     6  H   -0.000176   0.000000  -0.000195   0.000000   0.000050   0.000000
     7  H    0.000049   0.000000   0.000057  -0.000001  -0.000005   0.000000
     8  C    0.005359   0.008687   0.059984   0.008386   0.001032  -0.000917
     9  C   -0.462292   0.053642  -1.018632   0.058933  -0.189180  -0.008935
    10  C    1.155466  -0.057211   1.811239  -0.063775   0.198728   0.005945
    11  C   -6.561820   0.314890   4.633507   0.024754  -0.517418  -0.032010
    12  C    4.331894   0.024585  -7.466909   0.322489  -0.391955  -0.003953
    13  C    8.406693  -0.067765  -1.693917  -0.008589   0.719396   0.303276
    14  H   -0.067765   0.524799  -0.007560  -0.000142   0.006287  -0.004494
    15  C   -1.693917  -0.007560   8.922488  -0.074908   0.685497   0.007967
    16  H   -0.008589  -0.000142  -0.074908   0.524692   0.006868   0.000015
    17  C    0.719396   0.006287   0.685497   0.006868   5.359675   0.021826
    18  H    0.303276  -0.004494   0.007967   0.000015   0.021826   0.533257
    19  H    0.008423   0.000015   0.298829  -0.004488   0.022615  -0.000156
    20  H   -0.011392  -0.000150  -0.009677  -0.000150   0.287371  -0.005000
    21  H   -0.000358   0.000000   0.000081   0.000000  -0.000012   0.000000
    22  H   -0.000008   0.000000  -0.000002   0.000000   0.000000   0.000000
    23  H    0.000008   0.000000  -0.000006   0.000000   0.000000   0.000000
    24  C   -0.004109   0.000061   0.003359  -0.000031   0.000253  -0.000001
    25  H    0.000001   0.000000   0.000002   0.000000   0.000000   0.000000
    26  H   -0.000004   0.000000  -0.000001   0.000000   0.000001   0.000000
    27  C   -0.000052   0.000003  -0.000005   0.000023  -0.000005   0.000000
    28  H    0.000000   0.000000   0.000000   0.000000   0.000000   0.000000
    29  H    0.000000   0.000000   0.000005   0.000000   0.000000   0.000000
    30  H    0.000000   0.000000   0.000000   0.000000   0.000000   0.000000
              19         20         21         22         23         24
     1  C   -0.000001   0.000000  -0.026216   0.581255   0.479521  -1.913277
     2  C   -0.000007  -0.000001   0.404785  -0.336178  -0.124257   3.928762
     3  C   -0.000215   0.000030  -0.029599  -0.067176  -0.004386   1.803317
     4  C    0.000006   0.000000   0.057289   0.255803   0.027265  -6.428818
     5  H    0.000000   0.000000  -0.000027  -0.028776  -0.028306  -0.008837
     6  H    0.000000   0.000000  -0.036838  -0.000772   0.007268   0.039554
     7  H    0.000000   0.000000  -0.000259  -0.000516  -0.000025  -0.075834
     8  C   -0.001349   0.000350  -0.097816  -0.084634   0.010746  -0.003192
     9  C   -0.008777   0.002645  -0.012202  -0.013860   0.001373   0.085375
    10  C    0.003092  -0.003059  -0.011045  -0.002143   0.000524  -0.057991
    11  C   -0.005348   0.014163   0.000634   0.000125   0.000049  -0.032318
    12  C   -0.024169   0.010374  -0.000926  -0.000139  -0.000037   0.039294
    13  C    0.008423  -0.011392  -0.000358  -0.000008   0.000008  -0.004109
    14  H    0.000015  -0.000150   0.000000   0.000000   0.000000   0.000061
    15  C    0.298829  -0.009677   0.000081  -0.000002  -0.000006   0.003359
    16  H   -0.004488  -0.000150   0.000000   0.000000   0.000000  -0.000031
    17  C    0.022615   0.287371  -0.000012   0.000000   0.000000   0.000253
    18  H   -0.000156  -0.005000   0.000000   0.000000   0.000000  -0.000001
    19  H    0.533050  -0.004992   0.000000   0.000000   0.000000   0.000001
    20  H   -0.004992   0.540737   0.000000   0.000000   0.000000   0.000000
    21  H    0.000000   0.000000   0.539906   0.008849  -0.015292  -0.005138
    22  H    0.000000   0.000000   0.008849   0.632880  -0.030810  -0.088553
    23  H    0.000000   0.000000  -0.015292  -0.030810   0.514677  -0.056766
    24  C    0.000001   0.000000  -0.005138  -0.088553  -0.056766   9.671742
    25  H    0.000000   0.000000   0.000734  -0.037283  -0.004246   0.497253
    26  H    0.000000   0.000000  -0.000965  -0.005506   0.003139   0.509813
    27  C    0.000000   0.000000  -0.000359   0.042333   0.008448  -1.321682
    28  H    0.000000   0.000000   0.000000  -0.000049   0.000000  -0.147295
    29  H    0.000000   0.000000   0.000001  -0.000319  -0.000021  -0.135941
    30  H    0.000000   0.000000  -0.000006   0.000021   0.000063  -0.132440
              25         26         27         28         29         30
     1  C   -0.113697  -0.147531  -0.039833   0.001519  -0.006674  -0.006100
     2  C    0.153033   0.083961  -0.172947  -0.009167   0.010638   0.000952
     3  C   -0.030587   0.035646  -0.872263  -0.017035   0.002248  -0.027380
     4  C   -0.212199  -0.196832   1.437395   0.036906   0.000845   0.053207
     5  H    0.003305   0.001837  -0.002139  -0.000002   0.000005   0.000001
     6  H   -0.000574   0.001259   0.006621   0.000000  -0.000002   0.000001
     7  H    0.004689   0.003308  -0.012343   0.000364   0.000930   0.000400
     8  C   -0.021462   0.000291  -0.163506   0.000659  -0.005271  -0.002993
     9  C   -0.004448   0.001916  -0.071190   0.000194  -0.000120  -0.000443
    10  C   -0.000985  -0.000069  -0.006460   0.000028  -0.000251   0.000007
    11  C   -0.000041  -0.000119  -0.000316   0.000001  -0.000021  -0.000001
    12  C    0.000071   0.000130   0.000322  -0.000006   0.000094   0.000000
    13  C    0.000001  -0.000004  -0.000052   0.000000   0.000000   0.000000
    14  H    0.000000   0.000000   0.000003   0.000000   0.000000   0.000000
    15  C    0.000002  -0.000001  -0.000005   0.000000   0.000005   0.000000
    16  H    0.000000   0.000000   0.000023   0.000000   0.000000   0.000000
    17  C    0.000000   0.000001  -0.000005   0.000000   0.000000   0.000000
    18  H    0.000000   0.000000   0.000000   0.000000   0.000000   0.000000
    19  H    0.000000   0.000000   0.000000   0.000000   0.000000   0.000000
    20  H    0.000000   0.000000   0.000000   0.000000   0.000000   0.000000
    21  H    0.000734  -0.000965  -0.000359   0.000000   0.000001  -0.000006
    22  H   -0.037283  -0.005506   0.042333  -0.000049  -0.000319   0.000021
    23  H   -0.004246   0.003139   0.008448   0.000000  -0.000021   0.000063
    24  C    0.497253   0.509813  -1.321682  -0.147295  -0.135941  -0.132440
    25  H    0.536821  -0.041146   0.025943  -0.003326   0.004700  -0.004397
    26  H   -0.041146   0.559780  -0.055388  -0.003130  -0.005896   0.004776
    27  C    0.025943  -0.055388   6.960276   0.486174   0.480500   0.461766
    28  H   -0.003326  -0.003130   0.486174   0.513286  -0.028151  -0.028163
    29  H    0.004700  -0.005896   0.480500  -0.028151   0.504910  -0.031230
    30  H   -0.004397   0.004776   0.461766  -0.028163  -0.031230   0.501434
 Mulliken charges:
               1
     1  C   -0.594519
     2  C   -0.780393
     3  C    0.245445
     4  C   -0.521909
     5  H    0.190650
     6  H    0.222752
     7  H    0.187769
     8  C    0.470287
     9  C   -0.240544
    10  C    0.656035
    11  C   -0.430892
    12  C   -0.351515
    13  C   -0.068292
    14  H    0.195414
    15  C   -0.083886
    16  H    0.195606
    17  C   -0.206324
    18  H    0.183354
    19  H    0.183472
    20  H    0.178751
    21  H    0.224778
    22  H    0.175458
    23  H    0.211071
    24  C   -0.166563
    25  H    0.247841
    26  H    0.250732
    27  C   -1.191314
    28  H    0.197193
    29  H    0.209021
    30  H    0.210525
 Sum of Mulliken charges =   0.00000
 Mulliken charges with hydrogens summed into heavy atoms:
               1
     1  C   -0.017340
     2  C   -0.332863
     3  C    0.245445
     4  C   -0.334140
     8  C    0.470287
     9  C   -0.240544
    10  C    0.656035
    11  C   -0.235479
    12  C   -0.155910
    13  C    0.115061
    15  C    0.099585
    17  C   -0.027573
    24  C    0.332010
    27  C   -0.574575
 Electronic spatial extent (au):  <R**2>=           5282.2753
 Charge=              0.0000 electrons
 Dipole moment (field-independent basis, Debye):
    X=              0.4623    Y=             -0.0721    Z=             -0.0843  Tot=              0.4754
 Quadrupole moment (field-independent basis, Debye-Ang):
   XX=            -71.1781   YY=            -81.6272   ZZ=            -89.4610
   XY=             -0.9361   XZ=             -0.0475   YZ=              2.0254
 Traceless Quadrupole moment (field-independent basis, Debye-Ang):
   XX=              9.5773   YY=             -0.8718   ZZ=             -8.7055
   XY=             -0.9361   XZ=             -0.0475   YZ=              2.0254
 Octapole moment (field-independent basis, Debye-Ang**2):
  XXX=            -35.3776  YYY=              1.1682  ZZZ=              0.9361  XYY=            -15.3648
  XXY=             -0.4300  XXZ=             -3.5247  XZZ=             19.2268  YZZ=             -2.2444
  YYZ=             -0.5575  XYZ=             -7.3066
 Hexadecapole moment (field-independent basis, Debye-Ang**3):
 XXXX=          -6019.9487 YYYY=           -857.3705 ZZZZ=           -160.7543 XXXY=            -15.2542
 XXXZ=              5.4581 YYYX=            -13.9610 YYYZ=             17.1764 ZZZX=              1.3420
 ZZZY=             -3.3624 XXYY=          -1193.3913 XXZZ=          -1154.1874 YYZZ=           -172.8391
 XXYZ=             37.0145 YYXZ=             -3.5805 ZZXY=             -2.2162
 N-N= 7.551479019863D+02 E-N=-2.766020356637D+03  KE= 5.386864418505D+02
 Evaluate density.
 Using the total density.
 Monte-Carlo method of calculating molar volume:
 based on  0.001 e/bohr**3 density envelope.
 Number of points per bohr**3 =   20 CutOff= 1.00D-04
 Using the SCF density.
 There are       417 points.  Will hold       417 in memory.
 LenV=  4026316804 MDV=  4026531840.
 Box volume = 9072.931 fraction occupied=0.213
 Integrated density= 6.0016389714703180D+01 error=-3.9983610285296820D+01
 Molar volume = 1936.429 bohr**3/mol (172.805 cm**3/mol)
 Recommended a0 for SCRF calculation =  5.00 angstrom (  9.46 bohr)
 Calling FoFJK, ICntrl=      2127 FMM=F ISym2X=0 I1Cent= 0 IOpClX= 0 NMat=1 NMatS=1 NMatT=0.
 ***** Axes restored to original set *****
 -------------------------------------------------------------------
 Center     Atomic                   Forces (Hartrees/Bohr)
 Number     Number              X              Y              Z
 -------------------------------------------------------------------
      1        6          -0.078441217    0.000770017    0.033857332
      2        6           0.061883624   -0.023198538    0.052675699
      3        6           0.064085905    0.034724922   -0.094865974
      4        6           0.112352012   -0.012177072    0.034929993
      5        1          -0.010236663   -0.003738928    0.018463712
      6        1           0.016010641    0.006240469    0.019351059
      7        1           0.000948982    0.000005686    0.003393024
      8        6          -0.092361324    0.002696301   -0.011017889
      9        6           0.091133204   -0.001009899    0.001439500
     10        6          -0.062623738    0.004449006    0.001481636
     11        6           0.001944543   -0.003013616    0.009863885
     12        6           0.001972545   -0.002705664   -0.012041960
     13        6          -0.000973162    0.000745180    0.003167224
     14        1           0.001506261    0.000209948   -0.004765853
     15        6          -0.000981809    0.000822660   -0.002642324
     16        1           0.001790694    0.000161750    0.005473697
     17        6          -0.008239407   -0.000361960   -0.000125985
     18        1          -0.002613104    0.000264538   -0.003724061
     19        1          -0.002653655    0.000233554    0.003654011
     20        1           0.012755899   -0.000124741    0.000032595
     21        1           0.017011678   -0.018932472    0.012283126
     22        1          -0.013024935   -0.018183366    0.055675143
     23        1          -0.017803904   -0.012626655   -0.002895422
     24        6          -0.056962164    0.021498447   -0.084736855
     25        1          -0.014082897   -0.005107891   -0.012337516
     26        1          -0.013619288    0.026518480   -0.020297383
     27        6           0.000697251   -0.006340850    0.019664055
     28        1          -0.018315497    0.001576443   -0.003602780
     29        1           0.004810515    0.016882216   -0.006919108
     30        1           0.004029011   -0.010277962   -0.015432580
 -------------------------------------------------------------------
 Cartesian Forces:  Max     0.112352012 RMS     0.030615624

 GradGradGradGradGradGradGradGradGradGradGradGradGradGradGradGradGradGrad
 Berny optimization.
 FormGI is forming the generalized inverse of G from B-inverse, IUseBI=4.
 Internal  Forces:  Max     0.370001233 RMS     0.057590095
 Search for a local minimum.
 Step number   1 out of a maximum of  154
 All quantities printed in internal units (Hartrees-Bohrs-Radians)
 Mixed Optimization -- RFO/linear search
 Second derivative matrix not updated -- first step.
 ITU=  0
     Eigenvalues ---    0.00230   0.00230   0.00230   0.00237   0.01547
     Eigenvalues ---    0.01652   0.02043   0.02070   0.02116   0.02117
     Eigenvalues ---    0.02119   0.02122   0.02123   0.02124   0.02126
     Eigenvalues ---    0.02128   0.02128   0.02132   0.02209   0.03992
     Eigenvalues ---    0.04701   0.04774   0.04849   0.05670   0.05720
     Eigenvalues ---    0.05720   0.06490   0.06950   0.06950   0.09368
     Eigenvalues ---    0.10963   0.12656   0.13763   0.15993   0.15995
     Eigenvalues ---    0.15996   0.16000   0.16000   0.16000   0.16000
     Eigenvalues ---    0.16000   0.16000   0.16000   0.16000   0.16000
     Eigenvalues ---    0.21991   0.21994   0.22000   0.22001   0.22143
     Eigenvalues ---    0.23476   0.24980   0.24995   0.24996   0.28340
     Eigenvalues ---    0.28403   0.28519   0.34325   0.34399   0.34413
     Eigenvalues ---    0.34464   0.34556   0.37230   0.37230   0.37230
     Eigenvalues ---    0.37230   0.37230   0.37230   0.37230   0.37230
     Eigenvalues ---    0.37230   0.37230   0.37309   0.41750   0.42025
     Eigenvalues ---    0.45053   0.45389   0.45928   0.45996   0.46057
     Eigenvalues ---    0.46091   0.46204   0.47155   1.05241
 RFO step:  Lambda=-5.73964590D-01 EMin= 2.30000000D-03
 Linear search not attempted -- first point.
 Maximum step size (   0.300) exceeded in Quadratic search.
    -- Step size scaled by   0.364
 Iteration  1 RMS(Cart)=  0.21232614 RMS(Int)=  0.00839152
 Iteration  2 RMS(Cart)=  0.04987603 RMS(Int)=  0.00044263
 Iteration  3 RMS(Cart)=  0.00095083 RMS(Int)=  0.00015025
 Iteration  4 RMS(Cart)=  0.00000039 RMS(Int)=  0.00015025
 Variable       Old X    -DE/DX   Delta X   Delta X   Delta X     New X
                                 (Linear)    (Quad)   (Total)
    R1        2.64067   0.12253   0.00000   0.04317   0.04317   2.68384
    R2        2.02201   0.01998   0.00000   0.00770   0.00770   2.02970
    R3        2.02201  -0.04080   0.00000  -0.01572  -0.01572   2.00629
    R4        2.02201   0.01841   0.00000   0.00709   0.00709   2.02910
    R5        2.65214   0.18908   0.00000   0.06727   0.06727   2.71941
    R6        2.02201   0.02380   0.00000   0.00917   0.00917   2.03117
    R7        2.02201   0.02437   0.00000   0.00939   0.00939   2.03140
    R8        2.62850   0.06756   0.00000   0.02355   0.02355   2.65205
    R9        2.91400  -0.05962   0.00000  -0.02535  -0.02535   2.88866
   R10        2.06401  -0.00233   0.00000  -0.00092  -0.00092   2.06309
   R11        2.64826   0.08977   0.00000   0.03183   0.03183   2.68009
   R12        2.26611   0.03302   0.00000   0.00740   0.00740   2.27351
   R13        2.91266  -0.05812   0.00000  -0.02469  -0.02469   2.88797
   R14        2.64178   0.00386   0.00000   0.00138   0.00138   2.64316
   R15        2.63832   0.00497   0.00000   0.00177   0.00177   2.64009
   R16        2.64183  -0.00135   0.00000  -0.00048  -0.00048   2.64136
   R17        2.06554  -0.00488   0.00000  -0.00194  -0.00194   2.06360
   R18        2.64238  -0.00136   0.00000  -0.00048  -0.00048   2.64190
   R19        2.06786  -0.00564   0.00000  -0.00224  -0.00224   2.06562
   R20        2.64009   0.00222   0.00000   0.00076   0.00076   2.64085
   R21        2.06662  -0.00453   0.00000  -0.00180  -0.00180   2.06482
   R22        2.63983   0.00215   0.00000   0.00074   0.00074   2.64057
   R23        2.06639  -0.00449   0.00000  -0.00178  -0.00178   2.06461
   R24        2.02083   0.01276   0.00000   0.00491   0.00491   2.02574
   R25        2.02201   0.00684   0.00000   0.00264   0.00264   2.02464
   R26        2.02201   0.00677   0.00000   0.00261   0.00261   2.02462
   R27        2.91018   0.00927   0.00000   0.00393   0.00393   2.91411
   R28        2.02201   0.01820   0.00000   0.00701   0.00701   2.02902
   R29        2.02201   0.01858   0.00000   0.00716   0.00716   2.02916
   R30        2.02201   0.01870   0.00000   0.00720   0.00720   2.02921
    A1        1.91063  -0.00836   0.00000  -0.00458  -0.00456   1.90607
    A2        1.91063   0.04224   0.00000   0.02120   0.02113   1.93176
    A3        1.91063   0.01299   0.00000   0.00666   0.00658   1.91721
    A4        1.91063  -0.02444   0.00000  -0.01256  -0.01253   1.89810
    A5        1.91063  -0.01013   0.00000  -0.00547  -0.00546   1.90518
    A6        1.91063  -0.01230   0.00000  -0.00525  -0.00541   1.90522
    A7        2.09099   0.24400   0.00000   0.11258   0.11282   2.20381
    A8        1.87157  -0.07064   0.00000  -0.03200  -0.03198   1.83959
    A9        1.87157  -0.05471   0.00000  -0.02390  -0.02374   1.84783
   A10        1.87157  -0.06854   0.00000  -0.03076  -0.03083   1.84075
   A11        1.87157  -0.08475   0.00000  -0.03913  -0.03938   1.83219
   A12        1.87754   0.02063   0.00000   0.00625   0.00504   1.88258
   A13        2.09733   0.37000   0.00000   0.16368   0.16366   2.26100
   A14        2.03358  -0.17656   0.00000  -0.07812  -0.07811   1.95547
   A15        2.15206  -0.19361   0.00000  -0.08566  -0.08566   2.06640
   A16        2.09462  -0.13362   0.00000  -0.06141  -0.06141   2.03321
   A17        2.09293   0.26319   0.00000   0.12083   0.12083   2.21376
   A18        2.09507  -0.12931   0.00000  -0.05927  -0.05927   2.03580
   A19        2.09307   0.00027   0.00000   0.00010   0.00010   2.09317
   A20        2.09164  -0.00009   0.00000  -0.00006  -0.00006   2.09158
   A21        2.09779  -0.00016   0.00000  -0.00002  -0.00003   2.09776
   A22        2.09144  -0.00069   0.00000  -0.00030  -0.00030   2.09114
   A23        2.09611  -0.00077   0.00000  -0.00040  -0.00040   2.09570
   A24        2.09540   0.00147   0.00000   0.00071   0.00071   2.09611
   A25        2.09320  -0.00107   0.00000  -0.00046  -0.00046   2.09274
   A26        2.09628  -0.00068   0.00000  -0.00037  -0.00037   2.09591
   A27        2.09347   0.00176   0.00000   0.00084   0.00084   2.09431
   A28        2.09342   0.00147   0.00000   0.00065   0.00065   2.09406
   A29        2.09403  -0.00115   0.00000  -0.00053  -0.00053   2.09350
   A30        2.09573  -0.00032   0.00000  -0.00012  -0.00012   2.09562
   A31        2.09222   0.00162   0.00000   0.00073   0.00073   2.09295
   A32        2.09489  -0.00129   0.00000  -0.00060  -0.00060   2.09429
   A33        2.09607  -0.00033   0.00000  -0.00012  -0.00012   2.09594
   A34        2.09766  -0.00113   0.00000  -0.00057  -0.00057   2.09710
   A35        2.09278   0.00055   0.00000   0.00027   0.00027   2.09305
   A36        2.09274   0.00059   0.00000   0.00029   0.00029   2.09303
   A37        1.91063   0.01319   0.00000   0.00718   0.00715   1.91778
   A38        1.91063   0.01323   0.00000   0.00700   0.00696   1.91759
   A39        1.91063  -0.00630   0.00000  -0.00316  -0.00315   1.90749
   A40        1.91063   0.01023   0.00000   0.00572   0.00563   1.91626
   A41        1.91063  -0.01215   0.00000  -0.00673  -0.00673   1.90391
   A42        1.91063  -0.01819   0.00000  -0.01001  -0.01001   1.90062
   A43        1.91063   0.00510   0.00000   0.00254   0.00254   1.91317
   A44        1.91063   0.00307   0.00000   0.00152   0.00152   1.91215
   A45        1.91063   0.00288   0.00000   0.00142   0.00142   1.91206
   A46        1.91063  -0.00385   0.00000  -0.00190  -0.00190   1.90873
   A47        1.91063  -0.00388   0.00000  -0.00192  -0.00192   1.90871
   A48        1.91063  -0.00332   0.00000  -0.00167  -0.00167   1.90896
   A49        3.11239   0.00485   0.00000   0.00288   0.00287   3.11526
   A50        3.14159   0.00122   0.00000   0.00091   0.00084   3.14242
   A51        3.14987  -0.00175   0.00000  -0.00143  -0.00117   3.14870
   A52        3.14159  -0.00062   0.00000  -0.00054  -0.00044   3.14115
    D1       -2.58547  -0.01069   0.00000  -0.00632  -0.00619  -2.59165
    D2       -0.44998   0.01217   0.00000   0.00593   0.00576  -0.44422
    D3        1.56223  -0.02536   0.00000  -0.01422  -0.01417   1.54806
    D4       -0.49107  -0.01988   0.00000  -0.01152  -0.01145  -0.50252
    D5        1.64441   0.00298   0.00000   0.00072   0.00050   1.64491
    D6       -2.62656  -0.03455   0.00000  -0.01943  -0.01943  -2.64599
    D7        1.60332  -0.00112   0.00000  -0.00089  -0.00072   1.60260
    D8       -2.54438   0.02174   0.00000   0.01135   0.01123  -2.53315
    D9       -0.53216  -0.01579   0.00000  -0.00880  -0.00870  -0.54087
   D10       -0.06456  -0.01652   0.00000  -0.00963  -0.00955  -0.07412
   D11        3.09824  -0.00531   0.00000  -0.00315  -0.00286   3.09539
   D12       -2.20005  -0.03835   0.00000  -0.02126  -0.02101  -2.22105
   D13        0.96276  -0.02714   0.00000  -0.01478  -0.01431   0.94845
   D14        2.07092   0.01287   0.00000   0.00573   0.00507   2.07600
   D15       -1.04946   0.02408   0.00000   0.01221   0.01177  -1.03769
   D16       -3.11087   0.01170   0.00000   0.00699   0.00706  -3.10381
   D17        0.06660   0.00565   0.00000   0.00337   0.00345   0.07005
   D18        0.00801   0.00059   0.00000   0.00044   0.00037   0.00837
   D19       -3.09770  -0.00547   0.00000  -0.00318  -0.00325  -3.10096
   D20       -0.42138   0.00004   0.00000  -0.00050  -0.00019  -0.42156
   D21        2.76189  -0.00091   0.00000  -0.00090  -0.00066   2.76123
   D22        2.74721   0.00117   0.00000   0.00107   0.00083   2.74804
   D23       -0.35271   0.00022   0.00000   0.00066   0.00035  -0.35235
   D24       -0.99811  -0.00366   0.00000  -0.00139  -0.00142  -0.99953
   D25        1.09628   0.02504   0.00000   0.01429   0.01433   1.11062
   D26       -3.09251   0.00701   0.00000   0.00439   0.00439  -3.08812
   D27        2.17937  -0.00962   0.00000  -0.00497  -0.00500   2.17437
   D28       -2.00942   0.01908   0.00000   0.01071   0.01075  -1.99867
   D29        0.08498   0.00105   0.00000   0.00081   0.00080   0.08578
   D30       -3.13968   0.00017   0.00000   0.00006   0.00007  -3.13961
   D31        0.02538  -0.00045   0.00000  -0.00032  -0.00031   0.02508
   D32       -0.03799   0.00091   0.00000   0.00060   0.00058  -0.03741
   D33        3.12707   0.00030   0.00000   0.00022   0.00021   3.12728
   D34        3.14019  -0.00017   0.00000  -0.00006  -0.00007   3.14012
   D35       -0.02477   0.00043   0.00000   0.00031   0.00029  -0.02448
   D36        0.03847  -0.00092   0.00000  -0.00060  -0.00059   0.03788
   D37       -3.12649  -0.00033   0.00000  -0.00024  -0.00022  -3.12671
   D38        0.02003  -0.00048   0.00000  -0.00031  -0.00031   0.01972
   D39       -3.12378  -0.00047   0.00000  -0.00030  -0.00030  -3.12407
   D40        3.13816   0.00010   0.00000   0.00005   0.00006   3.13821
   D41       -0.00565   0.00011   0.00000   0.00006   0.00007  -0.00558
   D42       -0.02094   0.00049   0.00000   0.00032   0.00031  -0.02063
   D43        3.12361   0.00046   0.00000   0.00029   0.00029   3.12390
   D44       -3.13921  -0.00007   0.00000  -0.00003  -0.00003  -3.13924
   D45        0.00535  -0.00010   0.00000  -0.00006  -0.00006   0.00529
   D46       -0.00265   0.00007   0.00000   0.00004   0.00004  -0.00261
   D47        3.13963   0.00007   0.00000   0.00004   0.00004   3.13967
   D48        3.14116   0.00006   0.00000   0.00002   0.00003   3.14119
   D49        0.00025   0.00005   0.00000   0.00003   0.00003   0.00029
   D50        0.00308  -0.00007   0.00000  -0.00004  -0.00004   0.00304
   D51       -3.13920  -0.00006   0.00000  -0.00004  -0.00004  -3.13924
   D52       -3.14147  -0.00003   0.00000  -0.00001  -0.00001  -3.14149
   D53       -0.00057  -0.00003   0.00000  -0.00001  -0.00002  -0.00058
   D54        3.13309   0.00120   0.00000   0.00074   0.00073   3.13382
   D55       -1.05570   0.00148   0.00000   0.00090   0.00090  -1.05481
   D56        1.03869   0.00107   0.00000   0.00066   0.00066   1.03935
   D57        1.03869  -0.00365   0.00000  -0.00200  -0.00199   1.03670
   D58        3.13309  -0.00336   0.00000  -0.00184  -0.00183   3.13126
   D59       -1.05570  -0.00378   0.00000  -0.00208  -0.00207  -1.05777
   D60       -1.05570   0.00241   0.00000   0.00125   0.00125  -1.05446
   D61        1.03869   0.00269   0.00000   0.00141   0.00141   1.04010
   D62        3.13309   0.00228   0.00000   0.00117   0.00117   3.13425
         Item               Value     Threshold  Converged?
 Maximum Force            0.370001     0.000450     NO 
 RMS     Force            0.057590     0.000300     NO 
 Maximum Displacement     1.040871     0.001800     NO 
 RMS     Displacement     0.258393     0.001200     NO 
 Predicted change in Energy=-1.975738D-01
 GradGradGradGradGradGradGradGradGradGradGradGradGradGradGradGradGradGrad

                          Input orientation:                          
 ---------------------------------------------------------------------
 Center     Atomic      Atomic             Coordinates (Angstroms)
 Number     Number       Type             X           Y           Z
 ---------------------------------------------------------------------
      1          6           0       -5.263794   -1.121228    1.571570
      2          6           0       -3.884755   -1.036524    1.242750
      3          6           0       -3.331519   -0.518373    0.019512
      4          6           0       -3.986570   -0.064543   -1.135691
      5          1           0       -5.381718   -1.006493    2.632967
      6          1           0       -3.439267   -0.453683    2.028334
      7          1           0       -3.349796    0.254029   -1.963295
      8          6           0       -1.802987   -0.521292    0.034762
      9          6           0       -0.600069   -0.518628    0.014711
     10          6           0        0.927983   -0.514722   -0.009487
     11          6           0        1.644887   -0.489872    1.191260
     12          6           0        1.603779   -0.488443   -1.231956
     13          6           0        3.042396   -0.483950    1.166252
     14          1           0        1.114279   -0.496964    2.145666
     15          6           0        3.001600   -0.483046   -1.255668
     16          1           0        1.041360   -0.493862   -2.169224
     17          6           0        3.718949   -0.478968   -0.056531
     18          1           0        3.604723   -0.481136    2.103096
     19          1           0        3.531630   -0.479246   -2.211023
     20          1           0        4.790754   -0.472645   -0.074628
     21          1           0       -3.502460   -2.038389    1.318090
     22          1           0       -5.813604   -0.356010    1.082365
     23          1           0       -5.651127   -2.077874    1.275352
     24          6           0       -5.386552    0.057535   -1.326919
     25          1           0       -5.860213   -0.889948   -1.166273
     26          1           0       -5.785214    0.782497   -0.646218
     27          6           0       -5.664917    0.522068   -2.770781
     28          1           0       -6.724144    0.608759   -2.923675
     29          1           0       -5.201951    1.476583   -2.936861
     30          1           0       -5.262821   -0.194082   -3.462533
 ---------------------------------------------------------------------
                    Distance matrix (angstroms):
                    1          2          3          4          5
     1  C    0.000000
     2  C    1.420228   0.000000
     3  C    2.550687   1.439049   0.000000
     4  C    3.174452   2.571400   1.403405   0.000000
     5  H    1.074073   2.043160   3.357339   4.127528   0.000000
     6  H    1.995782   1.074851   2.012750   3.234506   2.108150
     7  H    4.248528   3.497204   2.128018   1.091741   5.181047
     8  C    3.833913   2.461393   1.528611   2.519249   4.448978
     9  C    4.953510   3.544778   2.731454   3.605275   5.473339
    10  C    6.419167   5.000282   4.259603   5.061999   6.858333
    11  C    6.947887   5.556835   5.112576   6.108103   7.191565
    12  C    7.444712   6.045541   5.091585   5.607224   8.000198
    13  C    8.340456   6.949576   6.476341   7.408185   8.566797
    14  H    6.434214   5.108494   4.928094   6.080539   6.534146
    15  C    8.758841   7.346449   6.460320   7.001718   9.256106
    16  H    7.358131   6.016864   4.890116   5.150979   8.036153
    17  C    9.151660   7.734035   7.050988   7.791749   9.504410
    18  H    8.907460   7.559162   7.242526   8.263839   9.017366
    19  H    9.595814   8.200114   7.216622   7.606027  10.158248
    20  H   10.209044   8.793060   8.122948   8.850640  10.540173
    21  H    2.001932   1.074968   2.006482   3.186137   2.515019
    22  H    1.061683   2.051654   2.704951   2.888387   1.736093
    23  H    1.073753   2.050742   3.064271   3.554909   1.750302
    24  C    3.131420   3.171051   2.523431   1.418245   4.100351
    25  H    2.811582   3.118864   2.817524   2.047624   3.831026
    26  H    2.968945   3.238639   2.855885   2.047481   3.757173
    27  C    4.660186   4.659037   3.783252   2.415467   5.622917
    28  H    5.033160   5.303601   4.630623   3.338342   5.940320
    29  H    5.203691   5.051719   4.027220   2.663913   6.100898
    30  H    5.118769   4.974783   3.994963   2.657027   6.150550
                    6          7          8          9         10
     6  H    0.000000
     7  H    4.054870   0.000000
     8  C    2.579983   2.643099   0.000000
     9  C    3.481371   3.474263   1.203088   0.000000
    10  C    4.819681   4.765264   2.731337   1.528249   0.000000
    11  C    5.152730   5.954113   3.636800   2.534744   1.398700
    12  C    6.005249   5.062018   3.634792   2.532200   1.397075
    13  C    6.538812   7.155333   4.975882   3.820315   2.419515
    14  H    4.555263   6.113551   3.600965   2.735037   2.163263
    15  C    7.229820   6.433059   4.975010   3.819313   2.419474
    16  H    6.139799   4.459148   3.598419   2.732119   2.162811
    17  C    7.455693   7.358001   5.522852   4.319788   2.791591
    18  H    7.044441   8.089582   5.789901   4.695002   3.410143
    19  H    8.158812   6.924817   5.788217   4.693227   3.409838
    20  H    8.494472   8.388306   6.594828   5.391760   3.863549
    21  H    1.737737   4.005742   2.614712   3.525952   4.869584
    22  H    2.557709   3.964661   4.148474   5.324216   6.831276
    23  H    2.845576   4.606813   4.332458   5.434487   6.883237
    24  C    3.912926   2.142885   3.877003   5.004233   6.475836
    25  H    4.031975   2.871606   4.247290   5.403861   6.896271
    26  H    3.766277   2.818729   4.245201   5.386602   6.866966
    27  C    5.379323   2.466508   4.886121   5.873218   7.222604
    28  H    6.036687   3.526242   5.852106   6.885448   8.264971
    29  H    5.611252   2.423417   4.937105   5.819790   7.078906
    30  H    5.791578   2.471474   4.930374   5.825617   7.095942
                   11         12         13         14         15
    11  C    0.000000
    12  C    2.423565   0.000000
    13  C    1.397745   2.796612   0.000000
    14  H    1.092010   3.412918   2.162650   0.000000
    15  C    2.797887   1.398032   2.422264   3.889890   0.000000
    16  H    3.414251   1.093077   3.889684   4.315507   2.162693
    17  C    2.420502   2.419846   1.397479   3.410909   1.397332
    18  H    2.161592   3.889267   1.092656   2.490859   3.412486
    19  H    3.890429   2.162236   3.412529   4.982433   1.092543
    20  H    3.391054   3.390644   2.143984   4.294970   2.143837
    21  H    5.376726   5.914283   6.728631   4.937120   7.165620
    22  H    7.460487   7.771177   8.857321   7.010423   9.120874
    23  H    7.467305   7.838785   8.839109   7.001960   9.155284
    24  C    7.488793   7.012263   8.806604   7.391016   8.405854
    25  H    7.876836   7.475072   9.212055   7.730906   8.871600
    26  H    7.758972   7.520346   9.100310   7.552128   8.898378
    27  C    8.375860   7.498204   9.608829   8.436075   8.855187
    28  H    9.390439   8.568551  10.644567   9.400090   9.927959
    29  H    8.233318   7.286014   9.415333   8.343963   8.600279
    30  H    8.334369   7.225809   9.512429   8.497707   8.558879
                   16         17         18         19         20
    16  H    0.000000
    17  C    3.410744   0.000000
    18  H    4.982340   2.162647   0.000000
    19  H    2.490664   2.162620   4.314738   0.000000
    20  H    4.294850   1.071977   2.479763   2.479843   0.000000
    21  H    5.932387   7.514660   7.318014   8.022717   8.553866
    22  H    7.588304   9.601133   9.474304   9.909338  10.667926
    23  H    7.691786   9.598371   9.428971   9.951555  10.650450
    24  C    6.506271   9.209335   9.638371   8.977958  10.267759
    25  H    6.985306   9.651982  10.022022   9.458694  10.714893
    26  H    7.109905   9.605630   9.865415   9.531222  10.665514
    27  C    6.809415   9.819682  10.520805   9.267817  10.843420
    28  H    7.879595  10.884018  11.538708  10.337917  11.911313
    29  H    6.591726   9.576165  10.333990   8.979285  10.575728
    30  H    6.442454   9.610109  10.473393   8.887630  10.612722
                   21         22         23         24         25
    21  H    0.000000
    22  H    2.868335   0.000000
    23  H    2.149454   1.740247   0.000000
    24  C    3.865070   2.481540   3.376653   0.000000
    25  H    3.612474   2.311630   2.723310   1.071394   0.000000
    26  H    4.126362   2.070025   3.448497   1.071380   1.753041
    27  C    5.286872   3.954727   4.809479   1.542082   2.146247
    28  H    5.948041   4.219978   5.099136   2.154676   2.465960
    29  H    5.774764   4.459450   5.529798   2.153993   3.027996
    30  H    5.417997   4.581013   5.113415   2.153942   2.472634
                   26         27         28         29         30
    26  H    0.000000
    27  C    2.143843   0.000000
    28  H    2.469531   1.073710   0.000000
    29  H    2.463533   1.073787   1.752245   0.000000
    30  H    3.026257   1.073812   1.752252   1.752472   0.000000
 Stoichiometry    C14H16
 Framework group  C1[X(C14H16)]
 Deg. of freedom    84
 Full point group                 C1      NOp   1
 Largest Abelian subgroup         C1      NOp   1
 Largest concise Abelian subgroup C1      NOp   1
                         Standard orientation:                         
 ---------------------------------------------------------------------
 Center     Atomic      Atomic             Coordinates (Angstroms)
 Number     Number       Type             X           Y           Z
[...]
 .00000285,-0.00000071,0.00000257,0.00000513,0.00000672,0.00000376,-0.0
 0000070,-0.00000278,-0.00000360,0.00087642,-0.00067071,0.00100747,-0.0
 0009035,0.00004829,-0.00000418,0.00003996,0.00021065,0.00015170,-0.001
 81998,0.53747636,0.00054761,0.00048014,-0.00050777,-0.00077168,-0.0030
 5659,-0.00050773,-0.02615378,0.00171337,0.00045816,-0.01042234,0.01115
 166,-0.08597402,0.00004327,-0.00012839,-0.00025536,0.00018942,-0.00018
 120,0.00022862,0.02191963,-0.00015317,0.00454106,0.00071130,0.00645604
 ,0.00115076,-0.00215428,-0.00035892,-0.00022859,0.00081808,-0.00039537
 ,0.00001753,-0.00023515,0.00005716,-0.00003290,-0.00033956,-0.00002983
 ,-0.00009971,0.00009495,-0.00009781,0.00001478,0.00001724,0.00001827,0
 .00001959,0.00006773,0.00011239,0.00006830,-0.00000158,-0.00003936,-0.
 00000382,-0.00021749,-0.00001087,-0.00001951,-0.00002357,0.00001254,-0
 .00002139,-0.00003716,-0.00001144,0.00001804,-0.00001754,-0.00000359,0
 .00000004,-0.00088184,0.00151364,-0.00143975,0.00010906,0.00008545,0.0
 0027423,-0.00004703,-0.00018590,-0.00013020,-0.05691508,-0.06252972,0.
 50878799,0.00035474,0.00024237,-0.00023688,-0.00123285,-0.00030337,-0.
 00077038,0.00069490,-0.00039969,0.00056957,-0.01744144,-0.01443157,0.0
 2712679,0.00001095,-0.00007087,-0.00006295,0.00065623,0.00013333,0.000
 18520,-0.00558003,0.00086709,-0.00144438,0.00036588,-0.00001896,-0.000
 30228,0.00007632,0.00006111,0.00001545,0.00011231,-0.00001122,0.000003
 69,-0.00005467,-0.00002961,0.00002037,-0.00002227,-0.00000787,0.000011
 69,0.00000369,0.00000144,0.00001283,0.00000248,0.00000644,-0.00000582,
 0.00001345,0.00001883,-0.00002812,0.00001462,0.00000777,-0.00000811,-0
 .00005029,-0.00000238,-0.00000450,-0.00000965,0.00000452,-0.00000707,-
 0.00000497,-0.00000363,0.00000536,-0.00000703,0.00000136,-0.00000243,0
 .00062633,0.00156459,-0.00120137,0.00007044,0.00005314,0.00022424,-0.0
 0007004,-0.00012190,-0.00011502,-0.11881402,-0.04750514,0.10256428,0.1
 2979116,-0.00014020,0.00026335,-0.00011337,0.00108732,-0.00060032,0.00
 082236,0.00024872,-0.00026022,0.00003234,-0.00046148,-0.00005669,-0.00
 224679,0.00002872,-0.00004909,-0.00005521,-0.00004393,-0.00001817,-0.0
 0013431,0.00035259,0.00153803,0.00006381,-0.00019117,0.00003688,0.0000
 3251,-0.00003904,0.00000741,-0.00004196,0.00004110,0.00000591,0.000012
 05,-0.00002463,-0.00000645,0.00000905,-0.00001788,0.00000118,-0.000004
 52,0.00000052,-0.00000571,-0.00000136,0.00000375,0.00000208,0.00000300
 ,0.00000117,0.00000191,-0.00000639,0.00000606,0.00000357,-0.00000270,-
 0.00001568,-0.00000033,-0.00000075,-0.00000507,0.00000254,-0.00000332,
 -0.00000404,-0.00000213,0.00000240,-0.00000442,0.00000084,-0.00000010,
 0.00121209,-0.00057143,0.00151501,0.00003736,-0.00006757,-0.00003253,-
 0.00002947,-0.00015948,-0.00010502,-0.04844242,-0.08576679,0.07552368,
 0.05414437,0.09046388,-0.00005330,0.00008162,0.00013168,-0.00103854,0.
 00120477,-0.00119430,0.00012334,0.00013600,-0.00056039,-0.00240286,-0.
 00304243,0.00630650,-0.00000486,0.00002809,0.00003215,-0.00024445,-0.0
 0011381,0.00008675,-0.00178739,0.00034244,0.00079464,0.00018032,-0.000
 15937,0.00005777,0.00009992,0.00001230,0.00004942,-0.00004800,0.000009
 68,-0.00001163,0.00002298,0.00000674,-0.00000633,0.00001679,0.00000292
 ,0.00000273,-0.00000336,0.00000160,-0.00000340,-0.00000191,-0.00000192
 ,0.00000105,-0.00000437,-0.00000518,0.00000556,-0.00000144,-0.00000290
 ,0.00000028,0.00001755,0.00000168,0.00000159,0.00000431,-0.00000230,0.
 00000315,0.00000169,0.00000049,-0.00000226,0.00000295,-0.00000054,0.00
 000016,-0.00182381,0.00100248,-0.00109324,0.00003061,-0.00011099,-0.00
 002649,0.00002834,-0.00006530,0.00001739,0.10511438,0.07473735,-0.2039
 8538,-0.11026114,-0.08246908,0.22697704,0.00010281,0.00021507,0.000035
 58,-0.00036287,0.00002148,0.00062405,-0.00333884,-0.00078897,0.0015856
 8,-0.01296570,0.03339092,-0.00783080,0.00002254,-0.00004306,-0.0000968
 8,0.00021300,0.00009858,-0.00004989,0.00074558,-0.00085086,0.00026043,
 -0.00047923,-0.00157884,-0.00178226,-0.00031548,0.00000015,0.00000534,
 0.00025229,0.00011597,0.00015832,-0.00010560,-0.00004751,0.00001953,-0
 .00013411,0.00005629,-0.00006780,0.00001283,-0.00000982,0.00006546,0.0
 0001694,-0.00000719,0.00000238,0.00001851,-0.00001930,-0.00006297,0.00
 001116,0.00001556,0.00001679,-0.00013142,-0.00000318,-0.00000970,-0.00
 001984,0.00000987,-0.00001601,-0.00002865,-0.00001179,0.00001367,-0.00
 001709,0.00000062,0.00000044,0.00028701,0.00027700,-0.00009105,-0.0000
 0907,0.00001512,0.00008463,0.00002596,-0.00007512,-0.00003097,-0.06502
 409,0.06452201,-0.00313004,0.00477372,-0.01668260,0.00114418,0.0731788
 0,0.00008352,-0.00012138,-0.00004825,-0.00013467,-0.00028551,-0.000180
 07,-0.00042878,0.00041405,-0.00152157,0.00187550,0.00077420,0.00224466
 ,0.00000385,-0.00000847,0.00001664,0.00012900,0.00003484,0.00009784,0.
 00068780,0.00065417,-0.00001778,0.00066639,-0.00026048,0.00005201,-0.0
 0022932,0.00004079,0.00003461,0.00002375,0.00001562,-0.00000049,0.0000
 0534,0.00002315,-0.00001740,0.00000716,-0.00001787,0.00003056,0.000010
 44,0.00000636,-0.00000493,-0.00000580,-0.00000086,-0.00000711,0.000010
 90,-0.00000475,0.00000441,-0.00000667,-0.00000574,-0.00000080,0.000008
 99,0.00000247,0.00000112,0.00000525,-0.00000334,0.00000237,0.00000786,
 0.00000136,-0.00000369,0.00000521,-0.00000087,-0.00000041,0.00018092,0
 .00019632,-0.00011918,0.00000723,0.00004904,0.00004070,-0.00002738,0.0
 0003615,-0.00003354,0.06129278,-0.27546723,0.02804463,0.00251018,-0.01
 134264,0.00183807,-0.06887445,0.30177088,-0.00007417,0.00012350,0.0001
 4360,-0.00026788,0.00075410,0.00027178,0.00010546,-0.00026767,0.000452
 29,-0.00398855,0.00606861,-0.00216630,0.00002731,-0.00002858,0.0000033
 1,-0.00036780,-0.00007294,-0.00025712,0.00009648,-0.00043109,0.0003625
 9,-0.00068360,-0.00017327,-0.00037926,0.00019042,-0.00007198,-0.000011
 22,-0.00006793,0.00003097,0.00003343,0.00000469,-0.00001889,0.00002064
 ,0.00000285,0.00001993,-0.00001964,-0.00001487,0.00000134,0.00000338,0
 .00000596,-0.00000198,0.00000385,-0.00001601,-0.00001056,-0.00001131,0
 .00000560,0.00000730,0.00000156,0.00000205,-0.00000021,0.00000085,-0.0
 0000432,0.00000178,-0.00000227,-0.00000444,-0.00000151,0.00000171,-0.0
 0000384,0.00000074,0.00000027,-0.00014438,-0.00045010,0.00028902,0.000
 00257,-0.00005780,-0.00005840,0.00006549,-0.00007608,-0.00004985,-0.00
 274197,0.02945856,-0.04884336,-0.00730925,0.02473148,-0.00272981,0.009
 69698,-0.02723993,0.05509218,0.00035727,0.00048273,-0.00019312,-0.0006
 1432,-0.00130131,-0.00023755,-0.00259232,-0.00127649,0.00124761,-0.013
 37523,-0.01521050,-0.03207025,0.00001904,-0.00006336,-0.00019384,0.000
 16668,0.00011582,-0.00005759,0.00064661,0.00045382,0.00021549,-0.00041
 647,0.00259138,0.00101143,-0.00037014,-0.00013851,-0.00013817,0.000298
 20,-0.00016184,-0.00001434,-0.00011886,-0.00001156,0.00004274,-0.00013
 748,0.00002585,-0.00007906,0.00001945,-0.00006227,0.00002431,0.0000158
 7,0.00000716,0.00001200,0.00001531,0.00006883,-0.00000305,0.00001608,-
 0.00001735,-0.00000781,-0.00013255,-0.00000445,-0.00001026,-0.00002022
 ,0.00000861,-0.00001673,-0.00002891,-0.00001149,0.00001367,-0.00001673
 ,-0.00000163,-0.00000144,0.00042540,0.00025882,-0.00012850,0.00003407,
 0.00000666,0.00013513,-0.00002608,-0.00011450,-0.00004289,-0.08087061,
 -0.01643452,-0.01916706,0.00505261,0.00893188,0.01314100,0.00280409,0.
 00364245,0.00635863,0.56601273,-0.00002100,-0.00006648,0.00003397,0.00
 002621,0.00005219,-0.00007712,0.00237151,-0.00072842,0.00077041,-0.004
 17473,0.00174555,0.00117668,-0.00001475,0.00000909,0.00005951,0.000121
 32,-0.00006776,0.00012039,0.00025882,0.00015744,-0.00002177,-0.0004110
 4,-0.00062182,-0.00013777,0.00051316,0.00007016,0.00008345,-0.00025481
 ,0.00003534,-0.00002040,0.00008535,-0.00000395,0.00001411,0.00008978,0
 .00000348,-0.00001079,-0.00002322,0.00000852,-0.00001050,-0.00001004,0
 .00000487,0.00000092,-0.00002134,-0.00001875,0.00000389,-0.00001099,0.
 00000398,0.00000647,0.00007143,0.00000139,0.00000485,0.00001102,-0.000
 00344,0.00001041,0.00001057,0.00000649,-0.00000602,0.00000912,0.000001
 64,0.00000217,0.00004840,0.00022725,0.00011060,0.00002599,-0.00002137,
 -0.00002887,-0.00002918,-0.00006163,-0.00008354,-0.01157751,-0.1014904
 6,-0.04138896,0.00368465,0.00648575,0.00975561,-0.00903532,-0.01742344
 ,-0.03022896,-0.01613416,0.54383601,-0.00019953,-0.00013071,0.00007613
 ,0.00025265,0.00035250,-0.00025139,0.00282115,-0.00203427,0.00142724,-
 0.01425778,-0.00120008,-0.00833447,-0.00002367,0.00000719,0.00012229,-
 0.00005729,-0.00006178,0.00009218,0.00122352,0.00049904,0.00118246,-0.
 00143364,0.00009374,-0.00002286,0.00095327,0.00002787,0.00008976,-0.00
 052120,-0.00001848,-0.00005164,0.00015561,-0.00000536,0.00004769,0.000
 17729,-0.00001051,0.00000276,-0.00005647,0.00001712,-0.00003852,-0.000
 01265,0.00000430,-0.00000668,-0.00005478,-0.00001435,0.00001726,-0.000
 01142,0.00001028,0.00000253,0.00014269,0.00000439,0.00001060,0.0000146
 8,-0.00000732,0.00001392,0.00002405,0.00001266,-0.00001093,0.00001400,
 0.00000187,0.00000061,-0.00013821,-0.00012588,0.00005979,-0.00000831,-
 0.00000817,-0.00005274,0.00003278,0.00006203,0.00002316,-0.01242741,-0
 .04202220,-0.14699658,-0.00771837,-0.01510282,-0.02267937,0.00078828,0
 .00028147,0.00029003,-0.02383005,-0.04715899,0.48903924,0.00006684,0.0
 0011987,0.00001339,-0.00013322,-0.00009733,-0.00001335,0.00019693,-0.0
 0070122,0.00038704,0.00043312,-0.00082081,-0.00286722,0.00000966,-0.00
 000127,-0.00008216,0.00003090,0.00005311,-0.00005039,0.00027028,0.0001
 8368,0.00021289,-0.00014131,0.00019159,0.00009588,-0.00006454,0.000018
 98,-0.00001053,0.00016519,-0.00001096,0.00000954,-0.00006667,-0.000014
 69,0.00001845,-0.00006198,0.00000497,-0.00002962,0.00000829,-0.0000198
 1,0.00002507,0.00001208,-0.00000115,0.00000540,0.00001197,0.00002314,-
 0.00002407,0.00001423,0.00000452,-0.00000340,-0.00007448,-0.00000239,-
 0.00000628,-0.00001348,0.00000681,-0.00001232,-0.00001522,-0.00000736,
 0.00001023,-0.00001426,-0.00000023,-0.00000149,0.00004196,0.00001011,0
 .00000701,-0.00000990,-0.00000607,0.00001904,-0.00000225,-0.00002406,0
 .00001840,-0.00592370,0.00131129,0.00031254,0.00039872,0.00015616,-0.0
 0055654,0.00015851,-0.00065087,0.00008435,-0.30003679,0.02531898,-0.04
 347408,0.32526329,0.00003023,0.00005429,-0.00001208,-0.00006339,-0.000
 11213,-0.00005093,-0.00095334,0.00025081,-0.00006344,0.00025555,-0.000
 88294,-0.00321130,0.00000561,-0.00000779,-0.00002454,0.00001594,0.0000
 2579,-0.00005171,0.00020599,-0.00002534,0.00013434,0.00003973,0.000338
 83,0.00002316,-0.00016543,-0.00000211,-0.00001399,0.00008167,-0.000032
 25,0.00000125,-0.00002844,0.00000065,-0.00000161,-0.00003457,0.0000003
 9,-0.00000651,0.00000622,-0.00000513,0.00000352,0.00000345,-0.00000057
 ,0.00000162,0.00000521,0.00001051,0.00000330,0.00000412,-0.00000418,-0
 .00000257,-0.00002477,-0.00000139,-0.00000235,-0.00000356,0.00000126,-
 0.00000304,-0.00000540,-0.00000230,0.00000233,-0.00000306,-0.00000041,
 -0.00000044,0.00005919,-0.00000650,-0.00002853,-0.00000251,0.00000274,
 0.00001280,0.00000165,-0.00000404,0.00000611,-0.01768310,0.00048019,-0
 .00280053,0.00049708,0.00041830,0.00052035,-0.00030645,0.00031988,0.00
 074596,0.02610018,-0.05206230,0.00534033,-0.02762953,0.05180156,0.0001
 0521,0.00015523,-0.00004250,-0.00012192,-0.00042375,-0.00005471,-0.001
 17609,-0.00023803,0.00033675,0.00071016,-0.00273882,-0.00501420,0.0000
 0797,-0.00001305,-0.00009430,0.00002986,0.00004478,-0.00002944,-0.0003
 4659,-0.00015060,0.00013524,0.00004787,0.00066872,0.00018711,-0.000286
 89,-0.00001521,-0.00004182,0.00020707,-0.00004394,0.00000992,-0.000074
 43,-0.00000259,0.00000773,-0.00008392,0.00000984,-0.00003109,0.0000166
 9,-0.00002299,0.00001875,0.00001025,-0.00000063,0.00000521,0.00001417,
 0.00002574,-0.00000610,0.00000913,-0.00000837,-0.00000435,-0.00007610,
 -0.00000233,-0.00000588,-0.00001141,0.00000489,-0.00000997,-0.00001534
 ,-0.00000718,0.00000749,-0.00001009,-0.00000127,-0.00000087,0.00007333
 ,0.00002943,-0.00000355,0.00000063,0.00000077,0.00003320,-0.00000774,-
 0.00002843,0.00001180,-0.02845670,0.00234513,-0.00521766,0.00013035,0.
 00088218,0.00041409,0.00046338,0.00025965,0.00127252,-0.04306723,0.005
 33006,-0.05524121,0.04910432,-0.00273002,0.05909253,-0.00002430,-0.000
 05152,0.00002130,-0.00000017,0.00009540,-0.00001127,0.00009185,-0.0000
 2601,0.00007755,0.00084596,0.00080536,-0.00117938,-0.00000643,0.000005
 64,0.00002690,-0.00003902,-0.00002826,0.00000087,0.00007907,-0.0002264
 5,0.00017871,-0.00004934,-0.00006393,-0.00003923,0.00007060,0.00001719
 ,0.00003243,-0.00008215,-0.00000733,-0.00001298,0.00003129,0.00000516,
 -0.00000220,0.00003052,-0.00000094,0.00000776,-0.00000453,0.00000544,-
 0.00000781,-0.00000476,0.00000089,-0.00000286,-0.00000754,-0.00000673,
 0.00000807,-0.00000707,-0.00000321,0.00000149,0.00002949,0.00000142,0.
 00000284,0.00000502,-0.00000245,0.00000451,0.00000691,0.00000327,-0.00
 000395,0.00000553,0.00000005,0.00000070,-0.00001828,-0.00005013,0.0000
 5720,0.00000352,0.00000609,-0.00000968,0.00000317,0.00001100,0.0000054
 2,0.00417058,0.00384634,-0.00746677,0.00025955,-0.00080412,-0.00212666
 ,0.00005213,0.00040406,0.00063786,-0.11459228,-0.04725693,0.10280261,-
 0.01503495,-0.01251460,0.02593934,0.12050440,0.00001631,-0.00002798,0.
 00000676,-0.00002492,0.00013744,-0.00001440,0.00004243,-0.00006873,0.0
 0004776,0.00062329,0.00043619,0.00014235,-0.00000362,0.00000706,0.0000
 0498,-0.00006627,-0.00000357,-0.00002773,-0.00012008,0.00000540,0.0001
 9459,-0.00001973,-0.00007635,-0.00005253,0.00003815,0.00001784,0.00000
 050,-0.00002064,-0.00000138,-0.00000043,0.00000666,-0.00000150,0.00000
 173,0.00001203,-0.00000580,0.00000574,-0.00000165,0.00000262,-0.000003
 54,-0.00000072,0.00000121,-0.00000103,0.00000056,-0.00000544,-0.000003
 38,-0.00000105,0.00000936,0.00000235,0.00000947,0.00000024,0.00000072,
 0.00000033,0.00000037,0.00000063,0.00000259,0.00000276,0.00000037,0.00
 000041,0.00000105,0.00000036,-0.00004781,-0.00009649,-0.00006673,-0.00
 000292,0.00001174,0.00000609,0.00000554,0.00002590,0.00002467,0.009128
 85,0.00636405,-0.01462149,-0.00115315,-0.00106903,-0.00347761,0.000651
 87,0.00076543,0.00036603,-0.04702895,-0.08356649,0.07540442,0.00204096
 ,0.00072561,-0.00379307,0.05323302,0.08711187,-0.00006358,-0.00009769,
 0.00004110,0.00032903,0.00007612,0.00007329,-0.00056171,0.00007014,0.0
 0004375,0.00177686,0.00070287,0.00060822,0.00000100,0.00001472,0.00002
 303,-0.00012354,-0.00003857,0.00001781,-0.00112331,-0.00031709,-0.0000
 3624,0.00007702,-0.00003866,-0.00003065,-0.00012203,0.00000707,0.00001
 474,0.00004641,0.00000174,0.00000347,-0.00000896,0.00000863,-0.0000104
 3,-0.00002396,0.00000972,-0.00001085,0.00000558,0.00000003,0.00000275,
 0.00000193,-0.00000509,0.00000322,0.00000135,-0.00000361,0.00000955,-0
 .00000090,-0.00000752,0.00000009,-0.00000555,-0.00000017,-0.00000004,0
 .00000065,-0.00000108,0.00000052,-0.00000441,-0.00000171,-0.00000041,0
 .00000032,-0.00000141,0.00000034,-0.00016866,-0.00016457,0.00006910,-0
 .00002854,-0.00000205,-0.00004049,0.00001867,0.00005329,0.00003544,0.0
 1331673,0.01000189,-0.02300397,-0.00205131,-0.00373723,-0.00375967,0.0
 0019859,-0.00022366,0.00103751,0.10219673,0.07490335,-0.20835129,-0.00
 277252,-0.00279794,0.00569369,-0.11189391,-0.07961510,0.22958028,-0.00
 004348,-0.00005409,0.00000385,0.00012057,0.00006583,-0.00005962,0.0001
 2905,0.00035120,-0.00009170,0.00073161,-0.00142473,0.00065396,-0.00000
 347,0.00000201,0.00003776,-0.00001767,-0.00002419,-0.00000214,-0.00000
 077,-0.00008906,-0.00000525,-0.00006767,0.00001171,0.00002342,0.000072
 44,0.00001016,0.00002261,-0.00007503,-0.00000389,-0.00001532,0.0000279
 6,0.00000155,-0.00000735,0.00002524,-0.00000045,0.00000751,-0.00000536
 ,0.00000821,-0.00000647,-0.00000377,-0.00000017,-0.00000170,-0.0000077
 4,-0.00000483,0.00001009,-0.00000403,-0.00000545,-0.00000018,0.0000273
 2,-0.00000008,0.00000182,0.00000503,-0.00000246,0.00000424,0.00000512,
 0.00000214,-0.00000345,0.00000478,-0.00000022,0.00000030,-0.00003334,-
 0.00001686,0.00002369,-0.00000231,-0.00000270,-0.00001686,0.00000314,0
 .00001439,-0.00000046,0.00096447,-0.00880028,0.00058683,0.00000915,0.0
 0065434,0.00043028,0.00025609,-0.00121062,-0.00159768,-0.06253441,0.05
 632872,-0.00517775,-0.00548922,0.03210633,-0.00313529,0.00368122,-0.01
 732096,0.00098201,0.06222511,0.00007525,-0.00001706,-0.00000459,-0.000
 15015,0.00007010,-0.00001434,-0.00057674,0.00039580,-0.00017512,0.0011
 3178,0.00047318,0.00082867,0.00000096,0.00000424,-0.00001560,-0.000040
 83,0.00003267,-0.00007616,-0.00005306,-0.00013786,-0.00004635,0.000072
 66,-0.00004880,-0.00015558,-0.00011217,0.00000473,0.00000659,0.0000499
 1,0.00000586,0.00001403,-0.00001952,-0.00000027,-0.00000227,-0.0000194
 2,0.00000130,0.00000335,0.00000438,0.00000165,0.00000634,0.00000248,-0
 .00000326,-0.00000313,0.00000366,0.00000591,-0.00000147,0.00000256,-0.
 00000711,-0.00000410,-0.00001856,-0.00000068,-0.00000131,-0.00000261,-
 0.00000041,-0.00000334,-0.00000186,-0.00000345,0.,-0.00000176,-0.00000
 143,-0.00000120,0.00003929,-0.00007520,-0.00008592,-0.00000366,0.00002
 104,0.00002189,-0.00000629,0.00002899,0.00002497,0.00258960,-0.0152466
 0,0.00082417,0.00026108,0.00074442,-0.00023075,-0.00105607,-0.00016214
 ,-0.00317876,0.05527872,-0.29651285,0.02578172,0.00054362,-0.00128143,
 0.00046387,0.00260227,-0.01070336,0.00120357,-0.06059554,0.32241202,0.
 00011154,-0.00004055,-0.00001137,-0.00018611,0.00002612,-0.00004114,-0
 .00023737,0.00041950,0.00001426,0.00170393,-0.00028629,0.00123902,-0.0
 0000794,0.00000712,0.00000116,0.00002138,0.00000575,-0.00001119,-0.000
 07587,0.00001246,-0.00006998,0.00005533,-0.00008986,-0.00013570,0.0000
 0746,0.00000778,0.00000369,-0.00000840,0.00000454,0.00000635,0.0000043
 7,-0.00000296,-0.00000083,0.00000586,-0.00000204,0.00000559,0.00000020
 ,0.00000311,-0.00000182,-0.00000204,0.00000134,-0.00000156,0.00000260,
 -0.00000475,-0.00000230,-0.00000137,0.00000335,0.00000019,0.00000629,0
 .00000011,0.00000025,0.00000106,-0.00000013,0.00000114,0.00000201,0.00
 000171,-0.00000043,0.00000129,0.00000069,0.00000028,0.00013427,-0.0000
 2446,-0.00010382,0.00000379,0.00002878,0.00003613,-0.00001551,0.000025
 50,0.00001698,0.00508442,-0.02907560,0.00168862,0.00065956,0.00042761,
 0.00117031,-0.00199537,-0.00352990,-0.00475198,-0.00513978,0.02678684,
 -0.05045997,-0.00041957,0.00500645,-0.00142837,-0.00704888,0.02546696,
 -0.00201384,0.00733285,-0.02517918,0.05485032\\-0.00000074,-0.00000363
 ,-0.00000410,0.00000078,0.00000143,0.00000736,0.00000022,0.00000068,-0
 .00000315,-0.00000176,-0.00000130,0.00000026,0.00000022,0.00000014,0.0
 0000002,0.00000009,0.00000006,-0.00000042,-0.00000065,0.00000014,-0.00
 000067,0.00000302,-0.00000155,0.00000237,0.00000264,0.00000170,0.00000
 061,-0.00000065,-0.00000371,0.00000045,-0.00000305,0.00000156,-0.00000
 145,0.00000144,0.00000145,-0.00000020,0.00000233,0.00000121,-0.0000006
 0,0.00000028,-0.00000009,0.00000032,-0.00000200,0.00000100,-0.00000082
 ,-0.00000022,0.00000003,0.00000015,-0.00000019,-0.00000191,0.00000177,
 -0.00000038,-0.00000006,0.00000014,0.00000019,-0.00000004,0.00000021,0
 .00000002,0.00000038,-0.00000010,-0.00000055,0.00000024,-0.00000059,-0
 .00000030,0.00000025,0.00000013,0.00000023,0.00000070,-0.00000030,-0.0
 0000160,0.00000357,0.00000205,0.00000034,-0.00000079,-0.00000122,0.000
 00027,-0.00000080,-0.00000095,0.00000002,-0.00000080,-0.00000114,-0.00
 000016,-0.00000020,-0.00000037,0.00000007,0.00000014,0.00000006,0.0000
 0007,0.00000020,0.00000016\\\@


 A MUSTACHE HAIR ACROSS A CHIP IS LIKE A REDWOOD
 TREE FALLING THROUGH A HOUSING PROJECT.
 - AN IBM MANAGER IN EAST FISHKILL, NEW YORK
   AS QUOTED IN "FROM SANDS TO CIRCUITS", IBM INNOVATION JANUARY 1985.
 Job cpu time:       0 days  1 hours 58 minutes 49.7 seconds.
 Elapsed time:       0 days  0 hours  3 minutes 57.7 seconds.
 File lengths (MBytes):  RWF=    272 Int=      0 D2E=      0 Chk=     10 Scr=      1
 Normal termination of Gaussian 16 at Sun Sep 17 17:19:18 2023.
