 Entering Gaussian System, Link 0=/home/ubuntu/g16/g16
 Input=/home/ubuntu/ML products/molecule_97.gjf
 Output=/home/ubuntu/ML products/molecule_97.log
 Initial command:
 /home/ubuntu/g16/l1.exe "/home/ubuntu/Scratch/Gau-193954.inp" -scrdir="/home/ubuntu/Scratch/"
 Entering Link 1 = /home/ubuntu/g16/l1.exe PID=    193956.
  
 Copyright (c) 1988-2017, Gaussian, Inc.  All Rights Reserved.
  
 This is part of the Gaussian(R) 16 program.  It is based on
 the Gaussian(R) 09 system (copyright 2009, Gaussian, Inc.),
 the Gaussian(R) 03 system (copyright 2003, Gaussian, Inc.),
 the Gaussian(R) 98 system (copyright 1998, Gaussian, Inc.),
 the Gaussian(R) 94 system (copyright 1995, Gaussian, Inc.),
 the Gaussian 92(TM) system (copyright 1992, Gaussian, Inc.),
 the Gaussian 90(TM) system (copyright 1990, Gaussian, Inc.),
 the Gaussian 88(TM) system (copyright 1988, Gaussian, Inc.),
 the Gaussian 86(TM) system (copyright 1986, Carnegie Mellon
 University), and the Gaussian 82(TM) system (copyright 1983,
 Carnegie Mellon University). Gaussian is a federally registered
 trademark of Gaussian, Inc.
  
 This software contains proprietary and confidential information,
 including trade secrets, belonging to Gaussian, Inc.
  
 This software is provided under written license and may be
 used, copied, transmitted, or stored only in accord with that
 written license.
  
 The following legend is applicable only to US Government
 contracts under FAR:
  
                    RESTRICTED RIGHTS LEGEND
  
 Use, reproduction and disclosure by the US Government is
 subject to restrictions as set forth in subparagraphs (a)
 and (c) of the Commercial Computer Software - Restricted
 Rights clause in FAR 52.227-19.
  
 Gaussian, Inc.
 340 Quinnipiac St., Bldg. 40, Wallingford CT 06492
  
  
 ---------------------------------------------------------------
 Warning -- This program may not be used in any manner that
 competes with the business of Gaussian, Inc. or will provide
 assistance to any competitor of Gaussian, Inc.  The licensee
 of this program is prohibited from giving any competitor of
 Gaussian, Inc. access to this program.  By using this program,
 the user acknowledges that Gaussian, Inc. is engaged in the
 business of creating and licensing software in the field of
 computational chemistry and represents and warrants to the
 licensee that it is not a competitor of Gaussian, Inc. and that
 it will not use this program in any manner prohibited above.
 ---------------------------------------------------------------
  

 Cite this work as:
 Gaussian 16, Revision B.01,
 M. J. Frisch, G. W. Trucks, H. B. Schlegel, G. E. Scuseria, 
 M. A. Robb, J. R. Cheeseman, G. Scalmani, V. Barone, 
 G. A. Petersson, H. Nakatsuji, X. Li, M. Caricato, A. V. Marenich, 
 J. Bloino, B. G. Janesko, R. Gomperts, B. Mennucci, H. P. Hratchian, 
 J. V. Ortiz, A. F. Izmaylov, J. L. Sonnenberg, D. Williams-Young, 
 F. Ding, F. Lipparini, F. Egidi, J. Goings, B. Peng, A. Petrone, 
 T. Henderson, D. Ranasinghe, V. G. Zakrzewski, J. Gao, N. Rega, 
 G. Zheng, W. Liang, M. Hada, M. Ehara, K. Toyota, R. Fukuda, 
 J. Hasegawa, M. Ishida, T. Nakajima, Y. Honda, O. Kitao, H. Nakai, 
 T. Vreven, K. Throssell, J. A. Montgomery, Jr., J. E. Peralta, 
 F. Ogliaro, M. J. Bearpark, J. J. Heyd, E. N. Brothers, K. N. Kudin, 
 V. N. Staroverov, T. A. Keith, R. Kobayashi, J. Normand, 
 K. Raghavachari, A. P. Rendell, J. C. Burant, S. S. Iyengar, 
 J. Tomasi, M. Cossi, J. M. Millam, M. Klene, C. Adamo, R. Cammi, 
 J. W. Ochterski, R. L. Martin, K. Morokuma, O. Farkas, 
 J. B. Foresman, and D. J. Fox, Gaussian, Inc., Wallingford CT, 2016.
 
 ******************************************
 Gaussian 16:  EM64L-G16RevB.01 20-Dec-2017
                15-Sep-2023 
 ******************************************
 %chk=molecule_97.chk
 %nprocshared=30
 Will use up to   30 processors via shared memory.
 %mem=30GB
 ----------------------------------------------------------------------
 # opt freq b3lyp/6-31+g(d) geom=connectivity empiricaldispersion=gd3 v
 olume
 ----------------------------------------------------------------------
 1/18=20,19=15,26=3,38=1,57=2/1,3;
 2/9=110,12=2,17=6,18=5,40=1/2;
 3/5=1,6=6,7=11,11=2,25=1,30=1,71=1,74=-5,124=31/1,2,3;
 4//1;
 5/5=2,38=5/2;
 6/7=2,8=2,9=2,10=2,28=1,44=1/1,4;
 7//1,2,3,16;
 1/18=20,19=15,26=3/3(2);
 2/9=110/2;
 99//99;
 2/9=110/2;
 3/5=1,6=6,7=11,11=2,25=1,30=1,71=1,74=-5,124=31/1,2,3;
 4/5=5,16=3,69=1/1;
 5/5=2,38=5/2;
 7//1,2,3,16;
 1/18=20,19=15,26=3/3(-5);
 2/9=110/2;
 6/7=2,8=2,9=2,10=2,19=2,28=1,44=1/1,4;
 99/9=1/99;
 -------------
 ML molecule97
 -------------
 Symbolic Z-matrix:
 Charge =  0 Multiplicity = 1
 C                    -4.74942  -0.23058  -0.40002 
 C                    -4.8202    0.23854  -1.71867 
 C                    -4.55025   1.58484  -1.99888 
 C                    -4.20951   2.46203  -0.96044 
 C                    -4.13873   1.99291   0.35822 
 C                    -4.40868   0.64661   0.63842 
 H                    -5.08036  -0.43121  -2.51155 
 H                    -3.87857   2.66266   1.15109 
 H                    -4.35464   0.28843   1.64524 
 O                    -3.91049   3.9533   -1.27081 
 C                    -3.81752   4.69985  -2.77936 
 C                    -4.13168   3.88761  -3.87731 
 C                    -3.30395   5.98751  -2.98454 
 C                    -3.93225   4.36302  -5.18043 
 C                    -3.10452   6.46292  -4.28767 
 C                    -3.41867   5.65068  -5.38561 
 H                    -4.17211   3.74285  -6.01874 
 H                    -2.7124    7.44608  -4.44432 
 H                    -4.60429   1.94302  -3.0057 
 H                    -4.5238    2.90445  -3.72065 
 H                    -4.95553  -1.25851  -0.18608 
 H                    -3.26641   6.01366  -6.38058 
 C                    -2.95872   6.88009  -1.77801 
 H                    -3.81196   6.95927  -1.1372 
 H                    -2.14425   6.44726  -1.23561 
 H                    -2.6801    7.85391  -2.1229 
 

 GradGradGradGradGradGradGradGradGradGradGradGradGradGradGradGradGradGrad
 Berny optimization.
 Initialization pass.
                           ----------------------------
                           !    Initial Parameters    !
                           ! (Angstroms and Degrees)  !
 --------------------------                            --------------------------
 ! Name  Definition              Value          Derivative Info.                !
 --------------------------------------------------------------------------------
 ! R1    R(1,2)                  1.4014         estimate D2E/DX2                !
 ! R2    R(1,6)                  1.4014         estimate D2E/DX2                !
 ! R3    R(1,21)                 1.07           estimate D2E/DX2                !
 ! R4    R(2,3)                  1.4014         estimate D2E/DX2                !
 ! R5    R(2,7)                  1.07           estimate D2E/DX2                !
 ! R6    R(3,4)                  1.4014         estimate D2E/DX2                !
 ! R7    R(3,19)                 1.07           estimate D2E/DX2                !
 ! R8    R(4,5)                  1.4014         estimate D2E/DX2                !
 ! R9    R(4,10)                 1.5523         estimate D2E/DX2                !
 ! R10   R(5,6)                  1.4014         estimate D2E/DX2                !
 ! R11   R(5,8)                  1.07           estimate D2E/DX2                !
 ! R12   R(6,9)                  1.07           estimate D2E/DX2                !
 ! R13   R(10,11)                1.6857         estimate D2E/DX2                !
 ! R14   R(11,12)                1.4014         estimate D2E/DX2                !
 ! R15   R(11,13)                1.4014         estimate D2E/DX2                !
 ! R16   R(12,14)                1.4014         estimate D2E/DX2                !
 ! R17   R(12,20)                1.07           estimate D2E/DX2                !
 ! R18   R(13,15)                1.4014         estimate D2E/DX2                !
 ! R19   R(13,23)                1.54           estimate D2E/DX2                !
 ! R20   R(14,16)                1.4014         estimate D2E/DX2                !
 ! R21   R(14,17)                1.07           estimate D2E/DX2                !
 ! R22   R(15,16)                1.4014         estimate D2E/DX2                !
 ! R23   R(15,18)                1.07           estimate D2E/DX2                !
 ! R24   R(16,22)                1.07           estimate D2E/DX2                !
 ! R25   R(23,24)                1.07           estimate D2E/DX2                !
 ! R26   R(23,25)                1.07           estimate D2E/DX2                !
 ! R27   R(23,26)                1.07           estimate D2E/DX2                !
 ! A1    A(2,1,6)              120.0            estimate D2E/DX2                !
 ! A2    A(2,1,21)             120.0            estimate D2E/DX2                !
 ! A3    A(6,1,21)             120.0            estimate D2E/DX2                !
 ! A4    A(1,2,3)              120.0            estimate D2E/DX2                !
 ! A5    A(1,2,7)              120.0            estimate D2E/DX2                !
 ! A6    A(3,2,7)              120.0            estimate D2E/DX2                !
 ! A7    A(2,3,4)              120.0            estimate D2E/DX2                !
 ! A8    A(2,3,19)             120.0            estimate D2E/DX2                !
 ! A9    A(4,3,19)             120.0            estimate D2E/DX2                !
 ! A10   A(3,4,5)              120.0            estimate D2E/DX2                !
 ! A11   A(3,4,10)             120.0            estimate D2E/DX2                !
 ! A12   A(5,4,10)             120.0            estimate D2E/DX2                !
 ! A13   A(4,5,6)              120.0            estimate D2E/DX2                !
 ! A14   A(4,5,8)              120.0            estimate D2E/DX2                !
 ! A15   A(6,5,8)              120.0            estimate D2E/DX2                !
 ! A16   A(1,6,5)              120.0            estimate D2E/DX2                !
 ! A17   A(1,6,9)              120.0            estimate D2E/DX2                !
 ! A18   A(5,6,9)              120.0            estimate D2E/DX2                !
 ! A19   A(4,10,11)            127.9526         estimate D2E/DX2                !
 ! A20   A(10,11,12)           115.5989         estimate D2E/DX2                !
 ! A21   A(10,11,13)           123.9281         estimate D2E/DX2                !
 ! A22   A(12,11,13)           120.0            estimate D2E/DX2                !
 ! A23   A(11,12,14)           120.0            estimate D2E/DX2                !
 ! A24   A(11,12,20)           120.0            estimate D2E/DX2                !
 ! A25   A(14,12,20)           120.0            estimate D2E/DX2                !
 ! A26   A(11,13,15)           120.0            estimate D2E/DX2                !
 ! A27   A(11,13,23)           120.0            estimate D2E/DX2                !
 ! A28   A(15,13,23)           120.0            estimate D2E/DX2                !
 ! A29   A(12,14,16)           120.0            estimate D2E/DX2                !
 ! A30   A(12,14,17)           120.0            estimate D2E/DX2                !
 ! A31   A(16,14,17)           120.0            estimate D2E/DX2                !
 ! A32   A(13,15,16)           120.0            estimate D2E/DX2                !
 ! A33   A(13,15,18)           120.0            estimate D2E/DX2                !
 ! A34   A(16,15,18)           120.0            estimate D2E/DX2                !
 ! A35   A(14,16,15)           120.0            estimate D2E/DX2                !
 ! A36   A(14,16,22)           120.0            estimate D2E/DX2                !
 ! A37   A(15,16,22)           120.0            estimate D2E/DX2                !
 ! A38   A(13,23,24)           109.4712         estimate D2E/DX2                !
 ! A39   A(13,23,25)           109.4712         estimate D2E/DX2                !
 ! A40   A(13,23,26)           109.4712         estimate D2E/DX2                !
 ! A41   A(24,23,25)           109.4713         estimate D2E/DX2                !
 ! A42   A(24,23,26)           109.4712         estimate D2E/DX2                !
 ! A43   A(25,23,26)           109.4712         estimate D2E/DX2                !
 ! D1    D(6,1,2,3)              0.0001         estimate D2E/DX2                !
 ! D2    D(6,1,2,7)           -179.9998         estimate D2E/DX2                !
 ! D3    D(21,1,2,3)          -179.9999         estimate D2E/DX2                !
 ! D4    D(21,1,2,7)             0.0002         estimate D2E/DX2                !
 ! D5    D(2,1,6,5)             -0.0001         estimate D2E/DX2                !
 ! D6    D(2,1,6,9)            179.9998         estimate D2E/DX2                !
 ! D7    D(21,1,6,5)           179.9999         estimate D2E/DX2                !
 ! D8    D(21,1,6,9)            -0.0002         estimate D2E/DX2                !
 ! D9    D(1,2,3,4)              0.0001         estimate D2E/DX2                !
 ! D10   D(1,2,3,19)          -179.9999         estimate D2E/DX2                !
 ! D11   D(7,2,3,4)            179.9999         estimate D2E/DX2                !
 ! D12   D(7,2,3,19)            -0.0001         estimate D2E/DX2                !
 ! D13   D(2,3,4,5)             -0.0002         estimate D2E/DX2                !
 ! D14   D(2,3,4,10)           179.9998         estimate D2E/DX2                !
 ! D15   D(19,3,4,5)           179.9998         estimate D2E/DX2                !
 ! D16   D(19,3,4,10)           -0.0002         estimate D2E/DX2                !
 ! D17   D(3,4,5,6)              0.0001         estimate D2E/DX2                !
 ! D18   D(3,4,5,8)           -180.0            estimate D2E/DX2                !
 ! D19   D(10,4,5,6)          -179.9999         estimate D2E/DX2                !
 ! D20   D(10,4,5,8)             0.0            estimate D2E/DX2                !
 ! D21   D(3,4,10,11)           -5.2547         estimate D2E/DX2                !
 ! D22   D(5,4,10,11)          174.7453         estimate D2E/DX2                !
 ! D23   D(4,5,6,1)              0.0            estimate D2E/DX2                !
 ! D24   D(4,5,6,9)           -179.9999         estimate D2E/DX2                !
 ! D25   D(8,5,6,1)           -179.9999         estimate D2E/DX2                !
 ! D26   D(8,5,6,9)              0.0002         estimate D2E/DX2                !
 ! D27   D(4,10,11,12)           4.3564         estimate D2E/DX2                !
 ! D28   D(4,10,11,13)        -167.7268         estimate D2E/DX2                !
 ! D29   D(10,11,12,14)       -172.4167         estimate D2E/DX2                !
 ! D30   D(10,11,12,20)          7.5833         estimate D2E/DX2                !
 ! D31   D(13,11,12,14)          0.0002         estimate D2E/DX2                !
 ! D32   D(13,11,12,20)       -179.9998         estimate D2E/DX2                !
 ! D33   D(10,11,13,15)        171.7535         estimate D2E/DX2                !
 ! D34   D(10,11,13,23)         -8.2466         estimate D2E/DX2                !
 ! D35   D(12,11,13,15)          0.0            estimate D2E/DX2                !
 ! D36   D(12,11,13,23)        179.9999         estimate D2E/DX2                !
 ! D37   D(11,12,14,16)         -0.0002         estimate D2E/DX2                !
 ! D38   D(11,12,14,17)        179.9998         estimate D2E/DX2                !
 ! D39   D(20,12,14,16)        179.9998         estimate D2E/DX2                !
 ! D40   D(20,12,14,17)         -0.0002         estimate D2E/DX2                !
 ! D41   D(11,13,15,16)         -0.0001         estimate D2E/DX2                !
 ! D42   D(11,13,15,18)        179.9999         estimate D2E/DX2                !
 ! D43   D(23,13,15,16)        179.9999         estimate D2E/DX2                !
 ! D44   D(23,13,15,18)          0.0            estimate D2E/DX2                !
 ! D45   D(11,13,23,24)        -54.1159         estimate D2E/DX2                !
 ! D46   D(11,13,23,25)         65.8842         estimate D2E/DX2                !
 ! D47   D(11,13,23,26)       -174.1159         estimate D2E/DX2                !
 ! D48   D(15,13,23,24)        125.8841         estimate D2E/DX2                !
 ! D49   D(15,13,23,25)       -114.1159         estimate D2E/DX2                !
 ! D50   D(15,13,23,26)          5.8841         estimate D2E/DX2                !
 ! D51   D(12,14,16,15)          0.0001         estimate D2E/DX2                !
 ! D52   D(12,14,16,22)       -179.9999         estimate D2E/DX2                !
 ! D53   D(17,14,16,15)       -179.9999         estimate D2E/DX2                !
 ! D54   D(17,14,16,22)          0.0001         estimate D2E/DX2                !
 ! D55   D(13,15,16,14)          0.0001         estimate D2E/DX2                !
 ! D56   D(13,15,16,22)       -179.9999         estimate D2E/DX2                !
 ! D57   D(18,15,16,14)       -180.0            estimate D2E/DX2                !
 ! D58   D(18,15,16,22)          0.0            estimate D2E/DX2                !
 --------------------------------------------------------------------------------
 Trust Radius=3.00D-01 FncErr=1.00D-07 GrdErr=1.00D-06 EigMax=2.50D+02 EigMin=1.00D-04
 Number of steps in this run=    138 maximum allowed number of steps=    156.
 GradGradGradGradGradGradGradGradGradGradGradGradGradGradGradGradGradGrad

                          Input orientation:                          
 ---------------------------------------------------------------------
 Center     Atomic      Atomic             Coordinates (Angstroms)
 Number     Number       Type             X           Y           Z
 ---------------------------------------------------------------------
      1          6           0       -4.749416   -0.230579   -0.400021
      2          6           0       -4.820199    0.238538   -1.718672
      3          6           0       -4.550247    1.584841   -1.998879
      4          6           0       -4.209510    2.462026   -0.960435
      5          6           0       -4.138728    1.992910    0.358216
      6          6           0       -4.408682    0.646607    0.638423
      7          1           0       -5.080361   -0.431212   -2.511547
      8          1           0       -3.878568    2.662660    1.151091
      9          1           0       -4.354640    0.288426    1.645243
     10          8           0       -3.910486    3.953296   -1.270814
     11          6           0       -3.817523    4.699853   -2.779363
     12          6           0       -4.131676    3.887607   -3.877310
     13          6           0       -3.303947    5.987511   -2.984541
     14          6           0       -3.932249    4.363019   -5.180435
     15          6           0       -3.104523    6.462923   -4.287666
     16          6           0       -3.418674    5.650677   -5.385613
     17          1           0       -4.172109    3.742850   -6.018741
     18          1           0       -2.712397    7.446079   -4.444324
     19          1           0       -4.604292    1.943023   -3.005698
     20          1           0       -4.523805    2.904453   -3.720651
     21          1           0       -4.955530   -1.258512   -0.186077
     22          1           0       -3.266408    6.013665   -6.380578
     23          6           0       -2.958725    6.880089   -1.778006
     24          1           0       -3.811957    6.959266   -1.137205
     25          1           0       -2.144253    6.447263   -1.235607
     26          1           0       -2.680104    7.853905   -2.122900
 ---------------------------------------------------------------------
                    Distance matrix (angstroms):
                    1          2          3          4          5
     1  C    0.000000
     2  C    1.401400   0.000000
     3  C    2.427296   1.401400   0.000000
     4  C    2.802800   2.427296   1.401400   0.000000
     5  C    2.427296   2.802800   2.427296   1.401400   0.000000
     6  C    1.401400   2.427296   2.802800   2.427296   1.401400
     7  H    2.146700   1.070000   2.146700   3.396345   3.872800
     8  H    3.396345   3.872800   3.396345   2.146700   1.070000
     9  H    2.146700   3.396345   3.872800   3.396345   2.146700
    10  O    4.355100   3.850660   2.559092   1.552300   2.559092
    11  C    5.553274   4.694012   3.293833   2.910330   4.156335
    12  C    5.425182   4.295286   3.001072   3.247537   4.640001
    13  C    6.887218   6.078827   4.680630   4.164864   5.275199
    14  C    6.679914   5.457435   4.268781   4.636706   6.027993
    15  C    7.913434   6.948831   5.578920   5.319647   6.529535
    16  C    7.824077   6.685954   5.411233   5.511362   6.847577
    17  H    6.905899   5.584874   4.578131   5.218081   6.612790
    18  H    8.912739   7.988783   6.611506   6.262556   7.405125
    19  H    3.396345   2.146700   1.070000   2.146700   3.396345
    20  H    4.572298   3.347069   2.169464   2.813062   4.197184
    21  H    1.070000   2.146700   3.396345   3.872800   3.396345
    22  H    8.772511   7.582857   6.360975   6.548399   7.895490
    23  C    7.461033   6.897739   5.533658   4.663921   5.462634
    24  H    7.288082   6.820765   5.492904   4.518236   5.196899
    25  H    7.216555   6.778076   5.478553   4.497012   5.134148
    26  H    8.521106   7.920683   6.543239   5.723877   6.529532
                    6          7          8          9         10
     6  C    0.000000
     7  H    3.396345   0.000000
     8  H    2.146700   4.942800   0.000000
     9  H    1.070000   4.280590   2.471400   0.000000
    10  O    3.850660   4.704459   2.744520   4.704459   0.000000
    11  C    5.334748   5.290965   4.427454   6.271070   1.685736
    12  C    5.565309   4.627906   5.181638   6.595635   2.616688
    13  C    6.547638   6.676779   5.337441   7.417441   2.728146
    14  C    6.920825   5.605869   6.556091   7.960565   3.931091
    15  C    7.732834   7.388345   6.679913   8.653706   4.006145
    16  C    7.893659   6.928985   7.201962   8.891721   4.478231
    17  H    7.345783   5.527036   7.256685   8.408509   4.759784
    18  H    8.657051   8.449532   7.453169   9.540010   4.868893
    19  H    3.872800   2.471400   4.280590   4.942800   2.744520
    20  H    4.910464   3.591427   4.920231   5.972021   2.734581
    21  H    2.146700   2.471400   4.280590   2.471400   5.425100
    22  H    8.909348   7.732804   8.266197   9.918488   5.547039
    23  C    6.840892   7.648172   5.216553   7.557594   3.119168
    24  H    6.584725   7.623439   4.868424   7.248215   3.010550
    25  H    6.502864   7.586974   4.798687   7.149573   3.056255
    26  H    7.909364   8.634550   6.253348   8.616232   4.177875
                   11         12         13         14         15
    11  C    0.000000
    12  C    1.401400   0.000000
    13  C    1.401400   2.427296   0.000000
    14  C    2.427296   1.401400   2.802800   0.000000
    15  C    2.427296   2.802800   1.401400   2.427296   0.000000
    16  C    2.802800   2.427296   2.427296   1.401400   1.401400
    17  H    3.396345   2.146700   3.872800   1.070000   3.396345
    18  H    3.396345   3.872800   2.146700   3.396345   1.070000
    19  H    2.875821   2.182769   4.248439   3.322273   4.931759
    20  H    2.146700   1.070000   3.396345   2.146700   3.872800
    21  H    6.597143   6.386429   7.941283   7.588960   8.936992
    22  H    3.872800   3.396345   3.396345   2.146700   2.146700
    23  C    2.548270   3.838989   1.540000   4.342800   2.548270
    24  H    2.793145   4.128617   2.148263   4.806524   3.266837
    25  H    2.869923   4.180942   2.148263   4.806524   3.199598
    26  H    3.416535   4.573460   2.148263   4.806525   2.607906
                   16         17         18         19         20
    16  C    0.000000
    17  H    2.146700   0.000000
    18  H    2.146700   4.280590   0.000000
    19  H    4.562498   3.536183   5.994376   0.000000
    20  H    3.396345   2.471400   4.942800   1.200826   0.000000
    21  H    8.782596   7.723169   9.946568   4.280590   5.478127
    22  H    1.070000   2.471400   2.471400   5.454344   4.280590
    23  C    3.838989   5.412800   2.736837   5.346938   4.693509
    24  H    4.462740   5.856999   3.518957   5.411262   4.860291
    25  H    4.413757   5.856998   3.408268   5.428923   4.938544
    26  H    4.005621   5.856999   2.357197   6.278564   5.518073
                   21         22         23         24         25
    21  H    0.000000
    22  H    9.701006   0.000000
    23  C    8.529847   4.693509   0.000000
    24  H    8.351303   5.355814   1.070000   0.000000
    25  H    8.269447   5.283745   1.070000   1.747303   0.000000
    26  H    9.589838   4.675261   1.070000   1.747303   1.747303
                   26
    26  H    0.000000
 Stoichiometry    C13H12O
 Framework group  C1[X(C13H12O)]
 Deg. of freedom    72
 Full point group                 C1      NOp   1
 Largest Abelian subgroup         C1      NOp   1
 Largest concise Abelian subgroup C1      NOp   1
                         Standard orientation:                         
 ---------------------------------------------------------------------
 Center     Atomic      Atomic             Coordinates (Angstroms)
 Number     Number       Type             X           Y           Z
 ---------------------------------------------------------------------
      1          6           0        4.207145   -0.580222   -0.107965
      2          6           0        3.108022   -1.443740   -0.007034
      3          6           0        1.810922   -0.920009    0.077571
      4          6           0        1.612944    0.467240    0.061242
      5          6           0        2.712067    1.330758   -0.039688
      6          6           0        4.009168    0.807027   -0.124292
      7          1           0        3.259183   -2.502935    0.005435
      8          1           0        2.560907    2.389954   -0.052155
      9          1           0        4.848373    1.466342   -0.201352
     10          8           0        0.176174    1.047366    0.154953
     11          6           0       -1.283834    0.204718    0.160112
     12          6           0       -1.176492   -1.192559    0.164228
     13          6           0       -2.537284    0.810722    0.000284
     14          6           0       -2.322600   -1.983832    0.008514
     15          6           0       -3.683392    0.019449   -0.155426
     16          6           0       -3.576049   -1.377828   -0.151312
     17          1           0       -2.240641   -3.050684    0.011654
     18          1           0       -4.640429    0.482146   -0.277457
     19          1           0        0.971717   -1.579324    0.154636
     20          1           0       -0.219456   -1.655256    0.286262
     21          1           0        5.197510   -0.980103   -0.172564
     22          1           0       -4.451128   -1.981983   -0.270202
     23          6           0       -2.655242    2.346191   -0.004238
     24          1           0       -2.204131    2.741175    0.881982
     25          1           0       -2.155542    2.739764   -0.864645
     26          1           0       -3.688012    2.624485   -0.033193
 ---------------------------------------------------------------------
 Rotational constants (GHZ):           1.6306323           0.3602197           0.2963956
 Standard basis: 6-31+G(d) (6D, 7F)
 There are   290 symmetry adapted cartesian basis functions of A   symmetry.
 There are   290 symmetry adapted basis functions of A   symmetry.
   290 basis functions,   496 primitive gaussians,   290 cartesian basis functions
    49 alpha electrons       49 beta electrons
       nuclear repulsion energy       778.4974826748 Hartrees.
 NAtoms=   26 NActive=   26 NUniq=   26 SFac= 1.00D+00 NAtFMM=   60 NAOKFM=F Big=F
 Integral buffers will be    131072 words long.
 Raffenetti 2 integral format.
 Two-electron integral symmetry is turned on.
 Nuclear repulsion after empirical dispersion term =      778.4786634925 Hartrees.
 One-electron integrals computed using PRISM.
 NBasis=   290 RedAO= T EigKep=  1.83D-06  NBF=   290
 NBsUse=   288 1.00D-06 EigRej=  9.17D-07 NBFU=   288
 ExpMin= 4.38D-02 ExpMax= 5.48D+03 ExpMxC= 8.25D+02 IAcc=3 IRadAn=         5 AccDes= 0.00D+00
 Harris functional with IExCor=  402 and IRadAn=       5 diagonalized for initial guess.
 HarFok:  IExCor=  402 AccDes= 0.00D+00 IRadAn=         5 IDoV= 1 UseB2=F ITyADJ=14
 ICtDFT=  3500011 ScaDFX=  1.000000  1.000000  1.000000  1.000000
 FoFCou: FMM=F IPFlag=           0 FMFlag=      100000 FMFlg1=           0
         NFxFlg=           0 DoJE=T BraDBF=F KetDBF=T FulRan=T
         wScrn=  0.000000 ICntrl=       500 IOpCl=  0 I1Cent=   200000004 NGrid=           0
         NMat0=    1 NMatS0=      1 NMatT0=    0 NMatD0=    1 NMtDS0=    0 NMtDT0=    0
 Petite list used in FoFCou.
 Requested convergence on RMS density matrix=1.00D-08 within 128 cycles.
 Requested convergence on MAX density matrix=1.00D-06.
 Requested convergence on             energy=1.00D-06.
 No special actions if energy rises.
 SCF Done:  E(RB3LYP) =  -577.777873166     A.U. after   15 cycles
            NFock= 15  Conv=0.91D-08     -V/T= 2.0104

 **********************************************************************

            Population analysis using the SCF Density.

 **********************************************************************

 Orbital symmetries:
       Occupied  (A) (A) (A) (A) (A) (A) (A) (A) (A) (A) (A) (A)
                 (A) (A) (A) (A) (A) (A) (A) (A) (A) (A) (A) (A)
                 (A) (A) (A) (A) (A) (A) (A) (A) (A) (A) (A) (A)
                 (A) (A) (A) (A) (A) (A) (A) (A) (A) (A) (A) (A)
                 (A)
       Virtual   (A) (A) (A) (A) (A) (A) (A) (A) (A) (A) (A) (A)
                 (A) (A) (A) (A) (A) (A) (A) (A) (A) (A) (A) (A)
                 (A) (A) (A) (A) (A) (A) (A) (A) (A) (A) (A) (A)
                 (A) (A) (A) (A) (A) (A) (A) (A) (A) (A) (A) (A)
                 (A) (A) (A) (A) (A) (A) (A) (A) (A) (A) (A) (A)
                 (A) (A) (A) (A) (A) (A) (A) (A) (A) (A) (A) (A)
                 (A) (A) (A) (A) (A) (A) (A) (A) (A) (A) (A) (A)
                 (A) (A) (A) (A) (A) (A) (A) (A) (A) (A) (A) (A)
                 (A) (A) (A) (A) (A) (A) (A) (A) (A) (A) (A) (A)
                 (A) (A) (A) (A) (A) (A) (A) (A) (A) (A) (A) (A)
                 (A) (A) (A) (A) (A) (A) (A) (A) (A) (A) (A) (A)
                 (A) (A) (A) (A) (A) (A) (A) (A) (A) (A) (A) (A)
                 (A) (A) (A) (A) (A) (A) (A) (A) (A) (A) (A) (A)
                 (A) (A) (A) (A) (A) (A) (A) (A) (A) (A) (A) (A)
                 (A) (A) (A) (A) (A) (A) (A) (A) (A) (A) (A) (A)
                 (A) (A) (A) (A) (A) (A) (A) (A) (A) (A) (A) (A)
                 (A) (A) (A) (A) (A) (A) (A) (A) (A) (A) (A) (A)
                 (A) (A) (A) (A) (A) (A) (A) (A) (A) (A) (A) (A)
                 (A) (A) (A) (A) (A) (A) (A) (A) (A) (A) (A) (A)
                 (A) (A) (A) (A) (A) (A) (A) (A) (A) (A) (A)
 The electronic state is 1-A.
 Alpha  occ. eigenvalues --  -19.18150 -10.27334 -10.26727 -10.22256 -10.20711
 Alpha  occ. eigenvalues --  -10.20525 -10.20446 -10.20442 -10.20323 -10.20307
 Alpha  occ. eigenvalues --  -10.20267 -10.19797 -10.19654 -10.18334  -0.96736
 Alpha  occ. eigenvalues --   -0.87095  -0.85632  -0.78407  -0.76363  -0.75556
 Alpha  occ. eigenvalues --   -0.74299  -0.69676  -0.63487  -0.61704  -0.60584
 Alpha  occ. eigenvalues --   -0.59067  -0.53559  -0.52403  -0.48307  -0.47589
 Alpha  occ. eigenvalues --   -0.47081  -0.46013  -0.44094  -0.43231  -0.42718
 Alpha  occ. eigenvalues --   -0.41779  -0.40328  -0.39055  -0.38680  -0.37389
 Alpha  occ. eigenvalues --   -0.37041  -0.36120  -0.33910  -0.32649  -0.31257
 Alpha  occ. eigenvalues --   -0.26688  -0.26205  -0.25934  -0.22926
 Alpha virt. eigenvalues --   -0.03178  -0.02588  -0.01799  -0.01430  -0.00534
 Alpha virt. eigenvalues --    0.00606   0.01033   0.01763   0.02805   0.02958
 Alpha virt. eigenvalues --    0.04511   0.04968   0.05068   0.05546   0.06502
 Alpha virt. eigenvalues --    0.06886   0.07093   0.07349   0.07514   0.08982
 Alpha virt. eigenvalues --    0.09298   0.09512   0.10046   0.11550   0.11781
 Alpha virt. eigenvalues --    0.12113   0.12769   0.12935   0.12985   0.13383
 Alpha virt. eigenvalues --    0.13852   0.13884   0.14275   0.15182   0.16291
 Alpha virt. eigenvalues --    0.16865   0.17178   0.17437   0.17541   0.17979
 Alpha virt. eigenvalues --    0.18492   0.19386   0.20261   0.20403   0.20828
 Alpha virt. eigenvalues --    0.20927   0.21673   0.22172   0.22499   0.22619
 Alpha virt. eigenvalues --    0.22911   0.23303   0.23372   0.24151   0.25244
 Alpha virt. eigenvalues --    0.26290   0.26602   0.26867   0.26988   0.27326
 Alpha virt. eigenvalues --    0.27829   0.28902   0.29320   0.29383   0.30056
 Alpha virt. eigenvalues --    0.31243   0.31373   0.31882   0.32591   0.33422
 Alpha virt. eigenvalues --    0.34300   0.34383   0.35377   0.35846   0.37099
 Alpha virt. eigenvalues --    0.37244   0.38358   0.39486   0.40458   0.41638
 Alpha virt. eigenvalues --    0.42112   0.45208   0.50486   0.56446   0.57912
 Alpha virt. eigenvalues --    0.59415   0.61313   0.62562   0.65945   0.66377
 Alpha virt. eigenvalues --    0.67142   0.67434   0.68296   0.69427   0.70611
 Alpha virt. eigenvalues --    0.71382   0.72005   0.72865   0.73297   0.73554
 Alpha virt. eigenvalues --    0.73853   0.74108   0.75894   0.76449   0.76824
 Alpha virt. eigenvalues --    0.78097   0.78868   0.79428   0.80251   0.81101
 Alpha virt. eigenvalues --    0.81504   0.83133   0.84363   0.88397   0.90054
 Alpha virt. eigenvalues --    0.91812   0.93597   0.94196   0.94615   0.95180
 Alpha virt. eigenvalues --    0.95842   0.98837   1.00545   1.01797   1.03474
 Alpha virt. eigenvalues --    1.05999   1.07891   1.08364   1.09068   1.10786
 Alpha virt. eigenvalues --    1.12385   1.14315   1.15403   1.16651   1.17856
 Alpha virt. eigenvalues --    1.18487   1.20108   1.20433   1.22233   1.23430
 Alpha virt. eigenvalues --    1.23948   1.24463   1.25457   1.28725   1.29894
 Alpha virt. eigenvalues --    1.31565   1.33685   1.36024   1.38251   1.39945
 Alpha virt. eigenvalues --    1.41658   1.41842   1.43690   1.45048   1.45657
 Alpha virt. eigenvalues --    1.46601   1.47066   1.48192   1.49120   1.50142
 Alpha virt. eigenvalues --    1.51515   1.54417   1.56322   1.66332   1.73401
 Alpha virt. eigenvalues --    1.77951   1.78584   1.80845   1.81642   1.83152
 Alpha virt. eigenvalues --    1.85829   1.86656   1.87380   1.91405   1.93256
 Alpha virt. eigenvalues --    1.95727   1.96974   1.97469   1.98625   1.99803
 Alpha virt. eigenvalues --    2.01751   2.04221   2.08431   2.10682   2.11643
 Alpha virt. eigenvalues --    2.13811   2.14030   2.15217   2.16719   2.17165
 Alpha virt. eigenvalues --    2.19096   2.21807   2.23405   2.25705   2.27101
 Alpha virt. eigenvalues --    2.29300   2.29497   2.29765   2.30242   2.31816
 Alpha virt. eigenvalues --    2.38179   2.39245   2.41735   2.49472   2.51702
 Alpha virt. eigenvalues --    2.61246   2.62386   2.63139   2.63617   2.66151
 Alpha virt. eigenvalues --    2.68450   2.71600   2.72826   2.74623   2.76273
 Alpha virt. eigenvalues --    2.77772   2.78919   2.80199   2.82730   2.95356
 Alpha virt. eigenvalues --    3.01515   3.07147   3.08663   3.39659   3.41264
 Alpha virt. eigenvalues --    4.21453   4.23842   4.26188   4.27159   4.29548
 Alpha virt. eigenvalues --    4.32768   4.35764   4.39206   4.40405   4.42681
 Alpha virt. eigenvalues --    4.44923   4.47773   4.72029   4.73730
          Condensed to atoms (all electrons):
               1          2          3          4          5          6
     1  C    5.331560   0.214112   0.140541  -0.577236   0.162228   0.432055
     2  C    0.214112   9.291785  -4.168180   0.417986   0.354387   0.170023
     3  C    0.140541  -4.168180  11.583592  -0.705637  -0.966779  -0.484776
     4  C   -0.577236   0.417986  -0.705637   8.953551  -2.249846   0.044160
     5  C    0.162228   0.354387  -0.966779  -2.249846   9.017354   0.337372
     6  C    0.432055   0.170023  -0.484776   0.044160   0.337372   5.367580
     7  H   -0.043034   0.338569  -0.017637   0.043634  -0.036371   0.008750
     8  H    0.017016  -0.033400   0.074904   0.024596   0.274976  -0.063921
     9  H    0.000953   0.018437  -0.021208   0.017325  -0.031150   0.310704
    10  O   -0.017082   0.028033  -0.175697   0.288503  -0.150447   0.026812
    11  C    0.024334  -0.356329  -0.000391  -0.389414   0.775191  -0.057432
    12  C   -0.022887   0.553201  -0.038483   0.028607  -0.530667   0.040716
    13  C    0.006388  -0.293593   0.019180   0.299567  -0.040909  -0.008022
    14  C   -0.017440  -0.062980   0.149558  -0.172808  -0.413404   0.005081
    15  C    0.000521  -0.122518  -0.078780   0.234897   0.036816   0.004262
    16  C    0.000227   0.046132   0.027400  -0.027446  -0.009877   0.000863
    17  H    0.000113   0.002072  -0.003392  -0.002099  -0.000378   0.000027
    18  H    0.000000   0.000014   0.000080   0.000318  -0.000019  -0.000002
    19  H    0.011139   0.030135   0.108881   0.019290   0.045045   0.004614
    20  H   -0.006695  -0.031442  -0.032122   0.063920   0.013180   0.002917
    21  H    0.291015  -0.022880   0.044056  -0.007686   0.011265  -0.023617
    22  H    0.000004   0.000033   0.000184  -0.000191  -0.000024  -0.000004
    23  C   -0.001475   0.032935   0.030566  -0.115497  -0.056228  -0.006695
    24  H    0.000018  -0.000138   0.000704  -0.003630  -0.002650  -0.000408
    25  H    0.000020   0.000146   0.001955   0.000684  -0.002068  -0.000504
    26  H    0.000001  -0.000038  -0.000617   0.000334   0.000824   0.000053
               7          8          9         10         11         12
     1  C   -0.043034   0.017016   0.000953  -0.017082   0.024334  -0.022887
     2  C    0.338569  -0.033400   0.018437   0.028033  -0.356329   0.553201
     3  C   -0.017637   0.074904  -0.021208  -0.175697  -0.000391  -0.038483
     4  C    0.043634   0.024596   0.017325   0.288503  -0.389414   0.028607
     5  C   -0.036371   0.274976  -0.031150  -0.150447   0.775191  -0.530667
     6  C    0.008750  -0.063921   0.310704   0.026812  -0.057432   0.040716
     7  H    0.540262   0.000016  -0.000180  -0.000300  -0.004685  -0.001028
     8  H    0.000016   0.521518  -0.005388  -0.004823  -0.004420   0.002308
     9  H   -0.000180  -0.005388   0.530333  -0.000152   0.000570   0.000060
    10  O   -0.000300  -0.004823  -0.000152   8.396324   0.269976   0.021999
    11  C   -0.004685  -0.004420   0.000570   0.269976   9.818330   1.102819
    12  C   -0.001028   0.002308   0.000060   0.021999   1.102819  10.526450
    13  C   -0.000392  -0.000215  -0.000068  -0.184697  -0.962227  -2.325794
    14  C    0.003954   0.000200   0.000030  -0.029131  -2.475072  -2.712650
    15  C    0.000010  -0.000007  -0.000005  -0.040692  -1.189073  -0.761114
    16  C    0.000197  -0.000013   0.000001   0.000789  -0.145988  -0.116350
    17  H    0.000000   0.000000   0.000000  -0.000183   0.002844  -0.014380
    18  H    0.000000   0.000000   0.000000  -0.000158   0.052471  -0.003158
    19  H   -0.008961  -0.000195   0.000015  -0.011773   0.054930  -0.022011
    20  H    0.000299   0.000005   0.000000  -0.010249  -0.009641   0.137588
    21  H   -0.004664  -0.000152  -0.004858   0.000067   0.000478  -0.000368
    22  H    0.000000   0.000000   0.000000   0.000054   0.003991   0.035801
    23  C   -0.000004   0.000498   0.000006   0.012159  -0.390419   0.019025
    24  H    0.000000   0.000000   0.000000  -0.001263  -0.029522  -0.005340
    25  H    0.000000   0.000001   0.000000   0.001343   0.015255   0.002429
    26  H    0.000000   0.000000   0.000000   0.000785  -0.022202  -0.010920
              13         14         15         16         17         18
     1  C    0.006388  -0.017440   0.000521   0.000227   0.000113   0.000000
     2  C   -0.293593  -0.062980  -0.122518   0.046132   0.002072   0.000014
     3  C    0.019180   0.149558  -0.078780   0.027400  -0.003392   0.000080
     4  C    0.299567  -0.172808   0.234897  -0.027446  -0.002099   0.000318
     5  C   -0.040909  -0.413404   0.036816  -0.009877  -0.000378  -0.000019
     6  C   -0.008022   0.005081   0.004262   0.000863   0.000027  -0.000002
     7  H   -0.000392   0.003954   0.000010   0.000197   0.000000   0.000000
     8  H   -0.000215   0.000200  -0.000007  -0.000013   0.000000   0.000000
     9  H   -0.000068   0.000030  -0.000005   0.000001   0.000000   0.000000
    10  O   -0.184697  -0.029131  -0.040692   0.000789  -0.000183  -0.000158
    11  C   -0.962227  -2.475072  -1.189073  -0.145988   0.002844   0.052471
    12  C   -2.325794  -2.712650  -0.761114  -0.116350  -0.014380  -0.003158
    13  C    9.152804   1.631117  -0.604253  -0.548935  -0.007786   0.020540
    14  C    1.631117   9.738536  -0.801560   0.453674   0.333917  -0.002759
    15  C   -0.604253  -0.801560   9.908438   0.479229   0.003957   0.222487
    16  C   -0.548935   0.453674   0.479229   5.842634  -0.021351   0.015832
    17  H   -0.007786   0.333917   0.003957  -0.021351   0.536817  -0.000179
    18  H    0.020540  -0.002759   0.222487   0.015832  -0.000179   0.533704
    19  H   -0.001319  -0.022408  -0.003428  -0.002372   0.000311   0.000000
    20  H    0.044381   0.018197   0.003894   0.015334  -0.008711   0.000016
    21  H    0.000016  -0.000068   0.000002  -0.000003   0.000000   0.000000
    22  H    0.026341  -0.010656  -0.046624   0.283763  -0.004427  -0.004279
    23  C   -0.308953   0.390815  -0.747207  -0.129685   0.001317  -0.024505
    24  H   -0.057034   0.007589  -0.008445  -0.006772   0.000000   0.000201
    25  H   -0.058404   0.000718  -0.035028  -0.004026   0.000000   0.000248
    26  H   -0.115640  -0.001526   0.032199   0.010017   0.000000   0.004196
              19         20         21         22         23         24
     1  C    0.011139  -0.006695   0.291015   0.000004  -0.001475   0.000018
     2  C    0.030135  -0.031442  -0.022880   0.000033   0.032935  -0.000138
     3  C    0.108881  -0.032122   0.044056   0.000184   0.030566   0.000704
     4  C    0.019290   0.063920  -0.007686  -0.000191  -0.115497  -0.003630
     5  C    0.045045   0.013180   0.011265  -0.000024  -0.056228  -0.002650
     6  C    0.004614   0.002917  -0.023617  -0.000004  -0.006695  -0.000408
     7  H   -0.008961   0.000299  -0.004664   0.000000  -0.000004   0.000000
     8  H   -0.000195   0.000005  -0.000152   0.000000   0.000498   0.000000
     9  H    0.000015   0.000000  -0.004858   0.000000   0.000006   0.000000
    10  O   -0.011773  -0.010249   0.000067   0.000054   0.012159  -0.001263
    11  C    0.054930  -0.009641   0.000478   0.003991  -0.390419  -0.029522
    12  C   -0.022011   0.137588  -0.000368   0.035801   0.019025  -0.005340
    13  C   -0.001319   0.044381   0.000016   0.026341  -0.308953  -0.057034
    14  C   -0.022408   0.018197  -0.000068  -0.010656   0.390815   0.007589
    15  C   -0.003428   0.003894   0.000002  -0.046624  -0.747207  -0.008445
    16  C   -0.002372   0.015334  -0.000003   0.283763  -0.129685  -0.006772
    17  H    0.000311  -0.008711   0.000000  -0.004427   0.001317   0.000000
    18  H    0.000000   0.000016   0.000000  -0.004279  -0.024505   0.000201
    19  H    0.665608  -0.003413  -0.000199   0.000001   0.000444  -0.000001
    20  H   -0.003413   0.648857   0.000001  -0.000200   0.002452   0.000006
    21  H   -0.000199   0.000001   0.541135   0.000000  -0.000001   0.000000
    22  H    0.000001  -0.000200   0.000000   0.536970  -0.000744   0.000002
    23  C    0.000444   0.002452  -0.000001  -0.000744   6.800632   0.447412
    24  H   -0.000001   0.000006   0.000000   0.000002   0.447412   0.477009
    25  H    0.000001  -0.000005   0.000000   0.000002   0.416181  -0.026293
    26  H    0.000000   0.000003   0.000000  -0.000006   0.444884  -0.027784
              25         26
     1  C    0.000020   0.000001
     2  C    0.000146  -0.000038
     3  C    0.001955  -0.000617
     4  C    0.000684   0.000334
     5  C   -0.002068   0.000824
     6  C   -0.000504   0.000053
     7  H    0.000000   0.000000
     8  H    0.000001   0.000000
     9  H    0.000000   0.000000
    10  O    0.001343   0.000785
    11  C    0.015255  -0.022202
    12  C    0.002429  -0.010920
    13  C   -0.058404  -0.115640
    14  C    0.000718  -0.001526
    15  C   -0.035028   0.032199
    16  C   -0.004026   0.010017
    17  H    0.000000   0.000000
    18  H    0.000248   0.004196
    19  H    0.000001   0.000000
    20  H   -0.000005   0.000003
    21  H    0.000000   0.000000
    22  H    0.000002  -0.000006
    23  C    0.416181   0.444884
    24  H   -0.026293  -0.027784
    25  H    0.476654  -0.027735
    26  H   -0.027735   0.512890
 Mulliken charges:
               1
     1  C    0.053605
     2  C   -0.406501
     3  C    0.512098
     4  C   -0.185883
     5  C   -0.537824
     6  C   -0.110607
     7  H    0.181564
     8  H    0.196498
     9  H    0.184575
    10  O   -0.420196
    11  C   -0.084376
    12  C    0.094148
    13  C    0.317909
    14  C   -0.010924
    15  C   -0.487978
    16  C   -0.163274
    17  H    0.181514
    18  H    0.184950
    19  H    0.135666
    20  H    0.151427
    21  H    0.176462
    22  H    0.180008
    23  C   -0.817910
    24  H    0.236341
    25  H    0.238424
    26  H    0.200282
 Sum of Mulliken charges =   0.00000
 Mulliken charges with hydrogens summed into heavy atoms:
               1
     1  C    0.230068
     2  C   -0.224936
     3  C    0.647764
     4  C   -0.185883
     5  C   -0.341326
     6  C    0.073968
    10  O   -0.420196
    11  C   -0.084376
    12  C    0.245575
    13  C    0.317909
    14  C    0.170590
    15  C   -0.303028
    16  C    0.016734
    23  C   -0.142863
 Electronic spatial extent (au):  <R**2>=           3571.4504
 Charge=              0.0000 electrons
 Dipole moment (field-independent basis, Debye):
    X=             -0.6001    Y=             -1.0643    Z=             -0.2547  Tot=              1.2480
 Quadrupole moment (field-independent basis, Debye-Ang):
   XX=            -68.1207   YY=            -75.0567   ZZ=            -89.7420
   XY=             -0.4428   XZ=              0.3225   YZ=             -0.5377
 Traceless Quadrupole moment (field-independent basis, Debye-Ang):
   XX=              9.5191   YY=              2.5831   ZZ=            -12.1022
   XY=             -0.4428   XZ=              0.3225   YZ=             -0.5377
 Octapole moment (field-independent basis, Debye-Ang**2):
  XXX=             -0.5687  YYY=             -4.5995  ZZZ=              0.8244  XYY=              0.9136
  XXY=              7.7810  XXZ=             -8.6312  XZZ=             -3.8631  YZZ=              6.0669
  YYZ=             -0.5196  XYZ=             -1.5546
 Hexadecapole moment (field-independent basis, Debye-Ang**3):
 XXXX=          -3545.8815 YYYY=           -915.9722 ZZZZ=           -122.9775 XXXY=             12.9014
 XXXZ=              5.9331 YYYX=             14.1333 YYYZ=             -0.9369 ZZZX=              0.6607
 ZZZY=              0.4911 XXYY=           -739.7699 XXZZ=           -757.4810 YYZZ=           -193.9716
 XXYZ=              2.2184 YYXZ=              0.9548 ZZXY=             -8.5661
 N-N= 7.784786634925D+02 E-N=-2.896238655840D+03  KE= 5.718321838742D+02
 Evaluate density.
 Using the total density.
 Monte-Carlo method of calculating molar volume:
 based on  0.001 e/bohr**3 density envelope.
 Number of points per bohr**3 =   20 CutOff= 1.00D-04
 Using the SCF density.
 There are       401 points.  Will hold       401 in memory.
 LenV=  4026329556 MDV=  4026531840.
 Box volume = 8075.218 fraction occupied=0.227
 Integrated density= 7.5232479467925430D+01 error=-2.2767520532074570D+01
 Molar volume = 1832.531 bohr**3/mol (163.533 cm**3/mol)
 Recommended a0 for SCRF calculation =  4.92 angstrom (  9.30 bohr)
 Calling FoFJK, ICntrl=      2127 FMM=F ISym2X=0 I1Cent= 0 IOpClX= 0 NMat=1 NMatS=1 NMatT=0.
 ***** Axes restored to original set *****
 -------------------------------------------------------------------
 Center     Atomic                   Forces (Hartrees/Bohr)
 Number     Number              X              Y              Z
 -------------------------------------------------------------------
      1        6           0.002042998    0.010439020   -0.003301275
      2        6           0.004643963    0.010440003    0.016883874
      3        6          -0.001206232   -0.011352023    0.014417046
      4        6           0.007042435    0.047535405   -0.040527643
      5        6           0.000881191    0.008539306   -0.007226900
      6        6          -0.001795043    0.005700658   -0.021141974
      7        1          -0.002874147   -0.006718097   -0.009599181
      8        1           0.003089451    0.008686724    0.007498432
      9        1           0.001060050   -0.002215039    0.011454120
     10        8          -0.002543504   -0.004748006   -0.023868738
     11        6          -0.004095062   -0.061979080    0.023126890
     12        6           0.002929628    0.017284878   -0.004081502
     13        6           0.003874952    0.009824728    0.042699111
     14        6           0.003284536    0.014279378    0.012154566
     15        6          -0.012546297   -0.025750921   -0.003937787
     16        6          -0.001435480   -0.005243764    0.011459000
     17        1          -0.003183246   -0.007755054   -0.008544339
     18        1           0.004061374    0.011005040    0.001005729
     19        1          -0.002208541   -0.021183554    0.012712873
     20        1           0.000718725    0.018217202   -0.016566957
     21        1          -0.002320162   -0.011617314    0.002533160
     22        1           0.002123236    0.004104865   -0.011267211
     23        6          -0.006971711   -0.019004051   -0.026601876
     24        1          -0.011624542    0.001564860    0.012675070
     25        1           0.012239167   -0.005912819    0.011654021
     26        1           0.004812261    0.015857653   -0.003608507
 -------------------------------------------------------------------
 Cartesian Forces:  Max     0.061979080 RMS     0.015315038

 GradGradGradGradGradGradGradGradGradGradGradGradGradGradGradGradGradGrad
 Berny optimization.
 FormGI is forming the generalized inverse of G from B-inverse, IUseBI=4.
 Internal  Forces:  Max     0.167606880 RMS     0.024610228
 Search for a local minimum.
 Step number   1 out of a maximum of  138
 All quantities printed in internal units (Hartrees-Bohrs-Radians)
 Mixed Optimization -- RFO/linear search
 Second derivative matrix not updated -- first step.
 ITU=  0
     Eigenvalues ---    0.00230   0.00230   0.00237   0.01337   0.01736
     Eigenvalues ---    0.01788   0.02070   0.02070   0.02070   0.02070
     Eigenvalues ---    0.02070   0.02070   0.02070   0.02070   0.02070
     Eigenvalues ---    0.02070   0.02070   0.02070   0.02070   0.02070
     Eigenvalues ---    0.02070   0.07243   0.07243   0.16000   0.16000
     Eigenvalues ---    0.16000   0.16000   0.16000   0.16000   0.16000
     Eigenvalues ---    0.16000   0.16000   0.16000   0.16000   0.16000
     Eigenvalues ---    0.18708   0.22000   0.22000   0.22000   0.22486
     Eigenvalues ---    0.23485   0.24447   0.24758   0.25000   0.25000
     Eigenvalues ---    0.25000   0.27457   0.28519   0.37230   0.37230
     Eigenvalues ---    0.37230   0.37230   0.37230   0.37230   0.37230
     Eigenvalues ---    0.37230   0.37230   0.37230   0.37230   0.37230
     Eigenvalues ---    0.41268   0.41367   0.41459   0.41533   0.45389
     Eigenvalues ---    0.45389   0.45389   0.45389   0.45389   0.45389
     Eigenvalues ---    0.45389   0.45389
 RFO step:  Lambda=-1.80815024D-01 EMin= 2.30000000D-03
 Linear search not attempted -- first point.
 Maximum step size (   0.300) exceeded in Quadratic search.
    -- Step size scaled by   0.465
 Iteration  1 RMS(Cart)=  0.23711861 RMS(Int)=  0.01312965
 Iteration  2 RMS(Cart)=  0.13760266 RMS(Int)=  0.00292791
 Iteration  3 RMS(Cart)=  0.00657605 RMS(Int)=  0.00014913
 Iteration  4 RMS(Cart)=  0.00000309 RMS(Int)=  0.00014912
 Iteration  5 RMS(Cart)=  0.00000000 RMS(Int)=  0.00014912
 Variable       Old X    -DE/DX   Delta X   Delta X   Delta X     New X
                                 (Linear)    (Quad)   (Total)
    R1        2.64826  -0.00963   0.00000  -0.00708  -0.00709   2.64117
    R2        2.64826  -0.00953   0.00000  -0.00717  -0.00717   2.64109
    R3        2.02201   0.01211   0.00000   0.01018   0.01018   2.03218
    R4        2.64826  -0.00119   0.00000  -0.00071  -0.00072   2.64755
    R5        2.02201   0.01202   0.00000   0.01009   0.01009   2.03210
    R6        2.64826   0.00384   0.00000   0.00300   0.00300   2.65126
    R7        2.02201  -0.01894   0.00000  -0.01591  -0.01591   2.00609
    R8        2.64826  -0.00634   0.00000  -0.00461  -0.00460   2.64366
    R9        2.93342  -0.04162   0.00000  -0.04247  -0.04247   2.89095
   R10        2.64826  -0.00539   0.00000  -0.00410  -0.00410   2.64417
   R11        2.02201   0.01175   0.00000   0.00987   0.00987   2.03187
   R12        2.02201   0.01157   0.00000   0.00972   0.00972   2.03173
   R13        3.18558  -0.05110   0.00000  -0.06454  -0.06454   3.12104
   R14        2.64826  -0.00294   0.00000  -0.00211  -0.00211   2.64615
   R15        2.64826  -0.00934   0.00000  -0.00685  -0.00685   2.64141
   R16        2.64826  -0.00233   0.00000  -0.00165  -0.00165   2.64661
   R17        2.02201  -0.01943   0.00000  -0.01632  -0.01632   2.00569
   R18        2.64826  -0.00275   0.00000  -0.00207  -0.00207   2.64619
   R19        2.91018  -0.00930   0.00000  -0.00927  -0.00927   2.90091
   R20        2.64826  -0.01011   0.00000  -0.00739  -0.00738   2.64088
   R21        2.02201   0.01190   0.00000   0.01000   0.01000   2.03201
   R22        2.64826  -0.00855   0.00000  -0.00630  -0.00630   2.64196
   R23        2.02201   0.01145   0.00000   0.00962   0.00962   2.03163
   R24        2.02201   0.01217   0.00000   0.01023   0.01023   2.03223
   R25        2.02201   0.01698   0.00000   0.01426   0.01426   2.03627
   R26        2.02201   0.01762   0.00000   0.01480   0.01480   2.03681
   R27        2.02201   0.01685   0.00000   0.01415   0.01415   2.03616
    A1        2.09440  -0.00717   0.00000  -0.00885  -0.00886   2.08553
    A2        2.09440   0.00370   0.00000   0.00458   0.00459   2.09898
    A3        2.09440   0.00347   0.00000   0.00427   0.00427   2.09867
    A4        2.09440   0.00589   0.00000   0.00684   0.00683   2.10122
    A5        2.09440  -0.00187   0.00000  -0.00196  -0.00195   2.09245
    A6        2.09440  -0.00402   0.00000  -0.00488  -0.00488   2.08952
    A7        2.09440   0.00263   0.00000   0.00343   0.00343   2.09782
    A8        2.09440  -0.01748   0.00000  -0.02375  -0.02375   2.07064
    A9        2.09440   0.01485   0.00000   0.02033   0.02033   2.11472
   A10        2.09440  -0.01391   0.00000  -0.01484  -0.01483   2.07957
   A11        2.09440   0.10299   0.00000   0.11100   0.11099   2.20539
   A12        2.09440  -0.08908   0.00000  -0.09616  -0.09617   1.99823
   A13        2.09440   0.00919   0.00000   0.01027   0.01028   2.10468
   A14        2.09440  -0.00643   0.00000  -0.00763  -0.00764   2.08676
   A15        2.09440  -0.00277   0.00000  -0.00264  -0.00265   2.09175
   A16        2.09440   0.00336   0.00000   0.00315   0.00315   2.09755
   A17        2.09440   0.00016   0.00000   0.00093   0.00093   2.09532
   A18        2.09440  -0.00351   0.00000  -0.00408  -0.00408   2.09032
   A19        2.23319   0.16761   0.00000   0.18077   0.18077   2.41397
   A20        2.01758   0.10494   0.00000   0.11412   0.11420   2.13179
   A21        2.16295  -0.10073   0.00000  -0.10896  -0.10908   2.05387
   A22        2.09440  -0.00358   0.00000  -0.00354  -0.00354   2.09086
   A23        2.09440   0.00132   0.00000   0.00155   0.00154   2.09594
   A24        2.09440   0.01332   0.00000   0.01828   0.01828   2.11267
   A25        2.09440  -0.01464   0.00000  -0.01983  -0.01984   2.07456
   A26        2.09440  -0.00096   0.00000  -0.00127  -0.00127   2.09312
   A27        2.09440  -0.00293   0.00000  -0.00305  -0.00305   2.09135
   A28        2.09440   0.00389   0.00000   0.00432   0.00432   2.09871
   A29        2.09440   0.00277   0.00000   0.00320   0.00320   2.09759
   A30        2.09440  -0.00266   0.00000  -0.00333  -0.00333   2.09106
   A31        2.09440  -0.00011   0.00000   0.00014   0.00014   2.09453
   A32        2.09440   0.00629   0.00000   0.00700   0.00700   2.10139
   A33        2.09440  -0.00589   0.00000  -0.00724  -0.00724   2.08715
   A34        2.09440  -0.00040   0.00000   0.00024   0.00024   2.09464
   A35        2.09440  -0.00584   0.00000  -0.00695  -0.00695   2.08745
   A36        2.09440   0.00305   0.00000   0.00365   0.00365   2.09805
   A37        2.09440   0.00279   0.00000   0.00329   0.00329   2.09769
   A38        1.91063   0.00270   0.00000   0.00358   0.00358   1.91421
   A39        1.91063   0.00267   0.00000   0.00351   0.00351   1.91414
   A40        1.91063   0.00211   0.00000   0.00310   0.00309   1.91373
   A41        1.91063  -0.00387   0.00000  -0.00572  -0.00572   1.90491
   A42        1.91063  -0.00176   0.00000  -0.00216  -0.00217   1.90846
   A43        1.91063  -0.00185   0.00000  -0.00232  -0.00232   1.90831
    D1        0.00000  -0.00006   0.00000  -0.00013  -0.00013  -0.00013
    D2       -3.14159  -0.00010   0.00000  -0.00024  -0.00024   3.14136
    D3       -3.14159  -0.00001   0.00000  -0.00002  -0.00002   3.14158
    D4        0.00000  -0.00005   0.00000  -0.00012  -0.00012  -0.00012
    D5        0.00000   0.00000   0.00000   0.00000   0.00000   0.00000
    D6        3.14159   0.00005   0.00000   0.00011   0.00012  -3.14148
    D7        3.14159  -0.00005   0.00000  -0.00011  -0.00011   3.14148
    D8        0.00000   0.00000   0.00000   0.00000   0.00000   0.00000
    D9        0.00000   0.00001   0.00000   0.00003   0.00003   0.00003
   D10       -3.14159  -0.00033   0.00000  -0.00076  -0.00075   3.14084
   D11        3.14159   0.00006   0.00000   0.00013   0.00013  -3.14146
   D12        0.00000  -0.00029   0.00000  -0.00066  -0.00065  -0.00065
   D13        0.00000   0.00009   0.00000   0.00021   0.00021   0.00020
   D14        3.14159   0.00016   0.00000   0.00036   0.00037  -3.14123
   D15        3.14159   0.00043   0.00000   0.00100   0.00101  -3.14059
   D16        0.00000   0.00050   0.00000   0.00116   0.00117   0.00117
   D17        0.00000  -0.00015   0.00000  -0.00034  -0.00034  -0.00034
   D18       -3.14159  -0.00006   0.00000  -0.00013  -0.00013   3.14146
   D19       -3.14159  -0.00021   0.00000  -0.00049  -0.00048   3.14111
   D20        0.00000  -0.00012   0.00000  -0.00029  -0.00028  -0.00028
   D21       -0.09171   0.00120   0.00000   0.00304   0.00304  -0.08867
   D22        3.04988   0.00126   0.00000   0.00320   0.00320   3.05308
   D23        0.00000   0.00010   0.00000   0.00023   0.00024   0.00024
   D24       -3.14159   0.00005   0.00000   0.00012   0.00012  -3.14147
   D25       -3.14159   0.00001   0.00000   0.00003   0.00003  -3.14156
   D26        0.00000  -0.00004   0.00000  -0.00009  -0.00008  -0.00008
   D27        0.07603   0.01156   0.00000   0.02865   0.02830   0.10434
   D28       -2.92738   0.00523   0.00000   0.01394   0.01429  -2.91309
   D29       -3.00924   0.00375   0.00000  -0.00103  -0.00193  -3.01117
   D30        0.13235   0.00571   0.00000   0.00514   0.00445   0.13680
   D31        0.00000   0.00107   0.00000   0.00357   0.00369   0.00370
   D32       -3.14159   0.00303   0.00000   0.00974   0.01008  -3.13151
   D33        2.99766   0.01137   0.00000   0.01781   0.01712   3.01478
   D34       -0.14393   0.01094   0.00000   0.01786   0.01724  -0.12669
   D35        0.00000  -0.00281   0.00000  -0.00574  -0.00568  -0.00568
   D36        3.14159  -0.00324   0.00000  -0.00569  -0.00555   3.13605
   D37        0.00000   0.00132   0.00000   0.00115   0.00097   0.00097
   D38        3.14159   0.00051   0.00000   0.00109   0.00106  -3.14053
   D39        3.14159  -0.00064   0.00000  -0.00502  -0.00527   3.13631
   D40        0.00000  -0.00145   0.00000  -0.00508  -0.00518  -0.00519
   D41        0.00000   0.00217   0.00000   0.00318   0.00303   0.00303
   D42        3.14159   0.00069   0.00000   0.00142   0.00141  -3.14019
   D43        3.14159   0.00260   0.00000   0.00314   0.00290  -3.13869
   D44        0.00000   0.00112   0.00000   0.00137   0.00128   0.00128
   D45       -0.94450   0.00089   0.00000   0.00118   0.00113  -0.94337
   D46        1.14990  -0.00056   0.00000  -0.00148  -0.00153   1.14837
   D47       -3.03889   0.00011   0.00000  -0.00027  -0.00031  -3.03921
   D48        2.19709   0.00046   0.00000   0.00122   0.00126   2.19836
   D49       -1.99170  -0.00099   0.00000  -0.00144  -0.00140  -1.99310
   D50        0.10270  -0.00032   0.00000  -0.00023  -0.00018   0.10251
   D51        0.00000  -0.00196   0.00000  -0.00370  -0.00362  -0.00362
   D52       -3.14159  -0.00087   0.00000  -0.00103  -0.00094   3.14065
   D53       -3.14159  -0.00115   0.00000  -0.00364  -0.00371   3.13788
   D54        0.00000  -0.00006   0.00000  -0.00097  -0.00104  -0.00103
   D55        0.00000   0.00021   0.00000   0.00154   0.00163   0.00163
   D56       -3.14159  -0.00088   0.00000  -0.00113  -0.00105   3.14054
   D57       -3.14159   0.00170   0.00000   0.00330   0.00326  -3.13834
   D58        0.00000   0.00060   0.00000   0.00063   0.00058   0.00058
         Item               Value     Threshold  Converged?
 Maximum Force            0.167607     0.000450     NO 
 RMS     Force            0.024610     0.000300     NO 
 Maximum Displacement     1.174293     0.001800     NO 
 RMS     Displacement     0.369066     0.001200     NO 
 Predicted change in Energy=-7.280433D-02
 GradGradGradGradGradGradGradGradGradGradGradGradGradGradGradGradGradGrad

                          Input orientation:                          
 ---------------------------------------------------------------------
 Center     Atomic      Atomic             Coordinates (Angstroms)
 Number     Number       Type             X           Y           Z
 ---------------------------------------------------------------------
      1          6           0       -4.706187   -0.196518   -0.038348
      2          6           0       -4.838968   -0.004715   -1.416390
      3          6           0       -4.616067    1.257985   -1.980980
      4          6           0       -4.257061    2.342014   -1.165890
      5          6           0       -4.125418    2.143798    0.212691
      6          6           0       -4.348507    0.882169    0.775164
      7          1           0       -5.113693   -0.830288   -2.048304
      8          1           0       -3.850442    2.969941    0.843544
      9          1           0       -4.243740    0.744757    1.836332
     10          8           0       -3.982089    3.773622   -1.629850
     11          6           0       -3.869320    4.609769   -3.049661
     12          6           0       -4.167581    4.022914   -4.285553
     13          6           0       -3.317174    5.893099   -3.005299
     14          6           0       -3.909217    4.718155   -5.473561
     15          6           0       -3.058242    6.583751   -4.195598
     16          6           0       -3.352028    5.999061   -5.431080
     17          1           0       -4.140924    4.263619   -6.420113
     18          1           0       -2.632271    7.570022   -4.155104
     19          1           0       -4.723992    1.372141   -3.030872
     20          1           0       -4.595587    3.053321   -4.342060
     21          1           0       -4.877785   -1.166616    0.392833
     22          1           0       -3.152665    6.532940   -6.343076
     23          6           0       -2.996734    6.539978   -1.650538
     24          1           0       -3.875428    6.530174   -1.026913
     25          1           0       -2.210338    5.988127   -1.161906
     26          1           0       -2.677550    7.557963   -1.801577
 ---------------------------------------------------------------------
                    Distance matrix (angstroms):
                    1          2          3          4          5
     1  C    0.000000
     2  C    1.397647   0.000000
     3  C    2.428481   1.401021   0.000000
     4  C    2.813754   2.430742   1.402989   0.000000
     5  C    2.424333   2.789116   2.416111   1.398965   0.000000
     6  C    1.397606   2.414544   2.794487   2.430473   1.399233
     7  H    2.146544   1.075342   2.147801   3.402349   3.864450
     8  H    3.396542   3.864333   3.390415   2.144168   1.075221
     9  H    2.148088   3.390605   3.869613   3.400697   2.146515
    10  O    4.338111   3.880160   2.617948   1.529827   2.464108
    11  C    5.733127   4.990116   3.596410   2.973491   4.097504
    12  C    6.011027   4.990456   3.627262   3.544818   4.875146
    13  C    6.914882   6.294816   4.921447   4.108165   5.006594
    14  C    7.370937   6.295282   4.966944   4.931843   6.245600
    15  C    8.122223   7.369048   5.974541   5.348704   6.347051
    16  C    8.324692   7.373876   5.998231   5.690775   6.878469
    17  H    7.806361   6.613864   5.381961   5.595795   6.963331
    18  H    9.031498   8.351450   6.964487   6.237581   7.123976
    19  H    3.378787   2.124971   1.061579   2.153331   3.387395
    20  H    5.394036   4.239147   2.966201   3.272402   4.668410
    21  H    1.075385   2.150537   3.403260   3.889139   3.399610
    22  H    9.351397   8.358037   6.999612   6.751800   7.949144
    23  C    7.134548   6.803063   5.534518   4.409786   4.906318
    24  H    6.849512   6.617015   5.408768   4.207807   4.565020
    25  H    6.763245   6.548940   5.369605   4.181295   4.509536
    26  H    8.207090   7.874910   6.593918   5.486810   5.955400
                    6          7          8          9         10
     6  C    0.000000
     7  H    3.389689   0.000000
     8  H    2.147450   4.939670   0.000000
     9  H    1.075145   4.281120   2.468149   0.000000
    10  O    3.778737   4.759372   2.604018   4.610521   0.000000
    11  C    5.362267   5.669691   4.224504   6.241109   1.651582
    12  C    5.958848   5.427152   5.245662   6.944753   2.673820
    13  C    6.361208   7.024760   4.862388   7.127787   2.612691
    14  C    7.345361   6.630865   6.554809   8.326724   3.958733
    15  C    7.673415   7.987724   6.251412   8.478410   3.915786
    16  C    8.105123   7.822189   6.985333   9.012110   4.449596
    17  H    7.952944   6.782838   7.383678   8.975626   4.817878
    18  H    8.484126   9.008955   6.901533   9.223795   4.755163
    19  H    3.855771   2.442949   4.281022   4.930915   2.877567
    20  H    5.564255   4.540063   5.239531   6.604983   2.872507
    21  H    2.150310   2.475464   4.285987   2.477710   5.412899
    22  H    9.166820   8.746875   8.051667  10.079495   5.524154
    23  C    6.302549   7.678578   4.437840   6.877346   2.936678
    24  H    5.947373   7.533455   4.021752   6.465670   2.823737
    25  H    5.864709   7.463643   3.977589   6.373154   2.874388
    26  H    7.348328   8.738331   5.424231   7.880807   4.006564
                   11         12         13         14         15
    11  C    0.000000
    12  C    1.400281   0.000000
    13  C    1.397773   2.420710   0.000000
    14  C    2.426650   1.400527   2.797021   0.000000
    15  C    2.422318   2.792242   1.400306   2.416154   0.000000
    16  C    2.805152   2.425390   2.428344   1.397492   1.398066
    17  H    3.399049   2.148254   3.872302   1.075291   3.391708
    18  H    3.393434   3.867321   2.145510   3.391471   1.075091
    19  H    3.348589   2.985032   4.734855   4.222132   5.593943
    20  H    2.149486   1.061364   3.389043   2.126751   3.853417
    21  H    6.799587   7.023027   7.988892   8.365598   9.188723
    22  H    3.880562   3.400542   3.402530   2.149854   2.150153
    23  C    2.538634   3.827506   1.535094   4.332110   2.546179
    24  H    2.789176   4.121947   2.152097   4.801795   3.272801
    25  H    2.866307   4.177324   2.152258   4.805143   3.205775
    26  H    3.416121   4.570219   2.151706   4.802602   2.612537
                   16         17         18         19         20
    16  C    0.000000
    17  H    2.147627   0.000000
    18  H    2.148042   4.282360   0.000000
    19  H    5.389960   4.493058   6.637238   0.000000
    20  H    3.377837   2.447416   4.928504   2.135900   0.000000
    21  H    9.359103   8.743378  10.102223   4.265055   6.348757
    22  H    1.075411   2.476370   2.476605   6.330372   4.265423
    23  C    3.835534   5.407387   2.732521   5.620968   4.685873
    24  H    4.466846   5.856140   3.523110   5.598323   4.857709
    25  H    4.419211   5.860874   3.411694   5.578424   4.941243
    26  H    4.007292   5.858758   2.353993   6.630497   5.515861
                   21         22         23         24         25
    21  H    0.000000
    22  H   10.374568   0.000000
    23  C    8.191783   4.695133   0.000000
    24  H    7.890563   5.365070   1.077547   0.000000
    25  H    7.792486   5.294272   1.077831   1.756292   0.000000
    26  H    9.261466   4.679916   1.077490   1.758228   1.758366
                   26
    26  H    0.000000
 Stoichiometry    C13H12O
 Framework group  C1[X(C13H12O)]
 Deg. of freedom    72
 Full point group                 C1      NOp   1
 Largest Abelian subgroup         C1      NOp   1
 Largest concise Abelian subgroup C1      NOp   1
                         Standard orientation:                         
 ---------------------------------------------------------------------
 Center     Atomic      Atomic             Coordinates (Angstroms)
 Number     Number       Type             X           Y           Z
 ---------------------------------------------------------------------
      1          6           0        4.380049   -0.385077   -0.117609
      2          6           0        3.442496   -1.420202   -0.063507
      3          6           0        2.074257   -1.133155    0.028070
      4          6           0        1.633578    0.198282    0.066227
      5          6           0        2.576714    1.230075    0.011451
      6          6           0        3.942895    0.941864   -0.079839
      7          1           0        3.771784   -2.443480   -0.092338
      8          1           0        2.246307    2.252871    0.040106
      9          1           0        4.656295    1.745172   -0.121003
     10          8           0        0.181865    0.670660    0.165015
     11          6           0       -1.332474    0.011500    0.162656
     12          6           0       -1.542360   -1.372952    0.168089
     13          6           0       -2.417469    0.877900    0.001698
     14          6           0       -2.834988   -1.887776    0.008263
     15          6           0       -3.707919    0.358871   -0.160176
     16          6           0       -3.920064   -1.023005   -0.158368
     17          1           0       -2.991153   -2.951651    0.014118
     18          1           0       -4.538292    1.030257   -0.284847
     19          1           0        1.386406   -1.940816    0.066723
     20          1           0       -0.734205   -2.048613    0.297936
     21          1           0        5.429777   -0.607763   -0.187869
     22          1           0       -4.912685   -1.417884   -0.281994
     23          6           0       -2.189072    2.395907    0.002968
     24          1           0       -1.659623    2.682397    0.896676
     25          1           0       -1.605246    2.675710   -0.858762
     26          1           0       -3.138132    2.905109   -0.028407
 ---------------------------------------------------------------------
 Rotational constants (GHZ):           1.7027896           0.3385063           0.2836160
 Standard basis: 6-31+G(d) (6D, 7F)
 There are   290 symmetry adapted cartesian basis functions of A   symmetry.
 There are   290 symmetry adapted basis functions of A   symmetry.
   290 basis functions,   496 primitive gaussians,   290 cartesian basis functions
    49 alpha electrons       49 beta electrons
       nuclear repulsion energy       772.3699114994 Hartrees.
 NAtoms=   26 NActive=   26 NUniq=   26 SFac= 1.00D+00 NAtFMM=   60 NAOKFM=F Big=F
 Integral buffers will be    131072 words long.
 Raffenetti 2 integral format.
 Two-electron integral symmetry is turned on.
 Nuclear repulsion after empirical dispersion term =      772.3514642900 Hartrees.
 One-electron integrals computed using PRISM.
 NBasis=   290 RedAO= T EigKep=  1.32D-06  NBF=   290
 NBsUse=   289 1.00D-06 EigRej=  5.66D-07 NBFU=   289
 Initial guess from the checkpoint file:  "molecule_97.chk"
 B after Tr=     0.000000    0.000000    0.000000
         Rot=    0.999741   -0.013782    0.000231    0.018126 Ang=  -2.61 deg.
 ExpMin= 4.38D-02 ExpMax= 5.48D+03 ExpMxC= 8.25D+02 IAcc=3 IRadAn=         5 AccDes= 0.00D+00
 Harris functional with IExCor=  402 and IRadAn=       5 diagonalized for initial guess.
 HarFok:  IExCor=  402 AccDes= 0.00D+00 IRadAn=         5 IDoV= 1 UseB2=F ITyADJ=14
 ICtDFT=  3500011 ScaDFX=  1.000000  1.000000  1.000000  1.000000
 FoFCou: FMM=F IPFlag=           0 FMFlag=      100000 FMFlg1=           0
         NFxFlg=           0 DoJE=T BraDBF=F KetDBF=T FulRan=T
         wScrn=  0.000000 ICntrl=       500 IOpCl=  0 I1Cent=   200000004 NGrid=           0
         NMat0=    1 NMatS0=      1 NMatT0=    0 NMatD0=    1 NMtDS0=    0 NMtDT0=    0
 Petite list used in FoFCou.
 Requested convergence on RMS density matrix=1.00D-08 within 128 cycles.
 Requested convergence on MAX density matrix=1.00D-06.
 Requested convergence on             energy=1.00D-06.
 No special actions if energy rises.
 SCF Done:  E(RB3LYP) =  -577.806516994     A.U. after   16 cycles
            NFock= 16  Conv=0.47D-08     -V/T= 2.0106
 Calling FoFJK, ICntrl=      2127 FMM=F ISym2X=0 I1Cent= 0 IOpClX= 0 NMat=1 NMatS=1 NMatT=0.
 ***** Axes restored to original set *****
 -------------------------------------------------------------------
 Center     Atomic                   Forces (Hartrees/Bohr)
 Number     Number              X              Y              Z
 -------------------------------------------------------------------
      1        6           0.000730159    0.005099078   -0.003804081
      2        6           0.003367368    0.009070877    0.009581236
      3        6           0.002615045    0.006148661    0.009164216
      4        6           0.006264307    0.040607723   -0.035040966
      5        6           0.000962643    0.005757985   -0.002217579
      6        6          -0.001412466    0.002289033   -0.013778246
      7        1          -0.001999680   -0.005253206   -0.005904700
      8        1           0.002077942    0.007059547    0.002878132
      9        1           0.001147992    0.000419284    0.008034682
     10        8          -0.002101883    0.002153701   -0.020645627
     11        6          -0.002162590   -0.055600365    0.023562352
     12        6           0.003234045    0.007621524    0.009510188
     13        6           0.003165382    0.004778082    0.038458042
     14        6           0.001574503    0.007793413    0.009337224
     15        6          -0.009734820   -0.016303112   -0.005979820
     16        6          -0.001131202   -0.004239688    0.006342468
     17        1          -0.002330220   -0.004571056   -0.006205017
     18        1           0.002999921    0.007247900    0.002417252
     19        1          -0.001074858    0.003775292   -0.016208493
     20        1          -0.005824429   -0.015502677    0.000873840
     21        1          -0.001298530   -0.007258829    0.003126875
     22        1           0.001842586    0.003871883   -0.006799929
     23        6          -0.004404415   -0.009826811   -0.023372314
     24        1          -0.007556312   -0.000628511    0.008835878
     25        1           0.007261733   -0.005558738    0.007941406
     26        1           0.003787778    0.011049011   -0.000107020
 -------------------------------------------------------------------
 Cartesian Forces:  Max     0.055600365 RMS     0.012383224

 GradGradGradGradGradGradGradGradGradGradGradGradGradGradGradGradGradGrad
 Berny optimization.
 Using GEDIIS/GDIIS optimizer.
 FormGI is forming the generalized inverse of G from B-inverse, IUseBI=4.
 Internal  Forces:  Max     0.091725009 RMS     0.013104975
 Search for a local minimum.
 Step number   2 out of a maximum of  138
 All quantities printed in internal units (Hartrees-Bohrs-Radians)
 Mixed Optimization -- RFO/linear search
 Update second derivatives using D2CorX and points    1    2
 DE= -2.86D-02 DEPred=-7.28D-02 R= 3.93D-01
 Trust test= 3.93D-01 RLast= 3.03D-01 DXMaxT set to 3.00D-01
 ITU=  0  0
 Use linear search instead of GDIIS.
     Eigenvalues ---    0.00230   0.00232   0.00237   0.01335   0.01728
     Eigenvalues ---    0.01781   0.02070   0.02070   0.02070   0.02070
     Eigenvalues ---    0.02070   0.02070   0.02070   0.02070   0.02070
     Eigenvalues ---    0.02070   0.02070   0.02070   0.02070   0.02070
     Eigenvalues ---    0.02073   0.07200   0.07206   0.15232   0.16000
     Eigenvalues ---    0.16000   0.16000   0.16000   0.16000   0.16000
     Eigenvalues ---    0.16000   0.16000   0.16000   0.16000   0.16066
     Eigenvalues ---    0.16113   0.21985   0.22000   0.22002   0.22483
     Eigenvalues ---    0.23101   0.23714   0.24599   0.24940   0.25000
     Eigenvalues ---    0.26365   0.28510   0.36772   0.36844   0.37230
     Eigenvalues ---    0.37230   0.37230   0.37230   0.37230   0.37230
     Eigenvalues ---    0.37230   0.37230   0.37230   0.37230   0.41194
     Eigenvalues ---    0.41246   0.41408   0.41529   0.45282   0.45377
     Eigenvalues ---    0.45389   0.45389   0.45389   0.45389   0.45389
     Eigenvalues ---    0.45389   1.24491
 RFO step:  Lambda=-1.46389042D-01 EMin= 2.29998016D-03
 Quartic linear search produced a step of  0.65453.
 Maximum step size (   0.300) exceeded in Quadratic search.
    -- Step size scaled by   0.460
 Iteration  1 RMS(Cart)=  0.26595021 RMS(Int)=  0.01405748
 Iteration  2 RMS(Cart)=  0.06453530 RMS(Int)=  0.00068579
 Iteration  3 RMS(Cart)=  0.00086629 RMS(Int)=  0.00057704
 Iteration  4 RMS(Cart)=  0.00000056 RMS(Int)=  0.00057704
 Variable       Old X    -DE/DX   Delta X   Delta X   Delta X     New X
                                 (Linear)    (Quad)   (Total)
    R1        2.64117   0.00060  -0.00464  -0.00053  -0.00518   2.63599
    R2        2.64109   0.00258  -0.00469   0.00169  -0.00301   2.63809
    R3        2.03218   0.00801   0.00666   0.01322   0.01988   2.05206
    R4        2.64755  -0.00195  -0.00047  -0.00235  -0.00282   2.64472
    R5        2.03210   0.00801   0.00661   0.01320   0.01981   2.05191
    R6        2.65126  -0.00977   0.00197  -0.01081  -0.00884   2.64242
    R7        2.00609   0.01655  -0.01042   0.01792   0.00751   2.01360
    R8        2.64366  -0.00796  -0.00301  -0.01033  -0.01334   2.63032
    R9        2.89095  -0.07881  -0.02780  -0.14312  -0.17092   2.72004
   R10        2.64417  -0.00317  -0.00268  -0.00451  -0.00719   2.63697
   R11        2.03187   0.00764   0.00646   0.01266   0.01911   2.05099
   R12        2.03173   0.00799   0.00636   0.01308   0.01944   2.05117
   R13        3.12104  -0.09173  -0.04225  -0.21821  -0.26046   2.86058
   R14        2.64615  -0.01124  -0.00138  -0.01366  -0.01496   2.63119
   R15        2.64141  -0.00977  -0.00449  -0.01308  -0.01749   2.62392
   R16        2.64661  -0.00282  -0.00108  -0.00346  -0.00455   2.64207
   R17        2.00569   0.01646  -0.01068   0.01771   0.00703   2.01272
   R18        2.64619  -0.00072  -0.00135  -0.00137  -0.00271   2.64348
[...]
     19          1           0        0.594885   -0.729819   -1.479966
     20          1           0       -0.261031   -1.685454    1.144251
     21          1           0        4.833176   -0.877066   -0.763804
     22          1           0       -4.351487   -1.730180   -0.200819
     23          6           0       -1.964784    2.298526   -0.570734
     24          1           0       -1.728230    2.908131    0.309554
     25          1           0       -1.145331    2.447839   -1.283828
     26          1           0       -2.887217    2.682324   -1.018459
 ---------------------------------------------------------------------
 Rotational constants (GHZ):           1.5999051           0.4181778           0.3749547

 **********************************************************************

            Population analysis using the SCF Density.

 **********************************************************************

 Orbital symmetries:
       Occupied  (A) (A) (A) (A) (A) (A) (A) (A) (A) (A) (A) (A)
                 (A) (A) (A) (A) (A) (A) (A) (A) (A) (A) (A) (A)
                 (A) (A) (A) (A) (A) (A) (A) (A) (A) (A) (A) (A)
                 (A) (A) (A) (A) (A) (A) (A) (A) (A) (A) (A) (A)
                 (A)
       Virtual   (A) (A) (A) (A) (A) (A) (A) (A) (A) (A) (A) (A)
                 (A) (A) (A) (A) (A) (A) (A) (A) (A) (A) (A) (A)
                 (A) (A) (A) (A) (A) (A) (A) (A) (A) (A) (A) (A)
                 (A) (A) (A) (A) (A) (A) (A) (A) (A) (A) (A) (A)
                 (A) (A) (A) (A) (A) (A) (A) (A) (A) (A) (A) (A)
                 (A) (A) (A) (A) (A) (A) (A) (A) (A) (A) (A) (A)
                 (A) (A) (A) (A) (A) (A) (A) (A) (A) (A) (A) (A)
                 (A) (A) (A) (A) (A) (A) (A) (A) (A) (A) (A) (A)
                 (A) (A) (A) (A) (A) (A) (A) (A) (A) (A) (A) (A)
                 (A) (A) (A) (A) (A) (A) (A) (A) (A) (A) (A) (A)
                 (A) (A) (A) (A) (A) (A) (A) (A) (A) (A) (A) (A)
                 (A) (A) (A) (A) (A) (A) (A) (A) (A) (A) (A) (A)
                 (A) (A) (A) (A) (A) (A) (A) (A) (A) (A) (A) (A)
                 (A) (A) (A) (A) (A) (A) (A) (A) (A) (A) (A) (A)
                 (A) (A) (A) (A) (A) (A) (A) (A) (A) (A) (A) (A)
                 (A) (A) (A) (A) (A) (A) (A) (A) (A) (A) (A) (A)
                 (A) (A) (A) (A) (A) (A) (A) (A) (A) (A) (A) (A)
                 (A) (A) (A) (A) (A) (A) (A) (A) (A) (A) (A) (A)
                 (A) (A) (A) (A) (A) (A) (A) (A) (A) (A) (A) (A)
                 (A) (A) (A) (A) (A) (A) (A) (A) (A) (A) (A) (A)
                 (A)
 The electronic state is 1-A.
 Alpha  occ. eigenvalues --  -19.19597 -10.25464 -10.25118 -10.20375 -10.19997
 Alpha  occ. eigenvalues --  -10.19941 -10.19849 -10.19670 -10.19629 -10.19481
 Alpha  occ. eigenvalues --  -10.19452 -10.19315 -10.19293 -10.18713  -1.09428
 Alpha  occ. eigenvalues --   -0.87316  -0.85772  -0.78355  -0.76821  -0.75731
 Alpha  occ. eigenvalues --   -0.73506  -0.69188  -0.64422  -0.62270  -0.60305
 Alpha  occ. eigenvalues --   -0.58380  -0.55178  -0.51141  -0.49014  -0.48658
 Alpha  occ. eigenvalues --   -0.47962  -0.45081  -0.44596  -0.43343  -0.42473
 Alpha  occ. eigenvalues --   -0.42220  -0.40855  -0.39471  -0.39440  -0.37216
 Alpha  occ. eigenvalues --   -0.36692  -0.36208  -0.35777  -0.34290  -0.33266
 Alpha  occ. eigenvalues --   -0.26487  -0.25774  -0.25079  -0.22460
 Alpha virt. eigenvalues --   -0.02277  -0.01552  -0.00756   0.00133   0.00288
 Alpha virt. eigenvalues --    0.01160   0.01684   0.02606   0.02727   0.03847
 Alpha virt. eigenvalues --    0.04456   0.04725   0.05241   0.05307   0.06519
 Alpha virt. eigenvalues --    0.06633   0.07138   0.08254   0.08625   0.09259
 Alpha virt. eigenvalues --    0.09523   0.10027   0.10628   0.11124   0.12363
 Alpha virt. eigenvalues --    0.12714   0.13198   0.13638   0.13697   0.13965
 Alpha virt. eigenvalues --    0.14436   0.14673   0.14696   0.15777   0.16376
 Alpha virt. eigenvalues --    0.16659   0.17099   0.17385   0.18163   0.18941
 Alpha virt. eigenvalues --    0.19281   0.19667   0.20242   0.20426   0.20914
 Alpha virt. eigenvalues --    0.21179   0.21470   0.21832   0.22427   0.22665
 Alpha virt. eigenvalues --    0.23029   0.23382   0.23700   0.23809   0.24323
 Alpha virt. eigenvalues --    0.25182   0.25306   0.25675   0.25765   0.26453
 Alpha virt. eigenvalues --    0.27455   0.27906   0.29027   0.29219   0.29436
 Alpha virt. eigenvalues --    0.29570   0.30497   0.30916   0.31201   0.32730
 Alpha virt. eigenvalues --    0.33690   0.34844   0.35297   0.36070   0.36578
 Alpha virt. eigenvalues --    0.36776   0.37318   0.38788   0.39504   0.40352
 Alpha virt. eigenvalues --    0.41096   0.42000   0.44331   0.46296   0.47161
 Alpha virt. eigenvalues --    0.57811   0.59307   0.61050   0.62101   0.62251
 Alpha virt. eigenvalues --    0.68263   0.68948   0.69371   0.69504   0.70420
 Alpha virt. eigenvalues --    0.70596   0.71359   0.71853   0.72884   0.73645
 Alpha virt. eigenvalues --    0.74351   0.74434   0.75333   0.75474   0.76541
 Alpha virt. eigenvalues --    0.76984   0.77958   0.79814   0.81009   0.81750
 Alpha virt. eigenvalues --    0.83048   0.85067   0.86100   0.88081   0.88744
 Alpha virt. eigenvalues --    0.90362   0.90590   0.92670   0.93486   0.94132
 Alpha virt. eigenvalues --    0.95414   0.96110   0.97555   0.99188   1.00409
 Alpha virt. eigenvalues --    1.00472   1.02941   1.04077   1.05609   1.06097
 Alpha virt. eigenvalues --    1.07647   1.09928   1.11753   1.13644   1.14326
 Alpha virt. eigenvalues --    1.15570   1.17211   1.17867   1.19079   1.21210
 Alpha virt. eigenvalues --    1.22335   1.23292   1.25585   1.26582   1.26747
 Alpha virt. eigenvalues --    1.27546   1.30507   1.33046   1.34803   1.38035
 Alpha virt. eigenvalues --    1.39005   1.40413   1.41908   1.43391   1.44500
 Alpha virt. eigenvalues --    1.45202   1.47172   1.47548   1.48735   1.48884
 Alpha virt. eigenvalues --    1.49567   1.50802   1.53224   1.55952   1.59555
 Alpha virt. eigenvalues --    1.71349   1.79170   1.80355   1.82041   1.84615
 Alpha virt. eigenvalues --    1.85610   1.87637   1.89103   1.91580   1.92822
 Alpha virt. eigenvalues --    1.94740   1.95381   1.96924   1.97524   1.99674
 Alpha virt. eigenvalues --    2.00272   2.01181   2.03369   2.04934   2.12844
 Alpha virt. eigenvalues --    2.14059   2.14311   2.16010   2.16512   2.17916
 Alpha virt. eigenvalues --    2.18426   2.20192   2.24087   2.25665   2.26928
 Alpha virt. eigenvalues --    2.29442   2.30812   2.32028   2.32498   2.34980
 Alpha virt. eigenvalues --    2.36514   2.38003   2.38667   2.45244   2.55493
 Alpha virt. eigenvalues --    2.57880   2.60851   2.62122   2.64762   2.66333
 Alpha virt. eigenvalues --    2.67665   2.67851   2.73641   2.74371   2.75500
 Alpha virt. eigenvalues --    2.78904   2.79710   2.81908   2.82586   2.87215
 Alpha virt. eigenvalues --    2.91465   3.04011   3.06395   3.13640   3.29486
 Alpha virt. eigenvalues --    3.42923   3.46126   4.24938   4.25393   4.25818
 Alpha virt. eigenvalues --    4.29752   4.31968   4.34286   4.38464   4.40133
 Alpha virt. eigenvalues --    4.45625   4.48055   4.48906   4.71112   4.74707
 Alpha virt. eigenvalues --    5.00535
          Condensed to atoms (all electrons):
               1          2          3          4          5          6
     1  C    5.637609   0.732163  -0.149745  -1.150425   0.280764   0.461467
     2  C    0.732163   8.772475  -1.698655  -0.922194  -0.472370  -0.026529
     3  C   -0.149745  -1.698655  16.054895  -1.203736  -6.904698  -0.186862
     4  C   -1.150425  -0.922194  -1.203736  14.170919  -3.598211  -0.197404
     5  C    0.280764  -0.472370  -6.904698  -3.598211  15.729406   0.180001
     6  C    0.461467  -0.026529  -0.186862  -0.197404   0.180001   5.854415
     7  H    0.005852   0.298222  -0.029108   0.017735  -0.015504   0.015498
     8  H    0.015141  -0.017798   0.068388   0.018084   0.247083  -0.037294
     9  H    0.004081   0.018767  -0.030147  -0.000450  -0.001203   0.302487
    10  O   -0.016964   0.023115   0.049025   0.343923  -0.377192  -0.025353
    11  C   -0.061377  -0.193165   0.368608   0.097220  -0.737087   0.148299
    12  C    0.019553   0.076444  -3.112216  -0.375262   3.173791  -0.122919
    13  C    0.064153   0.062643   1.529559  -0.065847  -1.560870  -0.027862
    14  C    0.012776  -0.115404   0.018684  -0.576002   0.327879   0.010825
    15  C   -0.001807  -0.073095   1.349338   0.138928  -1.140513   0.047851
    16  C    0.000773   0.005542  -0.221698   0.029722   0.191821  -0.010986
    17  H   -0.000239  -0.001893  -0.008313   0.009956   0.001693   0.000178
    18  H    0.000006   0.000053   0.001943  -0.001500  -0.000519   0.000004
    19  H   -0.008435  -0.115977   0.174405   0.151892   0.080652  -0.008476
    20  H    0.007303   0.002503   0.151273  -0.085290  -0.058939  -0.010291
    21  H    0.282512  -0.008041   0.021107  -0.001664  -0.002488   0.001562
    22  H   -0.000006   0.000117  -0.001172   0.001243   0.000143   0.000003
    23  C    0.014460   0.046508  -0.568274  -0.560340   0.764946  -0.027794
    24  H   -0.000128  -0.002239  -0.027778  -0.005886   0.022403   0.000916
    25  H    0.000998   0.001568   0.024971  -0.024871  -0.001475  -0.002625
    26  H    0.000048   0.001037   0.009593  -0.006940  -0.002966  -0.000067
               7          8          9         10         11         12
     1  C    0.005852   0.015141   0.004081  -0.016964  -0.061377   0.019553
     2  C    0.298222  -0.017798   0.018767   0.023115  -0.193165   0.076444
     3  C   -0.029108   0.068388  -0.030147   0.049025   0.368608  -3.112216
     4  C    0.017735   0.018084  -0.000450   0.343923   0.097220  -0.375262
     5  C   -0.015504   0.247083  -0.001203  -0.377192  -0.737087   3.173791
     6  C    0.015498  -0.037294   0.302487  -0.025353   0.148299  -0.122919
     7  H    0.537127   0.000016  -0.000176  -0.001121   0.008070  -0.005627
     8  H    0.000016   0.528574  -0.005120  -0.009532   0.011420  -0.004517
     9  H   -0.000176  -0.005120   0.536432  -0.000446   0.001060  -0.001065
    10  O   -0.001121  -0.009532  -0.000446   8.484779   0.456676  -0.048628
    11  C    0.008070   0.011420   0.001060   0.456676  18.052316  -5.085713
    12  C   -0.005627  -0.004517  -0.001065  -0.048628  -5.085713  16.156051
    13  C   -0.000285  -0.007315   0.000345  -0.310412  -7.837650   0.553438
    14  C   -0.000759   0.003037  -0.000152  -0.026290   0.500884  -1.530102
    15  C   -0.000022  -0.000592   0.000034  -0.184192   3.453257  -6.184727
    16  C   -0.000134  -0.000267  -0.000003  -0.011096  -1.995675   0.776651
    17  H    0.000000   0.000000   0.000000  -0.001125   0.035297  -0.032816
    18  H    0.000000   0.000000   0.000000  -0.000569   0.098489  -0.050426
    19  H   -0.005226  -0.000167   0.000016  -0.011582  -0.038049   0.079384
    20  H   -0.000005   0.000023  -0.000001   0.000959  -0.030679   0.296411
    21  H   -0.004968  -0.000143  -0.004917   0.000072   0.001772  -0.001394
    22  H    0.000000   0.000000   0.000000   0.000073  -0.028720   0.045564
    23  C   -0.000044   0.001658  -0.000104  -0.009377  -0.926893   1.239244
    24  H    0.000000   0.000007   0.000000  -0.002038   0.020978   0.006792
    25  H    0.000000  -0.000001   0.000000   0.006752  -0.035386   0.015375
    26  H    0.000000   0.000000   0.000000   0.002535   0.048456  -0.004993
              13         14         15         16         17         18
     1  C    0.064153   0.012776  -0.001807   0.000773  -0.000239   0.000006
     2  C    0.062643  -0.115404  -0.073095   0.005542  -0.001893   0.000053
     3  C    1.529559   0.018684   1.349338  -0.221698  -0.008313   0.001943
     4  C   -0.065847  -0.576002   0.138928   0.029722   0.009956  -0.001500
     5  C   -1.560870   0.327879  -1.140513   0.191821   0.001693  -0.000519
     6  C   -0.027862   0.010825   0.047851  -0.010986   0.000178   0.000004
     7  H   -0.000285  -0.000759  -0.000022  -0.000134   0.000000   0.000000
     8  H   -0.007315   0.003037  -0.000592  -0.000267   0.000000   0.000000
     9  H    0.000345  -0.000152   0.000034  -0.000003   0.000000   0.000000
    10  O   -0.310412  -0.026290  -0.184192  -0.011096  -0.001125  -0.000569
    11  C   -7.837650   0.500884   3.453257  -1.995675   0.035297   0.098489
    12  C    0.553438  -1.530102  -6.184727   0.776651  -0.032816  -0.050426
    13  C   21.655188  -1.847216  -9.081140   1.341740  -0.026992  -0.105948
    14  C   -1.847216   7.562464   1.315901   0.436957   0.290390   0.031416
    15  C   -9.081140   1.315901  21.523050  -0.984342   0.035408   0.363076
    16  C    1.341740   0.436957  -0.984342   6.084305  -0.006238  -0.012448
    17  H   -0.026992   0.290390   0.035408  -0.006238   0.534373  -0.000180
    18  H   -0.105948   0.031416   0.363076  -0.012448  -0.000180   0.544156
    19  H   -0.013540  -0.013861   0.005954   0.004093  -0.000009  -0.000003
    20  H    0.088746  -0.066876  -0.024024   0.003995  -0.004554   0.000017
    21  H    0.000102  -0.000043   0.000021  -0.000012   0.000000   0.000000
    22  H    0.075630  -0.039670  -0.074582   0.314207  -0.004440  -0.004566
    23  C    0.688643  -0.124023  -3.468143   0.200053  -0.000200  -0.046622
    24  H   -0.091600   0.004760  -0.051390  -0.005307   0.000000   0.000203
    25  H   -0.063754  -0.000682  -0.053544   0.001078   0.000000   0.000151
    26  H   -0.154709   0.000388   0.005894  -0.003188   0.000000   0.004230
              19         20         21         22         23         24
     1  C   -0.008435   0.007303   0.282512  -0.000006   0.014460  -0.000128
     2  C   -0.115977   0.002503  -0.008041   0.000117   0.046508  -0.002239
     3  C    0.174405   0.151273   0.021107  -0.001172  -0.568274  -0.027778
     4  C    0.151892  -0.085290  -0.001664   0.001243  -0.560340  -0.005886
     5  C    0.080652  -0.058939  -0.002488   0.000143   0.764946   0.022403
     6  C   -0.008476  -0.010291   0.001562   0.000003  -0.027794   0.000916
     7  H   -0.005226  -0.000005  -0.004968   0.000000  -0.000044   0.000000
     8  H   -0.000167   0.000023  -0.000143   0.000000   0.001658   0.000007
     9  H    0.000016  -0.000001  -0.004917   0.000000  -0.000104   0.000000
    10  O   -0.011582   0.000959   0.000072   0.000073  -0.009377  -0.002038
    11  C   -0.038049  -0.030679   0.001772  -0.028720  -0.926893   0.020978
    12  C    0.079384   0.296411  -0.001394   0.045564   1.239244   0.006792
    13  C   -0.013540   0.088746   0.000102   0.075630   0.688643  -0.091600
    14  C   -0.013861  -0.066876  -0.000043  -0.039670  -0.124023   0.004760
    15  C    0.005954  -0.024024   0.000021  -0.074582  -3.468143  -0.051390
    16  C    0.004093   0.003995  -0.000012   0.314207   0.200053  -0.005307
    17  H   -0.000009  -0.004554   0.000000  -0.004440  -0.000200   0.000000
    18  H   -0.000003   0.000017   0.000000  -0.004566  -0.046622   0.000203
    19  H    0.527923  -0.000738  -0.000151   0.000001  -0.008443   0.000005
    20  H   -0.000738   0.526111   0.000000  -0.000165   0.006665  -0.000001
    21  H   -0.000151   0.000000   0.540037   0.000000   0.000010   0.000000
    22  H    0.000001  -0.000165   0.000000   0.537146   0.002064   0.000002
    23  C   -0.008443   0.006665   0.000010   0.002064   8.197952   0.465326
    24  H    0.000005  -0.000001   0.000000   0.000002   0.465326   0.489488
    25  H   -0.000069  -0.000001   0.000000   0.000002   0.461795  -0.030673
    26  H   -0.000001   0.000002   0.000000  -0.000007   0.441066  -0.026629
              25         26
     1  C    0.000998   0.000048
     2  C    0.001568   0.001037
     3  C    0.024971   0.009593
     4  C   -0.024871  -0.006940
     5  C   -0.001475  -0.002966
     6  C   -0.002625  -0.000067
     7  H    0.000000   0.000000
     8  H   -0.000001   0.000000
     9  H    0.000000   0.000000
    10  O    0.006752   0.002535
    11  C   -0.035386   0.048456
    12  C    0.015375  -0.004993
    13  C   -0.063754  -0.154709
    14  C   -0.000682   0.000388
    15  C   -0.053544   0.005894
    16  C    0.001078  -0.003188
    17  H    0.000000   0.000000
    18  H    0.000151   0.004230
    19  H   -0.000069  -0.000001
    20  H   -0.000001   0.000002
    21  H    0.000000   0.000000
    22  H    0.000002  -0.000007
    23  C    0.461795   0.441066
    24  H   -0.030673  -0.026629
    25  H    0.498797  -0.026219
    26  H   -0.026219   0.511648
 Mulliken charges:
               1
     1  C   -0.150534
     2  C   -0.393796
     3  C    0.320611
     4  C   -0.203602
     5  C   -0.126548
     6  C   -0.339044
     7  H    0.180459
     8  H    0.189316
     9  H    0.180560
    10  O   -0.331990
    11  C   -0.332409
    12  C    0.121708
    13  C    1.134955
    14  C   -0.175281
    15  C   -0.916599
    16  C   -0.139545
    17  H    0.179702
    18  H    0.179035
    19  H    0.200400
    20  H    0.197556
    21  H    0.176625
    22  H    0.177130
    23  C   -0.790134
    24  H    0.232789
    25  H    0.227812
    26  H    0.200824
 Sum of Mulliken charges =   0.00000
 Mulliken charges with hydrogens summed into heavy atoms:
               1
     1  C    0.026091
     2  C   -0.213337
     3  C    0.521012
     4  C   -0.203602
     5  C    0.062768
     6  C   -0.158484
    10  O   -0.331990
    11  C   -0.332409
    12  C    0.319264
    13  C    1.134955
    14  C    0.004421
    15  C   -0.737563
    16  C    0.037586
    23  C   -0.128710
 Electronic spatial extent (au):  <R**2>=           3046.8412
 Charge=              0.0000 electrons
 Dipole moment (field-independent basis, Debye):
    X=             -0.0547    Y=             -0.4827    Z=             -0.4779  Tot=              0.6814
 Quadrupole moment (field-independent basis, Debye-Ang):
   XX=            -75.4862   YY=            -80.6262   ZZ=            -83.2395
   XY=             -0.8399   XZ=              2.6542   YZ=              0.8539
 Traceless Quadrupole moment (field-independent basis, Debye-Ang):
   XX=              4.2977   YY=             -0.8422   ZZ=             -3.4555
   XY=             -0.8399   XZ=              2.6542   YZ=              0.8539
 Octapole moment (field-independent basis, Debye-Ang**2):
  XXX=              7.0866  YYY=              0.8037  ZZZ=              0.8114  XYY=            -12.3248
  XXY=             -2.1883  XXZ=             -4.3075  XZZ=              9.9784  YZZ=              2.0590
  YYZ=              2.9939  XYZ=             12.8330
 Hexadecapole moment (field-independent basis, Debye-Ang**3):
 XXXX=          -2977.4240 YYYY=           -746.2819 ZZZZ=           -359.8099 XXXY=             -6.0769
 XXXZ=             61.3615 YYYX=             12.7635 YYYZ=             -5.4139 ZZZX=              5.5958
 ZZZY=             18.0567 XXYY=           -648.1141 XXZZ=           -605.8254 YYZZ=           -179.0485
 XXYZ=             26.4390 YYXZ=             -5.3671 ZZXY=            -10.1003
 N-N= 8.156209659176D+02 E-N=-2.971132980791D+03  KE= 5.725865776169D+02
 Evaluate density.
 Using the total density.
 Monte-Carlo method of calculating molar volume:
 based on  0.001 e/bohr**3 density envelope.
 Number of points per bohr**3 =   20 CutOff= 1.00D-04
 Using the SCF density.
 There are       425 points.  Will hold       425 in memory.
 LenV=  4026322500 MDV=  4026531840.
 Box volume = 9637.750 fraction occupied=0.184
 Integrated density= 6.8342688294113813D+01 error=-2.9657311705886187D+01
 Molar volume = 1768.811 bohr**3/mol (157.847 cm**3/mol)
 Recommended a0 for SCRF calculation =  4.87 angstrom (  9.20 bohr)


 IBM COMPATIBILITY IS LIKE PREGNANCY. YOU ARE OR
 OR YOU ARE NOT. -- ADAM OSBORNE
 Error termination request processed by link 9999.
 Error termination via Lnk1e in /home/ubuntu/g16/l9999.exe at Fri Sep 15 08:03:38 2023.
 Job cpu time:       1 days 10 hours 38 minutes 55.5 seconds.
 Elapsed time:       0 days  1 hours  9 minutes 22.8 seconds.
 File lengths (MBytes):  RWF=     62 Int=      0 D2E=      0 Chk=     10 Scr=      1
