 Entering Gaussian System, Link 0=/home/ubuntu/g16/g16
 Input=/home/ubuntu/products/molecule_24.gjf
 Output=/home/ubuntu/products/molecule_24.log
 Initial command:
 /home/ubuntu/g16/l1.exe "/home/ubuntu/Scratch/Gau-6069.inp" -scrdir="/home/ubuntu/Scratch/"
 Entering Link 1 = /home/ubuntu/g16/l1.exe PID=      6073.
  
 Copyright (c) 1988-2017, Gaussian, Inc.  All Rights Reserved.
  
 This is part of the Gaussian(R) 16 program.  It is based on
 the Gaussian(R) 09 system (copyright 2009, Gaussian, Inc.),
 the Gaussian(R) 03 system (copyright 2003, Gaussian, Inc.),
 the Gaussian(R) 98 system (copyright 1998, Gaussian, Inc.),
 the Gaussian(R) 94 system (copyright 1995, Gaussian, Inc.),
 the Gaussian 92(TM) system (copyright 1992, Gaussian, Inc.),
 the Gaussian 90(TM) system (copyright 1990, Gaussian, Inc.),
 the Gaussian 88(TM) system (copyright 1988, Gaussian, Inc.),
 the Gaussian 86(TM) system (copyright 1986, Carnegie Mellon
 University), and the Gaussian 82(TM) system (copyright 1983,
 Carnegie Mellon University). Gaussian is a federally registered
 trademark of Gaussian, Inc.
  
 This software contains proprietary and confidential information,
 including trade secrets, belonging to Gaussian, Inc.
  
 This software is provided under written license and may be
 used, copied, transmitted, or stored only in accord with that
 written license.
  
 The following legend is applicable only to US Government
 contracts under FAR:
  
                    RESTRICTED RIGHTS LEGEND
  
 Use, reproduction and disclosure by the US Government is
 subject to restrictions as set forth in subparagraphs (a)
 and (c) of the Commercial Computer Software - Restricted
 Rights clause in FAR 52.227-19.
  
 Gaussian, Inc.
 340 Quinnipiac St., Bldg. 40, Wallingford CT 06492
  
  
 ---------------------------------------------------------------
 Warning -- This program may not be used in any manner that
 competes with the business of Gaussian, Inc. or will provide
 assistance to any competitor of Gaussian, Inc.  The licensee
 of this program is prohibited from giving any competitor of
 Gaussian, Inc. access to this program.  By using this program,
 the user acknowledges that Gaussian, Inc. is engaged in the
 business of creating and licensing software in the field of
 computational chemistry and represents and warrants to the
 licensee that it is not a competitor of Gaussian, Inc. and that
 it will not use this program in any manner prohibited above.
 ---------------------------------------------------------------
  

 Cite this work as:
 Gaussian 16, Revision B.01,
 M. J. Frisch, G. W. Trucks, H. B. Schlegel, G. E. Scuseria, 
 M. A. Robb, J. R. Cheeseman, G. Scalmani, V. Barone, 
 G. A. Petersson, H. Nakatsuji, X. Li, M. Caricato, A. V. Marenich, 
 J. Bloino, B. G. Janesko, R. Gomperts, B. Mennucci, H. P. Hratchian, 
 J. V. Ortiz, A. F. Izmaylov, J. L. Sonnenberg, D. Williams-Young, 
 F. Ding, F. Lipparini, F. Egidi, J. Goings, B. Peng, A. Petrone, 
 T. Henderson, D. Ranasinghe, V. G. Zakrzewski, J. Gao, N. Rega, 
 G. Zheng, W. Liang, M. Hada, M. Ehara, K. Toyota, R. Fukuda, 
 J. Hasegawa, M. Ishida, T. Nakajima, Y. Honda, O. Kitao, H. Nakai, 
 T. Vreven, K. Throssell, J. A. Montgomery, Jr., J. E. Peralta, 
 F. Ogliaro, M. J. Bearpark, J. J. Heyd, E. N. Brothers, K. N. Kudin, 
 V. N. Staroverov, T. A. Keith, R. Kobayashi, J. Normand, 
 K. Raghavachari, A. P. Rendell, J. C. Burant, S. S. Iyengar, 
 J. Tomasi, M. Cossi, J. M. Millam, M. Klene, C. Adamo, R. Cammi, 
 J. W. Ochterski, R. L. Martin, K. Morokuma, O. Farkas, 
 J. B. Foresman, and D. J. Fox, Gaussian, Inc., Wallingford CT, 2016.
 
 ******************************************
 Gaussian 16:  EM64L-G16RevB.01 20-Dec-2017
                18-Sep-2023 
 ******************************************
 %nprocshared=30
 Will use up to   30 processors via shared memory.
 %mem=30GB
 %chk=molecule_24.chk
 ---------------------------------------------------------
 # opt freq b3lyp/6-31+g(d) empiricaldispersion=gd3 volume
 ---------------------------------------------------------
 1/18=20,19=15,26=3,38=1/1,3;
 2/9=110,12=2,17=6,18=5,40=1/2;
 3/5=1,6=6,7=11,11=2,25=1,30=1,71=1,74=-5,124=31/1,2,3;
 4//1;
 5/5=2,38=5/2;
 6/7=2,8=2,9=2,10=2,28=1,44=1/1,4;
 7//1,2,3,16;
 1/18=20,19=15,26=3/3(2);
 2/9=110/2;
 99//99;
 2/9=110/2;
 3/5=1,6=6,7=11,11=2,25=1,30=1,71=1,74=-5,124=31/1,2,3;
 4/5=5,16=3,69=1/1;
 5/5=2,38=5/2;
 7//1,2,3,16;
 1/18=20,19=15,26=3/3(-5);
 2/9=110/2;
 6/7=2,8=2,9=2,10=2,19=2,28=1,44=1/1,4;
 99/9=1/99;
 -------------------
 Title Card Required
 -------------------
 Symbolic Z-matrix:
 Charge =  0 Multiplicity = 1
 C                     3.69191  -1.2187    0.00102 
 C                     2.29623  -1.21548  -0.00025 
 C                     1.57506   0.00006  -0.00085 
 C                     2.2963    1.21557   0.00005 
 C                     3.69196   1.2187    0.00134 
 C                     4.36855  -0.00003   0.00177 
 H                     4.24419  -2.15037   0.00144 
 H                     1.75421  -2.15443  -0.00081 
 H                     1.75429   2.15453  -0.00025 
 H                     4.24433   2.1503    0.00199 
 C                     0.15123   0.00006  -0.00213 
 C                    -1.06885  -0.00002  -0.00316 
 C                    -2.49342  -0.00001  -0.00375 
 C                    -3.21684  -1.21326  -0.00599 
 C                    -3.21684   1.21324  -0.00629 
 C                    -4.61081  -1.20613  -0.00901 
 H                    -2.67465  -2.15283  -0.0088 
 C                    -4.61081   1.2061   -0.00934 
 H                    -2.67465   2.15281  -0.00935 
 C                    -5.33359  -0.00002  -0.00766 
 H                    -5.14961  -2.14942  -0.01409 
 H                    -5.14962   2.14939  -0.01464 
 C                    -6.845     0.        0.02303 
 H                    -7.21862   0.00102   1.05628 
 H                    -7.25636   0.88593  -0.4725 
 H                    -7.25635  -0.88688  -0.47079 
 Cl                    6.19602  -0.00003   0.00346 
 

 GradGradGradGradGradGradGradGradGradGradGradGradGradGradGradGradGradGrad
 Berny optimization.
 Initialization pass.
                           ----------------------------
                           !    Initial Parameters    !
                           ! (Angstroms and Degrees)  !
 --------------------------                            --------------------------
 ! Name  Definition              Value          Derivative Info.                !
 --------------------------------------------------------------------------------
 ! R1    R(1,2)                  1.3957         estimate D2E/DX2                !
 ! R2    R(1,6)                  1.3939         estimate D2E/DX2                !
 ! R3    R(1,7)                  1.0831         estimate D2E/DX2                !
 ! R4    R(2,3)                  1.4134         estimate D2E/DX2                !
 ! R5    R(2,8)                  1.0842         estimate D2E/DX2                !
 ! R6    R(3,4)                  1.4134         estimate D2E/DX2                !
 ! R7    R(3,11)                 1.4238         estimate D2E/DX2                !
 ! R8    R(4,5)                  1.3957         estimate D2E/DX2                !
 ! R9    R(4,9)                  1.0842         estimate D2E/DX2                !
 ! R10   R(5,6)                  1.3939         estimate D2E/DX2                !
 ! R11   R(5,10)                 1.0831         estimate D2E/DX2                !
 ! R12   R(6,27)                 1.8275         estimate D2E/DX2                !
 ! R13   R(11,12)                1.2201         estimate D2E/DX2                !
 ! R14   R(12,13)                1.4246         estimate D2E/DX2                !
 ! R15   R(13,14)                1.4125         estimate D2E/DX2                !
 ! R16   R(13,15)                1.4126         estimate D2E/DX2                !
 ! R17   R(14,16)                1.394          estimate D2E/DX2                !
 ! R18   R(14,17)                1.0848         estimate D2E/DX2                !
 ! R19   R(15,18)                1.394          estimate D2E/DX2                !
 ! R20   R(15,19)                1.0848         estimate D2E/DX2                !
 ! R21   R(16,20)                1.4061         estimate D2E/DX2                !
 ! R22   R(16,21)                1.0863         estimate D2E/DX2                !
 ! R23   R(18,20)                1.4061         estimate D2E/DX2                !
 ! R24   R(18,22)                1.0863         estimate D2E/DX2                !
 ! R25   R(20,23)                1.5117         estimate D2E/DX2                !
 ! R26   R(23,24)                1.0987         estimate D2E/DX2                !
 ! R27   R(23,25)                1.0953         estimate D2E/DX2                !
 ! R28   R(23,26)                1.0953         estimate D2E/DX2                !
 ! A1    A(2,1,6)              118.9079         estimate D2E/DX2                !
 ! A2    A(2,1,7)              120.7909         estimate D2E/DX2                !
 ! A3    A(6,1,7)              120.3012         estimate D2E/DX2                !
 ! A4    A(1,2,3)              120.8124         estimate D2E/DX2                !
 ! A5    A(1,2,8)              119.864          estimate D2E/DX2                !
 ! A6    A(3,2,8)              119.3236         estimate D2E/DX2                !
 ! A7    A(2,3,4)              118.6364         estimate D2E/DX2                !
 ! A8    A(2,3,11)             120.6805         estimate D2E/DX2                !
 ! A9    A(4,3,11)             120.6832         estimate D2E/DX2                !
 ! A10   A(3,4,5)              120.8118         estimate D2E/DX2                !
 ! A11   A(3,4,9)              119.321          estimate D2E/DX2                !
 ! A12   A(5,4,9)              119.8672         estimate D2E/DX2                !
 ! A13   A(4,5,6)              118.9089         estimate D2E/DX2                !
 ! A14   A(4,5,10)             120.7933         estimate D2E/DX2                !
 ! A15   A(6,5,10)             120.2978         estimate D2E/DX2                !
 ! A16   A(1,6,5)              121.9226         estimate D2E/DX2                !
 ! A17   A(1,6,27)             119.0401         estimate D2E/DX2                !
 ! A18   A(5,6,27)             119.0373         estimate D2E/DX2                !
 ! A19   A(12,13,14)           120.8058         estimate D2E/DX2                !
 ! A20   A(12,13,15)           120.8064         estimate D2E/DX2                !
 ! A21   A(14,13,15)           118.3874         estimate D2E/DX2                !
 ! A22   A(13,14,16)           120.5133         estimate D2E/DX2                !
 ! A23   A(13,14,17)           119.2065         estimate D2E/DX2                !
 ! A24   A(16,14,17)           120.2799         estimate D2E/DX2                !
 ! A25   A(13,15,18)           120.5132         estimate D2E/DX2                !
 ! A26   A(13,15,19)           119.2059         estimate D2E/DX2                !
 ! A27   A(18,15,19)           120.2806         estimate D2E/DX2                !
 ! A28   A(14,16,20)           121.2254         estimate D2E/DX2                !
 ! A29   A(14,16,21)           119.4419         estimate D2E/DX2                !
 ! A30   A(20,16,21)           119.3326         estimate D2E/DX2                !
 ! A31   A(15,18,20)           121.2255         estimate D2E/DX2                !
 ! A32   A(15,18,22)           119.4424         estimate D2E/DX2                !
 ! A33   A(20,18,22)           119.332          estimate D2E/DX2                !
 ! A34   A(16,20,18)           118.1345         estimate D2E/DX2                !
 ! A35   A(16,20,23)           120.9278         estimate D2E/DX2                !
 ! A36   A(18,20,23)           120.9262         estimate D2E/DX2                !
 ! A37   A(20,23,24)           111.043          estimate D2E/DX2                !
 ! A38   A(20,23,25)           111.4893         estimate D2E/DX2                !
 ! A39   A(20,23,26)           111.4893         estimate D2E/DX2                !
 ! A40   A(24,23,25)           107.2776         estimate D2E/DX2                !
 ! A41   A(24,23,26)           107.2791         estimate D2E/DX2                !
 ! A42   A(25,23,26)           108.055          estimate D2E/DX2                !
 ! A43   L(3,11,12,8,-1)       179.996          estimate D2E/DX2                !
 ! A44   L(11,12,13,19,-1)     179.9961         estimate D2E/DX2                !
 ! A45   L(3,11,12,8,-2)       179.9956         estimate D2E/DX2                !
 ! A46   L(11,12,13,19,-2)     180.0302         estimate D2E/DX2                !
 ! D1    D(6,1,2,3)              0.0034         estimate D2E/DX2                !
 ! D2    D(6,1,2,8)           -179.9972         estimate D2E/DX2                !
 ! D3    D(7,1,2,3)           -179.9982         estimate D2E/DX2                !
 ! D4    D(7,1,2,8)              0.0012         estimate D2E/DX2                !
 ! D5    D(2,1,6,5)              0.0024         estimate D2E/DX2                !
 ! D6    D(2,1,6,27)           179.9991         estimate D2E/DX2                !
 ! D7    D(7,1,6,5)           -179.996          estimate D2E/DX2                !
 ! D8    D(7,1,6,27)             0.0006         estimate D2E/DX2                !
 ! D9    D(1,2,3,4)             -0.0082         estimate D2E/DX2                !
 ! D10   D(1,2,3,11)          -179.9994         estimate D2E/DX2                !
 ! D11   D(8,2,3,4)            179.9925         estimate D2E/DX2                !
 ! D12   D(8,2,3,11)             0.0012         estimate D2E/DX2                !
 ! D13   D(2,3,4,5)              0.0074         estimate D2E/DX2                !
 ! D14   D(2,3,4,9)           -179.9911         estimate D2E/DX2                !
 ! D15   D(11,3,4,5)           179.9986         estimate D2E/DX2                !
 ! D16   D(11,3,4,9)             0.0001         estimate D2E/DX2                !
 ! D17   D(2,3,13,14)           -0.0847         estimate D2E/DX2                !
 ! D18   D(2,3,13,15)         -179.9084         estimate D2E/DX2                !
 ! D19   D(4,3,13,14)          179.937          estimate D2E/DX2                !
 ! D20   D(4,3,13,15)            0.1133         estimate D2E/DX2                !
 ! D21   D(3,4,5,6)             -0.0018         estimate D2E/DX2                !
 ! D22   D(3,4,5,10)           179.998          estimate D2E/DX2                !
 ! D23   D(9,4,5,6)            179.9967         estimate D2E/DX2                !
 ! D24   D(9,4,5,10)            -0.0035         estimate D2E/DX2                !
 ! D25   D(4,5,6,1)             -0.0032         estimate D2E/DX2                !
 ! D26   D(4,5,6,27)          -179.9999         estimate D2E/DX2                !
 ! D27   D(10,5,6,1)           179.997          estimate D2E/DX2                !
 ! D28   D(10,5,6,27)            0.0004         estimate D2E/DX2                !
 ! D29   D(12,13,14,16)       -179.883          estimate D2E/DX2                !
 ! D30   D(12,13,14,17)         -0.0935         estimate D2E/DX2                !
 ! D31   D(15,13,14,16)         -0.0748         estimate D2E/DX2                !
 ! D32   D(15,13,14,17)        179.7147         estimate D2E/DX2                !
 ! D33   D(12,13,15,18)        179.8819         estimate D2E/DX2                !
 ! D34   D(12,13,15,19)          0.0944         estimate D2E/DX2                !
 ! D35   D(14,13,15,18)          0.0737         estimate D2E/DX2                !
 ! D36   D(14,13,15,19)       -179.7138         estimate D2E/DX2                !
 ! D37   D(13,14,16,20)         -0.1077         estimate D2E/DX2                !
 ! D38   D(13,14,16,21)        179.7943         estimate D2E/DX2                !
 ! D39   D(17,14,16,20)       -179.8949         estimate D2E/DX2                !
 ! D40   D(17,14,16,21)          0.0071         estimate D2E/DX2                !
 ! D41   D(13,15,18,20)          0.11           estimate D2E/DX2                !
 ! D42   D(13,15,18,22)       -179.7948         estimate D2E/DX2                !
 ! D43   D(19,15,18,20)        179.8952         estimate D2E/DX2                !
 ! D44   D(19,15,18,22)         -0.0096         estimate D2E/DX2                !
 ! D45   D(14,16,20,18)          0.2852         estimate D2E/DX2                !
 ! D46   D(14,16,20,23)       -178.4982         estimate D2E/DX2                !
 ! D47   D(21,16,20,18)       -179.617          estimate D2E/DX2                !
 ! D48   D(21,16,20,23)          1.5996         estimate D2E/DX2                !
 ! D49   D(15,18,20,16)         -0.2863         estimate D2E/DX2                !
 ! D50   D(15,18,20,23)        178.4971         estimate D2E/DX2                !
 ! D51   D(22,18,20,16)        179.6186         estimate D2E/DX2                !
 ! D52   D(22,18,20,23)         -1.598          estimate D2E/DX2                !
 ! D53   D(16,20,23,24)         89.4231         estimate D2E/DX2                !
 ! D54   D(16,20,23,25)       -151.0085         estimate D2E/DX2                !
 ! D55   D(16,20,23,26)        -30.1471         estimate D2E/DX2                !
 ! D56   D(18,20,23,24)        -89.3262         estimate D2E/DX2                !
 ! D57   D(18,20,23,25)         30.2421         estimate D2E/DX2                !
 ! D58   D(18,20,23,26)        151.1035         estimate D2E/DX2                !
 --------------------------------------------------------------------------------
 Trust Radius=3.00D-01 FncErr=1.00D-07 GrdErr=1.00D-06 EigMax=2.50D+02 EigMin=1.00D-04
 Number of steps in this run=    142 maximum allowed number of steps=    162.
 GradGradGradGradGradGradGradGradGradGradGradGradGradGradGradGradGradGrad

                          Input orientation:                          
 ---------------------------------------------------------------------
 Center     Atomic      Atomic             Coordinates (Angstroms)
 Number     Number       Type             X           Y           Z
 ---------------------------------------------------------------------
      1          6           0        3.691912   -1.218704    0.001018
      2          6           0        2.296228   -1.215484   -0.000253
      3          6           0        1.575060    0.000058   -0.000847
      4          6           0        2.296303    1.215571    0.000050
      5          6           0        3.691956    1.218698    0.001339
      6          6           0        4.368547   -0.000033    0.001770
      7          1           0        4.244186   -2.150369    0.001443
      8          1           0        1.754207   -2.154435   -0.000806
      9          1           0        1.754293    2.154528   -0.000247
     10          1           0        4.244332    2.150304    0.001993
     11          6           0        0.151230    0.000064   -0.002132
     12          6           0       -1.068847   -0.000016   -0.003158
     13          6           0       -2.493423   -0.000011   -0.003754
     14          6           0       -3.216835   -1.213255   -0.005985
     15          6           0       -3.216844    1.213238   -0.006289
     16          6           0       -4.610812   -1.206129   -0.009009
     17          1           0       -2.674645   -2.152827   -0.008797
     18          6           0       -4.610809    1.206104   -0.009335
     19          1           0       -2.674646    2.152806   -0.009351
     20          6           0       -5.333591   -0.000019   -0.007663
     21          1           0       -5.149613   -2.149424   -0.014088
     22          1           0       -5.149623    2.149390   -0.014642
     23          6           0       -6.844996    0.000004    0.023025
     24          1           0       -7.218620    0.001016    1.056285
     25          1           0       -7.256356    0.885931   -0.472502
     26          1           0       -7.256348   -0.886877   -0.470790
     27         17           0        6.196021   -0.000033    0.003461
 ---------------------------------------------------------------------
                    Distance matrix (angstroms):
                    1          2          3          4          5
     1  C    0.000000
     2  C    1.395688   0.000000
     3  C    2.442631   1.413374   0.000000
     4  C    2.805962   2.431055   1.413387   0.000000
     5  C    2.437402   2.805940   2.442609   1.395657   0.000000
     6  C    1.393913   2.402464   2.793488   2.402476   1.393944
     7  H    1.083054   2.160684   3.427619   3.888933   3.414026
     8  H    2.151812   1.084166   2.161928   3.413328   3.890103
     9  H    3.890124   3.413308   2.161913   1.084166   2.151817
    10  H    3.413998   3.888913   3.427620   2.160682   1.083056
    11  C    3.744574   2.465477   1.423831   2.465522   3.744572
    12  C    4.914269   3.577863   2.643908   3.577974   4.914319
    13  C    6.304253   4.941472   4.068484   4.941572   6.304299
    14  C    6.908753   5.513066   4.943118   6.024444   7.324332
    15  C    7.324296   6.024341   4.943094   5.513151   6.908806
    16  C    8.302740   6.907052   6.302378   7.319355   8.649616
    17  H    6.434728   5.058484   4.763924   6.004707   7.204227
    18  C    8.649565   7.319244   6.302348   6.907125   8.302781
    19  H    7.204183   6.004586   4.763864   5.058540   6.434772
    20  C    9.107413   7.726031   6.908654   7.726125   9.107461
    21  H    8.890390   7.504198   7.059864   8.170989   9.461386
    22  H    9.461345   8.170880   7.059829   7.504269   8.890442
    23  C   10.607175   9.221710   8.420090   9.221794  10.607217
    24  H   11.029099   9.650310   8.856994   9.650105  11.028886
    25  H   11.158776   9.792386   8.888258   9.570019  10.963612
    26  H   10.963444   9.569801   8.888266   9.792605  11.158930
    27  Cl   2.784911   4.084816   4.620963   4.084789   2.784897
                    6          7          8          9         10
     6  C    0.000000
     7  H    2.153929   0.000000
     8  H    3.387658   2.489983   0.000000
     9  H    3.387693   4.973098   4.308963   0.000000
    10  H    2.153922   4.300673   4.973078   2.490044   0.000000
    11  C    4.217319   4.623490   2.685406   2.685429   4.623530
    12  C    5.437396   5.731698   3.551220   3.551364   5.731821
    13  C    6.861972   7.072442   4.762763   4.762892   7.072569
    14  C    7.681796   7.519646   5.059358   6.004507   8.184290
    15  C    7.681813   8.184185   6.004382   5.059473   7.519794
    16  C    9.060004   8.905206   6.435279   7.197823   9.469918
    17  H    7.364862   6.918839   4.428860   6.178096   8.147963
    18  C    9.060007   9.469792   7.197689   6.435380   8.905345
    19  H    7.364877   8.147863   6.177956   4.428949   6.918988
    20  C    9.702143   9.816206   7.407998   7.408119   9.816343
    21  H    9.757843   9.393812   6.903835   8.135608  10.331221
    22  H    9.757861  10.331110   8.135476   6.903933   9.393970
    23  C   11.213563  11.295775   8.865014   8.865116  11.295903
    24  H   11.635052  11.710554   9.288436   9.288005  11.710262
    25  H   11.668258  11.904042   9.521374   9.111759  11.579707
    26  H   11.668247  11.579365   9.111404   9.521723  11.904354
    27  Cl   1.827475   2.904068   4.936717   4.936709   2.903970
                   11         12         13         14         15
    11  C    0.000000
    12  C    1.220077   0.000000
    13  C    2.644653   1.424576   0.000000
    14  C    3.579947   2.466943   1.412548   0.000000
    15  C    3.579907   2.466959   1.412557   2.426493   0.000000
    16  C    4.912432   3.741692   2.436819   1.393998   2.792220
    17  H    3.552542   2.685743   2.160436   1.084792   3.409454
    18  C    4.912392   3.741692   2.436815   2.792216   1.393987
    19  H    3.552453   2.685753   2.160438   3.409450   1.084793
    20  C    5.484824   4.264746   2.840171   2.439795   2.439798
    21  H    5.720085   4.612236   3.416933   2.147582   3.878550
    22  H    5.720035   4.612246   3.416935   3.878547   2.147577
    23  C    6.996271   5.776208   4.351655   3.825754   3.825740
    24  H    7.445464   6.240363   4.842641   4.314760   4.314250
    25  H    7.475182   6.268210   4.867253   4.576238   4.079478
    26  H    7.475193   6.268203   4.867249   4.079244   4.576444
    27  Cl   6.044794   7.264871   8.689447   9.490725   9.490740
                   16         17         18         19         20
    16  C    0.000000
    17  H    2.155222   0.000000
    18  C    2.412233   3.877003   0.000000
    19  H    3.877007   4.305633   2.155220   0.000000
    20  C    1.406098   3.421195   1.406111   3.421205   0.000000
    21  H    1.086341   2.474976   3.398514   4.963332   2.157274
    22  H    3.398508   4.963328   1.086341   2.474985   2.157279
    23  C    2.539165   4.693349   2.539157   4.693338   1.511717
    24  H    3.064753   5.140151   3.064060   5.139405   2.164560
    25  H    3.404474   5.517350   2.704802   4.776144   2.167489
    26  H    2.704445   4.775779   3.404759   5.517662   2.167487
    27  Cl  10.873935   9.128165  10.873937   9.128177  11.529617
                   21         22         23         24         25
    21  H    0.000000
    22  H    4.298814   0.000000
    23  C    2.737835   2.737804   0.000000
    24  H    3.170312   3.169092   1.098737   0.000000
    25  H    3.723156   2.498857   1.095277   1.766830   0.000000
    26  H    2.498186   3.723611   1.095272   1.766843   1.772809
    27  Cl  11.547450  11.547467  13.041032  13.455892  13.489919
                   26         27
    26  H    0.000000
    27  Cl  13.489909   0.000000
 Stoichiometry    C15H11Cl
 Framework group  C1[X(C15H11Cl)]
 Deg. of freedom    75
 Full point group                 C1      NOp   1
 Largest Abelian subgroup         C1      NOp   1
 Largest concise Abelian subgroup C1      NOp   1
                         Standard orientation:                         
 ---------------------------------------------------------------------
 Center     Atomic      Atomic             Coordinates (Angstroms)
 Number     Number       Type             X           Y           Z
 ---------------------------------------------------------------------
      1          6           0       -3.691912    1.218704    0.001018
      2          6           0       -2.296228    1.215484   -0.000253
      3          6           0       -1.575060   -0.000058   -0.000847
      4          6           0       -2.296303   -1.215571    0.000050
      5          6           0       -3.691956   -1.218698    0.001339
      6          6           0       -4.368547    0.000033    0.001770
      7          1           0       -4.244186    2.150369    0.001443
      8          1           0       -1.754207    2.154435   -0.000806
      9          1           0       -1.754293   -2.154528   -0.000247
     10          1           0       -4.244332   -2.150304    0.001993
     11          6           0       -0.151230   -0.000064   -0.002132
     12          6           0        1.068847    0.000016   -0.003158
     13          6           0        2.493423    0.000011   -0.003754
     14          6           0        3.216835    1.213255   -0.005985
     15          6           0        3.216844   -1.213238   -0.006289
     16          6           0        4.610812    1.206129   -0.009009
     17          1           0        2.674645    2.152827   -0.008797
     18          6           0        4.610809   -1.206104   -0.009335
     19          1           0        2.674646   -2.152806   -0.009351
     20          6           0        5.333591    0.000019   -0.007663
     21          1           0        5.149613    2.149424   -0.014088
     22          1           0        5.149623   -2.149390   -0.014642
     23          6           0        6.844996   -0.000004    0.023025
     24          1           0        7.218620   -0.001016    1.056285
     25          1           0        7.256356   -0.885931   -0.472502
     26          1           0        7.256348    0.886877   -0.470790
     27         17           0       -6.196021    0.000033    0.003461
 ---------------------------------------------------------------------
 Rotational constants (GHZ):           2.7791821           0.1241096           0.1188928
 Standard basis: 6-31+G(d) (6D, 7F)
 There are   330 symmetry adapted cartesian basis functions of A   symmetry.
 There are   330 symmetry adapted basis functions of A   symmetry.
   330 basis functions,   580 primitive gaussians,   330 cartesian basis functions
    59 alpha electrons       59 beta electrons
       nuclear repulsion energy       943.1568758519 Hartrees.
 NAtoms=   27 NActive=   27 NUniq=   27 SFac= 1.00D+00 NAtFMM=   60 NAOKFM=F Big=F
 Integral buffers will be    131072 words long.
 Raffenetti 2 integral format.
 Two-electron integral symmetry is turned on.
 Nuclear repulsion after empirical dispersion term =      943.1377261279 Hartrees.
 One-electron integrals computed using PRISM.
 NBasis=   330 RedAO= T EigKep=  1.37D-06  NBF=   330
 NBsUse=   326 1.00D-06 EigRej=  4.76D-07 NBFU=   326
 ExpMin= 4.38D-02 ExpMax= 2.52D+04 ExpMxC= 3.78D+03 IAcc=3 IRadAn=         5 AccDes= 0.00D+00
 Harris functional with IExCor=  402 and IRadAn=       5 diagonalized for initial guess.
 HarFok:  IExCor=  402 AccDes= 0.00D+00 IRadAn=         5 IDoV= 1 UseB2=F ITyADJ=14
 ICtDFT=  3500011 ScaDFX=  1.000000  1.000000  1.000000  1.000000
 FoFCou: FMM=F IPFlag=           0 FMFlag=      100000 FMFlg1=           0
         NFxFlg=           0 DoJE=T BraDBF=F KetDBF=T FulRan=T
         wScrn=  0.000000 ICntrl=       500 IOpCl=  0 I1Cent=   200000004 NGrid=           0
         NMat0=    1 NMatS0=      1 NMatT0=    0 NMatD0=    1 NMtDS0=    0 NMtDT0=    0
 Petite list used in FoFCou.
 Requested convergence on RMS density matrix=1.00D-08 within 128 cycles.
 Requested convergence on MAX density matrix=1.00D-06.
 Requested convergence on             energy=1.00D-06.
 No special actions if energy rises.
 SCF Done:  E(RB3LYP) =  -1038.41466005     A.U. after   14 cycles
            NFock= 14  Conv=0.83D-08     -V/T= 2.0071

 **********************************************************************

            Population analysis using the SCF Density.

 **********************************************************************

 Orbital symmetries:
       Occupied  (A) (A) (A) (A) (A) (A) (A) (A) (A) (A) (A) (A)
                 (A) (A) (A) (A) (A) (A) (A) (A) (A) (A) (A) (A)
                 (A) (A) (A) (A) (A) (A) (A) (A) (A) (A) (A) (A)
                 (A) (A) (A) (A) (A) (A) (A) (A) (A) (A) (A) (A)
                 (A) (A) (A) (A) (A) (A) (A) (A) (A) (A) (A)
       Virtual   (A) (A) (A) (A) (A) (A) (A) (A) (A) (A) (A) (A)
                 (A) (A) (A) (A) (A) (A) (A) (A) (A) (A) (A) (A)
                 (A) (A) (A) (A) (A) (A) (A) (A) (A) (A) (A) (A)
                 (A) (A) (A) (A) (A) (A) (A) (A) (A) (A) (A) (A)
                 (A) (A) (A) (A) (A) (A) (A) (A) (A) (A) (A) (A)
                 (A) (A) (A) (A) (A) (A) (A) (A) (A) (A) (A) (A)
                 (A) (A) (A) (A) (A) (A) (A) (A) (A) (A) (A) (A)
                 (A) (A) (A) (A) (A) (A) (A) (A) (A) (A) (A) (A)
                 (A) (A) (A) (A) (A) (A) (A) (A) (A) (A) (A) (A)
                 (A) (A) (A) (A) (A) (A) (A) (A) (A) (A) (A) (A)
                 (A) (A) (A) (A) (A) (A) (A) (A) (A) (A) (A) (A)
                 (A) (A) (A) (A) (A) (A) (A) (A) (A) (A) (A) (A)
                 (A) (A) (A) (A) (A) (A) (A) (A) (A) (A) (A) (A)
                 (A) (A) (A) (A) (A) (A) (A) (A) (A) (A) (A) (A)
                 (A) (A) (A) (A) (A) (A) (A) (A) (A) (A) (A) (A)
                 (A) (A) (A) (A) (A) (A) (A) (A) (A) (A) (A) (A)
                 (A) (A) (A) (A) (A) (A) (A) (A) (A) (A) (A) (A)
                 (A) (A) (A) (A) (A) (A) (A) (A) (A) (A) (A) (A)
                 (A) (A) (A) (A) (A) (A) (A) (A) (A) (A) (A) (A)
                 (A) (A) (A) (A) (A) (A) (A) (A) (A) (A) (A) (A)
                 (A) (A) (A) (A) (A) (A) (A) (A) (A) (A) (A) (A)
                 (A) (A) (A) (A) (A) (A) (A) (A) (A) (A) (A) (A)
                 (A) (A) (A)
 The electronic state is 1-A.
 Alpha  occ. eigenvalues -- -101.55612 -10.26960 -10.23572 -10.22646 -10.21949
 Alpha  occ. eigenvalues --  -10.21948 -10.21886 -10.21886 -10.21574 -10.20865
 Alpha  occ. eigenvalues --  -10.20864 -10.20450 -10.20373 -10.20372 -10.20182
 Alpha  occ. eigenvalues --  -10.19658  -9.47031  -7.23449  -7.22468  -7.22446
 Alpha  occ. eigenvalues --   -0.89590  -0.87402  -0.84642  -0.80567  -0.77812
 Alpha  occ. eigenvalues --   -0.77342  -0.75946  -0.73649  -0.69679  -0.63527
 Alpha  occ. eigenvalues --   -0.63099  -0.62175  -0.60502  -0.56067  -0.53686
 Alpha  occ. eigenvalues --   -0.48614  -0.48610  -0.47827  -0.47559  -0.45526
 Alpha  occ. eigenvalues --   -0.44835  -0.43715  -0.43393  -0.43135  -0.40768
 Alpha  occ. eigenvalues --   -0.40057  -0.38557  -0.38170  -0.37861  -0.36579
 Alpha  occ. eigenvalues --   -0.35570  -0.35150  -0.31919  -0.31244  -0.28091
 Alpha  occ. eigenvalues --   -0.27747  -0.27203  -0.26638  -0.22029
 Alpha virt. eigenvalues --   -0.06478  -0.03239  -0.02309  -0.01418  -0.01170
 Alpha virt. eigenvalues --    0.00187   0.00841   0.01583   0.01745   0.02572
 Alpha virt. eigenvalues --    0.03571   0.03598   0.04292   0.04585   0.04990
 Alpha virt. eigenvalues --    0.05283   0.05897   0.06122   0.06367   0.06684
 Alpha virt. eigenvalues --    0.07739   0.08087   0.08582   0.08817   0.08989
 Alpha virt. eigenvalues --    0.08996   0.09499   0.10377   0.11455   0.11854
 Alpha virt. eigenvalues --    0.12069   0.12170   0.13034   0.13127   0.13805
 Alpha virt. eigenvalues --    0.14249   0.14679   0.14868   0.14896   0.14985
 Alpha virt. eigenvalues --    0.15521   0.15646   0.16123   0.17175   0.17393
 Alpha virt. eigenvalues --    0.18144   0.18429   0.18608   0.19051   0.20125
 Alpha virt. eigenvalues --    0.20322   0.20343   0.21073   0.21181   0.22213
 Alpha virt. eigenvalues --    0.22222   0.22473   0.22696   0.23085   0.23559
 Alpha virt. eigenvalues --    0.24051   0.24390   0.24445   0.25381   0.25796
 Alpha virt. eigenvalues --    0.25810   0.25858   0.26428   0.26708   0.27570
 Alpha virt. eigenvalues --    0.27978   0.28919   0.29176   0.29382   0.30765
 Alpha virt. eigenvalues --    0.31342   0.32355   0.32528   0.32634   0.34086
 Alpha virt. eigenvalues --    0.34629   0.35343   0.36375   0.36437   0.36639
 Alpha virt. eigenvalues --    0.40204   0.40694   0.41354   0.42257   0.45594
 Alpha virt. eigenvalues --    0.49094   0.52975   0.53733   0.56925   0.59150
 Alpha virt. eigenvalues --    0.61036   0.62014   0.63369   0.63428   0.65247
 Alpha virt. eigenvalues --    0.65918   0.66220   0.66763   0.67798   0.67848
 Alpha virt. eigenvalues --    0.69719   0.70005   0.70311   0.70947   0.71117
 Alpha virt. eigenvalues --    0.71143   0.71320   0.72782   0.73017   0.74105
 Alpha virt. eigenvalues --    0.74759   0.74808   0.75632   0.76299   0.76959
 Alpha virt. eigenvalues --    0.77921   0.78598   0.79465   0.80423   0.80647
 Alpha virt. eigenvalues --    0.81135   0.81389   0.82171   0.84224   0.85536
 Alpha virt. eigenvalues --    0.87049   0.87596   0.87780   0.90332   0.90479
 Alpha virt. eigenvalues --    0.93126   0.93555   0.94630   0.95575   0.96553
 Alpha virt. eigenvalues --    0.96988   0.97426   0.97756   0.99681   1.00234
 Alpha virt. eigenvalues --    1.00809   1.04019   1.05962   1.07166   1.08287
 Alpha virt. eigenvalues --    1.09017   1.11449   1.13220   1.13222   1.15825
 Alpha virt. eigenvalues --    1.17276   1.18553   1.18918   1.19790   1.22068
 Alpha virt. eigenvalues --    1.22101   1.23761   1.24180   1.25732   1.26030
 Alpha virt. eigenvalues --    1.26738   1.29462   1.32366   1.32844   1.37256
 Alpha virt. eigenvalues --    1.38867   1.39149   1.41970   1.42139   1.43405
 Alpha virt. eigenvalues --    1.43809   1.44762   1.45086   1.45666   1.48047
 Alpha virt. eigenvalues --    1.48252   1.49806   1.52856   1.55620   1.55664
 Alpha virt. eigenvalues --    1.57481   1.60078   1.71348   1.75873   1.82616
 Alpha virt. eigenvalues --    1.82952   1.85098   1.85343   1.86089   1.86499
 Alpha virt. eigenvalues --    1.89695   1.90154   1.90484   1.91661   1.92152
 Alpha virt. eigenvalues --    1.94311   1.97032   1.98626   1.99029   2.05558
 Alpha virt. eigenvalues --    2.07701   2.08184   2.10686   2.11214   2.13006
 Alpha virt. eigenvalues --    2.13512   2.14146   2.16235   2.16776   2.20581
 Alpha virt. eigenvalues --    2.20673   2.23304   2.24311   2.26545   2.28129
 Alpha virt. eigenvalues --    2.28607   2.30322   2.34526   2.36683   2.37482
 Alpha virt. eigenvalues --    2.41647   2.45528   2.48734   2.50963   2.59234
 Alpha virt. eigenvalues --    2.59689   2.61660   2.62832   2.63479   2.65739
 Alpha virt. eigenvalues --    2.65808   2.74014   2.74906   2.75056   2.78447
 Alpha virt. eigenvalues --    2.79725   2.81668   2.91186   2.91278   2.92075
 Alpha virt. eigenvalues --    3.00564   3.05697   3.27624   3.30734   3.38387
 Alpha virt. eigenvalues --    3.59126   4.20801   4.21887   4.22839   4.24064
 Alpha virt. eigenvalues --    4.24432   4.27595   4.30576   4.34468   4.37795
 Alpha virt. eigenvalues --    4.38748   4.40348   4.43436   4.54974   4.63309
 Alpha virt. eigenvalues --    4.76583   4.98791
          Condensed to atoms (all electrons):
               1          2          3          4          5          6
     1  C    9.349432  -4.778876   1.043803   2.478124  -1.534020  -0.180654
     2  C   -4.778876  16.114069  -1.496787  -7.079236   2.477652   0.443080
     3  C    1.043803  -1.496787   8.646330  -1.496584   1.043359  -0.617417
     4  C    2.478124  -7.079236  -1.496584  16.113508  -4.777922   0.443181
     5  C   -1.534020   2.477652   1.043359  -4.777922   9.348681  -0.180683
     6  C   -0.180654   0.443080  -0.617417   0.443181  -0.180683   5.976476
     7  H    0.282943  -0.063478   0.001273  -0.003077   0.037594   0.044131
     8  H   -0.102780   0.354778  -0.014511   0.028025  -0.010683   0.007011
     9  H   -0.010691   0.028050  -0.014483   0.354796  -0.102837   0.007000
    10  H    0.037587  -0.003074   0.001290  -0.063490   0.282983   0.044088
    11  C   -0.047254   0.187336  -0.483436   0.187449  -0.047070  -0.166254
    12  C    0.016377   0.030220  -0.817727   0.029573   0.016700  -0.152138
    13  C    0.079070  -0.237000   0.733072  -0.237102   0.079030  -0.002307
    14  C   -0.117574   0.573343  -0.244841  -0.460657   0.088584   0.000941
    15  C    0.088569  -0.460589  -0.244527   0.573345  -0.117527   0.000948
    16  C    0.024875  -0.127581   0.088346   0.097571  -0.019698   0.000976
    17  H    0.000138   0.002474  -0.000070  -0.000062  -0.000010   0.000031
    18  C   -0.019713   0.097616   0.088375  -0.127672   0.024884   0.000976
    19  H   -0.000010  -0.000061  -0.000071   0.002473   0.000138   0.000031
    20  C    0.000240   0.001838   0.009585   0.001828   0.000242   0.000914
    21  H    0.000003   0.000102  -0.000152  -0.000037  -0.000001   0.000000
    22  H   -0.000001  -0.000037  -0.000153   0.000102   0.000003   0.000000
    23  C   -0.000031  -0.000015   0.007470  -0.000018  -0.000031   0.000101
    24  H    0.000000   0.000000   0.000001   0.000000   0.000000   0.000000
    25  H    0.000000  -0.000001   0.000001   0.000001   0.000000   0.000000
    26  H    0.000000   0.000001   0.000001  -0.000001   0.000000   0.000000
    27  Cl  -0.149284   0.098187  -0.093919   0.098185  -0.149244  -0.029331
               7          8          9         10         11         12
     1  C    0.282943  -0.102780  -0.010691   0.037587  -0.047254   0.016377
     2  C   -0.063478   0.354778   0.028050  -0.003074   0.187336   0.030220
     3  C    0.001273  -0.014511  -0.014483   0.001290  -0.483436  -0.817727
     4  C   -0.003077   0.028025   0.354796  -0.063490   0.187449   0.029573
     5  C    0.037594  -0.010683  -0.102837   0.282983  -0.047070   0.016700
     6  C    0.044131   0.007011   0.007000   0.044088  -0.166254  -0.152138
     7  H    0.501330  -0.004623   0.000014  -0.000159  -0.004355   0.000330
     8  H   -0.004623   0.518120  -0.000151   0.000014   0.024930  -0.003714
     9  H    0.000014  -0.000151   0.518123  -0.004622   0.024945  -0.003725
    10  H   -0.000159   0.000014  -0.004622   0.501329  -0.004354   0.000330
    11  C   -0.004355   0.024930   0.024945  -0.004354   6.509295   0.672956
    12  C    0.000330  -0.003714  -0.003725   0.000330   0.672956   6.392657
    13  C   -0.000114  -0.000040  -0.000041  -0.000114  -0.825835  -0.362109
    14  C    0.000074   0.001833   0.000108  -0.000030   0.111066   0.173336
    15  C   -0.000030   0.000110   0.001834   0.000074   0.111507   0.173859
    16  C    0.000001   0.000233  -0.000039  -0.000001  -0.055533  -0.067815
    17  H    0.000000   0.000001   0.000000   0.000000  -0.001819   0.030417
    18  C   -0.000001  -0.000039   0.000233   0.000001  -0.055808  -0.068154
    19  H    0.000000   0.000000   0.000001   0.000000  -0.001814   0.030394
    20  C    0.000000   0.000011   0.000011   0.000000  -0.070281  -0.105155
    21  H    0.000000   0.000000   0.000000   0.000000   0.001031  -0.005158
    22  H    0.000000   0.000000   0.000000   0.000000   0.001032  -0.005154
    23  C    0.000000  -0.000001  -0.000001   0.000000  -0.026536   0.055640
    24  H    0.000000   0.000000   0.000000   0.000000  -0.000017   0.000182
    25  H    0.000000   0.000000   0.000000   0.000000   0.000005   0.000489
    26  H    0.000000   0.000000   0.000000   0.000000   0.000005   0.000487
    27  Cl   0.002296   0.001123   0.001122   0.002298  -0.003810  -0.009699
              13         14         15         16         17         18
     1  C    0.079070  -0.117574   0.088569   0.024875   0.000138  -0.019713
     2  C   -0.237000   0.573343  -0.460589  -0.127581   0.002474   0.097616
     3  C    0.733072  -0.244841  -0.244527   0.088346  -0.000070   0.088375
     4  C   -0.237102  -0.460657   0.573345   0.097571  -0.000062  -0.127672
     5  C    0.079030   0.088584  -0.117527  -0.019698  -0.000010   0.024884
     6  C   -0.002307   0.000941   0.000948   0.000976   0.000031   0.000976
     7  H   -0.000114   0.000074  -0.000030   0.000001   0.000000  -0.000001
     8  H   -0.000040   0.001833   0.000110   0.000233   0.000001  -0.000039
     9  H   -0.000041   0.000108   0.001834  -0.000039   0.000000   0.000233
    10  H   -0.000114  -0.000030   0.000074  -0.000001   0.000000   0.000001
    11  C   -0.825835   0.111066   0.111507  -0.055533  -0.001819  -0.055808
    12  C   -0.362109   0.173336   0.173859  -0.067815   0.030417  -0.068154
    13  C    8.127384  -1.282021  -1.282196   0.755979  -0.025702   0.756078
    14  C   -1.282021  15.769368  -7.066760  -4.752064   0.361217   2.736534
    15  C   -1.282196  -7.066760  15.773105   2.735507   0.020792  -4.754456
    16  C    0.755979  -4.752064   2.735507   9.362524  -0.101293  -1.820960
    17  H   -0.025702   0.361217   0.020792  -0.101293   0.528164  -0.007151
    18  C    0.756078   2.736534  -4.754456  -1.820960  -0.007151   9.362655
    19  H   -0.025729   0.020790   0.361230  -0.007149  -0.000155  -0.101281
    20  C   -0.095089   0.296121   0.294366   0.018779   0.003030   0.020230
    21  H    0.027415  -0.063704  -0.005627   0.268431  -0.004313   0.045329
    22  H    0.027371  -0.005658  -0.063750   0.045446   0.000017   0.268338
    23  C   -0.281211  -0.000393  -0.000827  -0.031383   0.001831  -0.032272
    24  H   -0.000581   0.000704   0.000711  -0.014424   0.000001  -0.014658
    25  H   -0.003373  -0.015247   0.019118   0.036176   0.000002  -0.025539
    26  H   -0.003388   0.019147  -0.015250  -0.025574  -0.000005   0.036147
    27  Cl   0.000804  -0.000022  -0.000022   0.000011   0.000000   0.000011
              19         20         21         22         23         24
     1  C   -0.000010   0.000240   0.000003  -0.000001  -0.000031   0.000000
     2  C   -0.000061   0.001838   0.000102  -0.000037  -0.000015   0.000000
     3  C   -0.000071   0.009585  -0.000152  -0.000153   0.007470   0.000001
     4  C    0.002473   0.001828  -0.000037   0.000102  -0.000018   0.000000
     5  C    0.000138   0.000242  -0.000001   0.000003  -0.000031   0.000000
     6  C    0.000031   0.000914   0.000000   0.000000   0.000101   0.000000
     7  H    0.000000   0.000000   0.000000   0.000000   0.000000   0.000000
     8  H    0.000000   0.000011   0.000000   0.000000  -0.000001   0.000000
     9  H    0.000001   0.000011   0.000000   0.000000  -0.000001   0.000000
    10  H    0.000000   0.000000   0.000000   0.000000   0.000000   0.000000
    11  C   -0.001814  -0.070281   0.001031   0.001032  -0.026536  -0.000017
    12  C    0.030394  -0.105155  -0.005158  -0.005154   0.055640   0.000182
    13  C   -0.025729  -0.095089   0.027415   0.027371  -0.281211  -0.000581
    14  C    0.020790   0.296121  -0.063704  -0.005658  -0.000393   0.000704
    15  C    0.361230   0.294366  -0.005627  -0.063750  -0.000827   0.000711
    16  C   -0.007149   0.018779   0.268431   0.045446  -0.031383  -0.014424
    17  H   -0.000155   0.003030  -0.004313   0.000017   0.001831   0.000001
    18  C   -0.101281   0.020230   0.045329   0.268338  -0.032272  -0.014658
    19  H    0.528160   0.003055   0.000017  -0.004313   0.001829   0.000001
    20  C    0.003055   6.390714   0.037707   0.037764  -0.972688  -0.043208
    21  H    0.000017   0.037707   0.542719  -0.000163  -0.025287   0.000326
    22  H   -0.004313   0.037764  -0.000163   0.542717  -0.025249   0.000328
    23  C    0.001829  -0.972688  -0.025287  -0.025249   6.750406   0.402307
    24  H    0.000001  -0.043208   0.000326   0.000328   0.402307   0.497368
    25  H   -0.000005  -0.141986   0.000064   0.002920   0.468701  -0.029213
    26  H    0.000002  -0.142055   0.002928   0.000064   0.468835  -0.029198
    27  Cl   0.000000   0.000013   0.000000   0.000000   0.000001   0.000000
              25         26         27
     1  C    0.000000   0.000000  -0.149284
     2  C   -0.000001   0.000001   0.098187
     3  C    0.000001   0.000001  -0.093919
     4  C    0.000001  -0.000001   0.098185
     5  C    0.000000   0.000000  -0.149244
     6  C    0.000000   0.000000  -0.029331
     7  H    0.000000   0.000000   0.002296
     8  H    0.000000   0.000000   0.001123
     9  H    0.000000   0.000000   0.001122
    10  H    0.000000   0.000000   0.002298
    11  C    0.000005   0.000005  -0.003810
    12  C    0.000489   0.000487  -0.009699
    13  C   -0.003373  -0.003388   0.000804
    14  C   -0.015247   0.019147  -0.000022
    15  C    0.019118  -0.015250  -0.000022
    16  C    0.036176  -0.025574   0.000011
    17  H    0.000002  -0.000005   0.000000
    18  C   -0.025539   0.036147   0.000011
    19  H   -0.000005   0.000002   0.000000
    20  C   -0.141986  -0.142055   0.000013
    21  H    0.000064   0.002928   0.000000
    22  H    0.002920   0.000064   0.000000
    23  C    0.468701   0.468835   0.000001
    24  H   -0.029213  -0.029198   0.000000
    25  H    0.503020  -0.025547   0.000000
    26  H   -0.025547   0.503016   0.000000
    27  Cl   0.000000   0.000000  17.012528
 Mulliken charges:
               1
     1  C   -0.460274
     2  C   -0.162011
     3  C   -0.138229
     4  C   -0.162306
     5  C   -0.460123
     6  C    0.358898
     7  H    0.205849
     8  H    0.200353
     9  H    0.200352
    10  H    0.205850
    11  C   -0.037380
    12  C   -0.023399
    13  C    0.077748
    14  C   -0.144195
    15  C   -0.143516
    16  C   -0.411340
    17  H    0.192463
    18  C   -0.409702
    19  H    0.192465
    20  C    0.454014
    21  H    0.178370
    22  H    0.178375
    23  C   -0.761179
    24  H    0.229369
    25  H    0.210414
    26  H    0.210383
    27  Cl   0.218751
 Sum of Mulliken charges =   0.00000
 Mulliken charges with hydrogens summed into heavy atoms:
               1
     1  C   -0.254425
     2  C    0.038342
     3  C   -0.138229
     4  C    0.038046
     5  C   -0.254273
     6  C    0.358898
    11  C   -0.037380
    12  C   -0.023399
    13  C    0.077748
    14  C    0.048268
    15  C    0.048949
    16  C   -0.232970
    18  C   -0.231328
    20  C    0.454014
    23  C   -0.111012
    27  Cl   0.218751
 Electronic spatial extent (au):  <R**2>=           8296.6468
 Charge=              0.0000 electrons
 Dipole moment (field-independent basis, Debye):
    X=              3.2360    Y=             -0.0001    Z=              0.0432  Tot=              3.2362
 Quadrupole moment (field-independent basis, Debye-Ang):
   XX=            -97.4622   YY=            -89.5020   ZZ=           -107.1741
   XY=             -0.0007   XZ=              0.2973   YZ=             -0.0002
 Traceless Quadrupole moment (field-independent basis, Debye-Ang):
   XX=              0.5839   YY=              8.5441   ZZ=             -9.1280
   XY=             -0.0007   XZ=              0.2973   YZ=             -0.0002
 Octapole moment (field-independent basis, Debye-Ang**2):
  XXX=            176.8269  YYY=              0.0023  ZZZ=              0.8094  XYY=             -9.3836
  XXY=             -0.0069  XXZ=              1.8360  XZZ=            -10.1447  YZZ=             -0.0018
  YYZ=             -0.6292  XYZ=              0.0076
 Hexadecapole moment (field-independent basis, Debye-Ang**3):
 XXXX=         -10557.1408 YYYY=           -582.9691 ZZZZ=           -137.2793 XXXY=             -0.0235
 XXXZ=             11.6855 YYYX=              0.0090 YYYZ=             -0.0012 ZZZX=              5.3626
 ZZZY=             -0.0007 XXYY=          -1749.5623 XXZZ=          -1897.0131 YYZZ=           -143.4354
 XXYZ=              0.0030 YYXZ=             -4.5184 ZZXY=             -0.0140
 N-N= 9.431377261279D+02 E-N=-4.316728657538D+03  KE= 1.031086512842D+03
 Evaluate density.
 Using the total density.
 Monte-Carlo method of calculating molar volume:
 based on  0.001 e/bohr**3 density envelope.
 Number of points per bohr**3 =   20 CutOff= 1.00D-04
 Using the SCF density.
 There are       448 points.  Will hold       448 in memory.
 LenV=  4026272978 MDV=  4026531840.
 Box volume =11281.347 fraction occupied=0.181
 Integrated density= 1.5279279898362552D+02 error= 3.4792798983625516D+01
 Molar volume = 2039.708 bohr**3/mol (182.021 cm**3/mol)
 Recommended a0 for SCRF calculation =  5.08 angstrom (  9.60 bohr)
 Calling FoFJK, ICntrl=      2127 FMM=F ISym2X=0 I1Cent= 0 IOpClX= 0 NMat=1 NMatS=1 NMatT=0.
 ***** Axes restored to original set *****
 -------------------------------------------------------------------
 Center     Atomic                   Forces (Hartrees/Bohr)
 Number     Number              X              Y              Z
 -------------------------------------------------------------------
      1        6          -0.001166473    0.001256735    0.000000945
      2        6           0.001101037    0.003215783   -0.000005088
      3        6           0.002332150   -0.000001675   -0.000001077
      4        6           0.001075888   -0.003222557   -0.000002925
      5        6          -0.001138086   -0.001268443   -0.000002425
      6        6           0.020982966    0.000015283    0.000024172
      7        1           0.000575103   -0.001092828    0.000000091
      8        1          -0.000411838   -0.001000439   -0.000002722
      9        1          -0.000407765    0.001003391   -0.000003433
     10        1           0.000571077    0.001094339    0.000001222
     11        6          -0.004769309   -0.000000472    0.000023489
     12        6           0.004601975    0.000005318   -0.000001077
     13        6          -0.002317994   -0.000002591   -0.000022990
     14        6          -0.000492697    0.002483607    0.000023783
     15        6          -0.000487740   -0.002483802    0.000021304
     16        6           0.000816150    0.003548121    0.000044911
     17        1           0.000451227   -0.000898582   -0.000012744
     18        6           0.000811041   -0.003550843    0.000050412
     19        1           0.000450059    0.000898353   -0.000012276
     20        6           0.001040241    0.000001304    0.000025981
     21        1          -0.000310695   -0.001042031   -0.000004906
     22        1          -0.000310780    0.001043178   -0.000006577
     23        6           0.000654262    0.000000646    0.000154383
     24        1           0.000252465   -0.000000040    0.000070727
     25        1          -0.000079879    0.000233418   -0.000170464
     26        1          -0.000080457   -0.000233300   -0.000169702
     27       17          -0.023741928   -0.000001874   -0.000023014
 -------------------------------------------------------------------
 Cartesian Forces:  Max     0.023741928 RMS     0.003749160

 GradGradGradGradGradGradGradGradGradGradGradGradGradGradGradGradGradGrad
 Berny optimization.
 FormGI is forming the generalized inverse of G from B-inverse, IUseBI=4.
 Internal  Forces:  Max     0.023741939 RMS     0.002217033
 Search for a local minimum.
 Step number   1 out of a maximum of  142
 All quantities printed in internal units (Hartrees-Bohrs-Radians)
 Mixed Optimization -- RFO/linear search
 Second derivative matrix not updated -- first step.
 ITU=  0
     Eigenvalues ---    0.00230   0.00611   0.01015   0.01368   0.01451
     Eigenvalues ---    0.01764   0.01857   0.01942   0.01950   0.02019
     Eigenvalues ---    0.02024   0.02029   0.02040   0.02064   0.02074
     Eigenvalues ---    0.02102   0.02103   0.02104   0.02156   0.02158
     Eigenvalues ---    0.02163   0.02169   0.03752   0.04469   0.07029
     Eigenvalues ---    0.07129   0.16000   0.16000   0.16000   0.16000
     Eigenvalues ---    0.16000   0.16000   0.16000   0.16000   0.16000
     Eigenvalues ---    0.16000   0.16000   0.22000   0.22000   0.22955
     Eigenvalues ---    0.22979   0.23998   0.24000   0.24067   0.24994
     Eigenvalues ---    0.25000   0.25000   0.25000   0.31179   0.33822
     Eigenvalues ---    0.34210   0.34210   0.35239   0.35239   0.35421
     Eigenvalues ---    0.35422   0.35496   0.35496   0.35628   0.35628
     Eigenvalues ---    0.40622   0.40864   0.41136   0.41327   0.41779
     Eigenvalues ---    0.41889   0.44074   0.44175   0.44363   0.45376
     Eigenvalues ---    0.45526   0.46345   0.46589   0.46631   0.95349
 RFO step:  Lambda=-2.49381631D-03 EMin= 2.30000000D-03
 Linear search not attempted -- first point.
 Iteration  1 RMS(Cart)=  0.01090114 RMS(Int)=  0.00000190
 Iteration  2 RMS(Cart)=  0.00000228 RMS(Int)=  0.00000025
 Iteration  3 RMS(Cart)=  0.00000000 RMS(Int)=  0.00000025
 Variable       Old X    -DE/DX   Delta X   Delta X   Delta X     New X
                                 (Linear)    (Quad)   (Total)
    R1        2.63747  -0.00197   0.00000  -0.00422  -0.00422   2.63325
    R2        2.63411  -0.00126   0.00000  -0.00259  -0.00259   2.63153
    R3        2.04668   0.00123   0.00000   0.00344   0.00344   2.05011
    R4        2.67089  -0.00212   0.00000  -0.00494  -0.00494   2.66595
    R5        2.04878   0.00107   0.00000   0.00300   0.00300   2.05178
    R6        2.67092  -0.00212   0.00000  -0.00495  -0.00495   2.66596
    R7        2.69065  -0.00023   0.00000  -0.00054  -0.00054   2.69011
    R8        2.63741  -0.00195   0.00000  -0.00418  -0.00418   2.63323
    R9        2.04878   0.00107   0.00000   0.00300   0.00300   2.05178
   R10        2.63417  -0.00127   0.00000  -0.00262  -0.00262   2.63155
   R11        2.04668   0.00123   0.00000   0.00344   0.00344   2.05011
   R12        3.45343  -0.02374   0.00000  -0.09764  -0.09764   3.35579
   R13        2.30561  -0.00500   0.00000  -0.00523  -0.00523   2.30038
   R14        2.69206  -0.00040   0.00000  -0.00094  -0.00094   2.69112
   R15        2.66933  -0.00236   0.00000  -0.00536  -0.00536   2.66397
   R16        2.66935  -0.00236   0.00000  -0.00536  -0.00536   2.66398
   R17        2.63428  -0.00140   0.00000  -0.00298  -0.00298   2.63130
   R18        2.04996   0.00100   0.00000   0.00281   0.00281   2.05277
   R19        2.63425  -0.00139   0.00000  -0.00297  -0.00297   2.63128
   R20        2.04996   0.00100   0.00000   0.00281   0.00281   2.05277
   R21        2.65714  -0.00230   0.00000  -0.00516  -0.00516   2.65199
   R22        2.05289   0.00106   0.00000   0.00298   0.00298   2.05587
   R23        2.65717  -0.00231   0.00000  -0.00516  -0.00516   2.65200
   R24        2.05289   0.00106   0.00000   0.00299   0.00299   2.05587
   R25        2.85673  -0.00075   0.00000  -0.00238  -0.00238   2.85435
   R26        2.07631  -0.00002   0.00000  -0.00006  -0.00006   2.07625
   R27        2.06977   0.00030   0.00000   0.00086   0.00086   2.07063
   R28        2.06976   0.00030   0.00000   0.00086   0.00086   2.07062
    A1        2.07533  -0.00073   0.00000  -0.00295  -0.00295   2.07239
    A2        2.10820   0.00030   0.00000   0.00108   0.00108   2.10928
    A3        2.09965   0.00043   0.00000   0.00187   0.00187   2.10152
    A4        2.10857   0.00013   0.00000   0.00048   0.00048   2.10905
    A5        2.09202  -0.00021   0.00000  -0.00114  -0.00114   2.09088
    A6        2.08259   0.00008   0.00000   0.00067   0.00067   2.08326
    A7        2.07060   0.00044   0.00000   0.00147   0.00147   2.07207
    A8        2.10627  -0.00021   0.00000  -0.00072  -0.00072   2.10555
    A9        2.10632  -0.00022   0.00000  -0.00075  -0.00075   2.10557
   A10        2.10856   0.00013   0.00000   0.00048   0.00048   2.10905
   A11        2.08254   0.00009   0.00000   0.00069   0.00069   2.08324
   A12        2.09208  -0.00022   0.00000  -0.00118  -0.00118   2.09090
   A13        2.07535  -0.00073   0.00000  -0.00296  -0.00296   2.07239
   A14        2.10824   0.00030   0.00000   0.00106   0.00106   2.10930
   A15        2.09959   0.00043   0.00000   0.00190   0.00190   2.10149
   A16        2.12795   0.00076   0.00000   0.00348   0.00348   2.13143
   A17        2.07764  -0.00039   0.00000  -0.00175  -0.00175   2.07589
   A18        2.07759  -0.00038   0.00000  -0.00173  -0.00173   2.07587
   A19        2.10846  -0.00005   0.00000  -0.00021  -0.00021   2.10825
   A20        2.10847  -0.00005   0.00000  -0.00023  -0.00023   2.10825
   A21        2.06625   0.00010   0.00000   0.00044   0.00044   2.06669
   A22        2.10335  -0.00017   0.00000  -0.00074  -0.00074   2.10261
   A23        2.08055   0.00014   0.00000   0.00074   0.00074   2.08129
   A24        2.09928   0.00002   0.00000   0.00000   0.00000   2.09928
   A25        2.10335  -0.00017   0.00000  -0.00074  -0.00074   2.10261
   A26        2.08054   0.00015   0.00000   0.00075   0.00075   2.08128
   A27        2.09929   0.00002   0.00000   0.00000   0.00000   2.09929
   A28        2.11578   0.00034   0.00000   0.00144   0.00144   2.11723
   A29        2.08466  -0.00042   0.00000  -0.00228  -0.00228   2.08237
   A30        2.08275   0.00008   0.00000   0.00084   0.00084   2.08358
   A31        2.11578   0.00034   0.00000   0.00144   0.00144   2.11723
   A32        2.08466  -0.00042   0.00000  -0.00229  -0.00229   2.08238
   A33        2.08274   0.00009   0.00000   0.00084   0.00084   2.08358
   A34        2.06184  -0.00043   0.00000  -0.00183  -0.00183   2.06000
   A35        2.11059   0.00022   0.00000   0.00091   0.00091   2.11150
   A36        2.11056   0.00021   0.00000   0.00089   0.00089   2.11145
   A37        1.93807  -0.00037   0.00000  -0.00240  -0.00240   1.93566
   A38        1.94585   0.00002   0.00000   0.00021   0.00021   1.94606
   A39        1.94586   0.00002   0.00000   0.00021   0.00021   1.94607
   A40        1.87235   0.00016   0.00000   0.00088   0.00088   1.87323
   A41        1.87237   0.00016   0.00000   0.00088   0.00088   1.87326
   A42        1.88592   0.00001   0.00000   0.00033   0.00033   1.88624
   A43        3.14152   0.00000   0.00000   0.00005   0.00005   3.14157
   A44        3.14152   0.00000   0.00000   0.00016   0.00016   3.14168
   A45        3.14152   0.00002   0.00000   0.00054   0.00054   3.14206
   A46        3.14212   0.00000   0.00000  -0.00008  -0.00008   3.14204
    D1        0.00006   0.00000   0.00000  -0.00006  -0.00006  -0.00001
    D2       -3.14154   0.00000   0.00000  -0.00002  -0.00002  -3.14157
    D3       -3.14156   0.00000   0.00000  -0.00004  -0.00004   3.14159
    D4        0.00002   0.00000   0.00000   0.00000   0.00000   0.00002
    D5        0.00004   0.00000   0.00000  -0.00006  -0.00006  -0.00001
    D6        3.14158   0.00000   0.00000   0.00005   0.00005  -3.14156
    D7       -3.14152   0.00000   0.00000  -0.00008  -0.00008   3.14158
    D8        0.00001   0.00000   0.00000   0.00002   0.00002   0.00003
    D9       -0.00014   0.00000   0.00000   0.00016   0.00016   0.00002
   D10       -3.14158   0.00000   0.00000   0.00009   0.00009  -3.14149
   D11        3.14146   0.00000   0.00000   0.00012   0.00012   3.14158
   D12        0.00002   0.00000   0.00000   0.00005   0.00005   0.00007
   D13        0.00013   0.00000   0.00000  -0.00014  -0.00014  -0.00002
   D14       -3.14144   0.00000   0.00000  -0.00014  -0.00014  -3.14158
   D15        3.14157   0.00000   0.00000  -0.00007  -0.00007   3.14150
   D16        0.00000   0.00000   0.00000  -0.00007  -0.00007  -0.00006
   D17       -0.00148   0.00000   0.00000   0.00025   0.00025  -0.00123
   D18       -3.13999   0.00000   0.00000   0.00013   0.00013  -3.13987
   D19        3.14049  -0.00001   0.00000  -0.00019  -0.00019   3.14031
   D20        0.00198  -0.00001   0.00000  -0.00031  -0.00031   0.00167
   D21       -0.00003   0.00000   0.00000   0.00003   0.00003   0.00000
   D22        3.14156   0.00000   0.00000   0.00004   0.00004  -3.14159
   D23        3.14153   0.00000   0.00000   0.00002   0.00002   3.14156
   D24       -0.00006   0.00000   0.00000   0.00003   0.00003  -0.00003
   D25       -0.00006   0.00000   0.00000   0.00007   0.00007   0.00002
   D26       -3.14159   0.00000   0.00000  -0.00003  -0.00003   3.14157
   D27        3.14154   0.00000   0.00000   0.00007   0.00007  -3.14158
   D28        0.00001   0.00000   0.00000  -0.00004  -0.00004  -0.00003
   D29       -3.13955   0.00000   0.00000  -0.00013  -0.00013  -3.13968
   D30       -0.00163  -0.00001   0.00000  -0.00025  -0.00025  -0.00188
   D31       -0.00131   0.00000   0.00000   0.00022   0.00022  -0.00108
   D32        3.13661   0.00000   0.00000   0.00010   0.00010   3.13671
   D33        3.13953   0.00000   0.00000   0.00015   0.00015   3.13968
   D34        0.00165   0.00001   0.00000   0.00024   0.00024   0.00189
   D35        0.00129   0.00000   0.00000  -0.00020  -0.00020   0.00109
   D36       -3.13660   0.00000   0.00000  -0.00011  -0.00011  -3.13671
   D37       -0.00188   0.00000   0.00000   0.00018   0.00018  -0.00170
   D38        3.13800   0.00000   0.00000   0.00019   0.00019   3.13819
   D39       -3.13976   0.00000   0.00000   0.00030   0.00030  -3.13946
   D40        0.00012   0.00001   0.00000   0.00031   0.00031   0.00043
   D41        0.00192   0.00000   0.00000  -0.00022  -0.00022   0.00170
   D42       -3.13801   0.00000   0.00000  -0.00018  -0.00018  -3.13819
   D43        3.13976  -0.00001   0.00000  -0.00031  -0.00031   3.13945
   D44       -0.00017  -0.00001   0.00000  -0.00027  -0.00027  -0.00043
   D45        0.00498  -0.00001   0.00000  -0.00059  -0.00059   0.00438
   D46       -3.11538   0.00002   0.00000   0.00114   0.00114  -3.11424
   D47       -3.13491  -0.00001   0.00000  -0.00060  -0.00060  -3.13551
   D48        0.02792   0.00002   0.00000   0.00113   0.00113   0.02905
   D49       -0.00500   0.00001   0.00000   0.00062   0.00062  -0.00438
   D50        3.11536  -0.00002   0.00000  -0.00112  -0.00112   3.11425
   D51        3.13494   0.00001   0.00000   0.00057   0.00057   3.13551
   D52       -0.02789  -0.00002   0.00000  -0.00116  -0.00116  -0.02905
   D53        1.56073  -0.00002   0.00000  -0.00091  -0.00091   1.55982
   D54       -2.63560  -0.00004   0.00000  -0.00127  -0.00127  -2.63686
   D55       -0.52617   0.00001   0.00000  -0.00056  -0.00056  -0.52672
   D56       -1.55904   0.00002   0.00000   0.00091   0.00091  -1.55813
   D57        0.52782  -0.00001   0.00000   0.00055   0.00055   0.52837
   D58        2.63725   0.00004   0.00000   0.00126   0.00126   2.63852
         Item               Value     Threshold  Converged?
 Maximum Force            0.023742     0.000450     NO 
 RMS     Force            0.002217     0.000300     NO 
 Maximum Displacement     0.111837     0.001800     NO 
 RMS     Displacement     0.010901     0.001200     NO 
 Predicted change in Energy=-1.259336D-03
 GradGradGradGradGradGradGradGradGradGradGradGradGradGradGradGradGradGrad

                          Input orientation:                          
 ---------------------------------------------------------------------
 Center     Atomic      Atomic             Coordinates (Angstroms)
 Number     Number       Type             X           Y           Z
 ---------------------------------------------------------------------
      1          6           0        3.687139   -1.218720    0.001120
      2          6           0        2.293692   -1.213770   -0.000030
      3          6           0        1.574793    0.000076   -0.000481
      4          6           0        2.293844    1.213843    0.000231
      5          6           0        3.687279    1.218620    0.001378
      6          6           0        4.361034   -0.000096    0.001814
      7          1           0        4.240187   -2.152041    0.001474
      8          1           0        1.750781   -2.154040   -0.000560
      9          1           0        1.751031    2.154170   -0.000093
     10          1           0        4.240463    2.151861    0.001927
     11          6           0        0.151249    0.000153   -0.001535
     12          6           0       -1.066062    0.000194   -0.002894
     13          6           0       -2.490140    0.000113   -0.003976
     14          6           0       -3.211771   -1.210890   -0.006248
     15          6           0       -3.211907    1.211044   -0.006520
     16          6           0       -4.604168   -1.203113   -0.009592
     17          1           0       -2.669277   -2.152006   -0.008959
     18          6           0       -4.604294    1.203114   -0.009857
     19          1           0       -2.669511    2.152216   -0.009445
     20          6           0       -5.326712   -0.000043   -0.008753
     21          1           0       -5.142042   -2.148755   -0.014533
     22          1           0       -5.142278    2.148693   -0.015008
     23          6           0       -6.836834   -0.000089    0.023017
     24          1           0       -7.207205    0.000880    1.057416
     25          1           0       -7.248970    0.886309   -0.472028
     26          1           0       -7.248890   -0.887445   -0.470363
     27         17           0        6.136840   -0.000182    0.003235
 ---------------------------------------------------------------------
                    Distance matrix (angstroms):
                    1          2          3          4          5
     1  C    0.000000
     2  C    1.393456   0.000000
     3  C    2.438744   1.410758   0.000000
     4  C    2.803325   2.427613   1.410768   0.000000
     5  C    2.437340   2.803321   2.438739   1.393443   0.000000
     6  C    1.392544   2.397271   2.786242   2.397274   1.392557
     7  H    1.084873   2.160832   3.425775   3.888113   3.415708
     8  H    2.150421   1.085754   2.161293   3.411386   3.889070
     9  H    3.889075   3.411378   2.161291   1.085754   2.150421
    10  H    3.415696   3.888109   3.425782   2.160834   1.084874
    11  C    3.740077   2.462453   1.423544   2.462471   3.740077
    12  C    4.907003   3.572347   2.640856   3.572383   4.907018
    13  C    6.296376   4.935441   4.064934   4.935551   6.296450
    14  C    6.898918   5.505467   4.937374   6.015910   7.314332
    15  C    7.314413   6.015928   4.937507   5.505756   6.899194
    16  C    8.291329   6.897875   6.295022   7.309196   8.637882
    17  H    6.424574   5.050884   4.758536   5.996799   7.194931
    18  C    8.637897   7.309148   6.295117   6.898154   8.291595
    19  H    7.195159   5.996943   4.758770   5.051290   6.424989
    20  C    9.095866   7.716461   6.901510   7.716637   9.096003
    21  H    8.878043   7.494301   7.052201   8.160863   9.449676
    22  H    9.449780   8.160885   7.052362   7.494671   8.878422
    23  C   10.594317   9.210866   8.411660   9.211050  10.594464
    24  H   11.013169   9.636421   8.845486   9.636330  11.013077
    25  H   11.146905   9.782409   8.880684   9.560105  10.951533
    26  H   10.951199   9.559737   8.880645   9.782670  11.147099
    27  Cl   2.736032   4.030210   4.562049   4.030196   2.736025
                    6          7          8          9         10
     6  C    0.000000
     7  H    2.155335   0.000000
     8  H    3.384214   2.489408   0.000000
     9  H    3.384225   4.973867   4.308210   0.000000
    10  H    2.155332   4.303901   4.973862   2.489434   0.000000
    11  C    4.209787   4.620753   2.683104   2.683113   4.620772
    12  C    5.427098   5.726116   3.546171   3.546214   5.726159
    13  C    6.851176   7.066052   4.756658   4.756838   7.066192
    14  C    7.668993   7.511158   5.051384   5.996088   8.175814
    15  C    7.669183   8.175825   5.996007   5.051760   7.511526
    16  C    9.045564   8.895123   6.425708   7.187489   9.459571
    17  H    7.352286   6.909472   4.420066   6.171091   8.140510
    18  C    9.045715   9.459494   7.187318   6.426100   8.895504
    19  H    7.352627   8.140679   6.171134   4.420552   6.909983
    20  C    9.687752   9.805955   7.398018   7.398321   9.806204
    21  H    9.742970   9.382243   6.892839   8.125874  10.321190
    22  H    9.743229  10.321203   8.125760   6.893327   9.382757
    23  C   11.197888  11.284137   8.853654   8.853970  11.284407
    24  H   11.616301  11.695848   9.274077   9.273886  11.695720
    25  H   11.653430  11.893549   9.511126   9.101111  11.568635
    26  H   11.653354  11.568090   9.100497   9.511632  11.893933
    27  Cl   1.775806   2.868413   4.886372   4.886365   2.868368
                   11         12         13         14         15
    11  C    0.000000
    12  C    1.217311   0.000000
    13  C    2.641390   1.424079   0.000000
    14  C    3.574429   2.463900   1.409711   0.000000
    15  C    3.574507   2.463904   1.409719   2.421934   0.000000
    16  C    4.905293   3.737137   2.432468   1.392423   2.786854
    17  H    3.547846   2.683711   2.159568   1.086281   3.406547
    18  C    4.905341   3.737132   2.432466   2.786853   1.392414
    19  H    3.547974   2.683708   2.159572   3.406543   1.086281
    20  C    5.477966   4.260654   2.836576   2.437034   2.437034
    21  H    5.712871   4.607790   3.413258   2.146068   3.874756
    22  H    5.712953   4.607791   3.413262   3.874756   2.146064
    23  C    6.988126   5.770830   4.346778   3.822039   3.822016
    24  H    7.434259   6.232006   4.835003   4.308510   4.307999
    25  H    7.467923   6.263676   4.863217   4.573202   4.076767
    26  H    7.467910   6.263688   4.863227   4.076561   4.573405
    27  Cl   5.985593   7.202904   8.626983   9.426687   9.426889
                   16         17         18         19         20
    16  C    0.000000
    17  H    2.155041   0.000000
    18  C    2.406227   3.873128   0.000000
    19  H    3.873129   4.304222   2.155037   0.000000
    20  C    1.403370   3.419490   1.403379   3.419494   0.000000
    21  H    1.087920   2.472773   3.394733   4.961027   2.156641
    22  H    3.394730   4.961027   1.087922   2.472776   2.156646
    23  C    2.536361   4.690448   2.536338   4.690421   1.510456
    24  H    3.060050   5.134672   3.059343   5.133917   2.161705
    25  H    3.402133   5.515377   2.703383   4.773673   2.166868
    26  H    2.703055   4.773349   3.402409   5.515677   2.166872
    27  Cl  10.808166   9.065219  10.808332   9.065582  11.463558
                   21         22         23         24         25
    21  H    0.000000
    22  H    4.297448   0.000000
    23  C    2.736877   2.736828   0.000000
    24  H    3.167791   3.166562   1.098707   0.000000
    25  H    3.722910   2.498126   1.095731   1.767746   0.000000
    26  H    2.497496   3.723345   1.095726   1.767758   1.773755
    27  Cl  11.481718  11.482007  12.973689  13.385620  13.423548
                   26         27
    26  H    0.000000
    27  Cl  13.423460   0.000000
 Stoichiometry    C15H11Cl
 Framework group  C1[X(C15H11Cl)]
 Deg. of freedom    75
 Full point group                 C1      NOp   1
 Largest Abelian subgroup         C1      NOp   1
 Largest concise Abelian subgroup C1      NOp   1
                         Standard orientation:                         
 ---------------------------------------------------------------------
 Center     Atomic      Atomic             Coordinates (Angstroms)
 Number     Number       Type             X           Y           Z
 ---------------------------------------------------------------------
      1          6           0       -3.694241    1.218676    0.001198
      2          6           0       -2.300795    1.213740    0.000047
      3          6           0       -1.581882   -0.000098   -0.000404
      4          6           0       -2.300921   -1.213873    0.000309
      5          6           0       -3.694355   -1.218665    0.001455
      6          6           0       -4.368124    0.000044    0.001892
      7          1           0       -4.247299    2.151991    0.001551
      8          1           0       -1.757893    2.154016   -0.000483
      9          1           0       -1.758098   -2.154194   -0.000015
     10          1           0       -4.247530   -2.151911    0.002004
     11          6           0       -0.158338   -0.000160   -0.001458
     12          6           0        1.058972   -0.000188   -0.002817
     13          6           0        2.483050   -0.000092   -0.003899
     14          6           0        3.204668    1.210918   -0.006170
     15          6           0        3.204830   -1.211016   -0.006442
     16          6           0        4.597066    1.203156   -0.009515
     17          1           0        2.662165    2.152029   -0.008882
     18          6           0        4.597217   -1.203071   -0.009780
     19          1           0        2.662443   -2.152193   -0.009367
     20          6           0        5.319622    0.000093   -0.008676
     21          1           0        5.134930    2.148803   -0.014456
     22          1           0        5.135211   -2.148644   -0.014930
     23          6           0        6.829744    0.000155    0.023095
     24          1           0        7.200115   -0.000809    1.057494
     25          1           0        7.241890   -0.886238   -0.471950
     26          1           0        7.241790    0.887517   -0.470286
     27         17           0       -6.143929    0.000112    0.003312
 ---------------------------------------------------------------------
 Rotational constants (GHZ):           2.7854020           0.1251037           0.1198163
 Standard basis: 6-31+G(d) (6D, 7F)
 There are   330 symmetry adapted cartesian basis functions of A   symmetry.
 There are   330 symmetry adapted basis functions of A   symmetry.
   330 basis functions,   580 primitive gaussians,   330 cartesian basis functions
    59 alpha electrons       59 beta electrons
       nuclear repulsion energy       946.6727591500 Hartrees.
 NAtoms=   27 NActive=   27 NUniq=   27 SFac= 1.00D+00 NAtFMM=   60 NAOKFM=F Big=F
 Integral buffers will be    131072 words long.
 Raffenetti 2 integral format.
 Two-electron integral symmetry is turned on.
 Nuclear repulsion after empirical dispersion term =      946.6536148390 Hartrees.
 One-electron integrals computed using PRISM.
 NBasis=   330 RedAO= T EigKep=  1.32D-06  NBF=   330
 NBsUse=   326 1.00D-06 EigRej=  4.62D-07 NBFU=   326
 Initial guess from the checkpoint file:  "molecule_24.chk"
 B after Tr=     0.000000    0.000000    0.000000
         Rot=    1.000000    0.000000   -0.000013   -0.000001 Ang=   0.00 deg.
 ExpMin= 4.38D-02 ExpMax= 2.52D+04 ExpMxC= 3.78D+03 IAcc=3 IRadAn=         5 AccDes= 0.00D+00
 Harris functional with IExCor=  402 and IRadAn=       5 diagonalized for initial guess.
 HarFok:  IExCor=  402 AccDes= 0.00D+00 IRadAn=         5 IDoV= 1 UseB2=F ITyADJ=14
 ICtDFT=  3500011 ScaDFX=  1.000000  1.000000  1.000000  1.000000
 FoFCou: FMM=F IPFlag=           0 FMFlag=      100000 FMFlg1=           0
         NFxFlg=           0 DoJE=T BraDBF=F KetDBF=T FulRan=T
         wScrn=  0.000000 ICntrl=       500 IOpCl=  0 I1Cent=   200000004 NGrid=           0
         NMat0=    1 NMatS0=      1 NMatT0=    0 NMatD0=    1 NMtDS0=    0 NMtDT0=    0
 Petite list used in FoFCou.
 Requested convergence on RMS density matrix=1.00D-08 within 128 cycles.
 Requested convergence on MAX density matrix=1.00D-06.
 Requested convergence on             energy=1.00D-06.
 No special actions if energy rises.
 SCF Done:  E(RB3LYP) =  -1038.41619512     A.U. after   12 cycles
            NFock= 12  Conv=0.54D-08     -V/T= 2.0070
 Calling FoFJK, ICntrl=      2127 FMM=F ISym2X=0 I1Cent= 0 IOpClX= 0 NMat=1 NMatS=1 NMatT=0.
 ***** Axes restored to original set *****
 -------------------------------------------------------------------
 Center     Atomic                   Forces (Hartrees/Bohr)
 Number     Number              X              Y              Z
 -------------------------------------------------------------------
      1        6          -0.003203521   -0.000259760   -0.000003906
      2        6           0.000047299   -0.000347022    0.000003752
      3        6           0.000191726    0.000003451    0.000000758
      4        6           0.000036663    0.000343402    0.000003294
      5        6          -0.003192530    0.000254183   -0.000003653
      6        6           0.012308398    0.000005677    0.000008903
      7        1           0.000082692    0.000094866   -0.000000492
      8        1          -0.000159828    0.000006163   -0.000000396
      9        1          -0.000158351   -0.000005506   -0.000000518
     10        1           0.000080755   -0.000093905   -0.000000352
     11        6          -0.000125535    0.000000682   -0.000000513
     12        6           0.000113166   -0.000004834   -0.000010500
     13        6          -0.000240647    0.000003993    0.000014101
     14        6           0.000218358   -0.000115125    0.000006864
     15        6           0.000219463    0.000113867    0.000007436
     16        6          -0.000154924    0.000094211   -0.000004727
     17        1          -0.000053923   -0.000024281   -0.000001314
     18        6          -0.000157233   -0.000094300   -0.000005146
     19        1          -0.000054272    0.000024512   -0.000001233
     20        6          -0.000215075    0.000000339   -0.000000528
     21        1           0.000035558   -0.000117765   -0.000007264
     22        1           0.000035705    0.000117856   -0.000007387
     23        6          -0.000030459    0.000000196   -0.000001655
     24        1          -0.000009845   -0.000000079    0.000003071
     25        1          -0.000029090   -0.000018983    0.000002459
     26        1          -0.000029241    0.000018964    0.000002442
     27       17          -0.005555308   -0.000000802   -0.000003494
 -------------------------------------------------------------------
 Cartesian Forces:  Max     0.012308398 RMS     0.001585694

 GradGradGradGradGradGradGradGradGradGradGradGradGradGradGradGradGradGrad
 Berny optimization.
 Using GEDIIS/GDIIS optimizer.
 FormGI is forming the generalized inverse of G from B-inverse, IUseBI=4.
 Internal  Forces:  Max     0.005555309 RMS     0.000690383
 Search for a local minimum.
 Step number   2 out of a maximum of  142
 All quantities printed in internal units (Hartrees-Bohrs-Radians)
 Mixed Optimization -- En-DIIS/RFO-DIIS
[...]
 2,0.00002171,0.00000055,0.00000011,-0.00005706,0.,0.00000117,0.0000016
 0,-0.00000002,0.00000005,-0.00000074,-0.00000035,-0.00000004,-0.000000
 74,0.00000035,-0.00000119,0.00000159,0.00000002,0.00000003,0.00077322,
 -0.00000003,-0.00000046,-0.00127465,-0.00000004,-0.00000073,-0.0670366
 0,0.00000391,0.07661287,0.03371186,0.00023370,-0.07661158,0.03371642,-
 0.00023735,0.04749739,-0.26783869,-0.00156044,-0.00180067,0.00165181,0
 .00011689,-0.04749179,-0.26782443,0.00158645,0.00180101,0.00165165,-0.
 00011610,-0.00001724,0.66073054,-0.00000406,-0.00003951,0.00000110,-0.
 00003896,-0.00003030,0.00003520,0.00012035,0.,-0.00018061,-0.00003896,
 0.00003030,0.00003526,-0.00000406,0.00003951,0.00000107,0.00006995,0.,
 0.00002307,-0.00000716,0.00000586,-0.00000812,0.00000638,-0.00000264,0
 .00000184,0.00000637,0.00000263,0.00000184,-0.00000716,-0.00000586,-0.
 00000812,-0.00004868,-0.00000004,0.00039320,-0.00010187,0.00000001,-0.
 00135642,-0.00024794,0.00000414,-0.00536772,-0.00019804,-0.00075254,0.
 00525164,-0.00018780,0.00074871,0.00525223,0.00053278,-0.00036116,-0.0
 6538233,0.00008894,-0.00001994,0.00749192,0.00053864,0.00038695,-0.065
 38816,0.00008867,0.00002072,0.00749310,-0.00546728,-0.00003108,0.17020
 813,-0.00001737,0.00001151,-0.00000113,-0.00010310,-0.00004635,-0.0000
 0007,0.00018190,0.00009545,0.00000472,-0.00006036,0.00002235,-0.000001
 70,-0.00001582,0.00000381,0.00000135,0.00005622,-0.00000121,-0.0000004
 9,-0.00001655,0.00000299,-0.00000010,0.00001088,-0.00000759,0.00000039
 ,0.00001357,0.00001204,-0.00000026,-0.00001033,-0.00000336,-0.00000003
 ,-0.00043882,0.00003599,0.00000434,-0.00034060,-0.00136878,-0.00004580
 ,-0.00501468,0.00165886,-0.00003489,-0.01162466,-0.02953092,0.00006022
 ,-0.00064968,0.00073965,0.00002033,-0.12605411,-0.11781576,-0.00100191
 ,0.00054813,0.00035109,0.00001705,-0.00128786,0.00332007,-0.00004481,0
 .00007366,-0.00010087,-0.00000283,0.01054600,0.01408450,0.00001113,0.1
 3279431,-0.00001248,-0.00001530,-0.00000075,-0.00002478,-0.00001108,0.
 00000096,0.00008620,-0.00001208,-0.00000109,-0.00002691,0.00000394,-0.
 00000070,-0.00001093,0.00001801,0.00000064,0.00004503,0.00000029,0.000
 00030,-0.00000559,0.00000326,-0.00000003,0.00000611,-0.00000262,0.0000
 0016,0.00000606,0.00000406,-0.00000010,-0.00000458,-0.00000325,0.,0.00
 000167,-0.00003274,0.00000148,0.00001263,0.00007206,-0.00000705,0.0009
 1096,0.00193449,-0.00004314,0.00194118,0.00365770,0.00004172,0.0009156
 3,0.00014506,-0.00000920,-0.11756189,-0.26777388,-0.00126277,-0.000325
 83,0.00091401,0.00003566,0.00419947,-0.00305321,-0.00008257,-0.0001159
 0,-0.00000505,0.00001394,-0.01589630,-0.02008553,-0.00013428,0.1265666
 8,0.28421807,-0.00000040,-0.00000040,0.00000634,-0.00000239,-0.0000000
 5,0.00000570,0.00000674,0.00000033,-0.00001570,-0.00000165,-0.00000009
 ,-0.00001602,-0.00000003,0.00000062,-0.00000587,0.00000221,-0.00000007
 ,0.00000033,-0.00000031,0.00000015,0.00000148,0.00000038,-0.00000028,0
 .00000316,0.00000030,0.00000023,0.00000415,-0.00000028,-0.00000015,0.0
 0000225,-0.00001259,0.00000380,-0.00017273,0.00000751,-0.00001476,0.00
 051073,-0.00004221,-0.00003155,0.00728595,0.00004165,-0.00007907,0.002
 89959,-0.00003549,0.00001421,-0.00061061,-0.00076397,-0.00156721,-0.03
 647088,-0.00000287,0.00001797,-0.00419317,0.00007472,0.00015498,0.0062
 2919,-0.00000185,-0.00000663,-0.00105798,-0.00069556,0.00002032,0.0036
 8139,0.00095441,0.00139614,0.02527042,-0.00001582,-0.00000381,0.000001
 36,-0.00006035,-0.00002235,-0.00000171,0.00018189,-0.00009544,0.000004
 72,-0.00010309,0.00004635,-0.00000006,-0.00001737,-0.00001152,-0.00000
 113,0.00005621,0.00000121,-0.00000049,-0.00001033,0.00000336,-0.000000
 03,0.00001357,-0.00001204,-0.00000027,0.00001088,0.00000759,0.00000039
 ,-0.00001655,-0.00000299,-0.00000010,-0.00043879,-0.00003601,0.0000043
 5,-0.00034061,0.00136883,-0.00004596,-0.00501474,-0.00165884,-0.000034
 72,-0.00064968,-0.00073966,0.00002043,-0.01162434,0.02953159,0.0000564
 0,-0.00128827,-0.00332002,-0.00004440,0.00007371,0.00010088,-0.0000028
 4,-0.12605256,0.11781118,-0.00101737,0.00054822,-0.00035109,0.00001711
 ,0.01054949,-0.01408603,0.00001287,0.00062339,-0.00081536,0.00004216,0
 .13278849,0.00001093,0.00001802,-0.00000064,0.00002691,0.00000394,0.00
 000070,-0.00008620,-0.00001208,0.00000108,0.00002478,-0.00001108,-0.00
 000097,0.00001248,-0.00001530,0.00000074,-0.00004503,0.00000028,-0.000
 00030,0.00000458,-0.00000325,0.,-0.00000606,0.00000406,0.00000010,-0.0
 0000611,-0.00000262,-0.00000016,0.00000559,0.00000326,0.00000003,-0.00
 000166,-0.00003273,-0.00000148,-0.00001259,0.00007203,0.00000709,-0.00
 091082,0.00193439,0.00004383,-0.00091542,0.00014517,0.00000913,-0.0019
 4114,0.00365724,-0.00004179,-0.00419954,-0.00305283,0.00008377,0.00011
 590,-0.00000506,-0.00001408,0.11755949,-0.26777399,0.00129298,0.000325
 81,0.00091405,-0.00003632,0.01589662,-0.02008536,0.00013737,0.00081520
 ,-0.00114830,-0.00002548,-0.12656418,0.28421866,-0.00000004,-0.0000006
 2,-0.00000586,-0.00000165,0.00000008,-0.00001603,0.00000673,-0.0000003
 3,-0.00001569,-0.00000239,0.00000006,0.00000571,-0.00000041,0.00000040
 ,0.00000633,0.00000222,0.00000007,0.00000033,-0.00000028,0.00000015,0.
 00000225,0.00000030,-0.00000023,0.00000415,0.00000038,0.00000028,0.000
 00316,-0.00000032,-0.00000015,0.00000148,-0.00001257,-0.00000381,-0.00
 017277,0.00000749,0.00001481,0.00051068,-0.00004206,0.00003229,0.00728
 657,-0.00003543,-0.00001434,-0.00061058,0.00004193,0.00007897,0.002900
 13,0.00007528,-0.00015381,0.00622943,-0.00000186,0.00000649,-0.0010581
 0,-0.00077945,0.00159761,-0.03647248,-0.00000292,-0.00001863,-0.004193
 63,-0.00069772,-0.00001715,0.00368102,0.00004206,0.00002566,0.00020943
 ,0.00097108,-0.00143000,0.02527063,0.00004079,0.00001491,0.00000027,-0
 .00006035,0.00006499,0.00000073,0.00023661,0.,-0.00000745,-0.00006036,
 -0.00006499,0.00000073,0.00004080,-0.00001491,0.00000027,-0.00003713,0
 .,-0.00000045,0.00000227,0.00000063,0.00000018,-0.00000253,0.00000187,
 -0.00000024,-0.00000253,-0.00000187,-0.00000024,0.00000227,-0.00000063
 ,0.00000018,-0.00065809,-0.00000005,-0.00003341,0.00113308,-0.00000005
 ,0.00021562,-0.00198036,0.00000380,-0.00015941,0.00293314,0.00126711,-
 0.00045443,0.00294068,-0.00127092,-0.00045433,-0.02216320,0.00452735,0
 .00048607,-0.00005590,-0.00017831,0.00012651,-0.02217282,-0.00453071,0
 .00048663,-0.00005589,0.00017826,0.00012648,-0.21190269,0.00000833,0.0
 0291586,0.00105124,-0.00151503,0.00043702,0.00105010,0.00151377,0.0004
 3692,0.48749242,-0.00001015,0.00000875,0.00000409,0.00000306,-0.000010
 91,0.00000176,-0.00000068,-0.00001229,0.,-0.00000269,-0.00001089,-0.00
 000176,0.00001016,0.00000855,-0.00000409,-0.00000016,0.00000089,0.,-0.
 00000029,-0.00000089,0.00000013,-0.00000502,0.00000331,-0.00000139,0.0
 0000500,0.00000330,0.00000139,0.00000033,-0.00000085,-0.00000013,0.000
 00103,0.00003536,0.,-0.00000133,0.00022182,-0.00000008,0.00000320,-0.0
 0048834,0.00000007,0.00160020,-0.00480587,-0.00115842,-0.00160613,-0.0
 0480880,0.00115988,0.02939849,0.00343100,-0.00155084,0.00139112,0.0000
 4485,0.00009477,-0.02940103,0.00343613,0.00155098,-0.00139178,0.000044
 86,-0.00009484,-0.00000825,-0.08968823,0.00000198,0.00120924,0.0006275
 3,0.00085239,-0.00120672,0.00062939,-0.00085304,0.00002666,0.58508885,
 0.00000303,0.00004627,-0.00000316,0.00008213,0.00000508,-0.00000767,-0
 .00029119,0.,0.00009167,0.00008213,-0.00000508,-0.00000767,0.00000303,
 -0.00004627,-0.00000314,-0.00008085,0.,-0.00000547,0.00000930,-0.00000
 753,0.00000313,-0.00000715,0.00000274,0.00000223,-0.00000715,-0.000002
 74,0.00000223,0.00000930,0.00000753,0.00000313,0.00040120,0.,-0.000051
 38,-0.00051737,-0.00000005,-0.00071455,0.00104651,-0.00000045,-0.00105
 448,-0.00125290,0.00044206,0.00651601,-0.00125352,-0.00044020,0.006509
 28,-0.00027055,-0.00031885,0.00460987,-0.00016085,0.00000248,0.0000153
 0,-0.00026582,0.00031937,0.00460302,-0.00016065,-0.00000248,0.00001549
 ,-0.00130608,0.00000134,-0.07091747,0.00023455,-0.00055655,-0.00328313
 ,0.00023477,0.00055616,-0.00327828,0.01186100,-0.00000573,0.53791890,-
 0.00002700,-0.00004401,-0.00000203,-0.00004391,-0.00003500,-0.00000163
 ,0.00013680,0.,-0.00000489,-0.00004391,0.00003501,-0.00000165,-0.00002
 700,0.00004400,-0.00000201,0.00008747,0.,0.00000044,-0.00000991,0.0000
 0640,0.00000100,0.00000879,-0.00000366,0.00000298,0.00000878,0.0000036
 5,0.00000298,-0.00000991,-0.00000640,0.00000100,-0.00003781,-0.0000000
 2,-0.00001373,-0.00014938,-0.00000007,0.00014595,0.00000316,0.00000045
 ,0.00024930,-0.00049342,-0.00021544,-0.00149994,-0.00049214,0.00021628
 ,-0.00149907,-0.00025994,-0.00132089,-0.00045982,-0.00010953,0.0000384
 4,0.00003935,-0.00025405,0.00131926,-0.00046187,-0.00010903,-0.0000384
 6,0.00003953,-0.01524962,0.00003064,0.03122982,0.00004299,0.00036348,0
 .00068316,0.00004328,-0.00036437,0.00068323,-0.07173648,0.00006870,0.0
 8078021,0.08085756,0.00000048,-0.00000200,-0.00000111,0.00000181,0.000
 00278,-0.00000008,0.00000016,0.00000507,-0.00000002,-0.00000188,0.0000
 0272,0.00000008,-0.00000045,-0.00000199,0.00000111,0.,0.00000073,0.,0.
 00000060,0.00000003,-0.00000015,0.00000001,-0.00000073,-0.00000006,-0.
 00000002,-0.00000074,0.00000005,-0.00000060,0.00000003,0.00000015,-0.0
 0000035,-0.00002820,0.00000006,0.00000064,0.00000175,-0.00000028,-0.00
 000105,0.00115262,-0.00000009,-0.00113811,-0.00057337,0.00039301,0.001
 14081,-0.00057354,-0.00039132,0.00185645,-0.00035215,0.00055967,0.0000
 1437,-0.00001841,-0.00006099,-0.00185839,-0.00035242,-0.00055888,-0.00
 001416,-0.00001837,0.00006085,0.00000456,0.00036827,0.00000145,0.00006
 079,-0.00013002,-0.00030577,-0.00006069,-0.00013097,0.00030399,0.00006
 483,-0.04667390,-0.00020878,-0.00007769,0.04574032,0.00001493,0.000009
 16,0.00000047,-0.00000771,0.00002014,-0.00000019,0.00003498,0.,0.00000
 586,-0.00000771,-0.00002014,-0.00000019,0.00001493,-0.00000916,0.00000
 047,-0.00002847,0.,-0.00000045,0.00000211,-0.00000109,-0.00000069,-0.0
 0000291,0.00000188,-0.00000105,-0.00000291,-0.00000188,-0.00000104,0.0
 0000211,0.00000109,-0.00000069,-0.00015322,0.00000001,0.00001112,0.000
 30555,0.00000005,-0.00008892,-0.00052358,0.00000035,-0.00005590,0.0005
 9082,0.00003866,0.00008182,0.00059180,-0.00003840,0.00008290,-0.000416
 05,0.00069585,0.00029744,0.00004479,-0.00000023,0.00003108,-0.00041601
 ,-0.00069566,0.00030132,0.00004486,0.00000026,0.00003094,0.00186876,0.
 00000218,0.00379350,0.00005417,0.00004912,-0.00030175,0.00005468,-0.00
 004829,-0.00030293,0.07658308,-0.00020909,-0.27702538,-0.08658972,0.00
 023067,0.30112852,-0.00000827,-0.00002017,0.00000093,-0.00002463,-0.00
 000832,0.00000012,0.00008320,0.00000662,-0.00000149,-0.00002603,0.0000
 1591,-0.00000091,-0.00000898,0.00001713,0.00000169,0.00003903,0.000000
 04,0.00000053,-0.00000426,0.00000294,-0.00000024,0.00000537,-0.0000034
 6,-0.00000064,0.00000369,0.00000086,-0.00000166,-0.00000526,-0.0000029
 6,-0.00000034,-0.00005581,-0.00000502,0.00001273,0.00002059,-0.0000971
 9,-0.00004914,0.00007932,-0.00016010,-0.00015914,-0.00013143,0.0014322
 1,0.00086774,-0.00006642,0.00009534,0.00039809,-0.00565282,-0.00195887
 ,-0.00050212,-0.00046197,-0.00000106,0.00004162,0.00123159,0.00171135,
 0.00056268,0.00003145,-0.00001809,-0.00001834,-0.01311033,0.02837824,-
 0.01460410,0.00004591,0.00003564,-0.00027116,-0.00027775,-0.00128874,-
 0.00041711,-0.08301719,0.07568168,-0.04472717,0.00399739,-0.00927342,0
 .00396598,0.09275458,0.00001062,0.00000698,-0.00000086,0.00000547,0.00
 000929,-0.00000244,-0.00001240,-0.00000421,-0.00001186,0.00000543,-0.0
 0001216,0.00000360,0.00001077,-0.00000577,-0.00000017,-0.00002856,-0.0
 0000031,0.00000044,0.00000190,-0.00000149,0.00000076,-0.00000382,0.000
 00331,0.00000165,-0.00000371,-0.00000223,0.00000021,0.00000289,0.00000
 144,0.00000071,-0.00003563,-0.00000153,-0.00001407,0.00011981,0.000054
 40,0.00016515,-0.00028193,0.00028901,-0.00005651,-0.00012204,-0.000089
 62,-0.00000086,0.00069341,0.00013140,-0.00059913,0.00038150,0.00045909
 ,0.00059591,0.00005856,-0.00000036,-0.00000539,-0.00204765,0.00036743,
 -0.00034823,0.00006199,0.00000589,0.00004039,0.00011921,0.00060811,-0.
 00202974,-0.00018893,0.00043159,0.00006216,-0.00007180,0.00024131,0.00
 049242,0.07763266,-0.22336875,0.09729461,-0.00096117,0.00081410,-0.000
 41256,-0.08496387,0.24001478,-0.00000306,-0.00001297,-0.00000069,-0.00
 001888,0.00000031,0.00000020,0.00007211,0.00000079,0.00000697,-0.00001
 964,0.00000257,-0.00000158,-0.00000340,0.00001202,-0.00000015,0.000024
 61,0.00000019,-0.00000117,-0.00000214,0.00000199,0.00000019,0.00000205
 ,-0.00000152,0.00000018,0.00000224,0.00000090,0.00000110,-0.00000305,-
 0.00000196,0.00000041,-0.00008554,0.00000111,-0.00000510,0.00011443,-0
 .00001110,-0.00000026,-0.00014982,-0.00048218,-0.00000991,0.00088214,0
 .00010517,0.00010759,-0.00022702,-0.00002356,-0.00004447,0.00002128,-0
 .00009907,0.00052050,0.00004079,-0.00001154,-0.00007853,0.00013640,0.0
 0030228,0.00040097,-0.00001894,0.00000494,-0.00002713,0.00267236,-0.00
 286009,0.00063856,0.00004110,0.00014189,-0.00003091,-0.00031217,-0.000
 39142,0.00004824,-0.04635042,0.09766829,-0.10213772,-0.01165966,0.0266
 7028,-0.01401815,0.04775654,-0.10812067,0.10673790,-0.00000895,-0.0000
 1709,0.00000168,-0.00002600,-0.00001588,-0.00000091,0.00008310,-0.0000
 0662,-0.00000151,-0.00002459,0.00000828,0.00000013,-0.00000825,0.00002
 013,0.00000093,0.00003896,-0.00000004,0.00000054,-0.00000525,0.0000029
 6,-0.00000034,0.00000369,-0.00000085,-0.00000165,0.00000536,0.00000346
 ,-0.00000063,-0.00000425,-0.00000293,-0.00000024,-0.00005581,0.0000050
 3,0.00001270,0.00002084,0.00009729,-0.00004892,0.00007961,0.00016097,-
 0.00015878,-0.00006649,-0.00009464,0.00039657,-0.00013002,-0.00143461,
 0.00086543,0.00123247,-0.00171332,0.00056184,0.00003151,0.00001804,-0.
 00001825,-0.00565956,0.00195897,-0.00050138,-0.00046233,0.00000112,0.0
 0004153,-0.01310467,-0.02840443,-0.01455786,-0.00027929,0.00129017,-0.
 00041640,0.00004601,-0.00003552,-0.00027032,-0.08303053,-0.07576495,-0
 .04459217,0.00399772,0.00928135,0.00394906,0.00461845,0.00958738,0.007
 12816,0.09276761,-0.00001077,-0.00000580,0.00000017,-0.00000553,-0.000
 01215,-0.00000360,0.00001274,-0.00000421,0.00001185,-0.00000556,0.0000
 0927,0.00000243,-0.00001062,0.00000702,0.00000086,0.00002863,-0.000000
 31,-0.00000044,-0.00000290,0.00000145,-0.00000071,0.00000371,-0.000002
 23,-0.00000021,0.00000383,0.00000332,-0.00000164,-0.00000191,-0.000001
 50,-0.00000076,0.00003507,-0.00000153,0.00001404,-0.00011898,0.0000544
 6,-0.00016484,0.00028068,0.00028826,0.00005642,-0.00069120,0.00013256,
 0.00059843,0.00012329,-0.00008918,-0.00000006,0.00204713,0.00036887,0.
 00034781,-0.00006203,0.00000590,-0.00004036,-0.00037954,0.00046006,-0.
 00059584,-0.00005847,-0.00000030,0.00000551,-0.00011089,0.00061316,0.0
 0202746,0.00007187,0.00024250,-0.00049163,0.00018925,0.00043128,-0.000
 06131,-0.07772771,-0.22371463,-0.09708293,0.00094085,0.00076804,0.0003
 8710,-0.00957601,-0.01995221,-0.01289606,0.08505509,0.24039742,-0.0000
 0338,-0.00001200,-0.00000015,-0.00001963,-0.00000254,-0.00000158,0.000
 07206,-0.00000078,0.00000697,-0.00001887,-0.00000032,0.00000018,-0.000
 00305,0.00001295,-0.00000069,0.00002456,-0.00000019,-0.00000117,-0.000
 00305,0.00000196,0.00000041,0.00000223,-0.00000090,0.00000111,0.000002
 05,0.00000151,0.00000018,-0.00000214,-0.00000198,0.00000019,-0.0000856
 0,-0.00000113,-0.00000509,0.00011460,0.00001105,-0.00000020,-0.0001501
 6,0.00048184,-0.00000997,-0.00022632,0.00002335,-0.00004529,0.00088187
 ,-0.00010526,0.00010954,0.00013600,-0.00030148,0.00039824,-0.00001885,
 -0.00000495,-0.00002718,0.00002091,0.00009813,0.00052457,0.00004080,0.
 00001150,-0.00007900,0.00267089,0.00285749,0.00062729,-0.00031183,0.00
 039070,0.00004982,0.00004090,-0.00014218,-0.00003202,-0.04621709,-0.09
 745632,-0.10180115,-0.01166290,-0.02669385,-0.01396855,0.00714522,0.01
 294489,0.00789285,0.04761114,0.10788792,0.10636059,-0.03804407,-0.0002
 4247,-0.00003699,0.00333497,-0.00485431,-0.00000168,-0.00168731,-0.000
 00003,0.00000068,0.00333490,0.00485443,-0.00000119,-0.03804452,0.00024
 178,-0.00003697,-0.15437423,-0.00000096,-0.00012361,0.00086545,-0.0001
 0995,0.00000294,-0.00140949,0.00030405,-0.00000127,-0.00140950,-0.0003
 0407,-0.00000131,0.00086543,0.00010996,0.00000296,0.00068241,0.,-0.000
 00395,-0.00073273,0.00000001,0.00000671,0.00072670,-0.00000006,0.00000
 581,-0.00022880,0.00015594,0.00000706,-0.00022884,-0.00015593,0.000007
 06,-0.00010800,0.00023430,0.00000480,0.00006167,0.00002685,-0.00000503
 ,-0.00010799,-0.00023427,0.00000486,0.00006167,-0.00002685,-0.00000503
 ,-0.00000301,-0.00000016,-0.00010782,-0.00007497,-0.00006532,-0.000003
 09,-0.00007496,0.00006533,-0.00000309,0.00001263,0.00000032,0.00014623
 ,-0.00013091,-0.00000002,0.00002570,-0.00005944,0.00002990,-0.00004044
 ,-0.00005932,-0.00003003,-0.00004037,0.22683227,-0.02716653,0.00339545
 ,-0.00002381,0.00169471,-0.00407194,-0.00000012,-0.00000003,0.00193834
 ,0.00000015,-0.00169458,-0.00407188,-0.00000075,0.02716583,0.00339591,
 0.00002378,-0.00000096,-0.03993619,-0.00000089,-0.00114652,0.00066607,
 -0.00000092,-0.00093020,0.00010413,-0.00000078,0.00093017,0.00010414,0
 .00000078,0.00114653,0.00066609,0.00000124,0.,0.00030294,0.00000005,0.
 ,-0.00000409,-0.00000003,0.,-0.00001343,0.00000002,-0.00000389,-0.0000
 1032,0.00000222,0.00000388,-0.00001032,-0.00000222,0.00000530,0.000004
 47,-0.00000190,0.00000275,0.00000475,-0.00000006,-0.00000530,0.0000044
 7,0.00000191,-0.00000275,0.00000475,0.00000006,0.,0.00000048,0.,0.0000
 0167,0.00000050,-0.00000013,-0.00000168,0.00000050,0.00000013,0.,-0.00
 000024,0.,0.,0.00000034,0.,-0.00000065,0.00000050,-0.00000059,0.000000
 64,0.00000050,0.00000059,0.00000158,0.03752407,-0.00003952,-0.00000069
 ,0.00382098,-0.00000079,-0.00000491,0.00471891,-0.00000098,0.00000013,
 -0.00078011,-0.00000093,0.00000406,0.00471889,-0.00003690,0.00000067,0
 .00382100,-0.00012142,-0.00000089,-0.02204030,0.00000303,-0.00000003,-
 0.00256499,-0.00000150,0.00000030,0.00010195,-0.00000141,-0.00000030,0
 .00010195,0.00000315,0.00000035,-0.00256499,0.00000085,0.00000004,-0.0
 0068109,-0.00000035,0.,-0.00003990,0.00000071,0.,0.00006513,-0.0000005
 5,0.00000006,0.00001319,-0.00000055,-0.00000006,0.00001320,-0.00000007
 ,0.00000061,-0.00000737,0.00000005,0.00000012,-0.00000320,-0.00000007,
 -0.00000061,-0.00000738,0.00000005,-0.00000013,-0.00000320,0.00000085,
 0.,-0.00000242,0.00000004,-0.00000013,-0.00000120,0.00000004,0.0000001
 3,-0.00000119,-0.00000008,0.,0.00000040,-0.00000003,0.,0.00000045,-0.0
 0000032,-0.00000041,0.00000010,-0.00000032,0.00000041,0.00000010,0.000
 19703,0.00000128,0.01132109\\-0.00000760,0.00000460,0.00000020,-0.0000
 0349,-0.00000632,0.00000115,0.00001775,0.00000006,-0.00000496,-0.00000
 325,0.00000643,0.00000113,-0.00000780,-0.00000449,0.00000028,-0.000000
 15,-0.00000009,-0.00000053,0.00000433,-0.00000018,-0.00000005,0.000000
 16,0.00000306,-0.00000001,0.00000014,-0.00000309,0.00000002,0.00000434
 ,0.00000015,-0.00000004,-0.00001006,0.,-0.00000002,0.00000170,-0.00000
 048,0.00000592,-0.00000452,0.00000033,0.00000019,0.00000505,-0.0000009
 7,-0.00000204,0.00000488,0.00000094,-0.00000202,-0.00000296,-0.0000002
 0,-0.00000136,-0.00000089,0.00000037,-0.00000008,-0.00000295,0.0000002
 9,-0.00000141,-0.00000091,-0.00000038,-0.00000009,-0.00000147,-0.00000
 003,0.00000559,0.00000053,-0.00000005,-0.00000010,0.00000052,0.0000000
 3,-0.00000008,-0.00000099,0.,-0.00000135,0.00000048,0.00000002,-0.0000
 0054,-0.00000070,-0.00000023,-0.00000002,-0.00000069,0.00000021,0.0000
 0002,0.00000857,0.,0.00000020\\\@


 ACCORDING TO HEN3RY, LIFE IS MUCH LIKE A SEWER........
 YOU GET OUT OF IT JUST WHAT YOU PUT INTO IT...........
                         TOM LEHRER - (THE 3 IS SILENT)
 Job cpu time:       0 days  2 hours  6 minutes 21.8 seconds.
 Elapsed time:       0 days  0 hours  4 minutes 20.4 seconds.
 File lengths (MBytes):  RWF=    314 Int=      0 D2E=      0 Chk=     10 Scr=      1
 Normal termination of Gaussian 16 at Mon Sep 18 03:53:10 2023.
