 Entering Gaussian System, Link 0=/home/ubuntu/g16/g16
 Input=/home/ubuntu/ML products/molecule_101.gjf
 Output=/home/ubuntu/ML products/molecule_101.log
 Initial command:
 /home/ubuntu/g16/l1.exe "/home/ubuntu/Scratch/Gau-272491.inp" -scrdir="/home/ubuntu/Scratch/"
 Entering Link 1 = /home/ubuntu/g16/l1.exe PID=    272493.
  
 Copyright (c) 1988-2017, Gaussian, Inc.  All Rights Reserved.
  
 This is part of the Gaussian(R) 16 program.  It is based on
 the Gaussian(R) 09 system (copyright 2009, Gaussian, Inc.),
 the Gaussian(R) 03 system (copyright 2003, Gaussian, Inc.),
 the Gaussian(R) 98 system (copyright 1998, Gaussian, Inc.),
 the Gaussian(R) 94 system (copyright 1995, Gaussian, Inc.),
 the Gaussian 92(TM) system (copyright 1992, Gaussian, Inc.),
 the Gaussian 90(TM) system (copyright 1990, Gaussian, Inc.),
 the Gaussian 88(TM) system (copyright 1988, Gaussian, Inc.),
 the Gaussian 86(TM) system (copyright 1986, Carnegie Mellon
 University), and the Gaussian 82(TM) system (copyright 1983,
 Carnegie Mellon University). Gaussian is a federally registered
 trademark of Gaussian, Inc.
  
 This software contains proprietary and confidential information,
 including trade secrets, belonging to Gaussian, Inc.
  
 This software is provided under written license and may be
 used, copied, transmitted, or stored only in accord with that
 written license.
  
 The following legend is applicable only to US Government
 contracts under FAR:
  
                    RESTRICTED RIGHTS LEGEND
  
 Use, reproduction and disclosure by the US Government is
 subject to restrictions as set forth in subparagraphs (a)
 and (c) of the Commercial Computer Software - Restricted
 Rights clause in FAR 52.227-19.
  
 Gaussian, Inc.
 340 Quinnipiac St., Bldg. 40, Wallingford CT 06492
  
  
 ---------------------------------------------------------------
 Warning -- This program may not be used in any manner that
 competes with the business of Gaussian, Inc. or will provide
 assistance to any competitor of Gaussian, Inc.  The licensee
 of this program is prohibited from giving any competitor of
 Gaussian, Inc. access to this program.  By using this program,
 the user acknowledges that Gaussian, Inc. is engaged in the
 business of creating and licensing software in the field of
 computational chemistry and represents and warrants to the
 licensee that it is not a competitor of Gaussian, Inc. and that
 it will not use this program in any manner prohibited above.
 ---------------------------------------------------------------
  

 Cite this work as:
 Gaussian 16, Revision B.01,
 M. J. Frisch, G. W. Trucks, H. B. Schlegel, G. E. Scuseria, 
 M. A. Robb, J. R. Cheeseman, G. Scalmani, V. Barone, 
 G. A. Petersson, H. Nakatsuji, X. Li, M. Caricato, A. V. Marenich, 
 J. Bloino, B. G. Janesko, R. Gomperts, B. Mennucci, H. P. Hratchian, 
 J. V. Ortiz, A. F. Izmaylov, J. L. Sonnenberg, D. Williams-Young, 
 F. Ding, F. Lipparini, F. Egidi, J. Goings, B. Peng, A. Petrone, 
 T. Henderson, D. Ranasinghe, V. G. Zakrzewski, J. Gao, N. Rega, 
 G. Zheng, W. Liang, M. Hada, M. Ehara, K. Toyota, R. Fukuda, 
 J. Hasegawa, M. Ishida, T. Nakajima, Y. Honda, O. Kitao, H. Nakai, 
 T. Vreven, K. Throssell, J. A. Montgomery, Jr., J. E. Peralta, 
 F. Ogliaro, M. J. Bearpark, J. J. Heyd, E. N. Brothers, K. N. Kudin, 
 V. N. Staroverov, T. A. Keith, R. Kobayashi, J. Normand, 
 K. Raghavachari, A. P. Rendell, J. C. Burant, S. S. Iyengar, 
 J. Tomasi, M. Cossi, J. M. Millam, M. Klene, C. Adamo, R. Cammi, 
 J. W. Ochterski, R. L. Martin, K. Morokuma, O. Farkas, 
 J. B. Foresman, and D. J. Fox, Gaussian, Inc., Wallingford CT, 2016.
 
 ******************************************
 Gaussian 16:  EM64L-G16RevB.01 20-Dec-2017
                15-Sep-2023 
 ******************************************
 %nprocshared=30
 Will use up to   30 processors via shared memory.
 %mem=30GB
 %chk=molecule_101.chk
 ----------------------------------------------------------------------
 # opt freq b3lyp/6-31+g(d) geom=connectivity empiricaldispersion=gd3 v
 olume
 ----------------------------------------------------------------------
 1/18=20,19=15,26=3,38=1,57=2/1,3;
 2/9=110,12=2,17=6,18=5,40=1/2;
 3/5=1,6=6,7=11,11=2,25=1,30=1,71=1,74=-5,124=31/1,2,3;
 4//1;
 5/5=2,38=5/2;
 6/7=2,8=2,9=2,10=2,28=1,44=1/1,4;
 7//1,2,3,16;
 1/18=20,19=15,26=3/3(2);
 2/9=110/2;
 99//99;
 2/9=110/2;
 3/5=1,6=6,7=11,11=2,25=1,30=1,71=1,74=-5,124=31/1,2,3;
 4/5=5,16=3,69=1/1;
 5/5=2,38=5/2;
 7//1,2,3,16;
 1/18=20,19=15,26=3/3(-5);
 2/9=110/2;
 6/7=2,8=2,9=2,10=2,19=2,28=1,44=1/1,4;
 99/9=1/99;
 --------------
 ML molecule101
 --------------
 Symbolic Z-matrix:
 Charge =  0 Multiplicity = 1
 C                    -4.74942  -0.23058  -0.40002 
 C                    -4.8202    0.23854  -1.71867 
 C                    -4.55025   1.58484  -1.99888 
 C                    -4.20951   2.46203  -0.96044 
 C                    -4.13873   1.99291   0.35822 
 C                    -4.40868   0.64661   0.63842 
 H                    -5.08036  -0.43121  -2.51155 
 H                    -3.87857   2.66266   1.15109 
 H                    -4.35464   0.28843   1.64524 
 O                    -3.91049   3.9533   -1.27081 
 C                    -3.81752   4.69985  -2.77936 
 C                    -4.13168   3.88761  -3.87731 
 C                    -3.30395   5.98751  -2.98454 
 C                    -3.93225   4.36302  -5.18043 
 C                    -3.10452   6.46292  -4.28767 
 H                    -3.06408   6.60768  -2.14623 
 C                    -3.41867   5.65068  -5.38561 
 H                    -4.17211   3.74285  -6.01874 
 H                    -4.60429   1.94302  -3.0057 
 H                    -4.5238    2.90445  -3.72065 
 H                    -4.95553  -1.25851  -0.18608 
 H                    -3.26641   6.01366  -6.38058 
 C                    -2.54015   7.87793  -4.51314 
 H                    -3.09115   8.57993  -3.9228 
 H                    -1.50983   7.90102  -4.22539 
 H                    -2.62736   8.13601  -5.54788 
 

 GradGradGradGradGradGradGradGradGradGradGradGradGradGradGradGradGradGrad
 Berny optimization.
 Initialization pass.
                           ----------------------------
                           !    Initial Parameters    !
                           ! (Angstroms and Degrees)  !
 --------------------------                            --------------------------
 ! Name  Definition              Value          Derivative Info.                !
 --------------------------------------------------------------------------------
 ! R1    R(1,2)                  1.4014         estimate D2E/DX2                !
 ! R2    R(1,6)                  1.4014         estimate D2E/DX2                !
 ! R3    R(1,21)                 1.07           estimate D2E/DX2                !
 ! R4    R(2,3)                  1.4014         estimate D2E/DX2                !
 ! R5    R(2,7)                  1.07           estimate D2E/DX2                !
 ! R6    R(3,4)                  1.4014         estimate D2E/DX2                !
 ! R7    R(3,19)                 1.07           estimate D2E/DX2                !
 ! R8    R(4,5)                  1.4014         estimate D2E/DX2                !
 ! R9    R(4,10)                 1.5523         estimate D2E/DX2                !
 ! R10   R(5,6)                  1.4014         estimate D2E/DX2                !
 ! R11   R(5,8)                  1.07           estimate D2E/DX2                !
 ! R12   R(6,9)                  1.07           estimate D2E/DX2                !
 ! R13   R(10,11)                1.6857         estimate D2E/DX2                !
 ! R14   R(11,12)                1.4014         estimate D2E/DX2                !
 ! R15   R(11,13)                1.4014         estimate D2E/DX2                !
 ! R16   R(12,14)                1.4014         estimate D2E/DX2                !
 ! R17   R(12,20)                1.07           estimate D2E/DX2                !
 ! R18   R(13,15)                1.4014         estimate D2E/DX2                !
 ! R19   R(13,16)                1.07           estimate D2E/DX2                !
 ! R20   R(14,17)                1.4014         estimate D2E/DX2                !
 ! R21   R(14,18)                1.07           estimate D2E/DX2                !
 ! R22   R(15,17)                1.4014         estimate D2E/DX2                !
 ! R23   R(15,23)                1.54           estimate D2E/DX2                !
 ! R24   R(17,22)                1.07           estimate D2E/DX2                !
 ! R25   R(23,24)                1.07           estimate D2E/DX2                !
 ! R26   R(23,25)                1.07           estimate D2E/DX2                !
 ! R27   R(23,26)                1.07           estimate D2E/DX2                !
 ! A1    A(2,1,6)              120.0            estimate D2E/DX2                !
 ! A2    A(2,1,21)             120.0            estimate D2E/DX2                !
 ! A3    A(6,1,21)             120.0            estimate D2E/DX2                !
 ! A4    A(1,2,3)              120.0            estimate D2E/DX2                !
 ! A5    A(1,2,7)              120.0            estimate D2E/DX2                !
 ! A6    A(3,2,7)              120.0            estimate D2E/DX2                !
 ! A7    A(2,3,4)              120.0            estimate D2E/DX2                !
 ! A8    A(2,3,19)             120.0            estimate D2E/DX2                !
 ! A9    A(4,3,19)             120.0            estimate D2E/DX2                !
 ! A10   A(3,4,5)              120.0            estimate D2E/DX2                !
 ! A11   A(3,4,10)             120.0            estimate D2E/DX2                !
 ! A12   A(5,4,10)             120.0            estimate D2E/DX2                !
 ! A13   A(4,5,6)              120.0            estimate D2E/DX2                !
 ! A14   A(4,5,8)              120.0            estimate D2E/DX2                !
 ! A15   A(6,5,8)              120.0            estimate D2E/DX2                !
 ! A16   A(1,6,5)              120.0            estimate D2E/DX2                !
 ! A17   A(1,6,9)              120.0            estimate D2E/DX2                !
 ! A18   A(5,6,9)              120.0            estimate D2E/DX2                !
 ! A19   A(4,10,11)            127.9526         estimate D2E/DX2                !
 ! A20   A(10,11,12)           115.5989         estimate D2E/DX2                !
 ! A21   A(10,11,13)           123.9281         estimate D2E/DX2                !
 ! A22   A(12,11,13)           120.0            estimate D2E/DX2                !
 ! A23   A(11,12,14)           120.0            estimate D2E/DX2                !
 ! A24   A(11,12,20)           120.0            estimate D2E/DX2                !
 ! A25   A(14,12,20)           120.0            estimate D2E/DX2                !
 ! A26   A(11,13,15)           120.0            estimate D2E/DX2                !
 ! A27   A(11,13,16)           120.0            estimate D2E/DX2                !
 ! A28   A(15,13,16)           120.0            estimate D2E/DX2                !
 ! A29   A(12,14,17)           120.0            estimate D2E/DX2                !
 ! A30   A(12,14,18)           120.0            estimate D2E/DX2                !
 ! A31   A(17,14,18)           120.0            estimate D2E/DX2                !
 ! A32   A(13,15,17)           120.0            estimate D2E/DX2                !
 ! A33   A(13,15,23)           120.0            estimate D2E/DX2                !
 ! A34   A(17,15,23)           120.0            estimate D2E/DX2                !
 ! A35   A(14,17,15)           120.0            estimate D2E/DX2                !
 ! A36   A(14,17,22)           120.0            estimate D2E/DX2                !
 ! A37   A(15,17,22)           120.0            estimate D2E/DX2                !
 ! A38   A(15,23,24)           109.4712         estimate D2E/DX2                !
 ! A39   A(15,23,25)           109.4712         estimate D2E/DX2                !
 ! A40   A(15,23,26)           109.4712         estimate D2E/DX2                !
 ! A41   A(24,23,25)           109.4713         estimate D2E/DX2                !
 ! A42   A(24,23,26)           109.4712         estimate D2E/DX2                !
 ! A43   A(25,23,26)           109.4712         estimate D2E/DX2                !
 ! D1    D(6,1,2,3)              0.0001         estimate D2E/DX2                !
 ! D2    D(6,1,2,7)           -179.9998         estimate D2E/DX2                !
 ! D3    D(21,1,2,3)          -179.9999         estimate D2E/DX2                !
 ! D4    D(21,1,2,7)             0.0002         estimate D2E/DX2                !
 ! D5    D(2,1,6,5)             -0.0001         estimate D2E/DX2                !
 ! D6    D(2,1,6,9)            179.9998         estimate D2E/DX2                !
 ! D7    D(21,1,6,5)           179.9999         estimate D2E/DX2                !
 ! D8    D(21,1,6,9)            -0.0002         estimate D2E/DX2                !
 ! D9    D(1,2,3,4)              0.0001         estimate D2E/DX2                !
 ! D10   D(1,2,3,19)          -179.9999         estimate D2E/DX2                !
 ! D11   D(7,2,3,4)            179.9999         estimate D2E/DX2                !
 ! D12   D(7,2,3,19)            -0.0001         estimate D2E/DX2                !
 ! D13   D(2,3,4,5)             -0.0002         estimate D2E/DX2                !
 ! D14   D(2,3,4,10)           179.9998         estimate D2E/DX2                !
 ! D15   D(19,3,4,5)           179.9998         estimate D2E/DX2                !
 ! D16   D(19,3,4,10)           -0.0002         estimate D2E/DX2                !
 ! D17   D(3,4,5,6)              0.0001         estimate D2E/DX2                !
 ! D18   D(3,4,5,8)           -180.0            estimate D2E/DX2                !
 ! D19   D(10,4,5,6)          -179.9999         estimate D2E/DX2                !
 ! D20   D(10,4,5,8)             0.0            estimate D2E/DX2                !
 ! D21   D(3,4,10,11)           -5.2547         estimate D2E/DX2                !
 ! D22   D(5,4,10,11)          174.7453         estimate D2E/DX2                !
 ! D23   D(4,5,6,1)              0.0            estimate D2E/DX2                !
 ! D24   D(4,5,6,9)           -179.9999         estimate D2E/DX2                !
 ! D25   D(8,5,6,1)           -179.9999         estimate D2E/DX2                !
 ! D26   D(8,5,6,9)              0.0002         estimate D2E/DX2                !
 ! D27   D(4,10,11,12)           4.3564         estimate D2E/DX2                !
 ! D28   D(4,10,11,13)        -167.7268         estimate D2E/DX2                !
 ! D29   D(10,11,12,14)       -172.4167         estimate D2E/DX2                !
 ! D30   D(10,11,12,20)          7.5833         estimate D2E/DX2                !
 ! D31   D(13,11,12,14)          0.0002         estimate D2E/DX2                !
 ! D32   D(13,11,12,20)       -179.9998         estimate D2E/DX2                !
 ! D33   D(10,11,13,15)        171.7535         estimate D2E/DX2                !
 ! D34   D(10,11,13,16)         -8.2466         estimate D2E/DX2                !
 ! D35   D(12,11,13,15)          0.0            estimate D2E/DX2                !
 ! D36   D(12,11,13,16)        179.9999         estimate D2E/DX2                !
 ! D37   D(11,12,14,17)         -0.0002         estimate D2E/DX2                !
 ! D38   D(11,12,14,18)        179.9998         estimate D2E/DX2                !
 ! D39   D(20,12,14,17)        179.9998         estimate D2E/DX2                !
 ! D40   D(20,12,14,18)         -0.0002         estimate D2E/DX2                !
 ! D41   D(11,13,15,17)         -0.0001         estimate D2E/DX2                !
 ! D42   D(11,13,15,23)        179.9999         estimate D2E/DX2                !
 ! D43   D(16,13,15,17)        179.9999         estimate D2E/DX2                !
 ! D44   D(16,13,15,23)          0.0            estimate D2E/DX2                !
 ! D45   D(12,14,17,15)          0.0001         estimate D2E/DX2                !
 ! D46   D(12,14,17,22)       -179.9999         estimate D2E/DX2                !
 ! D47   D(18,14,17,15)       -179.9999         estimate D2E/DX2                !
 ! D48   D(18,14,17,22)          0.0001         estimate D2E/DX2                !
 ! D49   D(13,15,17,14)          0.0001         estimate D2E/DX2                !
 ! D50   D(13,15,17,22)       -179.9999         estimate D2E/DX2                !
 ! D51   D(23,15,17,14)       -180.0            estimate D2E/DX2                !
 ! D52   D(23,15,17,22)          0.0            estimate D2E/DX2                !
 ! D53   D(13,15,23,24)        -49.4876         estimate D2E/DX2                !
 ! D54   D(13,15,23,25)         70.5124         estimate D2E/DX2                !
 ! D55   D(13,15,23,26)       -169.4876         estimate D2E/DX2                !
 ! D56   D(17,15,23,24)        130.5124         estimate D2E/DX2                !
 ! D57   D(17,15,23,25)       -109.4875         estimate D2E/DX2                !
 ! D58   D(17,15,23,26)         10.5124         estimate D2E/DX2                !
 --------------------------------------------------------------------------------
 Trust Radius=3.00D-01 FncErr=1.00D-07 GrdErr=1.00D-06 EigMax=2.50D+02 EigMin=1.00D-04
 Number of steps in this run=    138 maximum allowed number of steps=    156.
 GradGradGradGradGradGradGradGradGradGradGradGradGradGradGradGradGradGrad

                          Input orientation:                          
 ---------------------------------------------------------------------
 Center     Atomic      Atomic             Coordinates (Angstroms)
 Number     Number       Type             X           Y           Z
 ---------------------------------------------------------------------
      1          6           0       -4.749416   -0.230579   -0.400021
      2          6           0       -4.820199    0.238538   -1.718672
      3          6           0       -4.550247    1.584841   -1.998879
      4          6           0       -4.209510    2.462026   -0.960435
      5          6           0       -4.138728    1.992910    0.358216
      6          6           0       -4.408682    0.646607    0.638423
      7          1           0       -5.080361   -0.431212   -2.511547
      8          1           0       -3.878568    2.662660    1.151091
      9          1           0       -4.354640    0.288426    1.645243
     10          8           0       -3.910486    3.953296   -1.270814
     11          6           0       -3.817523    4.699853   -2.779363
     12          6           0       -4.131676    3.887607   -3.877310
     13          6           0       -3.303947    5.987511   -2.984541
     14          6           0       -3.932249    4.363019   -5.180435
     15          6           0       -3.104523    6.462923   -4.287666
     16          1           0       -3.064085    6.607679   -2.146234
     17          6           0       -3.418674    5.650677   -5.385613
     18          1           0       -4.172109    3.742850   -6.018741
     19          1           0       -4.604292    1.943023   -3.005698
     20          1           0       -4.523805    2.904453   -3.720651
     21          1           0       -4.955530   -1.258512   -0.186077
     22          1           0       -3.266408    6.013665   -6.380578
     23          6           0       -2.540155    7.877933   -4.513137
     24          1           0       -3.091152    8.579932   -3.922799
     25          1           0       -1.509830    7.901015   -4.225390
     26          1           0       -2.627356    8.136006   -5.547880
 ---------------------------------------------------------------------
                    Distance matrix (angstroms):
                    1          2          3          4          5
     1  C    0.000000
     2  C    1.401400   0.000000
     3  C    2.427296   1.401400   0.000000
     4  C    2.802800   2.427296   1.401400   0.000000
     5  C    2.427296   2.802800   2.427296   1.401400   0.000000
     6  C    1.401400   2.427296   2.802800   2.427296   1.401400
     7  H    2.146700   1.070000   2.146700   3.396345   3.872800
     8  H    3.396345   3.872800   3.396345   2.146700   1.070000
     9  H    2.146700   3.396345   3.872800   3.396345   2.146700
    10  O    4.355100   3.850660   2.559092   1.552300   2.559092
    11  C    5.553274   4.694012   3.293833   2.910330   4.156335
    12  C    5.425182   4.295286   3.001072   3.247537   4.640001
    13  C    6.887218   6.078827   4.680630   4.164864   5.275199
    14  C    6.679914   5.457435   4.268781   4.636706   6.027993
    15  C    7.913434   6.948831   5.578920   5.319647   6.529535
    16  H    7.256127   6.620627   5.240161   4.461452   5.359405
    17  C    7.824077   6.685954   5.411233   5.511362   6.847577
    18  H    6.905899   5.584874   4.578131   5.218081   6.612790
    19  H    3.396345   2.146700   1.070000   2.146700   3.396345
    20  H    4.572298   3.347069   2.169464   2.813062   4.197184
    21  H    1.070000   2.146700   3.396345   3.872800   3.396345
    22  H    8.772511   7.582857   6.360975   6.548399   7.895490
    23  C    9.356630   8.447957   7.068590   6.688832   7.805064
    24  H    9.632492   8.799240   7.400116   6.888766   7.925489
    25  H    9.552549   8.715259   7.354967   6.894258   7.926302
    26  H   10.050042   9.046624   7.694848   7.466050   8.654702
                    6          7          8          9         10
     6  C    0.000000
     7  H    3.396345   0.000000
     8  H    2.146700   4.942800   0.000000
     9  H    1.070000   4.280590   2.471400   0.000000
    10  O    3.850660   4.704459   2.744520   4.704459   0.000000
    11  C    5.334748   5.290965   4.427454   6.271070   1.685736
    12  C    5.565309   4.627906   5.181638   6.595635   2.616688
    13  C    6.547638   6.676779   5.337441   7.417441   2.728146
    14  C    6.920825   5.605869   6.556091   7.960565   3.931091
    15  C    7.732834   7.388345   6.679913   8.653706   4.006145
    16  H    6.715403   7.331085   5.205662   7.481563   2.920360
    17  C    7.893659   6.928985   7.201962   8.891721   4.478231
    18  H    7.345783   5.527036   7.256685   8.408509   4.759784
    19  H    3.872800   2.471400   4.280590   4.942800   2.744520
    20  H    4.910464   3.591427   4.920231   5.972021   2.734581
    21  H    2.146700   2.471400   4.280590   2.471400   5.425100
    22  H    8.909348   7.732804   8.266197   9.918488   5.547039
    23  C    9.073149   8.916327   7.814979   9.940755   5.271929
    24  H    9.245446   9.335379   7.834443  10.067202   5.395377
    25  H    9.202525   9.225614   7.871330  10.025407   5.484264
    26  H    9.875960   9.414551   8.740668  10.784667   6.118397
                   11         12         13         14         15
    11  C    0.000000
    12  C    1.401400   0.000000
    13  C    1.401400   2.427296   0.000000
    14  C    2.427296   1.401400   2.802800   0.000000
    15  C    2.427296   2.802800   1.401400   2.427296   0.000000
    16  H    2.146700   3.396345   1.070000   3.872800   2.146700
    17  C    2.802800   2.427296   2.427296   1.401400   1.401400
    18  H    3.396345   2.146700   3.872800   1.070000   3.396345
    19  H    2.875821   2.182769   4.248439   3.322273   4.931759
    20  H    2.146700   1.070000   3.396345   2.146700   3.872800
    21  H    6.597143   6.386429   7.941283   7.588960   8.936992
    22  H    3.872800   3.396345   3.396345   2.146700   2.146700
    23  C    3.838989   4.342800   2.548270   3.838989   1.540000
    24  H    4.109754   4.806524   2.765186   4.480117   2.148263
    25  H    4.202842   4.806524   2.901734   4.392908   2.148263
    26  H    4.570376   4.806524   3.412406   4.009139   2.148263
                   16         17         18         19         20
    16  H    0.000000
    17  C    3.396345   0.000000
    18  H    4.942800   2.146700   0.000000
    19  H    4.986976   4.562498   3.536183   0.000000
    20  H    4.280590   3.396345   2.471400   1.200826   0.000000
    21  H    8.324466   8.782596   7.723169   4.280590   5.478127
    22  H    4.280590   1.070000   2.471400   5.454344   4.280590
    23  C    2.736837   2.548270   4.693509   6.461903   5.412800
    24  H    2.654562   3.290537   5.381339   6.868714   5.856998
    25  H    2.900227   3.170777   5.253016   6.823563   5.856999
    26  H    3.754692   2.613307   4.680576   6.980259   5.856999
                   21         22         23         24         25
    21  H    0.000000
    22  H    9.701006   0.000000
    23  C   10.393849   2.736837   0.000000
    24  H   10.688029   3.557685   1.070000   0.000000
    25  H   10.587059   3.360431   1.070000   1.747303   0.000000
    26  H   11.064641   2.367722   1.070000   1.747303   1.747303
                   26
    26  H    0.000000
 Stoichiometry    C13H12O
 Framework group  C1[X(C13H12O)]
 Deg. of freedom    72
 Full point group                 C1      NOp   1
 Largest Abelian subgroup         C1      NOp   1
 Largest concise Abelian subgroup C1      NOp   1
                         Standard orientation:                         
 ---------------------------------------------------------------------
 Center     Atomic      Atomic             Coordinates (Angstroms)
 Number     Number       Type             X           Y           Z
 ---------------------------------------------------------------------
      1          6           0        4.402574    0.541430    0.157300
      2          6           0        3.284117    1.379867    0.057300
      3          6           0        2.001756    0.826610   -0.058370
      4          6           0        1.837852   -0.565084   -0.074039
      5          6           0        2.956309   -1.403521    0.025959
      6          6           0        4.238670   -0.850264    0.141628
      7          1           0        3.409262    2.442456    0.069263
      8          1           0        2.831165   -2.466110    0.013995
      9          1           0        5.092637   -1.490430    0.217977
     10          8           0        0.417409   -1.177915   -0.202160
     11          6           0       -1.062708   -0.371159   -0.212468
     12          6           0       -0.989832    1.028091   -0.185791
     13          6           0       -2.303082   -1.010768   -0.084824
     14          6           0       -2.157331    1.787731   -0.031468
     15          6           0       -3.470581   -0.251128    0.069495
     16          1           0       -2.358724   -2.079126   -0.105193
     17          6           0       -3.397706    1.148122    0.096174
     18          1           0       -2.101689    2.856089   -0.011097
     19          1           0        1.147790    1.466775   -0.134723
     20          1           0       -0.042779    1.516447   -0.283252
     21          1           0        5.381685    0.963854    0.245617
     22          1           0       -4.289117    1.728124    0.214002
     23          6           0       -4.833631   -0.953995    0.209762
     24          1           0       -4.942017   -1.680531   -0.568247
     25          1           0       -4.888139   -1.439811    1.161556
     26          1           0       -5.617789   -0.230000    0.133434
 ---------------------------------------------------------------------
 Rotational constants (GHZ):           2.1903811           0.3021539           0.2669453
 Standard basis: 6-31+G(d) (6D, 7F)
 There are   290 symmetry adapted cartesian basis functions of A   symmetry.
 There are   290 symmetry adapted basis functions of A   symmetry.
   290 basis functions,   496 primitive gaussians,   290 cartesian basis functions
    49 alpha electrons       49 beta electrons
       nuclear repulsion energy       767.6739759446 Hartrees.
 NAtoms=   26 NActive=   26 NUniq=   26 SFac= 1.00D+00 NAtFMM=   60 NAOKFM=F Big=F
 Integral buffers will be    131072 words long.
 Raffenetti 2 integral format.
 Two-electron integral symmetry is turned on.
 Nuclear repulsion after empirical dispersion term =      767.6555371624 Hartrees.
 One-electron integrals computed using PRISM.
 NBasis=   290 RedAO= T EigKep=  1.40D-06  NBF=   290
 NBsUse=   289 1.00D-06 EigRej=  4.42D-07 NBFU=   289
 ExpMin= 4.38D-02 ExpMax= 5.48D+03 ExpMxC= 8.25D+02 IAcc=3 IRadAn=         5 AccDes= 0.00D+00
 Harris functional with IExCor=  402 and IRadAn=       5 diagonalized for initial guess.
 HarFok:  IExCor=  402 AccDes= 0.00D+00 IRadAn=         5 IDoV= 1 UseB2=F ITyADJ=14
 ICtDFT=  3500011 ScaDFX=  1.000000  1.000000  1.000000  1.000000
 FoFCou: FMM=F IPFlag=           0 FMFlag=      100000 FMFlg1=           0
         NFxFlg=           0 DoJE=T BraDBF=F KetDBF=T FulRan=T
         wScrn=  0.000000 ICntrl=       500 IOpCl=  0 I1Cent=   200000004 NGrid=           0
         NMat0=    1 NMatS0=      1 NMatT0=    0 NMatD0=    1 NMtDS0=    0 NMtDT0=    0
 Petite list used in FoFCou.
 Requested convergence on RMS density matrix=1.00D-08 within 128 cycles.
 Requested convergence on MAX density matrix=1.00D-06.
 Requested convergence on             energy=1.00D-06.
 No special actions if energy rises.
 SCF Done:  E(RB3LYP) =  -577.777327314     A.U. after   15 cycles
            NFock= 15  Conv=0.76D-08     -V/T= 2.0104

 **********************************************************************

            Population analysis using the SCF Density.

 **********************************************************************

 Orbital symmetries:
       Occupied  (A) (A) (A) (A) (A) (A) (A) (A) (A) (A) (A) (A)
                 (A) (A) (A) (A) (A) (A) (A) (A) (A) (A) (A) (A)
                 (A) (A) (A) (A) (A) (A) (A) (A) (A) (A) (A) (A)
                 (A) (A) (A) (A) (A) (A) (A) (A) (A) (A) (A) (A)
                 (A)
       Virtual   (A) (A) (A) (A) (A) (A) (A) (A) (A) (A) (A) (A)
                 (A) (A) (A) (A) (A) (A) (A) (A) (A) (A) (A) (A)
                 (A) (A) (A) (A) (A) (A) (A) (A) (A) (A) (A) (A)
                 (A) (A) (A) (A) (A) (A) (A) (A) (A) (A) (A) (A)
                 (A) (A) (A) (A) (A) (A) (A) (A) (A) (A) (A) (A)
                 (A) (A) (A) (A) (A) (A) (A) (A) (A) (A) (A) (A)
                 (A) (A) (A) (A) (A) (A) (A) (A) (A) (A) (A) (A)
                 (A) (A) (A) (A) (A) (A) (A) (A) (A) (A) (A) (A)
                 (A) (A) (A) (A) (A) (A) (A) (A) (A) (A) (A) (A)
                 (A) (A) (A) (A) (A) (A) (A) (A) (A) (A) (A) (A)
                 (A) (A) (A) (A) (A) (A) (A) (A) (A) (A) (A) (A)
                 (A) (A) (A) (A) (A) (A) (A) (A) (A) (A) (A) (A)
                 (A) (A) (A) (A) (A) (A) (A) (A) (A) (A) (A) (A)
                 (A) (A) (A) (A) (A) (A) (A) (A) (A) (A) (A) (A)
                 (A) (A) (A) (A) (A) (A) (A) (A) (A) (A) (A) (A)
                 (A) (A) (A) (A) (A) (A) (A) (A) (A) (A) (A) (A)
                 (A) (A) (A) (A) (A) (A) (A) (A) (A) (A) (A) (A)
                 (A) (A) (A) (A) (A) (A) (A) (A) (A) (A) (A) (A)
                 (A) (A) (A) (A) (A) (A) (A) (A) (A) (A) (A) (A)
                 (A) (A) (A) (A) (A) (A) (A) (A) (A) (A) (A) (A)
 The electronic state is 1-A.
 Alpha  occ. eigenvalues --  -19.18041 -10.27730 -10.26600 -10.22021 -10.21078
 Alpha  occ. eigenvalues --  -10.20800 -10.20335 -10.20249 -10.20205 -10.20168
 Alpha  occ. eigenvalues --  -10.20095 -10.19690 -10.19552 -10.19118  -0.96596
 Alpha  occ. eigenvalues --   -0.87164  -0.85566  -0.78621  -0.76181  -0.75788
 Alpha  occ. eigenvalues --   -0.74070  -0.70494  -0.62863  -0.61593  -0.60513
 Alpha  occ. eigenvalues --   -0.59446  -0.54067  -0.52147  -0.48026  -0.47586
 Alpha  occ. eigenvalues --   -0.46760  -0.45699  -0.44689  -0.43958  -0.43829
 Alpha  occ. eigenvalues --   -0.41007  -0.40489  -0.39247  -0.39165  -0.37244
 Alpha  occ. eigenvalues --   -0.36926  -0.36471  -0.33840  -0.32393  -0.31293
 Alpha  occ. eigenvalues --   -0.26797  -0.26250  -0.25719  -0.22893
 Alpha virt. eigenvalues --   -0.03093  -0.02693  -0.01620  -0.01433  -0.00465
 Alpha virt. eigenvalues --    0.00449   0.01090   0.01683   0.02706   0.03113
 Alpha virt. eigenvalues --    0.04093   0.04514   0.04897   0.05716   0.06460
 Alpha virt. eigenvalues --    0.06583   0.06922   0.07270   0.07833   0.08747
 Alpha virt. eigenvalues --    0.09145   0.09312   0.09763   0.10989   0.11615
 Alpha virt. eigenvalues --    0.12427   0.12572   0.12774   0.13043   0.13359
 Alpha virt. eigenvalues --    0.13900   0.14160   0.14780   0.14913   0.15807
 Alpha virt. eigenvalues --    0.16054   0.16674   0.17207   0.17395   0.17950
 Alpha virt. eigenvalues --    0.18187   0.19147   0.20154   0.20288   0.20518
 Alpha virt. eigenvalues --    0.20658   0.21390   0.21502   0.21783   0.22714
 Alpha virt. eigenvalues --    0.22878   0.23151   0.23784   0.24539   0.25116
 Alpha virt. eigenvalues --    0.25644   0.25794   0.26727   0.26985   0.27472
 Alpha virt. eigenvalues --    0.28208   0.28367   0.28601   0.29338   0.29897
 Alpha virt. eigenvalues --    0.30274   0.30912   0.31419   0.31920   0.32414
 Alpha virt. eigenvalues --    0.33249   0.34078   0.34741   0.35501   0.36272
 Alpha virt. eigenvalues --    0.37111   0.37681   0.38956   0.40190   0.41388
 Alpha virt. eigenvalues --    0.41930   0.43354   0.45790   0.50322   0.55256
 Alpha virt. eigenvalues --    0.57939   0.59401   0.61464   0.63069   0.65746
 Alpha virt. eigenvalues --    0.66242   0.66498   0.67547   0.68062   0.69521
 Alpha virt. eigenvalues --    0.69867   0.70611   0.71995   0.72452   0.72990
 Alpha virt. eigenvalues --    0.73584   0.74159   0.74337   0.75752   0.76463
 Alpha virt. eigenvalues --    0.76963   0.77568   0.78150   0.79217   0.80207
 Alpha virt. eigenvalues --    0.80946   0.81785   0.83051   0.84427   0.88355
 Alpha virt. eigenvalues --    0.90241   0.90700   0.93803   0.94106   0.94686
 Alpha virt. eigenvalues --    0.95517   0.96918   0.97001   0.98802   1.02308
 Alpha virt. eigenvalues --    1.03509   1.04759   1.07854   1.09277   1.10359
 Alpha virt. eigenvalues --    1.12250   1.13460   1.14426   1.14910   1.15838
 Alpha virt. eigenvalues --    1.17501   1.19902   1.20023   1.20362   1.21449
 Alpha virt. eigenvalues --    1.22738   1.24005   1.24774   1.25691   1.28271
 Alpha virt. eigenvalues --    1.29577   1.32596   1.33707   1.35938   1.37377
 Alpha virt. eigenvalues --    1.38835   1.39740   1.42044   1.44556   1.45026
 Alpha virt. eigenvalues --    1.46547   1.47090   1.47753   1.48257   1.48575
 Alpha virt. eigenvalues --    1.49484   1.50287   1.52614   1.56300   1.65539
 Alpha virt. eigenvalues --    1.72084   1.77387   1.79004   1.81524   1.82383
 Alpha virt. eigenvalues --    1.83698   1.84416   1.85677   1.88480   1.90638
 Alpha virt. eigenvalues --    1.92409   1.95880   1.96386   1.97754   1.97931
 Alpha virt. eigenvalues --    1.98612   2.00950   2.03082   2.09909   2.10806
 Alpha virt. eigenvalues --    2.11802   2.12991   2.14058   2.14937   2.16503
 Alpha virt. eigenvalues --    2.16846   2.17843   2.21963   2.22547   2.25588
 Alpha virt. eigenvalues --    2.26049   2.28894   2.29443   2.29973   2.31317
 Alpha virt. eigenvalues --    2.36934   2.38122   2.38755   2.39812   2.45488
 Alpha virt. eigenvalues --    2.49297   2.61109   2.62766   2.63281   2.63473
 Alpha virt. eigenvalues --    2.64225   2.68261   2.72336   2.73155   2.73894
 Alpha virt. eigenvalues --    2.76411   2.77924   2.80163   2.81184   2.85821
 Alpha virt. eigenvalues --    2.94969   3.01462   3.07196   3.07744   3.39436
 Alpha virt. eigenvalues --    3.41298   4.21682   4.23537   4.26704   4.28068
 Alpha virt. eigenvalues --    4.28180   4.33273   4.34741   4.38714   4.40556
 Alpha virt. eigenvalues --    4.42030   4.45650   4.47298   4.72033   4.73681
          Condensed to atoms (all electrons):
               1          2          3          4          5          6
     1  C    5.401619   0.202072   0.080899  -0.726963   0.350979   0.394473
     2  C    0.202072   9.653083  -3.623232   0.210110  -0.426617   0.409749
     3  C    0.080899  -3.623232  11.222307  -0.515678  -1.040929  -0.642830
     4  C   -0.726963   0.210110  -0.515678   9.716106  -2.921071   0.066478
     5  C    0.350979  -0.426617  -1.040929  -2.921071  10.345107   0.220247
     6  C    0.394473   0.409749  -0.642830   0.066478   0.220247   5.420145
     7  H   -0.042676   0.349276  -0.026240   0.041126  -0.039147   0.011396
     8  H    0.019857  -0.036785   0.076678   0.013148   0.287137  -0.066609
     9  H   -0.012380   0.022882  -0.024037   0.026830  -0.038516   0.320687
    10  O   -0.021151   0.049539  -0.109637   0.307260  -0.212960   0.026483
    11  C    0.031088   0.006394   0.295502  -0.501970   0.490043  -0.056704
    12  C   -0.013280   0.068972  -0.095661   0.310682  -0.352591   0.044626
    13  C    0.014716  -0.571862  -0.737515   0.438262   0.489430  -0.030774
    14  C   -0.030325   0.070733   0.356028  -0.217036  -0.564837   0.026063
    15  C   -0.001676   0.022075   0.121124  -0.129635  -0.086677  -0.002456
    16  H    0.000045  -0.000026   0.004719  -0.004968  -0.002299  -0.000276
    17  C    0.000976   0.026876   0.083435  -0.017652  -0.009193  -0.000349
    18  H    0.000179   0.004280  -0.001897  -0.004930  -0.000654   0.000027
    19  H    0.008776   0.007009   0.105785   0.039665   0.053319   0.005221
    20  H   -0.007898  -0.015261  -0.033888   0.066539   0.003971   0.004339
    21  H    0.296755  -0.027034   0.052467  -0.008264   0.013901  -0.035641
    22  H    0.000000  -0.000095  -0.000539   0.000641   0.000045  -0.000001
    23  C    0.000209  -0.009391  -0.026767  -0.022770   0.008645   0.000040
    24  H    0.000000  -0.000007  -0.000064  -0.000016  -0.000019   0.000000
    25  H    0.000000   0.000006   0.000017   0.000117   0.000078   0.000000
    26  H    0.000000  -0.000003  -0.000049  -0.000020  -0.000002   0.000000
               7          8          9         10         11         12
     1  C   -0.042676   0.019857  -0.012380  -0.021151   0.031088  -0.013280
     2  C    0.349276  -0.036785   0.022882   0.049539   0.006394   0.068972
     3  C   -0.026240   0.076678  -0.024037  -0.109637   0.295502  -0.095661
     4  C    0.041126   0.013148   0.026830   0.307260  -0.501970   0.310682
     5  C   -0.039147   0.287137  -0.038516  -0.212960   0.490043  -0.352591
     6  C    0.011396  -0.066609   0.320687   0.026483  -0.056704   0.044626
     7  H    0.540842   0.000016  -0.000180  -0.000295  -0.004493  -0.001562
     8  H    0.000016   0.520531  -0.005361  -0.004454  -0.003215   0.001973
     9  H   -0.000180  -0.005361   0.530419  -0.000149   0.000360   0.000030
    10  O   -0.000295  -0.004454  -0.000149   8.389270   0.390109  -0.071382
    11  C   -0.004493  -0.003215   0.000360   0.390109  13.327279  -0.931361
    12  C   -0.001562   0.001973   0.000030  -0.071382  -0.931361  11.552677
    13  C   -0.000593   0.000260  -0.000122  -0.308377  -7.376487   0.714606
    14  C    0.004587  -0.000007   0.000049  -0.013654  -0.272355  -4.221340
    15  C    0.000001  -0.000021   0.000007   0.033729   1.265406  -1.313532
    16  H    0.000000  -0.000001   0.000000  -0.002173  -0.000745   0.057442
    17  C    0.000163   0.000022  -0.000002   0.009740   0.834920  -0.197693
    18  H    0.000000   0.000000   0.000000  -0.000196   0.015557  -0.006636
    19  H   -0.008997  -0.000195   0.000015  -0.012327   0.063719  -0.033318
    20  H    0.000300   0.000005   0.000000  -0.010692   0.005441   0.077785
    21  H   -0.004653  -0.000152  -0.004833   0.000068   0.000621  -0.000443
    22  H    0.000000   0.000000   0.000000   0.000053  -0.011059   0.041043
    23  C   -0.000001   0.000006   0.000000  -0.007925  -1.314602   0.022811
    24  H    0.000000   0.000000   0.000000  -0.000002  -0.017790   0.002185
    25  H    0.000000   0.000000   0.000000  -0.000012   0.009147   0.009554
    26  H    0.000000   0.000000   0.000000   0.000008  -0.017592  -0.005444
              13         14         15         16         17         18
     1  C    0.014716  -0.030325  -0.001676   0.000045   0.000976   0.000179
     2  C   -0.571862   0.070733   0.022075  -0.000026   0.026876   0.004280
     3  C   -0.737515   0.356028   0.121124   0.004719   0.083435  -0.001897
     4  C    0.438262  -0.217036  -0.129635  -0.004968  -0.017652  -0.004930
     5  C    0.489430  -0.564837  -0.086677  -0.002299  -0.009193  -0.000654
     6  C   -0.030774   0.026063  -0.002456  -0.000276  -0.000349   0.000027
     7  H   -0.000593   0.004587   0.000001   0.000000   0.000163   0.000000
     8  H    0.000260  -0.000007  -0.000021  -0.000001   0.000022   0.000000
     9  H   -0.000122   0.000049   0.000007   0.000000  -0.000002   0.000000
    10  O   -0.308377  -0.013654   0.033729  -0.002173   0.009740  -0.000196
    11  C   -7.376487  -0.272355   1.265406  -0.000745   0.834920   0.015557
    12  C    0.714606  -4.221340  -1.313532   0.057442  -0.197693  -0.006636
    13  C   16.957694  -0.879170  -2.201668   0.222640  -1.988902  -0.033706
    14  C   -0.879170  10.504758   1.177027  -0.033983  -0.154287   0.356216
    15  C   -2.201668   1.177027   7.892712  -0.035036   0.232660   0.007499
    16  H    0.222640  -0.033983  -0.035036   0.522148   0.060949   0.000018
    17  C   -1.988902  -0.154287   0.232660   0.060949   7.819153  -0.045745
    18  H   -0.033706   0.356216   0.007499   0.000018  -0.045745   0.535812
    19  H    0.010975  -0.038212   0.002882   0.000004  -0.003547   0.000318
    20  H    0.027278   0.072669   0.005967  -0.000204   0.017496  -0.008804
    21  H    0.000059  -0.000113  -0.000002   0.000000  -0.000001   0.000000
    22  H    0.040205  -0.009479  -0.012350  -0.000138   0.251692  -0.004104
    23  C    1.182782   0.115097  -1.083154   0.010918  -0.326415   0.002465
    24  H    0.010623  -0.002768  -0.099001   0.001442   0.018285   0.000002
    25  H   -0.044800  -0.007102  -0.064308   0.000720   0.036153   0.000003
    26  H    0.049388   0.005229  -0.144081   0.000098  -0.045786  -0.000002
              19         20         21         22         23         24
     1  C    0.008776  -0.007898   0.296755   0.000000   0.000209   0.000000
     2  C    0.007009  -0.015261  -0.027034  -0.000095  -0.009391  -0.000007
     3  C    0.105785  -0.033888   0.052467  -0.000539  -0.026767  -0.000064
     4  C    0.039665   0.066539  -0.008264   0.000641  -0.022770  -0.000016
     5  C    0.053319   0.003971   0.013901   0.000045   0.008645  -0.000019
     6  C    0.005221   0.004339  -0.035641  -0.000001   0.000040   0.000000
     7  H   -0.008997   0.000300  -0.004653   0.000000  -0.000001   0.000000
     8  H   -0.000195   0.000005  -0.000152   0.000000   0.000006   0.000000
     9  H    0.000015   0.000000  -0.004833   0.000000   0.000000   0.000000
    10  O   -0.012327  -0.010692   0.000068   0.000053  -0.007925  -0.000002
    11  C    0.063719   0.005441   0.000621  -0.011059  -1.314602  -0.017790
    12  C   -0.033318   0.077785  -0.000443   0.041043   0.022811   0.002185
    13  C    0.010975   0.027278   0.000059   0.040205   1.182782   0.010623
    14  C   -0.038212   0.072669  -0.000113  -0.009479   0.115097  -0.002768
    15  C    0.002882   0.005967  -0.000002  -0.012350  -1.083154  -0.099001
    16  H    0.000004  -0.000204   0.000000  -0.000138   0.010918   0.001442
    17  C   -0.003547   0.017496  -0.000001   0.251692  -0.326415   0.018285
    18  H    0.000318  -0.008804   0.000000  -0.004104   0.002465   0.000002
    19  H    0.666996  -0.003936  -0.000200   0.000001   0.000011   0.000000
    20  H   -0.003936   0.651283   0.000001  -0.000185  -0.001087   0.000000
    21  H   -0.000200   0.000001   0.541476   0.000000   0.000000   0.000000
    22  H    0.000001  -0.000185   0.000000   0.544839  -0.021350   0.000143
    23  C    0.000011  -0.001087   0.000000  -0.021350   6.951085   0.427121
    24  H    0.000000   0.000000   0.000000   0.000143   0.427121   0.491674
    25  H    0.000000   0.000000   0.000000   0.000195   0.396088  -0.030287
    26  H    0.000000   0.000000   0.000000   0.004045   0.500997  -0.025440
              25         26
     1  C    0.000000   0.000000
     2  C    0.000006  -0.000003
     3  C    0.000017  -0.000049
     4  C    0.000117  -0.000020
     5  C    0.000078  -0.000002
     6  C    0.000000   0.000000
     7  H    0.000000   0.000000
     8  H    0.000000   0.000000
     9  H    0.000000   0.000000
    10  O   -0.000012   0.000008
    11  C    0.009147  -0.017592
    12  C    0.009554  -0.005444
    13  C   -0.044800   0.049388
    14  C   -0.007102   0.005229
    15  C   -0.064308  -0.144081
    16  H    0.000720   0.000098
    17  C    0.036153  -0.045786
    18  H    0.000003  -0.000002
    19  H    0.000000   0.000000
    20  H    0.000000   0.000000
    21  H    0.000000   0.000000
    22  H    0.000195   0.004045
    23  C    0.396088   0.500997
    24  H   -0.030287  -0.025440
    25  H    0.487211  -0.026126
    26  H   -0.026126   0.495973
 Mulliken charges:
               1
     1  C    0.053705
     2  C   -0.392743
     3  C    0.480002
     4  C   -0.165992
     5  C   -0.567388
     6  C   -0.114333
     7  H    0.181128
     8  H    0.197167
     9  H    0.184301
    10  O   -0.430873
    11  C   -0.227215
    12  C    0.339855
    13  C    0.015056
    14  C   -0.243788
    15  C    0.412507
    16  H    0.198706
    17  C   -0.602950
    18  H    0.184297
    19  H    0.136034
    20  H    0.148879
    21  H    0.175988
    22  H    0.176399
    23  C   -0.804812
    24  H    0.223918
    25  H    0.233344
    26  H    0.208806
 Sum of Mulliken charges =   0.00000
 Mulliken charges with hydrogens summed into heavy atoms:
               1
     1  C    0.229692
     2  C   -0.211615
     3  C    0.616037
     4  C   -0.165992
     5  C   -0.370221
     6  C    0.069968
    10  O   -0.430873
    11  C   -0.227215
    12  C    0.488734
    13  C    0.213762
    14  C   -0.059491
    15  C    0.412507
    17  C   -0.426551
    23  C   -0.138743
 Electronic spatial extent (au):  <R**2>=           3962.4036
 Charge=              0.0000 electrons
 Dipole moment (field-independent basis, Debye):
    X=             -1.1916    Y=              1.3258    Z=              0.3367  Tot=              1.8141
 Quadrupole moment (field-independent basis, Debye-Ang):
   XX=            -65.5458   YY=            -75.9670   ZZ=            -89.7877
   XY=              0.8202   XZ=             -0.0951   YZ=             -0.3792
 Traceless Quadrupole moment (field-independent basis, Debye-Ang):
   XX=             11.5544   YY=              1.1331   ZZ=            -12.6875
   XY=              0.8202   XZ=             -0.0951   YZ=             -0.3792
 Octapole moment (field-independent basis, Debye-Ang**2):
  XXX=             -6.0575  YYY=              3.5318  ZZZ=              0.2252  XYY=              1.1238
  XXY=             -9.9805  XXZ=              8.5980  XZZ=             -7.3003  YZZ=             -4.3048
  YYZ=              0.6669  XYZ=             -1.1500
 Hexadecapole moment (field-independent basis, Debye-Ang**3):
 XXXX=          -4274.2852 YYYY=           -678.7297 ZZZZ=           -125.7535 XXXY=            -22.4119
 XXXZ=              9.5122 YYYX=             -8.6405 YYYZ=              1.2237 ZZZX=             -6.8234
 ZZZY=             -0.5687 XXYY=           -824.9078 XXZZ=           -879.8653 YYZZ=           -155.5042
 XXYZ=              3.4176 YYXZ=              1.1403 ZZXY=              9.0652
 N-N= 7.676555371624D+02 E-N=-2.874547209943D+03  KE= 5.718322926209D+02
 Evaluate density.
 Using the total density.
 Monte-Carlo method of calculating molar volume:
 based on  0.001 e/bohr**3 density envelope.
 Number of points per bohr**3 =   20 CutOff= 1.00D-04
 Using the SCF density.
 There are       400 points.  Will hold       400 in memory.
 LenV=  4026329850 MDV=  4026531840.
 Box volume = 8028.886 fraction occupied=0.240
 Integrated density= 1.9372939024420893D+02 error= 9.5729390244208929D+01
 Molar volume = 1926.933 bohr**3/mol (171.957 cm**3/mol)
 Recommended a0 for SCRF calculation =  5.00 angstrom (  9.44 bohr)
 Calling FoFJK, ICntrl=      2127 FMM=F ISym2X=0 I1Cent= 0 IOpClX= 0 NMat=1 NMatS=1 NMatT=0.
 ***** Axes restored to original set *****
 -------------------------------------------------------------------
 Center     Atomic                   Forces (Hartrees/Bohr)
 Number     Number              X              Y              Z
 -------------------------------------------------------------------
      1        6           0.002034385    0.010407433   -0.003278575
      2        6           0.004644373    0.010461840    0.016853885
      3        6          -0.001267874   -0.011468816    0.014472769
      4        6           0.007085128    0.047557969   -0.040539650
      5        6           0.000855470    0.008487459   -0.007195738
      6        6          -0.001798473    0.005708580   -0.021166860
      7        1          -0.002881909   -0.006734326   -0.009602017
      8        1           0.003088228    0.008695784    0.007474337
      9        1           0.001056575   -0.002218686    0.011460093
     10        8          -0.002807761   -0.005233996   -0.024593000
     11        6          -0.002327951   -0.058219075    0.029050031
     12        6           0.001987389    0.015179191   -0.005380271
     13        6          -0.006227375   -0.016902342    0.017538851
     14        6           0.003569949    0.014358934    0.014341589
     15        6           0.000542200    0.009393627   -0.007380236
     16        1           0.003736014    0.006403070    0.010023657
     17        6          -0.003162579   -0.009385663    0.014401790
     18        1          -0.003199389   -0.007857534   -0.008631654
     19        1          -0.002189742   -0.021179656    0.012713519
     20        1           0.000740335    0.018444244   -0.016504699
     21        1          -0.002319227   -0.011630406    0.002530733
     22        1           0.002085590    0.004375945   -0.011064745
     23        6          -0.013886151   -0.032288183    0.006508074
     24        1          -0.006841134    0.013935087    0.008983674
     25        1           0.017538932    0.003394129    0.004510765
     26        1          -0.000055004    0.006315392   -0.015526321
 -------------------------------------------------------------------
 Cartesian Forces:  Max     0.058219075 RMS     0.014570432

 GradGradGradGradGradGradGradGradGradGradGradGradGradGradGradGradGradGrad
 Berny optimization.
 FormGI is forming the generalized inverse of G from B-inverse, IUseBI=4.
 Internal  Forces:  Max     0.167656470 RMS     0.024548275
 Search for a local minimum.
 Step number   1 out of a maximum of  138
 All quantities printed in internal units (Hartrees-Bohrs-Radians)
 Mixed Optimization -- RFO/linear search
 Second derivative matrix not updated -- first step.
 ITU=  0
     Eigenvalues ---    0.00230   0.00230   0.00237   0.01336   0.01736
     Eigenvalues ---    0.01788   0.02070   0.02070   0.02070   0.02070
     Eigenvalues ---    0.02070   0.02070   0.02070   0.02070   0.02070
     Eigenvalues ---    0.02070   0.02070   0.02070   0.02070   0.02070
     Eigenvalues ---    0.02070   0.07243   0.07243   0.16000   0.16000
     Eigenvalues ---    0.16000   0.16000   0.16000   0.16000   0.16000
     Eigenvalues ---    0.16000   0.16000   0.16000   0.16000   0.16000
     Eigenvalues ---    0.18708   0.22000   0.22000   0.22000   0.23438
     Eigenvalues ---    0.23485   0.23486   0.24757   0.25000   0.25000
     Eigenvalues ---    0.25000   0.27457   0.28519   0.37230   0.37230
     Eigenvalues ---    0.37230   0.37230   0.37230   0.37230   0.37230
     Eigenvalues ---    0.37230   0.37230   0.37230   0.37230   0.37230
     Eigenvalues ---    0.41268   0.41361   0.41459   0.41548   0.45389
     Eigenvalues ---    0.45389   0.45389   0.45389   0.45389   0.45389
     Eigenvalues ---    0.45389   0.45389
 RFO step:  Lambda=-1.80155403D-01 EMin= 2.30000000D-03
 Linear search not attempted -- first point.
 Maximum step size (   0.300) exceeded in Quadratic search.
    -- Step size scaled by   0.465
 Iteration  1 RMS(Cart)=  0.23247861 RMS(Int)=  0.01337787
 Iteration  2 RMS(Cart)=  0.14189215 RMS(Int)=  0.00330349
 Iteration  3 RMS(Cart)=  0.00776851 RMS(Int)=  0.00014541
 Iteration  4 RMS(Cart)=  0.00000409 RMS(Int)=  0.00014540
 Iteration  5 RMS(Cart)=  0.00000000 RMS(Int)=  0.00014540
 Variable       Old X    -DE/DX   Delta X   Delta X   Delta X     New X
                                 (Linear)    (Quad)   (Total)
    R1        2.64826  -0.00963   0.00000  -0.00710  -0.00710   2.64116
    R2        2.64826  -0.00953   0.00000  -0.00718  -0.00718   2.64108
    R3        2.02201   0.01213   0.00000   0.01021   0.01021   2.03222
    R4        2.64826  -0.00118   0.00000  -0.00071  -0.00071   2.64755
    R5        2.02201   0.01203   0.00000   0.01013   0.01013   2.03214
    R6        2.64826   0.00391   0.00000   0.00306   0.00306   2.65133
    R7        2.02201  -0.01894   0.00000  -0.01595  -0.01595   2.00606
    R8        2.64826  -0.00631   0.00000  -0.00460  -0.00459   2.64367
    R9        2.93342  -0.04145   0.00000  -0.04240  -0.04240   2.89103
   R10        2.64826  -0.00536   0.00000  -0.00409  -0.00409   2.64418
   R11        2.02201   0.01173   0.00000   0.00988   0.00988   2.03189
   R12        2.02201   0.01158   0.00000   0.00975   0.00975   2.03176
   R13        3.18558  -0.05143   0.00000  -0.06514  -0.06514   3.12044
   R14        2.64826  -0.00332   0.00000  -0.00247  -0.00247   2.64579
   R15        2.64826  -0.01189   0.00000  -0.00883  -0.00883   2.63943
   R16        2.64826  -0.00316   0.00000  -0.00224  -0.00225   2.64602
   R17        2.02201  -0.01963   0.00000  -0.01653  -0.01653   2.00547
   R18        2.64826  -0.00228   0.00000  -0.00174  -0.00174   2.64652
   R19        2.02201   0.01240   0.00000   0.01044   0.01044   2.03245
   R20        2.64826  -0.00807   0.00000  -0.00581  -0.00581   2.64245
   R21        2.02201   0.01203   0.00000   0.01013   0.01013   2.03214
   R22        2.64826  -0.00743   0.00000  -0.00542  -0.00541   2.64285
   R23        2.91018  -0.00979   0.00000  -0.00978  -0.00978   2.90040
   R24        2.02201   0.01207   0.00000   0.01016   0.01016   2.03217
   R25        2.02201   0.01762   0.00000   0.01484   0.01484   2.03684
   R26        2.02201   0.01817   0.00000   0.01530   0.01530   2.03731
   R27        2.02201   0.01654   0.00000   0.01393   0.01393   2.03594
    A1        2.09440  -0.00719   0.00000  -0.00891  -0.00892   2.08547
    A2        2.09440   0.00371   0.00000   0.00461   0.00461   2.09901
    A3        2.09440   0.00349   0.00000   0.00430   0.00431   2.09871
    A4        2.09440   0.00589   0.00000   0.00685   0.00684   2.10124
    A5        2.09440  -0.00188   0.00000  -0.00197  -0.00197   2.09243
    A6        2.09440  -0.00401   0.00000  -0.00488  -0.00487   2.08952
    A7        2.09440   0.00270   0.00000   0.00351   0.00351   2.09790
    A8        2.09440  -0.01751   0.00000  -0.02385  -0.02385   2.07055
    A9        2.09440   0.01481   0.00000   0.02034   0.02034   2.11473
   A10        2.09440  -0.01400   0.00000  -0.01498  -0.01497   2.07942
   A11        2.09440   0.10308   0.00000   0.11139   0.11138   2.20578
   A12        2.09440  -0.08908   0.00000  -0.09641  -0.09641   1.99798
   A13        2.09440   0.00923   0.00000   0.01034   0.01035   2.10475
   A14        2.09440  -0.00647   0.00000  -0.00771  -0.00771   2.08668
   A15        2.09440  -0.00276   0.00000  -0.00263  -0.00264   2.09175
   A16        2.09440   0.00339   0.00000   0.00319   0.00319   2.09758
   A17        2.09440   0.00014   0.00000   0.00091   0.00091   2.09531
   A18        2.09440  -0.00353   0.00000  -0.00410  -0.00410   2.09029
   A19        2.23319   0.16766   0.00000   0.18130   0.18130   2.41449
   A20        2.01758   0.10474   0.00000   0.11435   0.11443   2.13201
   A21        2.16295  -0.09795   0.00000  -0.10606  -0.10618   2.05677
   A22        2.09440  -0.00616   0.00000  -0.00665  -0.00665   2.08775
   A23        2.09440  -0.00087   0.00000  -0.00114  -0.00115   2.09325
   A24        2.09440   0.01432   0.00000   0.01955   0.01955   2.11395
   A25        2.09440  -0.01345   0.00000  -0.01841  -0.01842   2.07598
   A26        2.09440   0.00825   0.00000   0.00910   0.00910   2.10350
   A27        2.09440  -0.00461   0.00000  -0.00521  -0.00521   2.08918
   A28        2.09440  -0.00364   0.00000  -0.00389  -0.00389   2.09051
   A29        2.09440   0.00504   0.00000   0.00596   0.00596   2.10035
   A30        2.09440  -0.00382   0.00000  -0.00476  -0.00475   2.08964
   A31        2.09440  -0.00122   0.00000  -0.00121  -0.00120   2.09319
   A32        2.09440  -0.00273   0.00000  -0.00320  -0.00320   2.09120
   A33        2.09440  -0.00287   0.00000  -0.00298  -0.00298   2.09141
   A34        2.09440   0.00560   0.00000   0.00618   0.00618   2.10057
   A35        2.09440  -0.00353   0.00000  -0.00408  -0.00408   2.09032
   A36        2.09440   0.00220   0.00000   0.00263   0.00263   2.09702
   A37        2.09440   0.00133   0.00000   0.00145   0.00145   2.09584
   A38        1.91063   0.00353   0.00000   0.00484   0.00483   1.91546
   A39        1.91063   0.00291   0.00000   0.00391   0.00391   1.91454
   A40        1.91063   0.00265   0.00000   0.00368   0.00367   1.91430
   A41        1.91063  -0.00349   0.00000  -0.00488  -0.00489   1.90574
   A42        1.91063  -0.00277   0.00000  -0.00367  -0.00368   1.90695
   A43        1.91063  -0.00282   0.00000  -0.00387  -0.00388   1.90675
    D1        0.00000  -0.00006   0.00000  -0.00013  -0.00013  -0.00013
    D2       -3.14159  -0.00010   0.00000  -0.00023  -0.00023   3.14137
    D3       -3.14159  -0.00001   0.00000  -0.00002  -0.00002   3.14158
    D4        0.00000  -0.00005   0.00000  -0.00012  -0.00012  -0.00011
    D5        0.00000   0.00000   0.00000   0.00000   0.00000   0.00000
    D6        3.14159   0.00005   0.00000   0.00011   0.00011  -3.14149
    D7        3.14159  -0.00005   0.00000  -0.00012  -0.00012   3.14147
    D8        0.00000   0.00000   0.00000  -0.00001  -0.00001  -0.00001
    D9        0.00000   0.00002   0.00000   0.00004   0.00004   0.00004
   D10       -3.14159  -0.00033   0.00000  -0.00077  -0.00076   3.14083
   D11        3.14159   0.00006   0.00000   0.00014   0.00014  -3.14146
   D12        0.00000  -0.00029   0.00000  -0.00067  -0.00066  -0.00066
   D13        0.00000   0.00008   0.00000   0.00019   0.00019   0.00019
   D14        3.14159   0.00017   0.00000   0.00041   0.00041  -3.14118
   D15        3.14159   0.00043   0.00000   0.00100   0.00101  -3.14059
   D16        0.00000   0.00052   0.00000   0.00122   0.00123   0.00123
   D17        0.00000  -0.00014   0.00000  -0.00032  -0.00032  -0.00032
   D18       -3.14159  -0.00005   0.00000  -0.00011  -0.00011   3.14148
   D19       -3.14159  -0.00023   0.00000  -0.00054  -0.00052   3.14107
   D20        0.00000  -0.00014   0.00000  -0.00033  -0.00031  -0.00031
   D21       -0.09171   0.00119   0.00000   0.00303   0.00303  -0.08868
   D22        3.04988   0.00128   0.00000   0.00325   0.00325   3.05313
   D23        0.00000   0.00010   0.00000   0.00023   0.00023   0.00023
   D24       -3.14159   0.00005   0.00000   0.00012   0.00012  -3.14147
   D25       -3.14159   0.00001   0.00000   0.00002   0.00002  -3.14157
   D26        0.00000  -0.00004   0.00000  -0.00009  -0.00009  -0.00008
   D27        0.07603   0.01138   0.00000   0.02854   0.02821   0.10425
   D28       -2.92738   0.00530   0.00000   0.01401   0.01433  -2.91305
   D29       -3.00924   0.00361   0.00000  -0.00119  -0.00208  -3.01132
   D30        0.13235   0.00555   0.00000   0.00498   0.00431   0.13666
   D31        0.00000   0.00113   0.00000   0.00373   0.00383   0.00384
   D32       -3.14159   0.00307   0.00000   0.00990   0.01023  -3.13136
   D33        2.99766   0.01154   0.00000   0.01800   0.01728   3.01494
   D34       -0.14393   0.01054   0.00000   0.01741   0.01684  -0.12709
   D35        0.00000  -0.00258   0.00000  -0.00564  -0.00562  -0.00562
   D36        3.14159  -0.00359   0.00000  -0.00622  -0.00606   3.13553
   D37        0.00000   0.00115   0.00000   0.00093   0.00076   0.00075
   D38        3.14159   0.00041   0.00000   0.00096   0.00094  -3.14066
   D39        3.14159  -0.00080   0.00000  -0.00525  -0.00550   3.13609
   D40        0.00000  -0.00153   0.00000  -0.00521  -0.00531  -0.00532
   D41        0.00000   0.00176   0.00000   0.00289   0.00279   0.00279
   D42        3.14159   0.00112   0.00000   0.00233   0.00232  -3.13927
   D43        3.14159   0.00276   0.00000   0.00348   0.00323  -3.13836
   D44        0.00000   0.00212   0.00000   0.00292   0.00276   0.00276
   D45        0.00000  -0.00197   0.00000  -0.00368  -0.00360  -0.00359
   D46       -3.14159  -0.00085   0.00000  -0.00105  -0.00096   3.14063
   D47       -3.14159  -0.00123   0.00000  -0.00371  -0.00378   3.13782
   D48        0.00000  -0.00012   0.00000  -0.00108  -0.00114  -0.00114
   D49        0.00000   0.00051   0.00000   0.00177   0.00183   0.00183
   D50       -3.14159  -0.00060   0.00000  -0.00086  -0.00080   3.14079
   D51       -3.14159   0.00116   0.00000   0.00232   0.00230  -3.13929
   D52        0.00000   0.00004   0.00000  -0.00031  -0.00033  -0.00033
   D53       -0.86372   0.00055   0.00000   0.00069   0.00065  -0.86307
   D54        1.23067   0.00021   0.00000   0.00007   0.00003   1.23070
   D55       -2.95812   0.00016   0.00000  -0.00002  -0.00006  -2.95818
   D56        2.27787  -0.00009   0.00000   0.00014   0.00018   2.27805
   D57       -1.91092  -0.00043   0.00000  -0.00048  -0.00044  -1.91136
   D58        0.18348  -0.00048   0.00000  -0.00058  -0.00054   0.18294
         Item               Value     Threshold  Converged?
 Maximum Force            0.167656     0.000450     NO 
 RMS     Force            0.024548     0.000300     NO 
 Maximum Displacement     1.212615     0.001800     NO 
 RMS     Displacement     0.367915     0.001200     NO 
 Predicted change in Energy=-7.258641D-02
 GradGradGradGradGradGradGradGradGradGradGradGradGradGradGradGradGradGrad

                          Input orientation:                          
 ---------------------------------------------------------------------
 Center     Atomic      Atomic             Coordinates (Angstroms)
 Number     Number       Type             X           Y           Z
 ---------------------------------------------------------------------
      1          6           0       -4.708715   -0.233627   -0.026190
      2          6           0       -4.859355   -0.053721   -1.403993
      3          6           0       -4.638046    1.202652   -1.983141
      4          6           0       -4.262658    2.292358   -1.183081
      5          6           0       -4.113205    2.105989    0.195343
      6          6           0       -4.334726    0.850670    0.772379
      7          1           0       -5.146699   -0.883658   -2.024508
      8          1           0       -3.825637    2.936484    0.814775
      9          1           0       -4.216150    0.722453    1.833260
     10          8           0       -3.987042    3.718465   -1.663435
     11          6           0       -3.889382    4.542065   -3.091311
     12          6           0       -4.206978    3.946797   -4.318116
     13          6           0       -3.331351    5.822283   -3.069147
     14          6           0       -3.960033    4.633948   -5.512868
     15          6           0       -3.081752    6.510135   -4.263257
     16          1           0       -3.092056    6.283067   -2.127249
     17          6           0       -3.396181    5.913315   -5.488344
     18          1           0       -4.206059    4.173955   -6.453230
     19          1           0       -4.759751    1.307664   -3.032460
     20          1           0       -4.640269    2.979037   -4.362339
     21          1           0       -4.879124   -1.198897    0.416196
     22          1           0       -3.207012    6.437925   -6.407821
     23          6           0       -2.465232    7.915041   -4.220497
     24          1           0       -3.008185    8.529886   -3.521262
     25          1           0       -1.434887    7.850368   -3.909853
     26          1           0       -2.513665    8.362492   -5.199359
 ---------------------------------------------------------------------
                    Distance matrix (angstroms):
                    1          2          3          4          5
     1  C    0.000000
     2  C    1.397641   0.000000
     3  C    2.428487   1.401023   0.000000
     4  C    2.813887   2.430830   1.403022   0.000000
     5  C    2.424358   2.789079   2.416044   1.398972   0.000000
     6  C    1.397598   2.414489   2.794420   2.430531   1.399238
     7  H    2.146542   1.075360   2.147820   3.402441   3.864432
     8  H    3.396565   3.864302   3.390356   2.144134   1.075227
     9  H    2.148084   3.390570   3.869561   3.400746   2.146518
    10  O    4.338250   3.880416   2.618269   1.529865   2.463951
    11  C    5.733542   4.990905   3.597251   2.973526   4.097153
    12  C    6.012346   4.992179   3.628809   3.545238   4.875313
    13  C    6.915978   6.295630   4.922179   4.109130   5.007897
    14  C    7.372750   6.298085   4.969151   4.931702   6.244815
    15  C    8.128842   7.376956   5.982504   5.354594   6.351340
    16  H    7.035292   6.618257   5.312387   4.264683   4.887245
    17  C    8.327231   7.377555   6.001585   5.691872   6.878529
    18  H    7.809371   6.617766   5.384881   5.596256   6.963378
    19  H    3.378734   2.124899   1.061560   2.153353   3.387338
    20  H    5.397044   4.242338   2.969197   3.274417   4.670383
    21  H    1.075403   2.150560   3.403289   3.889290   3.399658
    22  H    9.353605   8.361220   7.002409   6.752631   7.949128
    23  C    9.435370   8.784400   7.401556   6.638615   7.480678
    24  H    9.586787   9.032606   7.662285   6.778462   7.503378
    25  H    9.547343   8.971116   7.626569   6.806104   7.551418
    26  H   10.270013   9.525739   8.131442   7.485719   8.414581
                    6          7          8          9         10
     6  C    0.000000
     7  H    3.389656   0.000000
     8  H    2.147462   4.939658   0.000000
     9  H    1.075159   4.281108   2.468147   0.000000
    10  O    3.778667   4.759697   2.603665   4.610364   0.000000
    11  C    5.362166   5.670748   4.223678   6.240802   1.651267
    12  C    5.959485   5.429273   5.245256   6.945207   2.673544
    13  C    6.362469   7.025411   4.863846   7.129146   2.613810
    14  C    7.345605   6.634818   6.552748   8.326523   3.956889
    15  C    7.678354   7.996511   6.253859   8.482431   3.920720
    16  H    6.281959   7.456142   4.515889   6.918789   2.755595
    17  C    8.106041   7.826961   6.983929   9.012396   4.449316
    18  H    7.954257   6.788065   7.382408   8.976574   4.816386
    19  H    3.855683   2.442864   4.280986   4.930842   2.878068
    20  H    5.566744   4.543385   5.240987   6.607382   2.873594
    21  H    2.150339   2.475482   4.286033   2.477738   5.413052
    22  H    9.167575   8.751080   8.050383  10.079702   5.523867
    23  C    8.850376   9.456729   7.210457   9.562793   5.144484
    24  H    8.897495   9.768742   7.124295   9.543903   5.249709
    25  H    8.906634   9.675499   7.223852   9.566918   5.350935
    26  H    9.767568  10.124418   8.205646  10.522660   6.020015
                   11         12         13         14         15
    11  C    0.000000
    12  C    1.400093   0.000000
    13  C    1.396728   2.417456   0.000000
    14  C    2.424329   1.400211   2.789113   0.000000
    15  C    2.428791   2.799973   1.400479   2.419294   0.000000
    16  H    2.143883   3.391328   1.075526   3.864634   2.148068
    17  C    2.805235   2.427760   2.421778   1.398324   1.398535
    18  H    3.396806   2.147164   3.864469   1.075362   3.393786
    19  H    3.349978   2.987222   4.735341   4.225652   5.603236
    20  H    2.149976   1.061252   3.386688   2.127244   3.861016
    21  H    6.800061   7.024504   7.990005   8.367832   9.195488
    22  H    3.880613   3.401840   3.397237   2.149957   2.149432
    23  C    3.831479   4.334762   2.540749   3.830172   1.534824
    24  H    4.106590   4.803830   2.764048   4.477817   2.152989
    25  H    4.199932   4.805105   2.901119   4.392195   2.152506
    26  H    4.575164   4.810640   3.414539   4.011522   2.151798
                   16         17         18         19         20
    16  H    0.000000
    17  C    3.395022   0.000000
    18  H    4.939986   2.147622   0.000000
    19  H    5.324965   5.394693   4.497095   0.000000
    20  H    4.278925   3.380181   2.447078   2.139239   0.000000
    21  H    8.102006   9.361959   8.746975   4.265012   6.351896
    22  H    4.284914   1.075378   2.475019   6.334322   4.266394
    23  C    2.727258   2.545782   4.691620   7.094623   5.395834
    24  H    2.645468   3.296422   5.385673   7.447644   5.846625
    25  H    2.894878   3.176552   5.259674   7.391313   5.848852
    26  H    3.754518   2.619316   4.688308   7.714334   5.848472
                   21         22         23         24         25
    21  H    0.000000
    22  H   10.377101   0.000000
    23  C   10.506648   2.741622   0.000000
    24  H   10.660826   3.570442   1.077851   0.000000
    25  H   10.605030   3.372724   1.078098   1.757275   0.000000
    26  H   11.337990   2.375936   1.077371   1.757436   1.757515
                   26
    26  H    0.000000
 Stoichiometry    C13H12O
 Framework group  C1[X(C13H12O)]
 Deg. of freedom    72
 Full point group                 C1      NOp   1
 Largest Abelian subgroup         C1      NOp   1
 Largest concise Abelian subgroup C1      NOp   1
                         Standard orientation:                         
 ---------------------------------------------------------------------
 Center     Atomic      Atomic             Coordinates (Angstroms)
 Number     Number       Type             X           Y           Z
 ---------------------------------------------------------------------
      1          6           0        4.619632    0.203321    0.160108
      2          6           0        3.702463    1.257367    0.125646
      3          6           0        2.330529    0.999544    0.006523
      4          6           0        1.865479   -0.321380   -0.079246
      5          6           0        2.788338   -1.372192   -0.043936
      6          6           0        4.158247   -1.113169    0.074906
      7          1           0        4.050407    2.272784    0.190942
      8          1           0        2.439278   -2.387095   -0.109068
      9          1           0        4.855819   -1.930909    0.100624
     10          8           0        0.406835   -0.763047   -0.212573
     11          6           0       -1.095064   -0.076769   -0.210439
     12          6           0       -1.280344    1.310570   -0.175452
     13          6           0       -2.199222   -0.923875   -0.091722
     14          6           0       -2.566991    1.839888   -0.017493
     15          6           0       -3.486556   -0.396180    0.068438
     16          1           0       -2.059071   -1.989740   -0.124047
     17          6           0       -3.670212    0.989716    0.106691
     18          1           0       -2.705587    2.905975    0.008062
     19          1           0        1.658619    1.821086   -0.016194
     20          1           0       -0.459515    1.976180   -0.272707
     21          1           0        5.672257    0.403577    0.251580
     22          1           0       -4.656912    1.399543    0.228759
     23          6           0       -4.688286   -1.341753    0.200417
     24          1           0       -4.662098   -2.076215   -0.588027
     25          1           0       -4.652556   -1.843845    1.153791
     26          1           0       -5.603395   -0.777504    0.130228
 ---------------------------------------------------------------------
 Rotational constants (GHZ):           2.1394010           0.2857020           0.2533150
 Standard basis: 6-31+G(d) (6D, 7F)
 There are   290 symmetry adapted cartesian basis functions of A   symmetry.
 There are   290 symmetry adapted basis functions of A   symmetry.
   290 basis functions,   496 primitive gaussians,   290 cartesian basis functions
    49 alpha electrons       49 beta electrons
       nuclear repulsion energy       759.2479803743 Hartrees.
 NAtoms=   26 NActive=   26 NUniq=   26 SFac= 1.00D+00 NAtFMM=   60 NAOKFM=F Big=F
 Integral buffers will be    131072 words long.
 Raffenetti 2 integral format.
 Two-electron integral symmetry is turned on.
 Nuclear repulsion after empirical dispersion term =      759.2301877654 Hartrees.
 One-electron integrals computed using PRISM.
 NBasis=   290 RedAO= T EigKep=  2.03D-06  NBF=   290
 NBsUse=   289 1.00D-06 EigRej=  7.75D-07 NBFU=   289
 Initial guess from the checkpoint file:  "molecule_101.chk"
 B after Tr=     0.000000    0.000000    0.000000
         Rot=    0.999654   -0.026154   -0.000991   -0.002738 Ang=  -3.02 deg.
 ExpMin= 4.38D-02 ExpMax= 5.48D+03 ExpMxC= 8.25D+02 IAcc=3 IRadAn=         5 AccDes= 0.00D+00
 Harris functional with IExCor=  402 and IRadAn=       5 diagonalized for initial guess.
 HarFok:  IExCor=  402 AccDes= 0.00D+00 IRadAn=         5 IDoV= 1 UseB2=F ITyADJ=14
 ICtDFT=  3500011 ScaDFX=  1.000000  1.000000  1.000000  1.000000
 FoFCou: FMM=F IPFlag=           0 FMFlag=      100000 FMFlg1=           0
         NFxFlg=           0 DoJE=T BraDBF=F KetDBF=T FulRan=T
         wScrn=  0.000000 ICntrl=       500 IOpCl=  0 I1Cent=   200000004 NGrid=           0
         NMat0=    1 NMatS0=      1 NMatT0=    0 NMatD0=    1 NMtDS0=    0 NMtDT0=    0
 Petite list used in FoFCou.
 Requested convergence on RMS density matrix=1.00D-08 within 128 cycles.
 Requested convergence on MAX density matrix=1.00D-06.
 Requested convergence on             energy=1.00D-06.
 No special actions if energy rises.
 SCF Done:  E(RB3LYP) =  -577.805609027     A.U. after   15 cycles
            NFock= 15  Conv=0.77D-08     -V/T= 2.0106
 Calling FoFJK, ICntrl=      2127 FMM=F ISym2X=0 I1Cent= 0 IOpClX= 0 NMat=1 NMatS=1 NMatT=0.
 ***** Axes restored to original set *****
 -------------------------------------------------------------------
 Center     Atomic                   Forces (Hartrees/Bohr)
 Number     Number              X              Y              Z
 -------------------------------------------------------------------
      1        6           0.000703352    0.005017889   -0.003845032
      2        6           0.003520768    0.009131793    0.009430231
      3        6           0.002785661    0.006150478    0.009101494
      4        6           0.005922949    0.040169532   -0.035585234
      5        6           0.000985489    0.005747438   -0.002174145
      6        6          -0.001598549    0.002185280   -0.013824063
      7        1          -0.002105496   -0.005299174   -0.005827433
      8        1           0.002142996    0.007064173    0.002740599
      9        1           0.001259557    0.000490956    0.008008685
     10        8          -0.002243173    0.002610575   -0.020744664
     11        6          -0.000226031   -0.052399775    0.029867250
     12        6           0.002454597    0.006254346    0.007724406
     13        6          -0.004688046   -0.012407505    0.014580220
     14        6           0.002193915    0.007995935    0.010912847
     15        6           0.001130889    0.010609617   -0.002794417
     16        1           0.002664463    0.002013014    0.007638058
     17        6          -0.002893771   -0.008410434    0.007921976
     18        1          -0.002400777   -0.004563352   -0.006261979
     19        1          -0.001277754    0.003642085   -0.016271688
     20        1          -0.005888497   -0.015352779    0.001067696
     21        1          -0.001293437   -0.007225579    0.003205198
     22        1           0.001677561    0.003962556   -0.006827896
     23        6          -0.011674431   -0.025029172    0.000106170
     24        1          -0.003944455    0.008889558    0.007538223
     25        1           0.011964357    0.001994034    0.003709968
     26        1           0.000827863    0.006758510   -0.009396470
 -------------------------------------------------------------------
 Cartesian Forces:  Max     0.052399775 RMS     0.011739904

 GradGradGradGradGradGradGradGradGradGradGradGradGradGradGradGradGradGrad
 Berny optimization.
 Using GEDIIS/GDIIS optimizer.
 FormGI is forming the generalized inverse of G from B-inverse, IUseBI=4.
 Internal  Forces:  Max     0.092163735 RMS     0.013079052
 Search for a local minimum.
 Step number   2 out of a maximum of  138
 All quantities printed in internal units (Hartrees-Bohrs-Radians)
 Mixed Optimization -- RFO/linear search
 Update second derivatives using D2CorX and points    1    2
 DE= -2.83D-02 DEPred=-7.26D-02 R= 3.90D-01
 Trust test= 3.90D-01 RLast= 3.03D-01 DXMaxT set to 3.00D-01
 ITU=  0  0
 Use linear search instead of GDIIS.
     Eigenvalues ---    0.00230   0.00232   0.00237   0.01334   0.01728
     Eigenvalues ---    0.01779   0.02070   0.02070   0.02070   0.02070
     Eigenvalues ---    0.02070   0.02070   0.02070   0.02070   0.02070
     Eigenvalues ---    0.02070   0.02070   0.02070   0.02070   0.02070
     Eigenvalues ---    0.02073   0.07192   0.07198   0.15209   0.16000
     Eigenvalues ---    0.16000   0.16000   0.16000   0.16000   0.16000
     Eigenvalues ---    0.16000   0.16000   0.16000   0.16000   0.16074
     Eigenvalues ---    0.16116   0.21986   0.22000   0.22002   0.22940
     Eigenvalues ---    0.23473   0.23486   0.24115   0.24936   0.25000
     Eigenvalues ---    0.26325   0.28510   0.36758   0.36834   0.37230
     Eigenvalues ---    0.37230   0.37230   0.37230   0.37230   0.37230
     Eigenvalues ---    0.37230   0.37230   0.37230   0.37230   0.41197
     Eigenvalues ---    0.41261   0.41365   0.41530   0.45274   0.45380
     Eigenvalues ---    0.45389   0.45389   0.45389   0.45389   0.45389
     Eigenvalues ---    0.45389   1.24330
 RFO step:  Lambda=-1.42953369D-01 EMin= 2.29997805D-03
 Quartic linear search produced a step of  0.63007.
 Maximum step size (   0.300) exceeded in Quadratic search.
    -- Step size scaled by   0.463
 Iteration  1 RMS(Cart)=  0.25196547 RMS(Int)=  0.01388266
 Iteration  2 RMS(Cart)=  0.06280701 RMS(Int)=  0.00066964
 Iteration  3 RMS(Cart)=  0.00088322 RMS(Int)=  0.00056049
 Iteration  4 RMS(Cart)=  0.00000048 RMS(Int)=  0.00056049
 Variable       Old X    -DE/DX   Delta X   Delta X   Delta X     New X
                                 (Linear)    (Quad)   (Total)
    R1        2.64116   0.00060  -0.00448  -0.00059  -0.00507   2.63608
    R2        2.64108   0.00261  -0.00453   0.00167  -0.00287   2.63821
    R3        2.03222   0.00801   0.00643   0.01329   0.01972   2.05194
    R4        2.64755  -0.00195  -0.00045  -0.00235  -0.00280   2.64475
    R5        2.03214   0.00801   0.00638   0.01327   0.01966   2.05179
    R6        2.65133  -0.00970   0.00193  -0.01067  -0.00874   2.64259
    R7        2.00606   0.01659  -0.01005   0.01784   0.00779   2.01385
    R8        2.64367  -0.00793  -0.00289  -0.01033  -0.01321   2.63046
    R9        2.89103  -0.07866  -0.02671  -0.14314  -0.16985   2.72118
   R10        2.64418  -0.00316  -0.00257  -0.00453  -0.00710   2.63708
   R11        2.03189   0.00761   0.00622   0.01267   0.01889   2.05078
   R12        2.03176   0.00798   0.00614   0.01313   0.01928   2.05103
   R13        3.12044  -0.09216  -0.04104  -0.22009  -0.26113   2.85931
   R14        2.64579  -0.01103  -0.00156  -0.01361  -0.01509   2.63070
   R15        2.63943  -0.01377  -0.00556  -0.01811  -0.02361   2.61582
   R16        2.64602  -0.00328  -0.00142  -0.00425  -0.00566   2.64036
   R17        2.00547   0.01636  -0.01042   0.01738   0.00697   2.01244
   R18        2.64652  -0.00038  -0.00110  -0.00081  -0.00191   2.64462
[...]
 0023024,0.00030072,-0.00036919,0.00019892,0.00018324,-0.00059569,0.000
 14959,-0.00003511,0.00042537,-0.00006372,-0.00002611,-0.00000072,-0.00
 038058,-0.00022845,-0.00005721,0.00001217,0.00001073,-0.00001339,0.121
 36294,0.00038201,-0.00539745,0.00038796,-0.01705496,-0.00307919,0.0255
 5974,-0.03977096,-0.07952580,0.06110289,0.01207784,0.01098323,-0.01806
 332,0.00189417,-0.00331085,-0.00225086,0.00027010,-0.00111442,-0.00028
 519,-0.00006958,0.00080536,-0.00040726,0.00059434,0.00037555,-0.001069
 03,-0.00007160,0.00013712,0.00002018,-0.00063506,0.00154726,0.00099539
 ,0.00049737,-0.00171838,-0.00028160,0.00091747,-0.00092566,0.00061260,
 -0.00009427,0.00006391,0.00004630,0.00017220,0.00005558,-0.00020638,0.
 00001072,-0.00015319,0.00019281,-0.00000121,0.00003771,-0.00000128,-0.
 00013213,-0.00008303,-0.00003720,-0.00003228,0.00002224,-0.00003701,0.
 04198690,0.08142389,0.00236752,0.00107088,0.00337239,0.00257939,0.0002
 5927,-0.00132749,0.13346845,0.05984944,-0.23459392,0.01007991,0.007671
 11,-0.01137258,0.00304609,-0.00321678,0.00101755,-0.00057331,-0.000456
 09,0.00018119,-0.00231180,0.00016621,-0.00070006,0.00048001,0.00038181
 ,-0.00052570,-0.00038928,0.00003536,-0.00031007,-0.00236596,0.00095126
 ,-0.00050068,-0.00039478,0.00039561,0.00033478,-0.00021571,0.00086578,
 -0.00013007,-0.00017882,-0.00021616,0.00015598,-0.00017377,-0.00003163
 ,0.00007870,-0.00003382,-0.00002694,-0.00003132,0.00002745,-0.00007541
 ,-0.00004010,0.00009753,0.00003901,-0.00003612,0.00000455,-0.00000826,
 -0.00003284,-0.14581944,-0.06755933,0.24449296,-0.00026210,0.00003433,
 0.00024812,0.00023922,0.00050379,-0.00006480,0.00029860,0.00001594,0.0
 0018211,-0.00041810,-0.00060170,-0.00064612,0.00029372,0.00046873,-0.0
 0032200,0.00003869,-0.00039220,-0.00000777,0.00001337,-0.00000012,-0.0
 0001254,-0.00005627,-0.00000411,0.00002583,-0.00000849,-0.00000658,0.0
 0002761,-0.00088946,0.00250369,0.00097418,-0.00927281,-0.01526730,0.00
 647392,-0.17130100,-0.14768720,0.02931108,0.00105104,-0.00230374,-0.00
 439474,0.00290137,0.00097521,-0.00049824,-0.00033615,0.00071084,-0.000
 50644,-0.00041580,-0.00086981,0.00023225,0.00417026,-0.00220265,-0.001
 30444,-0.00142204,0.00221569,0.00120710,-0.00044749,-0.00016688,0.0000
 4684,0.17583946,-0.00005285,-0.00002367,0.00001970,0.00015499,-0.00000
 480,-0.00003956,0.00033860,-0.00044709,0.00069265,0.00065308,0.0002523
 6,0.00069791,0.00002257,0.00005786,-0.00014288,0.00002575,0.00001089,-
 0.00000991,-0.00001637,-0.00001916,-0.00000983,-0.00003354,-0.00001065
 ,-0.00007651,0.00002222,0.00000054,0.00000209,0.00237442,-0.00164341,-
 0.00026158,-0.00609398,-0.00406343,0.00386769,-0.14908378,-0.19706537,
 0.04279569,-0.00267247,0.00291441,-0.00074559,-0.00785448,-0.00574159,
 0.00046308,0.00075112,-0.00008507,-0.00020133,-0.00031995,-0.00007062,
 0.00024877,-0.00204433,0.00344881,0.00341207,0.00235095,-0.00147948,-0
 .00075641,0.00002112,0.00006049,-0.00003022,0.16177871,0.20446389,0.00
 014556,-0.00005334,-0.00016575,-0.00018527,-0.00026730,0.00005817,-0.0
 0077579,0.00072646,-0.00032210,-0.00052761,0.00046565,-0.00124563,0.00
 008432,-0.00002274,0.00005830,-0.00003443,0.00025093,-0.00005768,0.000
 02174,-0.00004939,0.00000435,0.00000648,-0.00001343,0.00000266,-0.0000
 1466,-0.00000695,0.00000445,0.00183808,-0.00041580,0.00158372,-0.01519
 797,-0.01713393,0.00919893,0.02989466,0.04366512,-0.06715234,-0.003589
 49,0.00005876,-0.00300580,0.02040486,0.02110963,-0.00042008,-0.0002273
 0,0.00001506,-0.00119901,-0.00082867,-0.00090780,0.00028114,-0.0021590
 9,0.00278909,-0.00412980,0.00081363,-0.00129438,0.00037480,0.00023066,
 0.00002265,0.00000584,-0.03101145,-0.04986415,0.06605204,-0.04502876,-
 0.02845524,0.01899846,0.00126173,-0.01692039,0.00233421,0.00284145,-0.
 00032265,0.00555460,-0.00072136,0.00033138,0.00062727,0.00356876,0.002
 03261,0.00453846,0.00426473,0.01336759,-0.00426724,-0.00246057,0.00001
 307,-0.00214764,0.00037669,0.00069132,-0.00001429,-0.00246428,-0.00032
 682,-0.00213808,-0.00056433,-0.00005431,-0.00045531,-0.00010995,0.0000
 1769,-0.00004125,0.00009243,-0.00004653,0.00001806,0.00003578,0.000013
 60,-0.00002412,0.00001633,0.00001568,-0.00006352,0.00003409,-0.0000044
 2,0.00004089,-0.00000759,0.00000657,0.00000520,-0.00004829,-0.00002945
 ,0.00000047,0.00000427,0.00000233,-0.00000663,0.00022450,-0.00077997,0
 .00027433,-0.00002578,-0.00000229,0.00002888,0.03871654,-0.02853069,-0
 .32191810,0.06234959,0.00041967,-0.00400144,-0.00021328,-0.00064731,0.
 00146515,0.00129646,0.00035132,0.00083296,-0.00058454,0.00242066,-0.00
 085459,-0.00317842,-0.00389999,-0.01668966,0.00715994,-0.00039434,0.00
 076057,0.00026300,-0.00021911,-0.00084192,0.00042772,0.00010571,0.0007
 2251,-0.00047055,-0.00012317,-0.00026455,0.00034087,-0.00001819,0.0001
 2355,-0.00029357,0.00002302,-0.00003381,0.00006800,0.00000959,-0.00004
 322,0.00006278,0.00000637,0.00001376,-0.00004204,0.00001073,0.00002058
 ,-0.00001122,0.00000133,0.00000972,-0.00000370,-0.00001896,-0.00002514
 ,0.00002297,0.00000454,-0.00000087,0.00001229,0.00007745,-0.00026748,-
 0.00007097,-0.00002883,0.00000179,-0.00001815,0.03045660,0.34100845,0.
 01877155,0.06233383,-0.06614702,0.00139400,0.02605171,-0.00189813,0.00
 554535,0.00025654,-0.00170117,0.00062981,-0.00058127,-0.00111712,0.004
 53333,-0.00211252,0.00001421,-0.00297825,-0.01908736,0.00779481,-0.002
 09302,-0.00043186,-0.00073045,0.00004922,-0.00090792,0.00042018,-0.002
 15222,0.00020932,-0.00067915,-0.00064689,0.00011570,-0.00000857,-0.000
 07182,0.00000290,-0.00003851,0.00004631,0.00003850,0.00000733,-0.00000
 944,-0.00002568,-0.00000018,-0.00000991,-0.00000145,0.00001186,-0.0000
 0221,-0.00000650,0.00000941,0.00000225,-0.00000248,0.00000062,0.000004
 15,-0.00000370,0.00000192,0.,0.00000053,-0.00000875,0.00023280,0.00128
 926,-0.00003335,0.00001777,-0.00001157,0.00001389,-0.02326474,-0.06713
 317,0.06409139,-0.00003194,0.00000052,0.00003039,0.00002425,0.00005310
 ,-0.00000176,0.00007071,-0.00003323,0.00002322,-0.00005321,0.00002183,
 0.00000765,0.00003897,0.00003428,-0.00002221,0.00001572,-0.00003973,-0
 .00000567,0.00000465,0.00000499,-0.00000209,-0.00000830,-0.00000250,-0
 .00000509,-0.00000099,-0.00000104,0.00000314,-0.00026303,0.00044836,0.
 00020928,-0.00113869,-0.00058303,-0.00031425,0.00035693,-0.00574328,-0
 .00089252,0.00031049,-0.00406862,-0.00394364,0.00274864,-0.00807580,0.
 02034178,0.00333969,0.00845225,-0.01768735,0.00036551,0.00038244,-0.00
 099445,-0.04788743,-0.01515193,0.00262183,-0.00137238,0.00216692,0.000
 74654,-0.00003068,-0.00002186,0.00000058,0.00021007,-0.00055310,0.0008
 9196,-0.00000434,-0.00000294,0.00000018,0.04466410,0.00000299,-0.00000
 812,-0.00000591,0.00000338,0.00001008,0.00000103,-0.00004170,-0.000012
 43,0.00003454,0.00005696,0.00006299,-0.00002893,-0.00000674,-0.0000290
 0,-0.00001417,-0.00000391,0.00002020,0.00000437,-0.00000102,-0.0000130
 8,-0.00000154,-0.00000065,0.00000313,-0.00000338,-0.00000246,-0.000003
 65,0.00000297,0.00062009,-0.00037963,0.00008751,-0.00048452,-0.0004423
 3,-0.00077718,-0.00596878,0.00040612,0.00065982,-0.00394116,0.00238232
 ,-0.00036640,0.00107933,-0.00670758,0.02173700,0.00004812,0.00667021,-
 0.00912529,-0.00008931,0.00048297,-0.00042213,-0.01504056,-0.09615296,
 0.11068008,0.00193268,-0.00146671,-0.00120031,-0.00001936,0.00003188,-
 0.00000231,-0.00012630,-0.00015950,0.00115613,0.,-0.00000554,0.0000028
 2,0.02043691,0.09668757,0.00001633,0.00003052,-0.00001786,-0.00000989,
 -0.00004757,0.00000034,-0.00003681,0.00008437,0.00000274,0.00000191,-0
 .00035562,0.00005165,-0.00000933,0.00006815,-0.00002318,-0.00000622,-0
 .00000181,-0.00000338,-0.00000398,0.00001041,0.00000337,-0.00000008,-0
 .00000513,0.00000983,0.00000544,0.00000884,-0.00000841,0.00036455,0.00
 030087,-0.00026390,-0.00046507,-0.00085141,0.00058051,-0.00030455,0.00
 164411,0.00198367,-0.00421141,-0.00133209,-0.00076285,-0.00116325,0.00
 039243,-0.00152950,0.00255901,0.01124931,-0.01742084,0.00005355,0.0006
 4928,-0.00083419,0.00223544,0.11048471,-0.28417959,0.00122314,-0.00063
 273,0.00040105,0.00002625,-0.00001644,-0.00001025,-0.00017175,0.000051
 71,-0.00012347,0.00000406,0.00000995,-0.00000289,-0.00107517,-0.120641
 93,0.30108495,0.00002339,0.00002779,-0.00002414,-0.00001350,-0.0000437
 1,0.00000477,-0.00007694,0.00012452,-0.00000248,-0.00001460,-0.0003800
 8,0.00004902,0.00003970,0.00007082,0.00001003,-0.00001249,0.00000253,-
 0.00002012,-0.00000045,0.00001380,0.00000499,0.00000771,-0.00000256,0.
 00000729,0.00000101,0.00000960,-0.00000922,0.00011138,0.00065467,-0.00
 072293,0.00359756,-0.00128735,-0.00130949,-0.00085636,0.00030896,-0.00
 036305,-0.00008008,-0.00552979,0.00406804,0.00218054,-0.00307438,-0.00
 359971,-0.13302516,-0.06814726,0.00925310,-0.00068144,0.00190019,-0.00
 061941,-0.01300211,-0.02003110,0.00188555,-0.00028507,-0.00049923,0.00
 021969,0.00004193,-0.00000863,-0.00000639,-0.00021789,0.00019116,0.000
 17013,0.00000602,0.00000894,-0.00000094,-0.00090872,0.00187613,0.00213
 982,0.52961806,-0.00000552,0.00000771,-0.00000541,-0.00000071,-0.00000
 097,-0.00000158,0.00005701,-0.00000414,0.00001046,-0.00006584,0.000047
 33,-0.00004531,-0.00002152,0.00000389,-0.00003352,0.00000820,0.0000001
 7,0.00001474,-0.00000514,-0.00000195,-0.00000384,-0.00000768,0.0000002
 6,-0.00000204,0.00000439,0.00000074,0.00000281,0.00010737,-0.00007879,
 -0.00026200,-0.00070428,0.00517597,0.00208741,-0.00073773,-0.00138725,
 -0.00053134,-0.01259922,-0.01258617,0.00733722,-0.00213043,0.00478910,
 0.00107916,-0.06557277,-0.14735110,0.01829083,0.00162018,-0.00117664,-
 0.00145623,-0.01182545,-0.00705592,0.00020546,0.00016938,0.00007657,0.
 00007188,-0.00001298,0.00000063,0.00000693,0.00040822,-0.00032953,-0.0
 0017201,-0.00000066,-0.00000146,0.00000134,0.00272954,-0.00143459,-0.0
 0021951,-0.02708050,0.50209779,-0.00001318,0.00002137,0.00001683,-0.00
 000808,0.00003829,0.00000821,0.00005418,0.00001335,0.00000295,0.000209
 02,-0.00036040,-0.00033386,-0.00001105,0.00021688,-0.00004978,0.000024
 47,-0.00003873,-0.00003995,-0.00000060,0.00001068,-0.00000323,-0.00000
 835,-0.00000445,0.00000436,0.00000766,0.00001704,-0.00000122,0.0009617
 5,0.00169537,-0.00044371,-0.00300290,0.00274284,-0.00355096,-0.0001475
 1,-0.00041622,-0.00031200,0.02030452,0.02499395,-0.00284155,-0.0027738
 6,0.00001746,-0.00315940,0.01141022,0.02114782,-0.09159148,0.00187095,
 -0.00075768,0.00046915,-0.01404744,-0.01699759,0.00784088,-0.00088967,
 -0.00084936,0.00024255,-0.00002384,0.00000867,0.00001084,0.00016627,-0
 .00005517,0.00010126,-0.00000318,0.00000060,0.00000291,-0.00082319,-0.
 00134916,0.00013532,0.01513696,-0.00053509,0.58032202,-0.00001071,-0.0
 0000579,0.00000930,0.00000914,0.00002333,0.00000170,0.00002816,-0.0000
 3994,0.00001111,-0.00001088,0.00010138,-0.00003460,0.00000017,-0.00001
 572,-0.00000717,0.00000135,-0.00000493,0.00000406,-0.00000013,-0.00000
 475,-0.00000211,-0.00000133,0.00000063,-0.00000195,-0.00000036,-0.0000
 0286,0.00000321,0.00008904,-0.00009952,0.00005618,-0.00087008,0.000412
 03,-0.00013687,-0.00006923,-0.00038063,0.00027900,0.00037000,0.0002976
 1,-0.00058811,-0.00069456,0.00094859,0.00016886,0.00799301,-0.02182468
 ,-0.00846528,0.00026948,-0.00003543,0.00011535,-0.00100355,-0.00082332
 ,0.00071320,-0.00005012,-0.00010336,-0.00003617,-0.00002491,0.00001056
 ,0.00000114,0.00002934,-0.00001088,-0.00001040,-0.00000224,-0.00000353
 ,0.00000147,0.00022992,-0.00028632,-0.00038227,-0.08034166,0.08074112,
 0.03378629,0.08723403,-0.00001571,-0.00001831,0.00002143,0.00000825,0.
 00004895,0.00000218,0.00004833,-0.00007165,-0.00000197,0.00001147,0.00
 022299,-0.00004543,0.00000589,-0.00004340,0.00000645,-0.00000002,-0.00
 000601,0.00000597,0.00000121,-0.00000524,-0.00000421,-0.00000624,0.000
 00321,-0.00000289,-0.00000497,-0.00000788,0.00000811,0.00001463,-0.000
 30045,0.00027849,-0.00119578,0.00062699,0.00000254,0.00006012,-0.00021
 558,-0.00012067,-0.00091540,0.00084403,-0.00087575,-0.00111624,0.00023
 769,0.00051900,0.00460080,-0.02214516,-0.00727651,0.00064979,-0.000592
 03,0.00009558,0.00010987,-0.00025070,0.00156534,-0.00012914,-0.0000955
 2,-0.00000065,-0.00003583,0.00001948,0.00000652,0.00008465,-0.00009428
 ,-0.00002476,-0.00000501,-0.00000846,0.00000361,0.00036781,-0.00037961
 ,-0.00030951,0.08389700,-0.23661432,-0.07977490,-0.08758001,0.25920708
 ,-0.00000739,-0.00000109,0.00000726,0.00000762,0.00000859,-0.00000286,
 -0.00000810,-0.00001887,0.00000148,-0.00000118,0.00003105,0.00001016,-
 0.00000447,0.00000072,-0.00000125,0.00000246,-0.00000567,-0.00000272,0
 .00000349,0.00000018,0.00000056,0.00000434,0.00000104,-0.00000067,-0.0
 0000036,-0.00000029,0.00000043,0.00001979,0.00002749,0.00002024,-0.000
 86346,-0.00128671,-0.00039469,0.00054585,0.00014401,0.00101037,0.00137
 012,0.00125900,-0.00065827,0.00020663,0.00087945,-0.00059632,-0.003127
 43,0.00575199,0.00292498,-0.00017213,0.00012209,-0.00016781,-0.0013410
 1,-0.00065141,0.00001763,0.00002703,-0.00004161,-0.00002529,-0.0000018
 7,-0.00000426,0.00000061,0.00004936,-0.00007187,-0.00001699,0.,-0.0000
 0100,-0.00000017,0.00023363,-0.00029759,-0.00003309,0.03436509,-0.0782
 5226,-0.08007940,-0.03845338,0.08686101,0.08268065,-0.00001052,-0.0000
 1401,0.00001765,0.00001285,0.00003208,0.00000126,0.00003285,-0.0000527
 3,0.00001439,0.00001560,0.00015343,-0.00004024,0.00001232,-0.00002118,
 0.00001046,0.00000529,-0.00000568,0.00000210,-0.00000122,-0.00000583,-
 0.00000395,-0.00000786,0.00000230,-0.00000792,-0.00000534,-0.00000455,
 0.00000256,0.00001016,-0.00013928,0.00029916,-0.00005738,-0.00071883,-
 0.00050262,0.00010821,0.00001094,0.00058280,0.00130878,0.00049346,-0.0
 0149782,0.00046970,-0.00010310,-0.00114549,-0.01697603,0.00281498,-0.0
 0973597,-0.00023658,0.00010386,0.00116144,-0.00192146,-0.00238687,0.00
 224117,-0.00019075,-0.00021138,0.00004663,-0.00004006,0.00001499,-0.00
 000850,-0.00004278,0.00006562,0.00010082,-0.00000519,-0.00000526,0.000
 00024,-0.00007947,0.00026138,0.00009323,-0.24872819,0.04033761,-0.1031
 8584,-0.01072039,0.00271293,-0.00557838,0.27010372,0.00000179,-0.00000
 121,-0.00000221,0.00000837,-0.00000239,0.00000118,-0.00000228,-0.00000
 603,0.00002020,0.00000036,0.00001584,-0.00001636,0.00000788,-0.0000015
 5,0.00000529,-0.00000065,0.00000557,-0.00000279,-0.00000215,-0.0000030
 2,-0.00000071,0.00000052,-0.00000065,-0.00000235,0.00000003,0.00000018
 ,-0.00000153,0.00002492,0.00003193,0.00001696,0.00032609,-0.00003907,-
 0.00030825,-0.00016014,0.00006775,-0.00024431,0.00008227,0.00045560,-0
 .00085365,-0.00027051,-0.00104989,-0.00081522,-0.02468792,0.00304538,-
 0.01315272,0.00006391,0.00023597,0.00052577,-0.00218650,-0.00238283,0.
 00203740,-0.00019295,-0.00029468,0.00002767,-0.00001830,0.00000198,-0.
 00000814,-0.00000192,0.00001195,0.00003277,-0.00000034,0.00000043,-0.0
 0000120,-0.00019470,0.00018122,0.00007820,0.04193343,-0.05414341,0.023
 15025,0.02492939,-0.00477389,0.01425351,-0.04216779,0.06023830,0.00000
 084,-0.00001253,0.00000148,0.00000239,0.00000451,-0.00000212,-0.000001
 61,-0.00003202,0.00000564,0.00002138,0.00014505,-0.00001477,-0.0000090
 0,-0.00002948,0.00001309,0.00000200,0.00000952,-0.00000131,0.00000050,
 -0.00000662,-0.00000062,0.00000408,0.00000198,-0.00000392,-0.00000097,
 -0.00000254,0.00000129,-0.00007056,-0.00018662,0.00017851,-0.00005563,
 -0.00069026,-0.00017067,0.00029512,0.00013144,0.00017570,0.00129722,0.
 00104631,0.00028703,-0.00001315,-0.00001392,0.00007156,0.00528414,-0.0
 0262611,0.00212423,-0.00021202,0.00040164,-0.00007247,-0.00017938,0.00
 042524,-0.00004764,-0.00000579,0.00001517,0.00000014,-0.00000511,-0.00
 000057,0.00000149,-0.00012952,0.00007549,0.00007206,-0.00000102,-0.000
 00225,-0.00000057,0.00014467,0.00013373,0.00045001,-0.10365189,0.02260
 218,-0.10377918,0.01167067,-0.00193507,0.00603914,0.11452704,-0.025498
 14,0.10753694,0.00000067,-0.00001002,-0.00000090,0.00000225,0.00000493
 ,0.00000108,0.00000314,-0.00001572,-0.00000693,-0.00005633,0.00015911,
 0.00003760,0.00000792,-0.00006050,0.00001844,-0.00000512,0.00000989,0.
 00001236,0.00000019,-0.00000393,-0.00000162,-0.00000120,0.00000226,-0.
 00000383,-0.00000406,-0.00000578,0.00000287,-0.00025187,-0.00038516,0.
 00012272,0.00128560,-0.00001009,0.00061650,-0.00027643,-0.00004382,-0.
 00032488,-0.00266232,-0.00314079,-0.00048736,-0.00010210,0.00003774,0.
 00019147,-0.00338327,-0.00126777,0.02110846,-0.00011110,0.00014006,0.0
 0029333,0.00088054,-0.00012464,0.00126209,0.00001184,0.00004025,-0.000
 01092,-0.00000897,0.00001073,-0.00000223,0.00003102,-0.00001230,-0.000
 06967,-0.00000063,-0.00000363,0.00000102,-0.00060045,-0.00030518,-0.00
 088293,-0.05738264,-0.00541260,0.04100639,-0.00245347,-0.00156841,0.01
 272372,0.00694372,0.00250718,-0.02891442,0.05813307,-0.00000062,-0.000
 01642,0.00000104,0.00000252,0.00000913,-0.00000231,-0.00000615,-0.0000
 3403,0.00000375,-0.00004210,0.00019850,0.00007538,0.00000456,-0.000079
 79,0.00001553,-0.00000687,0.00001276,0.00001162,0.00000065,-0.00000865
 ,-0.00000020,0.00000093,0.00000199,-0.00000317,-0.00000342,-0.00000762
 ,0.00000237,-0.00018802,-0.00063242,0.00013077,0.00034460,-0.00033967,
 0.00084631,0.00002815,0.00005179,0.00004518,-0.00405765,-0.00255029,-0
 .00020394,0.00021689,-0.00017419,-0.00004574,-0.00388562,-0.00462110,0
 .02641078,-0.00005348,0.00007517,-0.00009754,0.00118520,0.00047749,0.0
 0077412,0.00002029,0.00001516,-0.00001961,-0.00000506,0.00000913,0.000
 00304,-0.00004049,0.00001467,-0.00004811,-0.00000033,-0.00000322,0.000
 00063,-0.00062719,0.00025604,-0.00064910,-0.00493495,-0.05003393,0.027
 06414,0.00375703,0.00441207,-0.02870751,-0.00116710,-0.00159347,0.0060
 4389,0.00945820,0.05456091,0.00000282,0.00002650,-0.00000381,-0.000003
 06,-0.00002092,-0.00000133,0.00000027,0.00006415,0.00001355,-0.0000295
 7,-0.00033796,0.00003910,0.00000897,0.00007446,-0.00002831,-0.00000022
 ,-0.00001870,-0.00000467,-0.00000260,0.00001134,0.00000289,-0.00000442
 ,-0.00000594,0.00000879,0.00000449,0.00000745,-0.00000657,0.00019601,0
 .00043465,-0.00024362,-0.00070002,-0.00041032,0.00007450,0.00011074,-0
 .00002932,0.00026915,0.00142309,0.00081778,0.00047106,0.00005050,0.000
 60000,0.00027884,-0.00040728,0.00066080,-0.00405117,0.00002786,-0.0002
 4765,0.00030983,-0.00160698,-0.00124079,0.00058006,0.00006879,0.000025
 68,-0.00001508,0.00001315,-0.00001874,-0.00000776,0.00010737,-0.000050
 27,0.00002704,0.00000215,0.00000870,-0.00000248,0.00051253,-0.00026377
 ,0.00050998,0.04301526,0.02980972,-0.30297155,0.00129676,0.00099610,-0
 .01073400,0.00260578,0.00075839,-0.01286503,-0.04669239,-0.03165134,0.
 32835058\\-0.00000322,0.00000177,0.00000229,0.00000221,0.00000235,-0.0
 0000290,0.00000121,-0.00000543,-0.00000014,0.00000060,-0.00000241,0.00
 000088,0.00000074,0.00000695,-0.00000060,0.00000108,-0.00000409,-0.000
 00253,-0.00000040,-0.00000144,0.00000107,-0.00000109,-0.00000079,-0.00
 000011,-0.00000103,0.00000011,-0.00000074,-0.00000258,-0.00000060,0.00
 000877,-0.00000411,0.00000076,-0.00001439,0.00000023,-0.00000224,0.000
 00979,0.00000203,0.00000203,-0.00000029,0.00000341,0.00000262,-0.00000
 400,0.00000009,0.00000103,0.00000002,-0.00000181,0.00000070,0.00000102
 ,0.00000072,-0.00000065,0.00000107,-0.00000003,0.00000009,-0.00000056,
 0.00000027,-0.00000103,0.00000155,-0.00000045,0.00000107,-0.00000348,0
 .00000036,-0.00000099,-0.00000058,-0.00000075,-0.00000067,-0.00000010,
 0.00000150,0.00000079,0.00000243,0.00000018,0.00000017,0.00000023,0.00
 000086,0.00000048,0.00000118,-0.00000006,-0.00000060,0.00000013\\\@


 THE UNDERLYING PHYSICAL LAWS NECESSARY FOR THE 
 MATHEMATICAL THEORY OF A LARGE PART OF PHYSICS AND THE
 WHOLE OF CHEMISTRY ARE THUS COMPLETELY KNOWN, AND THE
 DIFFICULTY IS ONLY THAT THE EXACT APPLICATION OF THESE
 LAWS LEADS TO EQUATIONS MUCH TOO COMPLICATED 
 TO BE SOLUBLE.

                                        -- P. A. M. DIRAC, 1929
 Job cpu time:       0 days  1 hours 49 minutes 11.5 seconds.
 Elapsed time:       0 days  0 hours  3 minutes 38.4 seconds.
 File lengths (MBytes):  RWF=    232 Int=      0 D2E=      0 Chk=      9 Scr=      1
 Normal termination of Gaussian 16 at Fri Sep 15 09:35:16 2023.
