 Entering Gaussian System, Link 0=/home/ubuntu/g16/g16
 Input=/home/ubuntu/New/molecule_125.gjf
 Output=/home/ubuntu/New/molecule_125.log
 Initial command:
 /home/ubuntu/g16/l1.exe "/home/ubuntu/Scratch/Gau-161994.inp" -scrdir="/home/ubuntu/Scratch/"
 Entering Link 1 = /home/ubuntu/g16/l1.exe PID=    161996.
  
 Copyright (c) 1988-2017, Gaussian, Inc.  All Rights Reserved.
  
 This is part of the Gaussian(R) 16 program.  It is based on
 the Gaussian(R) 09 system (copyright 2009, Gaussian, Inc.),
 the Gaussian(R) 03 system (copyright 2003, Gaussian, Inc.),
 the Gaussian(R) 98 system (copyright 1998, Gaussian, Inc.),
 the Gaussian(R) 94 system (copyright 1995, Gaussian, Inc.),
 the Gaussian 92(TM) system (copyright 1992, Gaussian, Inc.),
 the Gaussian 90(TM) system (copyright 1990, Gaussian, Inc.),
 the Gaussian 88(TM) system (copyright 1988, Gaussian, Inc.),
 the Gaussian 86(TM) system (copyright 1986, Carnegie Mellon
 University), and the Gaussian 82(TM) system (copyright 1983,
 Carnegie Mellon University). Gaussian is a federally registered
 trademark of Gaussian, Inc.
  
 This software contains proprietary and confidential information,
 including trade secrets, belonging to Gaussian, Inc.
  
 This software is provided under written license and may be
 used, copied, transmitted, or stored only in accord with that
 written license.
  
 The following legend is applicable only to US Government
 contracts under FAR:
  
                    RESTRICTED RIGHTS LEGEND
  
 Use, reproduction and disclosure by the US Government is
 subject to restrictions as set forth in subparagraphs (a)
 and (c) of the Commercial Computer Software - Restricted
 Rights clause in FAR 52.227-19.
  
 Gaussian, Inc.
 340 Quinnipiac St., Bldg. 40, Wallingford CT 06492
  
  
 ---------------------------------------------------------------
 Warning -- This program may not be used in any manner that
 competes with the business of Gaussian, Inc. or will provide
 assistance to any competitor of Gaussian, Inc.  The licensee
 of this program is prohibited from giving any competitor of
 Gaussian, Inc. access to this program.  By using this program,
 the user acknowledges that Gaussian, Inc. is engaged in the
 business of creating and licensing software in the field of
 computational chemistry and represents and warrants to the
 licensee that it is not a competitor of Gaussian, Inc. and that
 it will not use this program in any manner prohibited above.
 ---------------------------------------------------------------
  

 Cite this work as:
 Gaussian 16, Revision B.01,
 M. J. Frisch, G. W. Trucks, H. B. Schlegel, G. E. Scuseria, 
 M. A. Robb, J. R. Cheeseman, G. Scalmani, V. Barone, 
 G. A. Petersson, H. Nakatsuji, X. Li, M. Caricato, A. V. Marenich, 
 J. Bloino, B. G. Janesko, R. Gomperts, B. Mennucci, H. P. Hratchian, 
 J. V. Ortiz, A. F. Izmaylov, J. L. Sonnenberg, D. Williams-Young, 
 F. Ding, F. Lipparini, F. Egidi, J. Goings, B. Peng, A. Petrone, 
 T. Henderson, D. Ranasinghe, V. G. Zakrzewski, J. Gao, N. Rega, 
 G. Zheng, W. Liang, M. Hada, M. Ehara, K. Toyota, R. Fukuda, 
 J. Hasegawa, M. Ishida, T. Nakajima, Y. Honda, O. Kitao, H. Nakai, 
 T. Vreven, K. Throssell, J. A. Montgomery, Jr., J. E. Peralta, 
 F. Ogliaro, M. J. Bearpark, J. J. Heyd, E. N. Brothers, K. N. Kudin, 
 V. N. Staroverov, T. A. Keith, R. Kobayashi, J. Normand, 
 K. Raghavachari, A. P. Rendell, J. C. Burant, S. S. Iyengar, 
 J. Tomasi, M. Cossi, J. M. Millam, M. Klene, C. Adamo, R. Cammi, 
 J. W. Ochterski, R. L. Martin, K. Morokuma, O. Farkas, 
 J. B. Foresman, and D. J. Fox, Gaussian, Inc., Wallingford CT, 2016.
 
 ******************************************
 Gaussian 16:  EM64L-G16RevB.01 20-Dec-2017
                18-Sep-2023 
 ******************************************
 %nprocshared=30
 Will use up to   30 processors via shared memory.
 %mem=30GB
 %chk=molecule_125.chk
 ----------------------------------------------------------------------
 # opt freq b3lyp/6-31+g(d) geom=connectivity empiricaldispersion=gd3 v
 olume
 ----------------------------------------------------------------------
 1/18=20,19=15,26=3,38=1,57=2/1,3;
 2/9=110,12=2,17=6,18=5,40=1/2;
 3/5=1,6=6,7=11,11=2,25=1,30=1,71=1,74=-5,124=31/1,2,3;
 4//1;
 5/5=2,38=5/2;
 6/7=2,8=2,9=2,10=2,28=1,44=1/1,4;
 7//1,2,3,16;
 1/18=20,19=15,26=3/3(2);
 2/9=110/2;
 99//99;
 2/9=110/2;
 3/5=1,6=6,7=11,11=2,25=1,30=1,71=1,74=-5,124=31/1,2,3;
 4/5=5,16=3,69=1/1;
 5/5=2,38=5/2;
 7//1,2,3,16;
 1/18=20,19=15,26=3/3(-5);
 2/9=110/2;
 6/7=2,8=2,9=2,10=2,19=2,28=1,44=1/1,4;
 99/9=1/99;
 --------------
 ML molecule102
 --------------
 Symbolic Z-matrix:
 Charge =  0 Multiplicity = 1
 C                    -4.74942  -0.23058  -0.40002 
 C                    -4.8202    0.23854  -1.71867 
 C                    -4.55025   1.58484  -1.99888 
 C                    -4.20951   2.46203  -0.96044 
 C                    -4.13873   1.99291   0.35822 
 C                    -4.40868   0.64661   0.63842 
 H                    -5.08036  -0.43121  -2.51155 
 H                    -3.87857   2.66266   1.15109 
 H                    -4.35464   0.28843   1.64524 
 O                    -3.91049   3.9533   -1.27081 
 C                    -3.81752   4.69985  -2.77936 
 C                    -4.13168   3.88761  -3.87731 
 C                    -3.30395   5.98751  -2.98454 
 C                    -3.10452   6.46292  -4.28767 
 H                    -3.06408   6.60768  -2.14623 
 C                    -3.41867   5.65068  -5.38561 
 H                    -2.7124    7.44608  -4.44432 
 H                    -4.60429   1.94302  -3.0057 
 H                    -4.5238    2.90445  -3.72065 
 H                    -3.26641   6.01366  -6.38058 
 N                    -3.93225   4.36302  -5.18043 
 C                    -5.04607  -1.71003  -0.0921 
 N                    -5.26952  -2.82443   0.13984 
 

 GradGradGradGradGradGradGradGradGradGradGradGradGradGradGradGradGradGrad
 Berny optimization.
 Initialization pass.
                           ----------------------------
                           !    Initial Parameters    !
                           ! (Angstroms and Degrees)  !
 --------------------------                            --------------------------
 ! Name  Definition              Value          Derivative Info.                !
 --------------------------------------------------------------------------------
 ! R1    R(1,2)                  1.4014         estimate D2E/DX2                !
 ! R2    R(1,6)                  1.4014         estimate D2E/DX2                !
 ! R3    R(1,22)                 1.54           estimate D2E/DX2                !
 ! R4    R(2,3)                  1.4014         estimate D2E/DX2                !
 ! R5    R(2,7)                  1.07           estimate D2E/DX2                !
 ! R6    R(3,4)                  1.4014         estimate D2E/DX2                !
 ! R7    R(3,18)                 1.07           estimate D2E/DX2                !
 ! R8    R(4,5)                  1.4014         estimate D2E/DX2                !
 ! R9    R(4,10)                 1.5523         estimate D2E/DX2                !
 ! R10   R(5,6)                  1.4014         estimate D2E/DX2                !
 ! R11   R(5,8)                  1.07           estimate D2E/DX2                !
 ! R12   R(6,9)                  1.07           estimate D2E/DX2                !
 ! R13   R(10,11)                1.6857         estimate D2E/DX2                !
 ! R14   R(11,12)                1.4014         estimate D2E/DX2                !
 ! R15   R(11,13)                1.4014         estimate D2E/DX2                !
 ! R16   R(12,19)                1.07           estimate D2E/DX2                !
 ! R17   R(12,21)                1.4014         estimate D2E/DX2                !
 ! R18   R(13,14)                1.4014         estimate D2E/DX2                !
 ! R19   R(13,15)                1.07           estimate D2E/DX2                !
 ! R20   R(14,16)                1.4014         estimate D2E/DX2                !
 ! R21   R(14,17)                1.07           estimate D2E/DX2                !
 ! R22   R(16,20)                1.07           estimate D2E/DX2                !
 ! R23   R(16,21)                1.4014         estimate D2E/DX2                !
 ! R24   R(22,23)                1.16           estimate D2E/DX2                !
 ! A1    A(2,1,6)              120.0            estimate D2E/DX2                !
 ! A2    A(2,1,22)             120.0            estimate D2E/DX2                !
 ! A3    A(6,1,22)             120.0            estimate D2E/DX2                !
 ! A4    A(1,2,3)              120.0            estimate D2E/DX2                !
 ! A5    A(1,2,7)              120.0            estimate D2E/DX2                !
 ! A6    A(3,2,7)              120.0            estimate D2E/DX2                !
 ! A7    A(2,3,4)              120.0            estimate D2E/DX2                !
 ! A8    A(2,3,18)             120.0            estimate D2E/DX2                !
 ! A9    A(4,3,18)             120.0            estimate D2E/DX2                !
 ! A10   A(3,4,5)              120.0            estimate D2E/DX2                !
 ! A11   A(3,4,10)             120.0            estimate D2E/DX2                !
 ! A12   A(5,4,10)             120.0            estimate D2E/DX2                !
 ! A13   A(4,5,6)              120.0            estimate D2E/DX2                !
 ! A14   A(4,5,8)              120.0            estimate D2E/DX2                !
 ! A15   A(6,5,8)              120.0            estimate D2E/DX2                !
 ! A16   A(1,6,5)              120.0            estimate D2E/DX2                !
 ! A17   A(1,6,9)              120.0            estimate D2E/DX2                !
 ! A18   A(5,6,9)              120.0            estimate D2E/DX2                !
 ! A19   A(4,10,11)            127.9526         estimate D2E/DX2                !
 ! A20   A(10,11,12)           115.5989         estimate D2E/DX2                !
 ! A21   A(10,11,13)           123.9281         estimate D2E/DX2                !
 ! A22   A(12,11,13)           120.0            estimate D2E/DX2                !
 ! A23   A(11,12,19)           120.0            estimate D2E/DX2                !
 ! A24   A(11,12,21)           120.0            estimate D2E/DX2                !
 ! A25   A(19,12,21)           120.0            estimate D2E/DX2                !
 ! A26   A(11,13,14)           120.0            estimate D2E/DX2                !
 ! A27   A(11,13,15)           120.0            estimate D2E/DX2                !
 ! A28   A(14,13,15)           120.0            estimate D2E/DX2                !
 ! A29   A(13,14,16)           120.0            estimate D2E/DX2                !
 ! A30   A(13,14,17)           120.0            estimate D2E/DX2                !
 ! A31   A(16,14,17)           120.0            estimate D2E/DX2                !
 ! A32   A(14,16,20)           120.0            estimate D2E/DX2                !
 ! A33   A(14,16,21)           120.0            estimate D2E/DX2                !
 ! A34   A(20,16,21)           120.0            estimate D2E/DX2                !
 ! A35   A(12,21,16)           120.0            estimate D2E/DX2                !
 ! A36   L(1,22,23,7,-1)       180.0            estimate D2E/DX2                !
 ! A37   L(1,22,23,7,-2)       180.0            estimate D2E/DX2                !
 ! D1    D(6,1,2,3)              0.0001         estimate D2E/DX2                !
 ! D2    D(6,1,2,7)           -179.9998         estimate D2E/DX2                !
 ! D3    D(22,1,2,3)          -179.9999         estimate D2E/DX2                !
 ! D4    D(22,1,2,7)             0.0002         estimate D2E/DX2                !
 ! D5    D(2,1,6,5)             -0.0001         estimate D2E/DX2                !
 ! D6    D(2,1,6,9)            179.9998         estimate D2E/DX2                !
 ! D7    D(22,1,6,5)           179.9999         estimate D2E/DX2                !
 ! D8    D(22,1,6,9)            -0.0002         estimate D2E/DX2                !
 ! D9    D(1,2,3,4)              0.0001         estimate D2E/DX2                !
 ! D10   D(1,2,3,18)          -179.9999         estimate D2E/DX2                !
 ! D11   D(7,2,3,4)            179.9999         estimate D2E/DX2                !
 ! D12   D(7,2,3,18)            -0.0001         estimate D2E/DX2                !
 ! D13   D(2,3,4,5)             -0.0002         estimate D2E/DX2                !
 ! D14   D(2,3,4,10)           179.9998         estimate D2E/DX2                !
 ! D15   D(18,3,4,5)           179.9998         estimate D2E/DX2                !
 ! D16   D(18,3,4,10)           -0.0002         estimate D2E/DX2                !
 ! D17   D(3,4,5,6)              0.0001         estimate D2E/DX2                !
 ! D18   D(3,4,5,8)           -180.0            estimate D2E/DX2                !
 ! D19   D(10,4,5,6)          -179.9999         estimate D2E/DX2                !
 ! D20   D(10,4,5,8)             0.0            estimate D2E/DX2                !
 ! D21   D(3,4,10,11)           -5.2547         estimate D2E/DX2                !
 ! D22   D(5,4,10,11)          174.7453         estimate D2E/DX2                !
 ! D23   D(4,5,6,1)              0.0            estimate D2E/DX2                !
 ! D24   D(4,5,6,9)           -179.9999         estimate D2E/DX2                !
 ! D25   D(8,5,6,1)           -179.9999         estimate D2E/DX2                !
 ! D26   D(8,5,6,9)              0.0002         estimate D2E/DX2                !
 ! D27   D(4,10,11,12)           4.3564         estimate D2E/DX2                !
 ! D28   D(4,10,11,13)        -167.7268         estimate D2E/DX2                !
 ! D29   D(10,11,12,19)          7.5833         estimate D2E/DX2                !
 ! D30   D(10,11,12,21)       -172.4167         estimate D2E/DX2                !
 ! D31   D(13,11,12,19)       -179.9998         estimate D2E/DX2                !
 ! D32   D(13,11,12,21)          0.0002         estimate D2E/DX2                !
 ! D33   D(10,11,13,14)        171.7535         estimate D2E/DX2                !
 ! D34   D(10,11,13,15)         -8.2466         estimate D2E/DX2                !
 ! D35   D(12,11,13,14)          0.0            estimate D2E/DX2                !
 ! D36   D(12,11,13,15)        179.9999         estimate D2E/DX2                !
 ! D37   D(11,12,21,16)         -0.0002         estimate D2E/DX2                !
 ! D38   D(19,12,21,16)        179.9998         estimate D2E/DX2                !
 ! D39   D(11,13,14,16)         -0.0001         estimate D2E/DX2                !
 ! D40   D(11,13,14,17)        179.9999         estimate D2E/DX2                !
 ! D41   D(15,13,14,16)        179.9999         estimate D2E/DX2                !
 ! D42   D(15,13,14,17)          0.0            estimate D2E/DX2                !
 ! D43   D(13,14,16,20)       -179.9999         estimate D2E/DX2                !
 ! D44   D(13,14,16,21)          0.0001         estimate D2E/DX2                !
 ! D45   D(17,14,16,20)          0.0            estimate D2E/DX2                !
 ! D46   D(17,14,16,21)       -180.0            estimate D2E/DX2                !
 ! D47   D(14,16,21,12)          0.0001         estimate D2E/DX2                !
 ! D48   D(20,16,21,12)       -179.9999         estimate D2E/DX2                !
 --------------------------------------------------------------------------------
 Trust Radius=3.00D-01 FncErr=1.00D-07 GrdErr=1.00D-06 EigMax=2.50D+02 EigMin=1.00D-04
 Number of steps in this run=    119 maximum allowed number of steps=    138.
 GradGradGradGradGradGradGradGradGradGradGradGradGradGradGradGradGradGrad

                          Input orientation:                          
 ---------------------------------------------------------------------
 Center     Atomic      Atomic             Coordinates (Angstroms)
 Number     Number       Type             X           Y           Z
 ---------------------------------------------------------------------
      1          6           0       -4.749416   -0.230579   -0.400021
      2          6           0       -4.820199    0.238538   -1.718672
      3          6           0       -4.550247    1.584841   -1.998879
      4          6           0       -4.209510    2.462026   -0.960435
      5          6           0       -4.138728    1.992910    0.358216
      6          6           0       -4.408682    0.646607    0.638423
      7          1           0       -5.080361   -0.431212   -2.511547
      8          1           0       -3.878568    2.662660    1.151091
      9          1           0       -4.354640    0.288426    1.645243
     10          8           0       -3.910486    3.953296   -1.270814
     11          6           0       -3.817523    4.699853   -2.779363
     12          6           0       -4.131676    3.887607   -3.877310
     13          6           0       -3.303947    5.987511   -2.984541
     14          6           0       -3.104523    6.462923   -4.287666
     15          1           0       -3.064085    6.607679   -2.146234
     16          6           0       -3.418674    5.650677   -5.385613
     17          1           0       -2.712397    7.446079   -4.444324
     18          1           0       -4.604292    1.943023   -3.005698
     19          1           0       -4.523805    2.904453   -3.720651
     20          1           0       -3.266408    6.013665   -6.380578
     21          7           0       -3.932249    4.363019   -5.180435
     22          6           0       -5.046066   -1.710033   -0.092102
     23          7           0       -5.269517   -2.824427    0.139838
 ---------------------------------------------------------------------
                    Distance matrix (angstroms):
                    1          2          3          4          5
     1  C    0.000000
     2  C    1.401400   0.000000
     3  C    2.427296   1.401400   0.000000
     4  C    2.802800   2.427296   1.401400   0.000000
     5  C    2.427296   2.802800   2.427296   1.401400   0.000000
     6  C    1.401400   2.427296   2.802800   2.427296   1.401400
     7  H    2.146700   1.070000   2.146700   3.396345   3.872800
     8  H    3.396345   3.872800   3.396345   2.146700   1.070000
     9  H    2.146700   3.396345   3.872800   3.396345   2.146700
    10  O    4.355100   3.850660   2.559092   1.552300   2.559092
    11  C    5.553274   4.694012   3.293833   2.910330   4.156335
    12  C    5.425182   4.295286   3.001072   3.247537   4.640001
    13  C    6.887218   6.078827   4.680630   4.164864   5.275199
    14  C    7.913434   6.948831   5.578920   5.319647   6.529535
    15  H    7.256127   6.620627   5.240161   4.461452   5.359405
    16  C    7.824077   6.685954   5.411233   5.511362   6.847577
    17  H    8.912739   7.988783   6.611506   6.262556   7.405125
    18  H    3.396345   2.146700   1.070000   2.146700   3.396345
    19  H    4.572298   3.347069   2.169464   2.813062   4.197184
    20  H    8.772511   7.582857   6.360975   6.548399   7.895490
    21  N    6.679914   5.457435   4.268781   4.636706   6.027993
    22  C    1.540000   2.548270   3.838989   4.342800   3.838989
    23  N    2.700000   3.610776   4.953091   5.502800   4.953091
                    6          7          8          9         10
     6  C    0.000000
     7  H    3.396345   0.000000
     8  H    2.146700   4.942800   0.000000
     9  H    1.070000   4.280590   2.471400   0.000000
    10  O    3.850660   4.704459   2.744520   4.704459   0.000000
    11  C    5.334748   5.290965   4.427454   6.271070   1.685736
    12  C    5.565309   4.627906   5.181638   6.595635   2.616688
    13  C    6.547638   6.676779   5.337441   7.417441   2.728146
    14  C    7.732834   7.388345   6.679913   8.653706   4.006145
    15  H    6.715403   7.331085   5.205662   7.481563   2.920360
    16  C    7.893659   6.928985   7.201962   8.891721   4.478231
    17  H    8.657051   8.449532   7.453169   9.540010   4.868893
    18  H    3.872800   2.471400   4.280590   4.942800   2.744520
    19  H    4.910464   3.591427   4.920231   5.972021   2.734581
    20  H    8.909348   7.732804   8.266197   9.918488   5.547039
    21  N    6.920825   5.605869   6.556091   7.960565   3.931091
    22  C    2.548270   2.736837   4.693509   2.736837   5.895100
    23  N    3.610776   3.576744   5.750261   3.576744   7.055100
                   11         12         13         14         15
    11  C    0.000000
    12  C    1.401400   0.000000
    13  C    1.401400   2.427296   0.000000
    14  C    2.427296   2.802800   1.401400   0.000000
    15  H    2.146700   3.396345   1.070000   2.146700   0.000000
    16  C    2.802800   2.427296   2.427296   1.401400   3.396345
    17  H    3.396345   3.872800   2.146700   1.070000   2.471400
    18  H    2.875821   2.182769   4.248439   4.931759   4.986976
    19  H    2.146700   1.070000   3.396345   3.872800   4.280590
    20  H    3.872800   3.396345   3.396345   2.146700   4.280590
    21  N    2.427296   1.401400   2.802800   2.427296   3.872800
    22  C    7.058139   6.818907   8.405556   9.389865   8.793864
    23  N    8.200293   7.904654   9.553819  10.514032   9.952622
                   16         17         18         19         20
    16  C    0.000000
    17  H    2.146700   0.000000
    18  H    4.562498   5.994376   0.000000
    19  H    3.396345   4.942800   1.200826   0.000000
    20  H    1.070000   2.471400   5.454344   4.280590   0.000000
    21  N    1.401400   3.396345   3.322273   2.146700   2.146700
    22  C    9.211391  10.402992   4.693509   5.893438  10.117689
    23  N   10.285116  11.534154   5.750261   6.948347  11.164234
                   21         22         23
    21  N    0.000000
    22  C    8.000855   0.000000
    23  N    9.041734   1.160000   0.000000
 Stoichiometry    C12H8N2O
 Framework group  C1[X(C12H8N2O)]
 Deg. of freedom    63
 Full point group                 C1      NOp   1
 Largest Abelian subgroup         C1      NOp   1
 Largest concise Abelian subgroup C1      NOp   1
                         Standard orientation:                         
 ---------------------------------------------------------------------
 Center     Atomic      Atomic             Coordinates (Angstroms)
 Number     Number       Type             X           Y           Z
 ---------------------------------------------------------------------
      1          6           0       -3.263076   -0.149253    0.028517
      2          6           0       -2.182903   -1.035921   -0.076213
      3          6           0       -0.872912   -0.541074   -0.130726
      4          6           0       -0.643094    0.840441   -0.080507
      5          6           0       -1.723267    1.727109    0.024221
      6          6           0       -3.033258    1.232262    0.078733
      7          1           0       -2.358375   -2.090738   -0.114557
      8          1           0       -1.547796    2.781927    0.062564
      9          1           0       -3.857994    1.909253    0.158694
     10          8           0        0.807955    1.388572   -0.140887
     11          6           0        2.247959    0.512168   -0.144312
     12          6           0        2.108330   -0.881769   -0.181267
     13          6           0        3.512643    1.084873    0.046749
     14          6           0        4.637699    0.263642    0.200855
     15          1           0        3.619252    2.149175    0.074964
     16          6           0        4.498071   -1.130295    0.163902
     17          1           0        5.603314    0.700915    0.346733
     18          1           0       -0.048176   -1.218064   -0.210691
     19          1           0        1.142716   -1.319042   -0.327149
     20          1           0        5.357076   -1.757324    0.281566
     21          7           0        3.233386   -1.703001   -0.027158
     22          6           0       -4.702627   -0.693041    0.088423
     23          7           0       -5.786963   -1.102648    0.133547
 ---------------------------------------------------------------------
 Rotational constants (GHZ):           2.0501127           0.2406568           0.2159235
 Standard basis: 6-31+G(d) (6D, 7F)
 There are   301 symmetry adapted cartesian basis functions of A   symmetry.
 There are   301 symmetry adapted basis functions of A   symmetry.
   301 basis functions,   512 primitive gaussians,   301 cartesian basis functions
    51 alpha electrons       51 beta electrons
       nuclear repulsion energy       805.6356098649 Hartrees.
 NAtoms=   23 NActive=   23 NUniq=   23 SFac= 1.00D+00 NAtFMM=   60 NAOKFM=F Big=F
 Integral buffers will be    131072 words long.
 Raffenetti 2 integral format.
 Two-electron integral symmetry is turned on.
 Nuclear repulsion after empirical dispersion term =      805.6188622078 Hartrees.
 One-electron integrals computed using PRISM.
 NBasis=   301 RedAO= T EigKep=  1.62D-06  NBF=   301
 NBsUse=   300 1.00D-06 EigRej=  9.19D-07 NBFU=   300
 ExpMin= 4.38D-02 ExpMax= 5.48D+03 ExpMxC= 8.25D+02 IAcc=3 IRadAn=         5 AccDes= 0.00D+00
 Harris functional with IExCor=  402 and IRadAn=       5 diagonalized for initial guess.
 HarFok:  IExCor=  402 AccDes= 0.00D+00 IRadAn=         5 IDoV= 1 UseB2=F ITyADJ=14
 ICtDFT=  3500011 ScaDFX=  1.000000  1.000000  1.000000  1.000000
 FoFCou: FMM=F IPFlag=           0 FMFlag=      100000 FMFlg1=           0
         NFxFlg=           0 DoJE=T BraDBF=F KetDBF=T FulRan=T
         wScrn=  0.000000 ICntrl=       500 IOpCl=  0 I1Cent=   200000004 NGrid=           0
         NMat0=    1 NMatS0=      1 NMatT0=    0 NMatD0=    1 NMtDS0=    0 NMtDT0=    0
 Petite list used in FoFCou.
 Requested convergence on RMS density matrix=1.00D-08 within 128 cycles.
 Requested convergence on MAX density matrix=1.00D-06.
 Requested convergence on             energy=1.00D-06.
 No special actions if energy rises.
 SCF Done:  E(RB3LYP) =  -646.725896874     A.U. after   16 cycles
            NFock= 16  Conv=0.67D-08     -V/T= 2.0110

 **********************************************************************

            Population analysis using the SCF Density.

 **********************************************************************

 Orbital symmetries:
       Occupied  (A) (A) (A) (A) (A) (A) (A) (A) (A) (A) (A) (A)
                 (A) (A) (A) (A) (A) (A) (A) (A) (A) (A) (A) (A)
                 (A) (A) (A) (A) (A) (A) (A) (A) (A) (A) (A) (A)
                 (A) (A) (A) (A) (A) (A) (A) (A) (A) (A) (A) (A)
                 (A) (A) (A)
       Virtual   (A) (A) (A) (A) (A) (A) (A) (A) (A) (A) (A) (A)
                 (A) (A) (A) (A) (A) (A) (A) (A) (A) (A) (A) (A)
                 (A) (A) (A) (A) (A) (A) (A) (A) (A) (A) (A) (A)
                 (A) (A) (A) (A) (A) (A) (A) (A) (A) (A) (A) (A)
                 (A) (A) (A) (A) (A) (A) (A) (A) (A) (A) (A) (A)
                 (A) (A) (A) (A) (A) (A) (A) (A) (A) (A) (A) (A)
                 (A) (A) (A) (A) (A) (A) (A) (A) (A) (A) (A) (A)
                 (A) (A) (A) (A) (A) (A) (A) (A) (A) (A) (A) (A)
                 (A) (A) (A) (A) (A) (A) (A) (A) (A) (A) (A) (A)
                 (A) (A) (A) (A) (A) (A) (A) (A) (A) (A) (A) (A)
                 (A) (A) (A) (A) (A) (A) (A) (A) (A) (A) (A) (A)
                 (A) (A) (A) (A) (A) (A) (A) (A) (A) (A) (A) (A)
                 (A) (A) (A) (A) (A) (A) (A) (A) (A) (A) (A) (A)
                 (A) (A) (A) (A) (A) (A) (A) (A) (A) (A) (A) (A)
                 (A) (A) (A) (A) (A) (A) (A) (A) (A) (A) (A) (A)
                 (A) (A) (A) (A) (A) (A) (A) (A) (A) (A) (A) (A)
                 (A) (A) (A) (A) (A) (A) (A) (A) (A) (A) (A) (A)
                 (A) (A) (A) (A) (A) (A) (A) (A) (A) (A) (A) (A)
                 (A) (A) (A) (A) (A) (A) (A) (A) (A) (A) (A) (A)
                 (A) (A) (A) (A) (A) (A) (A) (A) (A) (A) (A) (A)
                 (A) (A) (A) (A) (A) (A) (A) (A) (A)
 The electronic state is 1-A.
 Alpha  occ. eigenvalues --  -19.21018 -14.37729 -14.35218 -10.30552 -10.29919
 Alpha  occ. eigenvalues --  -10.26478 -10.26249 -10.26047 -10.24997 -10.24844
 Alpha  occ. eigenvalues --  -10.23954 -10.23869 -10.23802 -10.23355 -10.22909
 Alpha  occ. eigenvalues --   -0.99639  -0.94669  -0.91940  -0.89204  -0.83097
 Alpha  occ. eigenvalues --   -0.79873  -0.79076  -0.78272  -0.67924  -0.65693
 Alpha  occ. eigenvalues --   -0.65088  -0.63947  -0.58760  -0.55962  -0.52221
 Alpha  occ. eigenvalues --   -0.51390  -0.50871  -0.49889  -0.47295  -0.45855
 Alpha  occ. eigenvalues --   -0.44545  -0.43639  -0.43021  -0.41728  -0.41281
 Alpha  occ. eigenvalues --   -0.38901  -0.37722  -0.37074  -0.35183  -0.34775
 Alpha  occ. eigenvalues --   -0.34402  -0.31155  -0.29669  -0.29174  -0.28303
 Alpha  occ. eigenvalues --   -0.25991
 Alpha virt. eigenvalues --   -0.07155  -0.06147  -0.05532  -0.04648  -0.03962
 Alpha virt. eigenvalues --   -0.00516  -0.00159   0.01290   0.01773   0.02037
 Alpha virt. eigenvalues --    0.02571   0.03407   0.03912   0.04447   0.04613
 Alpha virt. eigenvalues --    0.04929   0.05744   0.06217   0.06980   0.07194
 Alpha virt. eigenvalues --    0.07290   0.07544   0.08652   0.08855   0.09489
 Alpha virt. eigenvalues --    0.09799   0.10471   0.10844   0.11948   0.12326
 Alpha virt. eigenvalues --    0.12468   0.12718   0.13028   0.13548   0.13895
 Alpha virt. eigenvalues --    0.14103   0.14368   0.14993   0.15486   0.15759
 Alpha virt. eigenvalues --    0.17005   0.17528   0.17825   0.18411   0.18673
 Alpha virt. eigenvalues --    0.19117   0.19461   0.19935   0.20881   0.21036
 Alpha virt. eigenvalues --    0.21815   0.22095   0.22453   0.23135   0.23618
 Alpha virt. eigenvalues --    0.23875   0.24595   0.25130   0.25278   0.26096
 Alpha virt. eigenvalues --    0.26256   0.26563   0.27115   0.27373   0.27588
 Alpha virt. eigenvalues --    0.28234   0.28527   0.29136   0.29624   0.29674
 Alpha virt. eigenvalues --    0.30325   0.30571   0.30999   0.31563   0.32063
 Alpha virt. eigenvalues --    0.32722   0.34100   0.35560   0.35887   0.36271
 Alpha virt. eigenvalues --    0.37733   0.38476   0.40335   0.40650   0.44315
 Alpha virt. eigenvalues --    0.47041   0.51990   0.53211   0.55424   0.58306
 Alpha virt. eigenvalues --    0.62057   0.63152   0.64654   0.65017   0.66428
 Alpha virt. eigenvalues --    0.67324   0.68510   0.68839   0.69349   0.69547
 Alpha virt. eigenvalues --    0.70984   0.71983   0.72153   0.72917   0.73445
 Alpha virt. eigenvalues --    0.74300   0.75224   0.76009   0.76386   0.77203
 Alpha virt. eigenvalues --    0.77497   0.81164   0.81994   0.86080   0.87196
 Alpha virt. eigenvalues --    0.88662   0.88921   0.91320   0.91952   0.92209
 Alpha virt. eigenvalues --    0.93960   0.94339   0.96577   0.98821   0.99726
 Alpha virt. eigenvalues --    1.00549   1.00851   1.03045   1.04236   1.05198
 Alpha virt. eigenvalues --    1.07144   1.08340   1.08771   1.10015   1.12330
 Alpha virt. eigenvalues --    1.13593   1.13947   1.15865   1.16370   1.17599
 Alpha virt. eigenvalues --    1.18315   1.18694   1.20404   1.21078   1.21907
 Alpha virt. eigenvalues --    1.22984   1.24125   1.26915   1.27603   1.30202
 Alpha virt. eigenvalues --    1.31152   1.33170   1.36684   1.37317   1.39858
 Alpha virt. eigenvalues --    1.40598   1.41410   1.41924   1.42832   1.43647
 Alpha virt. eigenvalues --    1.45978   1.46249   1.47001   1.48593   1.50685
 Alpha virt. eigenvalues --    1.52038   1.53831   1.54827   1.59827   1.64356
 Alpha virt. eigenvalues --    1.72857   1.73571   1.74676   1.75097   1.75682
 Alpha virt. eigenvalues --    1.77684   1.81202   1.82062   1.83827   1.86201
 Alpha virt. eigenvalues --    1.87609   1.91032   1.93773   1.94432   1.94810
 Alpha virt. eigenvalues --    1.94912   1.96782   1.97541   1.99290   2.04891
 Alpha virt. eigenvalues --    2.05425   2.08343   2.09272   2.10749   2.11142
 Alpha virt. eigenvalues --    2.11455   2.12667   2.13890   2.16015   2.16583
 Alpha virt. eigenvalues --    2.18813   2.22939   2.25521   2.26179   2.26325
 Alpha virt. eigenvalues --    2.26792   2.29801   2.35239   2.40895   2.44262
 Alpha virt. eigenvalues --    2.51582   2.57423   2.59663   2.59950   2.60063
 Alpha virt. eigenvalues --    2.61378   2.63296   2.66355   2.68086   2.69596
 Alpha virt. eigenvalues --    2.72623   2.72776   2.73701   2.77355   2.79807
 Alpha virt. eigenvalues --    2.83358   2.92519   2.97052   3.02763   3.05502
 Alpha virt. eigenvalues --    3.09697   3.20811   3.32919   3.41904   4.13714
 Alpha virt. eigenvalues --    4.17229   4.20366   4.22147   4.24187   4.27745
 Alpha virt. eigenvalues --    4.31979   4.33948   4.36505   4.37050   4.38863
 Alpha virt. eigenvalues --    4.41160   4.58724   4.62865   4.76946
          Condensed to atoms (all electrons):
               1          2          3          4          5          6
     1  C    8.423878  -0.182401   0.215757  -1.332974   0.387246  -0.104616
     2  C   -0.182401   9.911104  -2.805896  -0.924982   2.778058  -3.680411
     3  C    0.215757  -2.805896  14.132117  -1.033721  -6.289124   1.474313
     4  C   -1.332974  -0.924982  -1.033721  11.219445  -1.969972   0.850242
     5  C    0.387246   2.778058  -6.289124  -1.969972  12.984486  -1.651550
     6  C   -0.104616  -3.680411   1.474313   0.850242  -1.651550   9.999695
     7  H    0.085143   0.206084   0.035284  -0.006239  -0.047677   0.064083
     8  H   -0.016409  -0.031605   0.081791   0.114774   0.214303  -0.063522
     9  H    0.073382   0.040475  -0.001295   0.020638  -0.081523   0.289716
    10  O   -0.015982  -0.027914  -0.180271   0.336309  -0.108269   0.029066
    11  C   -0.006432  -0.258162   0.874775  -0.539323  -0.264723   0.118738
    12  C   -0.057467   0.188093  -1.282836   0.847289   0.618713  -0.004871
    13  C   -0.055945  -0.244036   0.774258  -0.373085  -0.895516   0.052510
    14  C    0.003151   0.012367   0.052118  -0.030389  -0.012723  -0.003221
    15  H    0.000114   0.000145   0.006657  -0.003134  -0.003965  -0.000324
    16  C   -0.002686  -0.012692   0.020188  -0.034419  -0.041648   0.001674
    17  H   -0.000004  -0.000004  -0.000748   0.001177   0.000109   0.000006
    18  H   -0.042690  -0.020805   0.059994   0.148459   0.069763   0.011548
    19  H   -0.013497  -0.041622  -0.075760   0.113092  -0.006774   0.012060
    20  H   -0.000001  -0.000171  -0.000350   0.000741   0.000047   0.000000
    21  N    0.000523   0.006887  -0.006120  -0.018934   0.005531  -0.001381
    22  C   -2.414299   1.011131  -0.698277  -0.756325   0.936347  -1.244110
    23  N    0.447915  -0.114956   0.025646   0.018933  -0.028867   0.034281
               7          8          9         10         11         12
     1  C    0.085143  -0.016409   0.073382  -0.015982  -0.006432  -0.057467
     2  C    0.206084  -0.031605   0.040475  -0.027914  -0.258162   0.188093
     3  C    0.035284   0.081791  -0.001295  -0.180271   0.874775  -1.282836
     4  C   -0.006239   0.114774   0.020638   0.336309  -0.539323   0.847289
     5  C   -0.047677   0.214303  -0.081523  -0.108269  -0.264723   0.618713
     6  C    0.064083  -0.063522   0.289716   0.029066   0.118738  -0.004871
     7  H    0.507436   0.000015  -0.000156  -0.000248   0.006915  -0.008452
     8  H    0.000015   0.501146  -0.004791  -0.004246   0.000044  -0.001153
     9  H   -0.000156  -0.004791   0.500074  -0.000113   0.000997  -0.000157
    10  O   -0.000248  -0.004246  -0.000113   8.368730   0.170140   0.001552
    11  C    0.006915   0.000044   0.000997   0.170140  10.282761  -0.512333
    12  C   -0.008452  -0.001153  -0.000157   0.001552  -0.512333   8.078871
    13  C    0.000549   0.001283   0.000047  -0.141259  -3.921352  -1.628270
    14  C   -0.000004  -0.000056   0.000003   0.008051   0.270266  -0.269882
    15  H    0.000000   0.000000   0.000000  -0.002201   0.061088   0.005731
    16  C   -0.000011   0.000007  -0.000001  -0.000104  -0.756070   0.107982
    17  H    0.000000   0.000000   0.000000  -0.000088   0.023882   0.002630
    18  H   -0.007840  -0.000192   0.000015  -0.011601  -0.018255   0.051301
    19  H    0.000282   0.000005   0.000000  -0.000117  -0.191696   0.414801
    20  H    0.000000   0.000000   0.000000   0.000032  -0.044232   0.044047
    21  N    0.000044  -0.000003   0.000000   0.004502   0.330071  -0.041980
    22  C   -0.045032  -0.000656  -0.051379  -0.000037  -0.089920   0.040556
    23  N    0.001041  -0.000004   0.000732  -0.000025   0.000656  -0.000439
              13         14         15         16         17         18
     1  C   -0.055945   0.003151   0.000114  -0.002686  -0.000004  -0.042690
     2  C   -0.244036   0.012367   0.000145  -0.012692  -0.000004  -0.020805
     3  C    0.774258   0.052118   0.006657   0.020188  -0.000748   0.059994
     4  C   -0.373085  -0.030389  -0.003134  -0.034419   0.001177   0.148459
     5  C   -0.895516  -0.012723  -0.003965  -0.041648   0.000109   0.069763
     6  C    0.052510  -0.003221  -0.000324   0.001674   0.000006   0.011548
     7  H    0.000549  -0.000004   0.000000  -0.000011   0.000000  -0.007840
     8  H    0.001283  -0.000056   0.000000   0.000007   0.000000  -0.000192
     9  H    0.000047   0.000003   0.000000  -0.000001   0.000000   0.000015
    10  O   -0.141259   0.008051  -0.002201  -0.000104  -0.000088  -0.011601
    11  C   -3.921352   0.270266   0.061088  -0.756070   0.023882  -0.018255
    12  C   -1.628270  -0.269882   0.005731   0.107982   0.002630   0.051301
    13  C   11.434815   0.164267   0.234050   0.590983  -0.040880  -0.015532
    14  C    0.164267   5.536398   0.000769   0.020899   0.293429   0.005579
    15  H    0.234050   0.000769   0.497669  -0.008985  -0.005273   0.000003
    16  C    0.590983   0.020899  -0.008985   5.699340   0.014122  -0.005897
    17  H   -0.040880   0.293429  -0.005273   0.014122   0.509144   0.000000
    18  H   -0.015532   0.005579   0.000003  -0.005897   0.000000   0.640298
    19  H    0.080197  -0.017017  -0.000177   0.012780   0.000026  -0.008586
    20  H    0.042088  -0.113511  -0.000125   0.419286  -0.001120  -0.000001
    21  N   -0.167328   0.059872   0.000786   0.254691   0.004204   0.002083
    22  C   -0.012801   0.000024   0.000003  -0.000380   0.000000  -0.009526
    23  N    0.000017   0.000001   0.000000  -0.000001   0.000000   0.000019
              19         20         21         22         23
     1  C   -0.013497  -0.000001   0.000523  -2.414299   0.447915
     2  C   -0.041622  -0.000171   0.006887   1.011131  -0.114956
     3  C   -0.075760  -0.000350  -0.006120  -0.698277   0.025646
     4  C    0.113092   0.000741  -0.018934  -0.756325   0.018933
     5  C   -0.006774   0.000047   0.005531   0.936347  -0.028867
     6  C    0.012060   0.000000  -0.001381  -1.244110   0.034281
     7  H    0.000282   0.000000   0.000044  -0.045032   0.001041
     8  H    0.000005   0.000000  -0.000003  -0.000656  -0.000004
     9  H    0.000000   0.000000   0.000000  -0.051379   0.000732
    10  O   -0.000117   0.000032   0.004502  -0.000037  -0.000025
    11  C   -0.191696  -0.044232   0.330071  -0.089920   0.000656
    12  C    0.414801   0.044047  -0.041980   0.040556  -0.000439
    13  C    0.080197   0.042088  -0.167328  -0.012801   0.000017
    14  C   -0.017017  -0.113511   0.059872   0.000024   0.000001
    15  H   -0.000177  -0.000125   0.000786   0.000003   0.000000
    16  C    0.012780   0.419286   0.254691  -0.000380  -0.000001
    17  H    0.000026  -0.001120   0.004204   0.000000   0.000000
    18  H   -0.008586  -0.000001   0.002083  -0.009526   0.000019
    19  H    0.678494   0.000030  -0.114664  -0.000898   0.000000
    20  H    0.000030   0.524944  -0.072467   0.000000   0.000000
    21  N   -0.114664  -0.072467   6.932937  -0.000463   0.000001
    22  C   -0.000898   0.000000  -0.000463   9.635387  -0.118854
    23  N    0.000000   0.000000   0.000001  -0.118854   7.235576
 Mulliken charges:
               1
     1  C    0.608296
     2  C    0.191314
     3  C    0.621499
     4  C   -0.647600
     5  C   -0.592272
     6  C   -0.183925
     7  H    0.208783
     8  H    0.209270
     9  H    0.213337
    10  O   -0.425906
    11  C    0.462164
    12  C   -0.593727
    13  C    0.120941
    14  C    0.019609
    15  H    0.217171
    16  C   -0.279057
    17  H    0.199388
    18  H    0.151864
    19  H    0.159041
    20  H    0.200761
    21  N   -0.178790
    22  C   -0.180489
    23  N   -0.501672
 Sum of Mulliken charges =   0.00000
 Mulliken charges with hydrogens summed into heavy atoms:
               1
     1  C    0.608296
     2  C    0.400097
     3  C    0.773363
     4  C   -0.647600
     5  C   -0.383001
     6  C    0.029412
    10  O   -0.425906
    11  C    0.462164
    12  C   -0.434685
    13  C    0.338112
    14  C    0.218997
    16  C   -0.078296
    21  N   -0.178790
    22  C   -0.180489
    23  N   -0.501672
 Electronic spatial extent (au):  <R**2>=           4612.0378
 Charge=              0.0000 electrons
 Dipole moment (field-independent basis, Debye):
    X=              5.7272    Y=              2.4262    Z=              0.1351  Tot=              6.2214
 Quadrupole moment (field-independent basis, Debye-Ang):
   XX=            -99.9231   YY=            -86.0209   ZZ=            -91.0673
   XY=             -5.1868   XZ=              2.5474   YZ=              1.0464
 Traceless Quadrupole moment (field-independent basis, Debye-Ang):
   XX=             -7.5860   YY=              6.3162   ZZ=              1.2698
   XY=             -5.1868   XZ=              2.5474   YZ=              1.0464
 Octapole moment (field-independent basis, Debye-Ang**2):
  XXX=            365.4568  YYY=             26.6123  ZZZ=             -0.3160  XYY=             -6.3710
  XXY=             86.6343  XXZ=              5.9232  XZZ=              1.1076  YZZ=              0.1846
  YYZ=              1.1711  XYZ=             -3.2514
 Hexadecapole moment (field-independent basis, Debye-Ang**3):
 XXXX=          -6561.6970 YYYY=           -740.6406 ZZZZ=           -113.7044 XXXY=           -376.2802
 XXXZ=            100.4172 YYYX=             18.5723 YYYZ=              3.4812 ZZZX=             -0.8072
 ZZZY=             -0.4022 XXYY=          -1082.4137 XXZZ=          -1013.9175 YYZZ=           -153.0618
 XXYZ=              7.7307 YYXZ=              6.4935 ZZXY=              0.9305
 N-N= 8.056188622078D+02 E-N=-3.111013175374D+03  KE= 6.396872665715D+02
 Evaluate density.
 Using the total density.
 Monte-Carlo method of calculating molar volume:
 based on  0.001 e/bohr**3 density envelope.
 Number of points per bohr**3 =   20 CutOff= 1.00D-04
 Using the SCF density.
 There are       400 points.  Will hold       400 in memory.
 LenV=  4026318938 MDV=  4026531840.
 Box volume = 8051.593 fraction occupied=0.190
 Integrated density= 6.7750077459828375D+01 error=-3.4249922540171625D+01
 Molar volume = 1529.803 bohr**3/mol (136.518 cm**3/mol)
 Recommended a0 for SCRF calculation =  4.66 angstrom (  8.81 bohr)
 Calling FoFJK, ICntrl=      2127 FMM=F ISym2X=0 I1Cent= 0 IOpClX= 0 NMat=1 NMatS=1 NMatT=0.
 ***** Axes restored to original set *****
 -------------------------------------------------------------------
 Center     Atomic                   Forces (Hartrees/Bohr)
 Number     Number              X              Y              Z
 -------------------------------------------------------------------
      1        6          -0.009393728   -0.046253420    0.008471986
      2        6           0.003295487    0.009249738    0.008779225
      3        6          -0.001213051   -0.013279165    0.017394865
      4        6           0.007749521    0.050621250   -0.041164416
      5        6           0.000040530    0.005363865   -0.007905020
      6        6          -0.000354522    0.007502735   -0.013680400
      7        1          -0.002674018   -0.006496377   -0.008592506
      8        1           0.002869462    0.007623200    0.007702082
      9        1           0.000882520   -0.002433245    0.010506053
     10        8          -0.003448433   -0.009335906   -0.022182045
     11        6          -0.002830533   -0.058228268    0.029943262
     12        6           0.018478685    0.055632886   -0.042340488
     13        6          -0.004724975   -0.013527863    0.015098200
     14        6          -0.009651895   -0.017071814   -0.001088518
     15        1           0.003672725    0.005835263    0.009922397
     16        6          -0.018753292   -0.047359316    0.046158831
     17        1           0.004309028    0.011443828    0.000327112
     18        1          -0.002728563   -0.022287347    0.011852165
     19        1           0.000371015    0.017360482   -0.025153281
     20        1          -0.000956215   -0.004476213   -0.013139751
     21        7           0.004527447    0.017682696    0.019932324
     22        6           0.011796775    0.058732865   -0.012149297
     23        7          -0.001263971   -0.006299874    0.001307218
 -------------------------------------------------------------------
 Cartesian Forces:  Max     0.058732865 RMS     0.020923853

 GradGradGradGradGradGradGradGradGradGradGradGradGradGradGradGradGradGrad
 Berny optimization.
 FormGI is forming the generalized inverse of G from B-inverse, IUseBI=4.
 Internal  Forces:  Max     0.163928997 RMS     0.027897479
 Search for a local minimum.
 Step number   1 out of a maximum of  119
 All quantities printed in internal units (Hartrees-Bohrs-Radians)
 Mixed Optimization -- RFO/linear search
 Second derivative matrix not updated -- first step.
 ITU=  0
     Eigenvalues ---    0.00230   0.00230   0.01736   0.01743   0.01786
     Eigenvalues ---    0.01922   0.01953   0.02036   0.02070   0.02070
     Eigenvalues ---    0.02070   0.02070   0.02070   0.02070   0.02070
     Eigenvalues ---    0.02070   0.02070   0.02070   0.02070   0.04867
     Eigenvalues ---    0.04867   0.16000   0.16000   0.16000   0.16000
     Eigenvalues ---    0.16000   0.16000   0.16000   0.16000   0.18708
     Eigenvalues ---    0.22000   0.22000   0.22981   0.23189   0.23440
     Eigenvalues ---    0.24000   0.24763   0.25000   0.25000   0.25000
     Eigenvalues ---    0.27457   0.28519   0.37230   0.37230   0.37230
     Eigenvalues ---    0.37230   0.37230   0.37230   0.37230   0.37230
     Eigenvalues ---    0.41268   0.41393   0.41640   0.41974   0.45389
     Eigenvalues ---    0.45389   0.45389   0.45389   0.45389   0.45389
     Eigenvalues ---    0.45389   0.45389   1.27794
 RFO step:  Lambda=-1.89510162D-01 EMin= 2.30000000D-03
 Linear search not attempted -- first point.
 Maximum step size (   0.300) exceeded in Quadratic search.
    -- Step size scaled by   0.462
 Iteration  1 RMS(Cart)=  0.25922643 RMS(Int)=  0.01408950
 Iteration  2 RMS(Cart)=  0.09583719 RMS(Int)=  0.00158224
 Iteration  3 RMS(Cart)=  0.00366112 RMS(Int)=  0.00012609
 Iteration  4 RMS(Cart)=  0.00000197 RMS(Int)=  0.00012609
 Iteration  5 RMS(Cart)=  0.00000000 RMS(Int)=  0.00012609
 Variable       Old X    -DE/DX   Delta X   Delta X   Delta X     New X
                                 (Linear)    (Quad)   (Total)
    R1        2.64826  -0.00823   0.00000  -0.00596  -0.00596   2.64230
    R2        2.64826  -0.00792   0.00000  -0.00589  -0.00589   2.64237
    R3        2.91018  -0.05457   0.00000  -0.05307  -0.05307   2.85711
    R4        2.64826  -0.00542   0.00000  -0.00374  -0.00375   2.64452
    R5        2.02201   0.01108   0.00000   0.00911   0.00911   2.03111
    R6        2.64826   0.00507   0.00000   0.00384   0.00384   2.65210
    R7        2.02201  -0.01848   0.00000  -0.01518  -0.01518   2.00683
    R8        2.64826  -0.00506   0.00000  -0.00358  -0.00357   2.64469
    R9        2.93342  -0.04562   0.00000  -0.04538  -0.04538   2.88804
   R10        2.64826  -0.00954   0.00000  -0.00700  -0.00699   2.64127
   R11        2.02201   0.01118   0.00000   0.00918   0.00918   2.03119
   R12        2.02201   0.01074   0.00000   0.00883   0.00883   2.03084
   R13        3.18558  -0.05028   0.00000  -0.06164  -0.06164   3.12394
   R14        2.64826  -0.00214   0.00000  -0.00152  -0.00152   2.64675
   R15        2.64826  -0.01951   0.00000  -0.01316  -0.01316   2.63510
   R16        2.02201  -0.01977   0.00000  -0.01624  -0.01624   2.00576
   R17        2.64826  -0.05181   0.00000  -0.03799  -0.03799   2.61027
   R18        2.64826  -0.01314   0.00000  -0.00861  -0.00861   2.63966
   R19        2.02201   0.01198   0.00000   0.00984   0.00984   2.03185
   R20        2.64826  -0.00980   0.00000  -0.00705  -0.00705   2.64121
   R21        2.02201   0.01205   0.00000   0.00990   0.00990   2.03191
   R22        2.02201   0.01056   0.00000   0.00868   0.00868   2.03069
   R23        2.64826  -0.05831   0.00000  -0.04267  -0.04268   2.60559
   R24        2.19208   0.00656   0.00000   0.00206   0.00206   2.19415
    A1        2.09440  -0.00145   0.00000  -0.00207  -0.00208   2.09232
    A2        2.09440   0.00082   0.00000   0.00114   0.00115   2.09554
    A3        2.09440   0.00062   0.00000   0.00093   0.00093   2.09533
    A4        2.09440   0.00177   0.00000   0.00197   0.00196   2.09635
    A5        2.09440  -0.00030   0.00000  -0.00021  -0.00020   2.09419
    A6        2.09440  -0.00147   0.00000  -0.00176  -0.00176   2.09264
    A7        2.09440   0.00314   0.00000   0.00392   0.00392   2.09831
    A8        2.09440  -0.01916   0.00000  -0.02519  -0.02519   2.06920
    A9        2.09440   0.01602   0.00000   0.02128   0.02128   2.11567
   A10        2.09440  -0.01232   0.00000  -0.01273  -0.01271   2.08168
   A11        2.09440   0.10093   0.00000   0.10590   0.10590   2.20029
   A12        2.09440  -0.08861   0.00000  -0.09318  -0.09318   2.00121
   A13        2.09440   0.00933   0.00000   0.01018   0.01019   2.10459
   A14        2.09440  -0.00554   0.00000  -0.00624  -0.00625   2.08815
   A15        2.09440  -0.00379   0.00000  -0.00394  -0.00394   2.09045
   A16        2.09440  -0.00047   0.00000  -0.00127  -0.00127   2.09312
   A17        2.09440   0.00153   0.00000   0.00234   0.00234   2.09673
   A18        2.09440  -0.00105   0.00000  -0.00107  -0.00107   2.09333
   A19        2.23319   0.16393   0.00000   0.17218   0.17218   2.40537
   A20        2.01758   0.10690   0.00000   0.11252   0.11258   2.13016
   A21        2.16295  -0.09344   0.00000  -0.09903  -0.09913   2.06382
   A22        2.09440  -0.01286   0.00000  -0.01198  -0.01196   2.08243
   A23        2.09440   0.01419   0.00000   0.02108   0.02107   2.11547
   A24        2.09440   0.01703   0.00000   0.01780   0.01780   2.11220
   A25        2.09440  -0.03122   0.00000  -0.03889  -0.03890   2.05550
   A26        2.09440  -0.00668   0.00000  -0.00497  -0.00497   2.08943
   A27        2.09440   0.00248   0.00000   0.00135   0.00135   2.09575
   A28        2.09440   0.00420   0.00000   0.00362   0.00362   2.09801
   A29        2.09440  -0.00496   0.00000  -0.00438  -0.00439   2.09000
   A30        2.09440   0.00034   0.00000  -0.00063  -0.00063   2.09377
   A31        2.09440   0.00462   0.00000   0.00502   0.00502   2.09942
   A32        2.09440   0.00288   0.00000   0.00574   0.00574   2.10014
   A33        2.09440   0.01250   0.00000   0.01264   0.01263   2.10702
   A34        2.09440  -0.01538   0.00000  -0.01838  -0.01838   2.07602
   A35        2.09440  -0.00502   0.00000  -0.00911  -0.00912   2.08528
   A36        3.14159  -0.00001   0.00000  -0.00002  -0.00002   3.14158
   A37        3.14159   0.00000   0.00000   0.00000   0.00000   3.14159
    D1        0.00000  -0.00006   0.00000  -0.00012  -0.00012  -0.00012
    D2       -3.14159  -0.00009   0.00000  -0.00019  -0.00019   3.14141
    D3       -3.14159   0.00000   0.00000  -0.00001  -0.00001   3.14159
    D4        0.00000  -0.00003   0.00000  -0.00008  -0.00007  -0.00007
    D5        0.00000   0.00000   0.00000   0.00000   0.00000   0.00000
    D6        3.14159   0.00004   0.00000   0.00010   0.00010  -3.14150
    D7        3.14159  -0.00005   0.00000  -0.00012  -0.00012   3.14147
    D8        0.00000  -0.00001   0.00000  -0.00002  -0.00002  -0.00002
    D9        0.00000   0.00003   0.00000   0.00006   0.00006   0.00006
   D10       -3.14159  -0.00026   0.00000  -0.00058  -0.00056   3.14103
   D11        3.14159   0.00006   0.00000   0.00013   0.00013  -3.14146
   D12        0.00000  -0.00023   0.00000  -0.00051  -0.00050  -0.00050
   D13        0.00000   0.00006   0.00000   0.00012   0.00012   0.00012
   D14        3.14159   0.00017   0.00000   0.00037   0.00038  -3.14122
   D15        3.14159   0.00035   0.00000   0.00076   0.00076  -3.14083
   D16        0.00000   0.00046   0.00000   0.00101   0.00102   0.00102
   D17        0.00000  -0.00011   0.00000  -0.00025  -0.00025  -0.00025
   D18       -3.14159  -0.00003   0.00000  -0.00007  -0.00008   3.14152
   D19       -3.14159  -0.00022   0.00000  -0.00049  -0.00048   3.14112
   D20        0.00000  -0.00014   0.00000  -0.00032  -0.00031  -0.00031
   D21       -0.09171   0.00097   0.00000   0.00235   0.00235  -0.08937
   D22        3.04988   0.00108   0.00000   0.00259   0.00259   3.05247
   D23        0.00000   0.00008   0.00000   0.00019   0.00019   0.00019
   D24       -3.14159   0.00004   0.00000   0.00009   0.00009  -3.14150
   D25       -3.14159   0.00001   0.00000   0.00001   0.00002  -3.14157
   D26        0.00000  -0.00004   0.00000  -0.00009  -0.00008  -0.00008
   D27        0.07603   0.01069   0.00000   0.02591   0.02564   0.10167
   D28       -2.92738   0.00544   0.00000   0.01291   0.01318  -2.91421
   D29        0.13235   0.00601   0.00000   0.00663   0.00614   0.13849
   D30       -3.00924   0.00336   0.00000  -0.00135  -0.00208  -3.01132
   D31       -3.14159   0.00366   0.00000   0.01112   0.01148  -3.13011
   D32        0.00000   0.00101   0.00000   0.00314   0.00326   0.00326
   D33        2.99766   0.01143   0.00000   0.01729   0.01674   3.01440
   D34       -0.14393   0.01035   0.00000   0.01641   0.01597  -0.12796
   D35        0.00000  -0.00254   0.00000  -0.00507  -0.00501  -0.00501
   D36        3.14159  -0.00363   0.00000  -0.00595  -0.00578   3.13581
   D37        0.00000   0.00136   0.00000   0.00155   0.00137   0.00137
   D38        3.14159  -0.00129   0.00000  -0.00643  -0.00657   3.13502
   D39        0.00000   0.00171   0.00000   0.00231   0.00222   0.00222
   D40        3.14159   0.00052   0.00000   0.00129   0.00131  -3.14028
   D41        3.14159   0.00279   0.00000   0.00318   0.00299  -3.13860
   D42        0.00000   0.00161   0.00000   0.00217   0.00208   0.00208
   D43       -3.14159  -0.00052   0.00000  -0.00011  -0.00004   3.14155
   D44        0.00000   0.00066   0.00000   0.00238   0.00246   0.00246
   D45        0.00000   0.00067   0.00000   0.00090   0.00087   0.00087
   D46       -3.14159   0.00185   0.00000   0.00340   0.00337  -3.13822
   D47        0.00000  -0.00220   0.00000  -0.00431  -0.00425  -0.00424
   D48       -3.14159  -0.00102   0.00000  -0.00181  -0.00177   3.13982
         Item               Value     Threshold  Converged?
 Maximum Force            0.163929     0.000450     NO 
 RMS     Force            0.027897     0.000300     NO 
 Maximum Displacement     1.176513     0.001800     NO 
 RMS     Displacement     0.347687     0.001200     NO 
 Predicted change in Energy=-7.597841D-02
 GradGradGradGradGradGradGradGradGradGradGradGradGradGradGradGradGradGrad

                          Input orientation:                          
 ---------------------------------------------------------------------
 Center     Atomic      Atomic             Coordinates (Angstroms)
 Number     Number       Type             X           Y           Z
 ---------------------------------------------------------------------
      1          6           0       -4.753619   -0.303312   -0.210494
      2          6           0       -4.888648   -0.044830   -1.577989
      3          6           0       -4.646120    1.239918   -2.076962
      4          6           0       -4.266348    2.274999   -1.208628
      5          6           0       -4.133440    2.007103    0.158557
      6          6           0       -4.375403    0.724591    0.658739
      7          1           0       -5.179115   -0.833704   -2.247722
      8          1           0       -3.842815    2.795419    0.828944
      9          1           0       -4.270319    0.530436    1.710491
     10          8           0       -3.970293    3.720464   -1.606925
     11          6           0       -3.851847    4.608563   -2.996189
     12          6           0       -4.163425    4.070390   -4.251165
     13          6           0       -3.283893    5.879838   -2.920420
     14          6           0       -3.028393    6.595049   -4.092755
     15          1           0       -3.044734    6.307002   -1.963128
     16          6           0       -3.346396    6.032042   -5.331857
     17          1           0       -2.589441    7.575137   -4.039043
     18          1           0       -4.755522    1.408534   -3.119734
     19          1           0       -4.605917    3.110024   -4.343235
     20          1           0       -3.153877    6.573998   -6.239585
     21          7           0       -3.913173    4.777595   -5.410998
     22          6           0       -5.015913   -1.691731    0.327459
     23          7           0       -5.217348   -2.757986    0.740567
 ---------------------------------------------------------------------
                    Distance matrix (angstroms):
                    1          2          3          4          5
     1  C    0.000000
     2  C    1.398245   0.000000
     3  C    2.424215   1.399418   0.000000
     4  C    2.807382   2.430081   1.403433   0.000000
     5  C    2.420504   2.792196   2.418462   1.399510   0.000000
     6  C    1.398284   2.420409   2.796947   2.429551   1.397700
     7  H    2.147710   1.074819   2.147825   3.402484   3.867014
     8  H    3.392953   3.867054   3.392517   2.145207   1.074860
     9  H    2.149162   3.395196   3.871613   3.400702   2.146574
    10  O    4.330634   3.875777   2.613577   1.528286   2.465593
    11  C    5.718374   4.973963   3.581008   2.968620   4.098696
    12  C    5.983696   4.960529   3.601627   3.534268   4.868644
    13  C    6.909062   6.283235   4.908761   4.109782   5.019950
    14  C    8.101589   7.339795   5.946250   5.339808   6.351695
    15  H    7.048990   6.625263   5.315330   4.280030   4.916905
    16  C    8.267124   7.307423   5.937009   5.653556   6.853044
    17  H    9.022827   8.331088   6.943680   6.238167   7.141903
    18  H    3.375514   2.122962   1.061967   2.154618   3.390053
    19  H    5.362110   4.204715   2.938521   3.261646   4.658948
    20  H    9.284746   8.279420   6.928681   6.710403   7.921635
    21  N    7.318962   6.236930   4.916113   4.903839   6.224475
    22  C    1.511919   2.521748   3.809535   4.319301   3.806397
    23  N    2.673010   3.583987   4.924226   5.480392   4.921348
                    6          7          8          9         10
     6  C    0.000000
     7  H    3.394370   0.000000
     8  H    2.144982   4.941873   0.000000
     9  H    1.074672   4.284184   2.467799   0.000000
    10  O    3.777911   4.755242   2.608719   4.612109   0.000000
    11  C    5.358904   5.651559   4.233109   6.241721   1.653119
    12  C    5.945289   5.394029   5.247460   6.934265   2.674275
    13  C    6.370113   7.008284   4.887101   7.143841   2.619028
    14  C    7.671598   7.950857   6.270852   8.485256   3.915324
    15  H    6.309372   7.458302   4.556732   6.954585   2.770147
    16  C    8.069395   7.746562   6.976935   8.984206   4.428064
    17  H    8.496399   8.979079   6.936422   9.247178   4.762400
    18  H    3.858643   2.442841   4.283519   4.933310   2.872315
    19  H    5.546456   4.502525   5.237627   6.588968   2.874725
    20  H    9.126586   8.655092   8.044650  10.048621   5.501884
    21  N    7.313153   6.564725   6.547583   8.299489   3.948640
    22  C    2.521628   2.719265   4.664993   2.721527   5.841833
    23  N    3.583839   3.554460   5.721665   3.556871   7.002584
                   11         12         13         14         15
    11  C    0.000000
    12  C    1.400598   0.000000
    13  C    1.394436   2.412169   0.000000
    14  C    2.413847   2.772597   1.396845   0.000000
    15  H    2.145540   3.389545   1.075209   2.149081   0.000000
    16  C    2.781567   2.384012   2.417044   1.397668   3.393367
    17  H    3.388477   3.847815   2.146537   1.075238   2.474850
    18  H    3.327473   2.952319   4.711473   5.552448   5.315968
    19  H    2.151458   1.061404   3.382901   3.833630   4.280522
    20  H    3.856127   3.352769   3.393468   2.150598   4.286174
    21  N    2.421495   1.381296   2.795338   2.413243   3.870540
    22  C    7.217714   7.408951   8.418863   9.599961   8.550559
    23  N    8.372215   8.523781   9.578782  10.753222   9.705886
                   16         17         18         19         20
    16  C    0.000000
    17  H    2.150696   0.000000
    18  H    5.315632   6.600305   0.000000
    19  H    3.331959   4.908762   2.101048   0.000000
    20  H    1.074593   2.482590   6.243457   4.207574   0.000000
    21  N    1.378817   3.385376   4.160531   2.097810   2.118997
    22  C    9.719661  10.527533   4.643553   6.711209  10.719866
    23  N   10.846169  11.684348   5.698692   7.787967  11.834963
                   21         22         23
    21  N    0.000000
    22  C    8.717689   0.000000
    23  N    9.814663   1.161092   0.000000
 Stoichiometry    C12H8N2O
 Framework group  C1[X(C12H8N2O)]
 Deg. of freedom    63
 Full point group                 C1      NOp   1
 Largest Abelian subgroup         C1      NOp   1
 Largest concise Abelian subgroup C1      NOp   1
                         Standard orientation:                         
 ---------------------------------------------------------------------
 Center     Atomic      Atomic             Coordinates (Angstroms)
 Number     Number       Type             X           Y           Z
 ---------------------------------------------------------------------
      1          6           0       -3.423710   -0.103971    0.033055
      2          6           0       -2.477868   -1.132066   -0.026042
      3          6           0       -1.113493   -0.827913   -0.091934
      4          6           0       -0.687297    0.509223   -0.098986
      5          6           0       -1.640995    1.531733   -0.039328
      6          6           0       -3.004125    1.229859    0.026374
      7          1           0       -2.798459   -2.157946   -0.020837
      8          1           0       -1.321195    2.557904   -0.044297
      9          1           0       -3.727585    2.023248    0.071742
     10          8           0        0.761264    0.991520   -0.167674
     11          6           0        2.275289    0.327955   -0.153114
     12          6           0        2.479826   -1.057435   -0.176177
     13          6           0        3.365752    1.175999    0.037054
     14          6           0        4.642226    0.634939    0.207480
     15          1           0        3.223540    2.241663    0.051546
     16          6           0        4.816638   -0.751595    0.183389
     17          1           0        5.485714    1.285110    0.355613
     18          1           0       -0.416546   -1.628006   -0.135416
     19          1           0        1.673067   -1.729986   -0.329122
     20          1           0        5.794460   -1.177847    0.313478
     21          7           0        3.741947   -1.593512   -0.009881
     22          6           0       -4.897503   -0.433772    0.104209
     23          7           0       -6.029311   -0.687066    0.158852
 ---------------------------------------------------------------------
 Rotational constants (GHZ):           2.4228244           0.2206219           0.2027192
 Standard basis: 6-31+G(d) (6D, 7F)
 There are   301 symmetry adapted cartesian basis functions of A   symmetry.
 There are   301 symmetry adapted basis functions of A   symmetry.
   301 basis functions,   512 primitive gaussians,   301 cartesian basis functions
    51 alpha electrons       51 beta electrons
       nuclear repulsion energy       798.3403076120 Hartrees.
 NAtoms=   23 NActive=   23 NUniq=   23 SFac= 1.00D+00 NAtFMM=   60 NAOKFM=F Big=F
 Integral buffers will be    131072 words long.
 Raffenetti 2 integral format.
 Two-electron integral symmetry is turned on.
 Nuclear repulsion after empirical dispersion term =      798.3241079985 Hartrees.
 One-electron integrals computed using PRISM.
 NBasis=   301 RedAO= T EigKep=  1.30D-06  NBF=   301
 NBsUse=   301 1.00D-06 EigRej= -1.00D+00 NBFU=   301
 Initial guess from the checkpoint file:  "molecule_125.chk"
 B after Tr=     0.000000    0.000000    0.000000
         Rot=    0.999639    0.026542    0.000206   -0.004153 Ang=   3.08 deg.
 ExpMin= 4.38D-02 ExpMax= 5.48D+03 ExpMxC= 8.25D+02 IAcc=3 IRadAn=         5 AccDes= 0.00D+00
 Harris functional with IExCor=  402 and IRadAn=       5 diagonalized for initial guess.
 HarFok:  IExCor=  402 AccDes= 0.00D+00 IRadAn=         5 IDoV= 1 UseB2=F ITyADJ=14
 ICtDFT=  3500011 ScaDFX=  1.000000  1.000000  1.000000  1.000000
 FoFCou: FMM=F IPFlag=           0 FMFlag=      100000 FMFlg1=           0
         NFxFlg=           0 DoJE=T BraDBF=F KetDBF=T FulRan=T
         wScrn=  0.000000 ICntrl=       500 IOpCl=  0 I1Cent=   200000004 NGrid=           0
         NMat0=    1 NMatS0=      1 NMatT0=    0 NMatD0=    1 NMtDS0=    0 NMtDT0=    0
 Petite list used in FoFCou.
 Requested convergence on RMS density matrix=1.00D-08 within 128 cycles.
 Requested convergence on MAX density matrix=1.00D-06.
 Requested convergence on             energy=1.00D-06.
 No special actions if energy rises.
 SCF Done:  E(RB3LYP) =  -646.761115665     A.U. after   16 cycles
            NFock= 16  Conv=0.79D-08     -V/T= 2.0109
 Calling FoFJK, ICntrl=      2127 FMM=F ISym2X=0 I1Cent= 0 IOpClX= 0 NMat=1 NMatS=1 NMatT=0.
 ***** Axes restored to original set *****
 -------------------------------------------------------------------
 Center     Atomic                   Forces (Hartrees/Bohr)
 Number     Number              X              Y              Z
 -------------------------------------------------------------------
      1        6          -0.007668138   -0.039326441    0.013830241
      2        6           0.002538392    0.008142976    0.003686358
      3        6           0.002600491    0.003949044    0.011260192
      4        6           0.007466305    0.045069532   -0.034587802
      5        6           0.000439471    0.003764213   -0.002335403
      6        6           0.000156027    0.006419804   -0.008741249
      7        1          -0.001961530   -0.004889978   -0.005248376
      8        1           0.002110980    0.006306542    0.003524056
      9        1           0.000957933   -0.000514482    0.007337981
     10        8          -0.002719812   -0.000647941   -0.018903416
     11        6          -0.002532512   -0.056026798    0.028216499
     12        6           0.016118938    0.039086979   -0.013135164
     13        6          -0.003292412   -0.009610766    0.013940027
     14        6          -0.006813270   -0.008340085   -0.003155147
     15        1           0.002639358    0.001437531    0.007553497
     16        6          -0.016086122   -0.039202425    0.023775528
     17        1           0.003190336    0.007346276    0.001728647
     18        1          -0.001190354    0.003609415   -0.015255842
     19        1          -0.006062258   -0.013903718   -0.005885641
     20        1          -0.000451460   -0.001363887   -0.009958689
     21        7           0.003102012    0.009186315    0.017772971
     22        6           0.008243328    0.043704186   -0.017070928
     23        7          -0.000785705   -0.004196292    0.001651661
 -------------------------------------------------------------------
 Cartesian Forces:  Max     0.056026798 RMS     0.016204198

 GradGradGradGradGradGradGradGradGradGradGradGradGradGradGradGradGradGrad
 Berny optimization.
 Using GEDIIS/GDIIS optimizer.
 FormGI is forming the generalized inverse of G from B-inverse, IUseBI=4.
 Internal  Forces:  Max     0.090221816 RMS     0.015491907
 Search for a local minimum.
 Step number   2 out of a maximum of  119
 All quantities printed in internal units (Hartrees-Bohrs-Radians)
 Mixed Optimization -- RFO/linear search
 Update second derivatives using D2CorX and points    1    2
 DE= -3.52D-02 DEPred=-7.60D-02 R= 4.64D-01
 Trust test= 4.64D-01 RLast= 3.03D-01 DXMaxT set to 3.00D-01
 ITU=  0  0
 Use linear search instead of GDIIS.
 Linear search step of   0.309 exceeds DXMaxT=   0.300 but not scaled.
 Quartic linear search produced a step of  1.02827.
 Iteration  1 RMS(Cart)=  0.24827404 RMS(Int)=  0.01463701
 Iteration  2 RMS(Cart)=  0.10086735 RMS(Int)=  0.00181193
 Iteration  3 RMS(Cart)=  0.00409883 RMS(Int)=  0.00025017
 Iteration  4 RMS(Cart)=  0.00000270 RMS(Int)=  0.00025017
 Iteration  5 RMS(Cart)=  0.00000000 RMS(Int)=  0.00025017
 Variable       Old X    -DE/DX   Delta X   Delta X   Delta X     New X
                                 (Linear)    (Quad)   (Total)
    R1        2.64230   0.00263  -0.00613   0.00000  -0.00615   2.63615
    R2        2.64237   0.00455  -0.00606   0.00000  -0.00606   2.63631
    R3        2.85711  -0.04306  -0.05457   0.00000  -0.05457   2.80255
    R4        2.64452  -0.00464  -0.00385   0.00000  -0.00386   2.64066
    R5        2.03111   0.00739   0.00936   0.00000   0.00936   2.04048
    R6        2.65210  -0.00870   0.00395   0.00000   0.00396   2.65606
    R7        2.00683   0.01568  -0.01561   0.00000  -0.01561   1.99122
    R8        2.64469  -0.00714  -0.00367   0.00000  -0.00366   2.64103
    R9        2.88804  -0.08157  -0.04666   0.00000  -0.04666   2.84138
   R10        2.64127  -0.00582  -0.00719   0.00000  -0.00718   2.63409
   R11        2.03119   0.00739   0.00944   0.00000   0.00944   2.04063
   R12        2.03084   0.00737   0.00908   0.00000   0.00908   2.03991
   R13        3.12394  -0.09022  -0.06338   0.00000  -0.06338   3.06056
   R14        2.64675  -0.00951  -0.00156   0.00000  -0.00154   2.64521
   R15        2.63510  -0.01748  -0.01353   0.00000  -0.01352   2.62159
   R16        2.00576   0.01562  -0.01670   0.00000  -0.01670   1.98906
   R17        2.61027  -0.03808  -0.03906   0.00000  -0.03906   2.57121
   R18        2.63966  -0.00692  -0.00885   0.00000  -0.00885   2.63080
   R19        2.03185   0.00788   0.01012   0.00000   0.01012   2.04197
   R20        2.64121   0.00158  -0.00725   0.00000  -0.00727   2.63394
   R21        2.03191   0.00808   0.01018   0.00000   0.01018   2.04208
   R22        2.03069   0.00764   0.00893   0.00000   0.00893   2.03961
   R23        2.60559  -0.03445  -0.04388   0.00000  -0.04390   2.56169
   R24        2.19415   0.00458   0.00212   0.00000   0.00212   2.19627
    A1        2.09232   0.00216  -0.00214   0.00000  -0.00216   2.09015
    A2        2.09554  -0.00120   0.00118   0.00000   0.00119   2.09673
    A3        2.09533  -0.00096   0.00096   0.00000   0.00097   2.09630
    A4        2.09635  -0.00192   0.00201   0.00000   0.00199   2.09834
    A5        2.09419   0.00181  -0.00021   0.00000  -0.00019   2.09400
    A6        2.09264   0.00011  -0.00181   0.00000  -0.00179   2.09085
    A7        2.09831  -0.00643   0.00403   0.00000   0.00403   2.10234
    A8        2.06920   0.00442  -0.02591   0.00000  -0.02590   2.04330
    A9        2.11567   0.00201   0.02188   0.00000   0.02188   2.13755
   A10        2.08168   0.01481  -0.01307   0.00000  -0.01305   2.06863
   A11        2.20029  -0.00397   0.10889   0.00000   0.10888   2.30917
   A12        2.00121  -0.01084  -0.09582   0.00000  -0.09583   1.90538
   A13        2.10459  -0.00728   0.01048   0.00000   0.01051   2.11509
   A14        2.08815   0.00221  -0.00643   0.00000  -0.00644   2.08171
   A15        2.09045   0.00507  -0.00405   0.00000  -0.00407   2.08638
   A16        2.09312  -0.00134  -0.00131   0.00000  -0.00131   2.09182
   A17        2.09673   0.00155   0.00240   0.00000   0.00240   2.09914
   A18        2.09333  -0.00020  -0.00110   0.00000  -0.00110   2.09223
   A19        2.40537  -0.05519   0.17705   0.00000   0.17705   2.58242
   A20        2.13016   0.00758   0.11576   0.00000   0.11586   2.24602
   A21        2.06382  -0.02127  -0.10193   0.00000  -0.10213   1.96170
   A22        2.08243   0.01403  -0.01230   0.00000  -0.01229   2.07014
   A23        2.11547   0.00325   0.02167   0.00000   0.02163   2.13710
   A24        2.11220   0.00259   0.01830   0.00000   0.01831   2.13051
   A25        2.05550  -0.00584  -0.04000   0.00000  -0.04004   2.01546
   A26        2.08943  -0.01862  -0.00511   0.00000  -0.00509   2.08433
   A27        2.09575   0.00795   0.00139   0.00000   0.00138   2.09713
   A28        2.09801   0.01066   0.00372   0.00000   0.00371   2.10172
   A29        2.09000  -0.00522  -0.00452   0.00000  -0.00454   2.08546
   A30        2.09377   0.00127  -0.00065   0.00000  -0.00064   2.09313
   A31        2.09942   0.00395   0.00516   0.00000   0.00517   2.10459
   A32        2.10014  -0.00037   0.00591   0.00000   0.00592   2.10606
   A33        2.10702   0.01397   0.01299   0.00000   0.01295   2.11998
   A34        2.07602  -0.01360  -0.01889   0.00000  -0.01888   2.05714
   A35        2.08528  -0.00675  -0.00938   0.00000  -0.00939   2.07589
   A36        3.14158   0.00006  -0.00002   0.00000  -0.00002   3.14156
   A37        3.14159  -0.00001   0.00000   0.00000   0.00000   3.14159
    D1       -0.00012  -0.00002  -0.00013   0.00000  -0.00013  -0.00025
    D2        3.14141  -0.00001  -0.00019   0.00000  -0.00019   3.14122
    D3        3.14159   0.00000  -0.00001   0.00000  -0.00001   3.14158
    D4       -0.00007   0.00001  -0.00008   0.00000  -0.00007  -0.00014
    D5        0.00000  -0.00001   0.00000   0.00000   0.00000  -0.00001
    D6       -3.14150   0.00002   0.00010   0.00000   0.00011  -3.14139
    D7        3.14147  -0.00003  -0.00012   0.00000  -0.00012   3.14135
    D8       -0.00002   0.00000  -0.00002   0.00000  -0.00001  -0.00003
    D9        0.00006   0.00003   0.00007   0.00000   0.00007   0.00013
   D10        3.14103  -0.00001  -0.00058   0.00000  -0.00055   3.14048
   D11       -3.14146   0.00001   0.00013   0.00000   0.00013  -3.14134
   D12       -0.00050  -0.00002  -0.00051   0.00000  -0.00049  -0.00099
   D13        0.00012   0.00000   0.00012   0.00000   0.00012   0.00024
   D14       -3.14122   0.00012   0.00039   0.00000   0.00041  -3.14081
   D15       -3.14083   0.00004   0.00079   0.00000   0.00080  -3.14003
   D16        0.00102   0.00015   0.00105   0.00000   0.00108   0.00210
   D17       -0.00025  -0.00003  -0.00025   0.00000  -0.00026  -0.00050
   D18        3.14152   0.00000  -0.00008   0.00000  -0.00009   3.14143
   D19        3.14112  -0.00014  -0.00049   0.00000  -0.00045   3.14066
   D20       -0.00031  -0.00011  -0.00032   0.00000  -0.00029  -0.00059
   D21       -0.08937   0.00042   0.00241   0.00000   0.00241  -0.08696
   D22        3.05247   0.00053   0.00267   0.00000   0.00267   3.05514
   D23        0.00019   0.00004   0.00019   0.00000   0.00020   0.00039
   D24       -3.14150   0.00001   0.00009   0.00000   0.00009  -3.14141
   D25       -3.14157   0.00000   0.00002   0.00000   0.00003  -3.14154
   D26       -0.00008  -0.00002  -0.00008   0.00000  -0.00008  -0.00015
   D27        0.10167   0.00180   0.02637   0.00000   0.02588   0.12755
   D28       -2.91421  -0.00223   0.01355   0.00000   0.01404  -2.90017
   D29        0.13849  -0.00135   0.00631   0.00000   0.00540   0.14389
   D30       -3.01132  -0.00184  -0.00214   0.00000  -0.00353  -3.01485
   D31       -3.13011   0.00026   0.01180   0.00000   0.01246  -3.11765
   D32        0.00326  -0.00023   0.00335   0.00000   0.00353   0.00679
   D33        3.01440   0.00387   0.01721   0.00000   0.01602   3.03042
   D34       -0.12796   0.00331   0.01642   0.00000   0.01544  -0.11253
   D35       -0.00501   0.00033  -0.00515   0.00000  -0.00496  -0.00997
   D36        3.13581  -0.00022  -0.00594   0.00000  -0.00555   3.13027
   D37        0.00137   0.00028   0.00141   0.00000   0.00108   0.00245
   D38        3.13502  -0.00015  -0.00676   0.00000  -0.00701   3.12800
   D39        0.00222  -0.00040   0.00228   0.00000   0.00208   0.00429
   D40       -3.14028  -0.00019   0.00135   0.00000   0.00137  -3.13891
   D41       -3.13860   0.00015   0.00307   0.00000   0.00267  -3.13594
   D42        0.00208   0.00036   0.00214   0.00000   0.00196   0.00404
   D43        3.14155   0.00046  -0.00004   0.00000   0.00011  -3.14153
   D44        0.00246   0.00040   0.00253   0.00000   0.00268   0.00515
   D45        0.00087   0.00025   0.00089   0.00000   0.00082   0.00169
   D46       -3.13822   0.00019   0.00347   0.00000   0.00339  -3.13482
   D47       -0.00424  -0.00035  -0.00437   0.00000  -0.00422  -0.00846
   D48        3.13982  -0.00043  -0.00182   0.00000  -0.00175   3.13807
         Item               Value     Threshold  Converged?
 Maximum Force            0.090222     0.000450     NO 
 RMS     Force            0.015492     0.000300     NO 
 Maximum Displacement     1.060408     0.001800     NO 
 RMS     Displacement     0.341342     0.001200     NO 
 Predicted change in Energy=-3.169302D-02
 GradGradGradGradGradGradGradGradGradGradGradGradGradGradGradGradGradGrad

                          Input orientation:                          
 ---------------------------------------------------------------------
 Center     Atomic      Atomic             Coordinates (Angstroms)
 Number     Number       Type             X           Y           Z
 ---------------------------------------------------------------------
      1          6           0       -4.735923   -0.305790   -0.061747
      2          6           0       -4.939526   -0.268988   -1.441309
      3          6           0       -4.741727    0.918908   -2.150137
      4          6           0       -4.336151    2.087572   -1.482875
      5          6           0       -4.136585    2.031811   -0.100747
      6          6           0       -4.333178    0.848813    0.609764
      7          1           0       -5.250922   -1.160628   -1.964688
      8          1           0       -3.824780    2.922550    0.424088
      9          1           0       -4.173036    0.829682    1.677124
     10          8           0       -4.051028    3.482232   -1.967044
     11          6           0       -3.905485    4.497472   -3.220497
     12          6           0       -4.193827    4.267459   -4.570811
     13          6           0       -3.293338    5.690811   -2.865851
     14          6           0       -2.973386    6.615934   -3.855744
     15          1           0       -3.068949    5.898776   -1.829502
     16          6           0       -3.277744    6.330630   -5.185671
     17          1           0       -2.494178    7.547014   -3.588913
     18          1           0       -4.908707    0.890262   -3.190134
     19          1           0       -4.675792    3.393196   -4.904379
     20          1           0       -3.038153    7.034103   -5.968389
     21          7           0       -3.885642    5.171819   -5.539552
     22          6           0       -4.946468   -1.567614    0.688512
     23          7           0       -5.111475   -2.556485    1.276431
 ---------------------------------------------------------------------
                    Distance matrix (angstroms):
                    1          2          3          4          5
     1  C    0.000000
     2  C    1.394991   0.000000
     3  C    2.421010   1.397376   0.000000
     4  C    2.812046   2.432934   1.405527   0.000000
     5  C    2.413525   2.781277   2.409304   1.397574   0.000000
     6  C    1.395076   2.413305   2.790856   2.431805   1.393901
     7  H    2.148757   1.079775   2.148986   3.408776   3.861048
[...]
 9,-0.00004180,-0.00001588,0.00001979,0.00000617,-0.00000026,-0.0000531
 8,-0.00001397,-0.00005575,-0.00001309,0.00000098,-0.00000363,-0.003780
 19,0.00406530,0.00229497,-0.01789997,-0.01407498,0.01582686,0.00458806
 ,-0.00668408,0.00545478,-0.01864544,-0.11276270,0.11188230,0.21648316,
 0.30061475,0.00024751,0.00009297,-0.00037958,-0.00027283,-0.00054774,0
 .00009065,-0.00030503,0.00071183,-0.00037857,0.00043782,0.00085080,-0.
 00117597,-0.00008171,-0.00015238,0.00026558,-0.00002714,0.00029241,0.0
 0009041,-0.00007571,0.00000319,-0.00001319,0.00001106,-0.00000626,-0.0
 0001541,0.00001879,0.00000326,0.00000350,-0.00567228,0.00110225,0.0049
 5702,0.07627116,0.03205001,0.00284342,-0.01980231,0.01133395,-0.058383
 19,-0.02534663,0.08663762,-0.30362008,0.04568448,-0.17315348,0.6095724
 7,-0.00000942,0.00007300,-0.00001417,-0.00001271,-0.00002289,0.0000604
 3,0.00008355,0.00017673,-0.00006509,-0.00004500,-0.00053177,0.00007652
 ,0.00001675,0.00012716,-0.00010320,-0.00000171,-0.00006327,0.00000272,
 -0.00000179,0.00001521,-0.00000177,-0.00001950,-0.00001225,0.00001283,
 0.00000415,0.00000547,-0.00000197,0.00157679,0.00287440,0.00026250,-0.
 01502364,-0.00170382,-0.02040171,-0.00213940,-0.00514370,0.00206840,-0
 .21573519,-0.02449758,-0.14205890,0.00712365,0.00018780,0.00290502,0.2
 2264290,-0.00000725,0.00005266,-0.00003109,0.00001749,-0.00008722,-0.0
 0002016,-0.00000909,0.00010739,0.00020750,-0.00012930,-0.00074678,0.00
 045183,0.00000699,-0.00000326,-0.00007875,-0.00003374,-0.00000869,0.00
 001316,-0.00001233,-0.00000077,-0.00000126,-0.00000098,0.00000535,0.00
 000941,-0.00000086,-0.00000115,-0.00000645,0.00283552,-0.00216577,-0.0
 0165252,-0.01215424,0.00554206,-0.01141555,-0.00474780,0.00319779,0.00
 343531,-0.02433566,-0.04690720,-0.00835727,0.01056984,0.00571547,0.008
 10113,0.02840247,0.03600256,0.00000042,-0.00006770,-0.00001576,0.00002
 435,-0.00000746,-0.00003635,0.00000756,-0.00008147,0.00008589,-0.00002
 800,0.00040379,0.00022805,-0.00001920,-0.00017022,0.00008872,-0.000024
 78,0.00007885,0.00000341,-0.00000441,-0.00001220,-0.00000091,0.0000226
 0,0.00000999,-0.00001273,-0.00000006,-0.00000649,0.00000215,0.00012461
 ,-0.00236042,0.00089081,0.00664251,0.00256806,0.00772483,0.00125042,0.
 00277445,0.00120924,-0.14416293,-0.00938658,-0.18057588,-0.02218877,-0
 .00368141,-0.01225462,0.15596246,0.00720790,0.18636117,-0.00029706,-0.
 00013205,0.00050486,0.00028550,0.00063964,-0.00008493,0.00034189,-0.00
 090458,0.00026102,0.00017638,-0.00041209,0.00038406,0.00019192,0.00033
 055,-0.00028655,0.00005630,-0.00045373,-0.00014185,0.00008621,-0.00001
 226,0.00001781,-0.00000757,0.00000170,-0.00000069,-0.00002685,-0.00000
 412,-0.00000246,0.00234168,0.00004822,-0.00091859,-0.06959534,-0.01688
 523,-0.02205686,0.01031607,-0.02899227,0.08286736,0.04046216,0.0390289
 6,-0.05705807,-0.22984803,-0.04699577,-0.07246502,0.00271312,-0.003025
 25,0.00128421,0.57127875,-0.00003523,-0.00003409,0.00005255,0.00005496
 ,0.00002998,-0.00004095,-0.00007418,-0.00018500,0.00005927,0.00050043,
 0.00044866,-0.00007849,-0.00000377,0.00001896,-0.00004268,0.00002776,-
 0.00005070,-0.00002153,0.00003908,-0.00002386,0.00001855,0.00000353,0.
 00000522,-0.00002252,-0.00001448,-0.00000565,-0.00000410,0.00026462,-0
 .00083417,0.00037353,-0.02412323,-0.01455112,-0.01184744,-0.01285019,-
 0.02138636,0.04683504,0.02291368,0.02075112,-0.00724639,-0.02261517,-0
 .08782088,0.02315807,-0.00287774,0.00489670,0.00518745,0.16696453,0.30
 619247,-0.00004636,0.00003512,0.00003700,0.00000243,0.00011995,0.00004
 860,0.00016414,0.00012058,-0.00015044,-0.00106505,-0.00068366,0.000683
 92,-0.00000046,0.00006121,-0.00000839,0.00000290,-0.00004454,0.0000045
 7,0.00000785,0.00004106,-0.00001178,-0.00001642,-0.00002035,0.00001593
 ,-0.00000113,0.00001184,-0.00000072,0.00274851,0.00079682,-0.00295033,
 -0.00936963,-0.00551781,-0.00319264,0.03995211,0.02691872,-0.02043933,
 -0.01810587,0.01112326,-0.03913235,-0.13097784,-0.00406334,-0.20866136
 ,0.00040368,0.00498452,-0.00309039,0.06496748,-0.18870202,0.69308281,0
 .00000259,-0.00002831,-0.00001243,-0.00001252,0.00000445,0.00000021,0.
 00000112,-0.00000058,-0.00001293,0.00007536,0.00021804,-0.00005326,0.0
 0000487,-0.00005792,0.00003386,-0.00000826,0.00004086,0.00001035,-0.00
 000212,-0.00000315,-0.00000066,0.00000029,0.00000403,-0.00000518,-0.00
 000360,-0.00000325,0.00000109,-0.00005374,-0.00010269,-0.00009981,0.00
 296391,-0.00188780,-0.00149631,0.00069183,0.00088971,-0.00146108,0.003
 42779,0.00057567,-0.00100682,-0.24575583,-0.12327636,0.06345360,-0.000
 08966,0.00148859,0.00100549,-0.01345081,-0.01168693,0.01189804,0.25544
 971,-0.00001926,-0.00006675,0.00004454,0.00004374,0.00007294,-0.000025
 55,0.00005576,-0.00019098,-0.00000647,-0.00019706,0.00055024,-0.000057
 60,-0.00002967,-0.00010092,0.00003312,0.00002276,0.00001762,0.00000722
 ,-0.00000378,-0.00001114,-0.00000030,-0.00000650,0.00000415,-0.0000137
 2,0.00000275,-0.00000721,0.00000325,-0.00028511,-0.00069306,0.00055314
 ,-0.00123106,0.00605010,0.00361456,0.00044893,0.00022980,-0.00016470,-
 0.01024134,-0.00270214,0.00236932,-0.12333787,-0.11284265,0.04772157,0
 .00177402,-0.00273767,-0.00131703,-0.00059355,0.00034931,0.00129206,0.
 13474292,0.10969430,-0.00000617,0.00007074,0.00001230,-0.00000584,-0.0
 0000689,0.00000386,-0.00000616,0.00008490,0.00005308,0.00018505,-0.000
 72910,-0.00019116,-0.00001354,0.00025920,-0.00009217,-0.00000339,-0.00
 007664,-0.00005894,-0.00000087,0.00001106,0.00000031,0.00000526,-0.000
 00464,0.00001387,0.00001078,0.00001803,-0.00000298,0.00137474,0.001705
 20,-0.00073821,-0.00246330,0.00326137,-0.00279420,-0.00046514,0.000533
 27,-0.00182662,0.02534140,0.01444072,-0.00377188,0.06340259,0.04752060
 ,-0.08082986,0.00033076,-0.00169591,0.00031871,-0.01555839,-0.01143562
 ,0.01144689,-0.06805191,-0.05354699,0.07942216,0.00636727,-0.00048737,
 0.00147370,0.00153420,-0.00037612,0.00237157,-0.06931913,-0.02607401,0
 .09528536,0.00136658,-0.00276077,0.00608911,0.00455958,0.00103372,0.00
 199769,-0.00055763,0.00032873,-0.00035223,-0.00373177,0.00008012,-0.00
 167984,-0.00000664,-0.00017272,0.00026210,-0.00071348,0.00000552,-0.00
 024150,-0.00242310,0.00033244,-0.00128862,-0.00082067,-0.00003969,0.00
 042895,0.00050938,0.00023560,0.00016553,0.00039861,0.00022646,-0.00031
 774,0.00004920,-0.00018435,0.00051611,-0.00005745,-0.00002897,-0.00002
 004,-0.00047694,-0.00006884,-0.00002108,-0.00001035,-0.00004119,0.0000
 0904,0.06301202,-0.00032184,-0.00487793,0.00015683,-0.01070747,-0.0040
 4803,0.02889924,-0.02610569,-0.07833534,0.06741057,0.00761710,0.011871
 10,-0.02014240,0.00068281,-0.00342409,-0.00272309,0.00017870,-0.001085
 21,-0.00042900,0.00011381,0.00074897,-0.00014554,0.00034841,0.00040155
 ,-0.00114359,0.00000952,0.00010419,0.00004545,-0.00022493,0.00095804,0
 .00181292,0.00028446,-0.00223459,-0.00099208,0.00090994,-0.00159880,0.
 00068073,-0.00011542,-0.00021472,0.00017991,-0.00004848,-0.00007212,0.
 00002871,0.00000796,0.00007965,0.00000589,-0.00011315,-0.00008701,0.00
 010233,0.00002680,-0.00000023,-0.00000973,0.02784032,0.08207919,0.0015
 3083,0.00039149,0.00263728,0.00144147,0.00055369,-0.00144189,0.0958026
 1,0.06669142,-0.29071979,0.00726237,0.00776745,-0.01557015,0.00195383,
 -0.00361713,-0.00054062,-0.00037238,-0.00069875,0.00031429,-0.00162798
 ,0.00021499,0.00026926,0.00029845,0.00046477,-0.00070553,-0.00023425,0
 .00006083,-0.00012246,-0.00109938,0.00127400,0.00002025,-0.00035800,0.
 00085963,0.00031722,-0.00001914,0.00104793,0.00008964,-0.00043649,-0.0
 0009555,0.00039759,-0.00014978,0.00003229,-0.00008416,0.00001045,-0.00
 013074,-0.00006959,0.00025354,0.00007603,-0.00009042,-0.00000065,0.000
 01246,-0.00000357,-0.10438430,-0.07471177,0.30530019,-0.00012034,-0.00
 002430,0.00016921,0.00018020,0.00029219,-0.00008613,0.00030623,-0.0001
 4938,0.00018841,-0.00019502,-0.00007246,-0.00059397,0.00012637,0.00026
 772,-0.00017144,0.00003655,-0.00015540,-0.00002535,-0.00000323,-0.0000
 0549,-0.00000234,-0.00004706,-0.00000672,-0.00000103,-0.00000132,0.000
 00003,0.00000803,0.00079266,0.00164624,0.00034247,-0.01539701,-0.01345
 678,0.00813530,-0.26159442,-0.11748530,0.04401662,-0.00114249,-0.00142
 622,-0.00455671,0.00023111,0.00060280,-0.00067435,-0.00081161,-0.00046
 554,0.00044095,0.00414816,-0.00195223,-0.00226919,-0.00032164,0.000510
 22,0.00025499,-0.00034037,-0.00010588,0.00012502,0.26988001,-0.0000210
 6,0.00000085,0.00003363,0.00004313,0.00000074,-0.00008471,0.00005225,-
 0.00020200,0.00027826,-0.00001232,0.00002821,0.00022129,-0.00006976,-0
 .00005027,-0.00007352,0.00002166,-0.00000194,0.00000518,-0.00001409,-0
 .00001388,-0.00000383,-0.00001480,0.00000891,-0.00003424,0.00001538,-0
 .00000454,0.00000145,0.00189152,-0.00185763,-0.00115761,-0.00304595,0.
 00449857,0.00279712,-0.11795451,-0.10464929,0.02948160,-0.00176226,0.0
 0465913,0.00130468,0.00017131,-0.00030692,0.00005745,0.00017269,-0.000
 21050,-0.00005790,-0.00284713,0.00762932,0.00417595,0.00046318,-0.0012
 2776,-0.00056058,0.00011363,0.00013516,-0.00009790,0.13095459,0.102810
 94,0.00006089,-0.00001655,-0.00006067,-0.00006585,-0.00011355,-0.00000
 451,-0.00034886,0.00020843,0.00001910,-0.00019099,0.00059048,-0.000277
 26,-0.00001239,-0.00002952,0.00000964,-0.00000466,0.00009385,0.0000021
 5,0.00000318,-0.00002822,0.00000408,-0.00000489,-0.00000085,-0.0000196
 0,-0.00000276,-0.00000579,0.00000079,0.00188073,-0.00146004,0.00187114
 ,-0.01831982,-0.00876205,0.00882149,0.04362955,0.02954093,-0.06461750,
 -0.00386051,0.00169082,-0.00259052,0.00039940,0.00034757,-0.00072829,-
 0.00091248,-0.00075575,0.00034633,-0.00078729,0.00495630,-0.00239336,0
 .00041064,-0.00049106,0.00000751,0.00013276,0.00003162,-0.00004722,-0.
 05246733,-0.04400179,0.07506434,-0.00001241,-0.00000518,0.00001235,0.0
 0001923,0.00002161,0.00000280,0.00002226,-0.00002311,-0.00001539,-0.00
 001764,0.00011838,-0.00012888,0.00000429,0.00002306,-0.00000780,0.0000
 0947,-0.00001392,-0.00000238,0.00000199,0.00000015,-0.00000076,-0.0000
 0520,-0.00000055,-0.00000426,-0.00000088,0.00000012,0.00000062,0.00012
 376,0.00067041,0.00053782,-0.00103711,-0.00086691,0.00012769,-0.001583
 40,-0.00574143,0.00111810,-0.00287872,-0.00303036,-0.00351176,0.005318
 73,0.00920708,-0.02293946,0.00017578,0.00064121,-0.00112359,-0.0535038
 6,-0.00350270,-0.00663543,-0.00015386,0.00100023,0.00084446,-0.0000277
 2,-0.00000477,0.00001109,0.00008838,-0.00050317,0.00083853,0.06004910,
 0.00000323,-0.00004233,-0.00000143,-0.00000178,0.00001944,-0.00001420,
 -0.00003021,-0.00004679,0.00003410,0.00009945,0.00011409,0.00018742,-0
 .00003843,-0.00009823,0.00002658,-0.00001690,0.00005023,0.00001172,-0.
 00000372,-0.00000816,0.00000153,0.00000412,0.00000303,0.00000102,0.000
 00124,-0.00000517,0.00000217,0.00075107,-0.00158636,-0.00027809,-0.000
 55521,0.00068317,-0.00034970,-0.00476196,0.00641353,0.00320404,-0.0028
 7107,0.00481800,0.00133674,-0.00112511,0.00650268,-0.00355911,0.000070
 46,-0.00003523,-0.00032575,-0.00402501,-0.08304818,0.10103359,0.001345
 79,-0.00207344,-0.00077845,-0.00000476,0.00003791,-0.00001647,-0.00011
 960,0.00016682,0.00062509,0.01588736,0.08080612,0.00002503,0.00003871,
 -0.00001407,-0.00001819,-0.00004683,0.00000378,-0.00001941,0.00007938,
 0.00004243,0.00000619,-0.00036965,0.00013767,0.00001269,0.00004520,-0.
 00002628,-0.00001320,-0.00001658,-0.00000773,0.00000023,0.00000508,0.0
 0000071,0.00000040,-0.00000216,0.00000964,0.00000219,0.00000404,-0.000
 00263,0.00023209,-0.00027805,-0.00040323,-0.00054965,-0.00020566,0.000
 58583,-0.00064284,0.00243747,0.00334433,-0.00411700,0.00080693,-0.0000
 5088,0.00220037,0.00838451,-0.01240833,0.00030313,0.00033429,-0.000689
 08,-0.00497669,0.10152649,-0.29580224,-0.00001131,-0.00118827,-0.00009
 208,0.00001799,-0.00001826,-0.00002495,-0.00010332,0.00020168,-0.00014
 141,-0.00098900,-0.11565520,0.31011040,0.00016569,0.00030195,-0.000259
 30,-0.00009992,-0.00036763,0.00002010,-0.00036701,0.00081025,0.0002184
 3,-0.00024426,-0.00232353,0.00012112,0.00006663,0.00026102,-0.00014948
 ,0.00006677,0.00009063,0.00007433,-0.00007095,0.00001353,-0.00000734,-
 0.00009798,-0.00000601,0.00000352,0.00000577,0.00001744,-0.00001393,-0
 .00492930,-0.00057358,-0.00659549,0.05204234,0.01696202,-0.00796192,-0
 .11598106,-0.02132302,-0.00666547,-0.02111807,-0.01950061,0.03096962,-
 0.06043527,-0.02017349,-0.04191924,-0.00038701,0.00098062,0.00080017,-
 0.26514551,-0.11095295,0.04835084,-0.00275869,-0.00261124,-0.00518491,
 0.00018140,0.00016812,-0.00022854,0.00419767,-0.00766001,0.02961320,-0
 .00658925,-0.00461081,0.00864358,0.42148812,-0.00003414,0.00003947,0.0
 0001065,0.00004486,0.00007138,-0.00011407,0.00013056,0.00009151,-0.000
 01777,-0.00103467,0.00010715,-0.00118998,0.00016943,0.00010129,-0.0000
 1604,0.00006832,-0.00000962,-0.00000165,-0.00005857,0.00001555,-0.0000
 2458,-0.00003706,-0.00000536,-0.00002421,0.00000043,0.00000190,0.00000
 479,-0.00406970,0.00643050,0.00019979,0.04294346,0.02570698,0.02755435
 ,-0.03173751,-0.11661076,0.09622534,-0.01866937,-0.02537984,0.02474477
 ,-0.04216770,0.01653107,-0.03468121,0.00098241,-0.00268210,-0.00077547
 ,-0.10166645,-0.13229874,0.04820804,-0.00275962,0.00567033,0.00095345,
 0.00007355,0.00002695,-0.00007810,0.00112188,-0.01141181,0.01758219,-0
 .01387908,-0.01268300,0.00392632,0.17055767,0.24627767,-0.00022481,0.0
 0039848,0.00039548,0.00026330,0.00021653,0.00016218,0.00043751,-0.0001
 3301,0.00014713,0.00034740,-0.00387523,0.00035235,0.00031414,0.0012526
 5,-0.00079938,0.00015932,-0.00093057,-0.00012396,0.00006889,0.00006609
 ,0.00000385,-0.00006732,-0.00002086,0.00005161,-0.00002954,0.00004005,
 -0.00002486,-0.00218863,0.00380037,-0.00063580,-0.07028150,-0.00063444
 ,-0.05608997,0.01977153,0.10844986,-0.30675183,0.03013072,0.02483596,-
 0.03447831,0.01245011,-0.01042589,0.06110330,0.00114887,-0.00059648,-0
 .00050439,0.02379820,0.03720866,-0.12940771,-0.00460033,0.00116724,-0.
 00088044,-0.00070606,-0.00028122,0.00011063,0.00726566,0.00752433,-0.0
 1525541,0.03186352,0.01452114,-0.00457209,-0.04982832,-0.18250193,0.48
 715321,-0.05885211,-0.02139742,0.01435032,-0.00183719,-0.01380045,0.00
 241701,0.00547797,-0.00013968,0.00438818,-0.00128236,-0.00037300,0.000
 82118,0.00594104,0.00194170,0.00254537,0.00133251,0.00442076,-0.005077
 94,-0.00333972,-0.00017834,-0.00126537,0.00082226,0.00037533,0.0001194
 9,-0.00317039,0.00057222,-0.00111875,-0.00034151,0.00068325,-0.0005420
 6,-0.00038024,-0.00019374,0.00026819,0.00013217,-0.00002938,-0.0000091
 4,0.00005980,0.00004804,-0.00003454,0.00000813,-0.00001650,0.00004591,
 -0.00000850,-0.00000378,0.00000666,-0.00004748,-0.00000981,0.00001221,
 0.00000614,-0.00000522,-0.00000308,0.00075222,-0.00049927,0.00029469,-
 0.00000602,0.00000498,0.00001618,-0.00000184,0.00000235,-0.00000686,-0
 .00002087,0.00002101,-0.00013943,0.10461902,-0.02124519,-0.27199806,0.
 04237918,-0.00907649,-0.02647556,0.02323980,-0.00077200,0.00860789,0.0
 0283827,-0.00058216,-0.00624415,0.00028123,0.00257858,0.00406309,-0.00
 826035,-0.00040358,-0.04862449,-0.00271858,0.00053559,0.00104982,-0.00
 135135,-0.00016086,-0.00075877,0.00033980,-0.00015711,0.00115317,0.000
 91441,0.00125291,0.00558348,-0.00200202,-0.00057811,-0.00109494,0.0025
 0163,0.00006142,0.00015852,-0.00027972,-0.00005936,0.00001419,-0.00027
 235,-0.00007524,0.00005991,-0.00015336,-0.00006189,-0.00006721,0.00004
 466,0.00020633,0.00002111,0.00002195,0.00003256,0.00005593,-0.00005762
 ,-0.00001146,-0.00013919,-0.00001812,0.00013859,-0.00002064,0.00002608
 ,0.00001225,0.00004009,-0.00004947,-0.00022789,0.00005219,-0.00026260,
 0.14899080,1.46865662,0.01413770,0.04265978,-0.08939518,0.00305005,0.0
 3687249,-0.00621973,0.00423064,-0.00022237,-0.00482086,0.00090367,0.00
 072666,-0.00310888,0.00277128,-0.00512203,-0.00106157,-0.00539487,-0.0
 1653217,0.01311465,-0.00119011,0.00073632,-0.00036156,0.00007065,-0.00
 111484,0.00059091,-0.00118065,-0.00116054,-0.00041808,-0.00071578,-0.0
 0125258,0.00094265,0.00006294,0.00028069,-0.00069106,0.00004197,-0.000
 02465,0.00009392,-0.00003379,-0.00002779,0.00012434,0.00000095,-0.0000
 1852,0.00002472,0.00001944,0.00000793,-0.00001624,-0.00002646,-0.00001
 029,0.00000843,-0.00000773,-0.00001341,0.00001445,0.00034065,0.0014368
 6,0.00002555,-0.00001888,-0.00000048,-0.00001148,-0.00000090,-0.000010
 30,0.00000928,0.00002538,-0.00000154,0.00007702,-0.04379994,-0.3085937
 8,0.18320979,0.01530134,-0.00468119,-0.00034060,0.00195321,0.00124310,
 0.00012244,-0.00093962,-0.00016611,-0.00073619,0.00034938,0.00038879,-
 0.00026720,-0.00100366,-0.00060354,-0.00038072,0.00117141,0.00032409,0
 .00219301,0.00036353,0.00006482,0.00011148,-0.00026633,-0.00009878,-0.
 00003064,0.00035772,-0.00012815,0.00001145,-0.00002053,-0.00044647,0.0
 0021827,0.00010677,0.00010897,-0.00020693,-0.00005568,-0.00001404,0.00
 001616,-0.00001163,-0.00002783,0.00002399,0.00000515,0.00000436,-0.000
 00974,0.00000587,0.00001206,-0.00000063,0.00000134,-0.00000113,-0.0000
 0173,-0.00000253,0.00000153,0.00000363,-0.00024519,0.00005896,-0.00007
 345,-0.00000681,0.00000073,-0.00000725,-0.00000108,-0.00000050,0.00000
 359,0.00003076,0.00000029,0.00004679,-0.04986302,-0.12039771,0.0267137
 8,0.03276960,-0.00477704,-0.02363610,0.01018835,0.00360210,0.00320194,
 -0.00994616,-0.00017510,-0.00357977,-0.00006225,0.00053167,0.00427431,
 -0.00050702,-0.00056338,-0.00267293,0.00192407,-0.00197027,0.00850574,
 0.00601930,-0.00019565,0.00003160,0.00064976,-0.00002382,-0.00019319,0
 .00007586,0.00015397,-0.00015761,-0.00052876,-0.00086899,-0.00383771,0
 .00156540,0.00037459,0.00076891,-0.00181024,-0.00004850,-0.00011325,0.
 00020300,0.00006146,-0.00002286,0.00019566,0.00006519,-0.00004386,0.00
 010831,0.00004512,0.00005393,-0.00003096,-0.00015727,-0.00001708,-0.00
 001529,-0.00002597,-0.00004076,0.00004362,-0.00001984,-0.00032546,0.00
 001756,-0.00010897,0.00001853,-0.00002819,-0.00001069,-0.00002824,0.00
 004001,0.00016752,-0.00004273,0.00018087,-0.12041386,-1.13409301,0.251
 38456,0.12435775,1.15194963,-0.00030385,0.00995366,0.01696088,0.000246
 48,-0.00346449,0.00101050,-0.00068627,0.00044824,0.00082549,-0.0003188
 3,-0.00077933,0.00089928,-0.00046100,0.00143803,0.00012103,0.00200787,
 -0.00031712,-0.00366346,0.00008436,-0.00017555,0.00013062,-0.00002408,
 0.00027052,-0.00019392,0.00003920,0.00029867,0.00030036,0.00026715,0.0
 0087033,-0.00040015,-0.00007118,-0.00016513,0.00039595,-0.00000563,0.0
 0002626,-0.00005137,-0.00001010,0.00000547,-0.00005580,-0.00001141,0.0
 0001394,-0.00001846,-0.00000794,-0.00001107,0.00000663,0.00002529,0.00
 000007,0.00000330,0.00000713,0.00000661,-0.00001104,-0.00007914,-0.000
 19437,-0.00006153,0.00002339,-0.00001006,0.00000067,0.00000265,0.00000
 357,-0.00000905,-0.00002635,0.00001686,-0.00003262,0.02671174,0.251432
 31,-0.09213107,-0.02740950,-0.25966743,0.07597376\\0.00000239,0.000003
 26,-0.00000544,-0.00000035,-0.00000779,0.00000553,-0.00000093,0.000008
 71,-0.00000272,0.00000327,-0.00000111,-0.00000889,-0.00000241,-0.00001
 044,0.00000508,-0.00000241,0.00000788,0.00000175,0.00000073,0.00000161
 ,0.00000030,-0.00000034,0.00000027,-0.00000150,0.00000063,0.,-0.000001
 44,-0.00000577,0.00000892,-0.00000261,0.00000946,-0.00000402,0.0000202
 1,-0.00000628,-0.00000583,-0.00000361,-0.00000649,0.00000128,-0.000007
 67,-0.00000105,0.00000101,-0.00000623,0.00000006,0.00000130,-0.0000010
 6,0.00001270,0.00000534,-0.00000496,-0.00000047,0.00000062,0.00000493,
 -0.00000002,-0.00000351,0.00000455,0.00000398,0.00000205,-0.00000188,-
 0.00000075,-0.00000210,0.00000165,-0.00000700,-0.00000108,0.00000409,0
 .00000034,-0.00000676,0.00000027,0.00000074,0.00000037,-0.00000031\\\@


 SOME THINGS ARE EASY, THEY ARE ONLY HARD TO DO.
            -- A. EINSTEIN TO J. O. HIRSCHFELDER
 THE ONLY TROUBLE WITH A SURE THING IS THE UNCERTAINTY.
     -- FROM A TEABAG (BELONGING TO W.H.?)
 Job cpu time:       0 days  1 hours 50 minutes 20.1 seconds.
 Elapsed time:       0 days  0 hours  3 minutes 40.7 seconds.
 File lengths (MBytes):  RWF=    221 Int=      0 D2E=      0 Chk=     10 Scr=      1
 Normal termination of Gaussian 16 at Mon Sep 18 16:08:33 2023.
