 Entering Gaussian System, Link 0=/home/ubuntu/g16/g16
 Input=/home/ubuntu/products/molecule_17.gjf
 Output=/home/ubuntu/products/molecule_17.log
 Initial command:
 /home/ubuntu/g16/l1.exe "/home/ubuntu/Scratch/Gau-55717.inp" -scrdir="/home/ubuntu/Scratch/"
 Entering Link 1 = /home/ubuntu/g16/l1.exe PID=     55719.
  
 Copyright (c) 1988-2017, Gaussian, Inc.  All Rights Reserved.
  
 This is part of the Gaussian(R) 16 program.  It is based on
 the Gaussian(R) 09 system (copyright 2009, Gaussian, Inc.),
 the Gaussian(R) 03 system (copyright 2003, Gaussian, Inc.),
 the Gaussian(R) 98 system (copyright 1998, Gaussian, Inc.),
 the Gaussian(R) 94 system (copyright 1995, Gaussian, Inc.),
 the Gaussian 92(TM) system (copyright 1992, Gaussian, Inc.),
 the Gaussian 90(TM) system (copyright 1990, Gaussian, Inc.),
 the Gaussian 88(TM) system (copyright 1988, Gaussian, Inc.),
 the Gaussian 86(TM) system (copyright 1986, Carnegie Mellon
 University), and the Gaussian 82(TM) system (copyright 1983,
 Carnegie Mellon University). Gaussian is a federally registered
 trademark of Gaussian, Inc.
  
 This software contains proprietary and confidential information,
 including trade secrets, belonging to Gaussian, Inc.
  
 This software is provided under written license and may be
 used, copied, transmitted, or stored only in accord with that
 written license.
  
 The following legend is applicable only to US Government
 contracts under FAR:
  
                    RESTRICTED RIGHTS LEGEND
  
 Use, reproduction and disclosure by the US Government is
 subject to restrictions as set forth in subparagraphs (a)
 and (c) of the Commercial Computer Software - Restricted
 Rights clause in FAR 52.227-19.
  
 Gaussian, Inc.
 340 Quinnipiac St., Bldg. 40, Wallingford CT 06492
  
  
 ---------------------------------------------------------------
 Warning -- This program may not be used in any manner that
 competes with the business of Gaussian, Inc. or will provide
 assistance to any competitor of Gaussian, Inc.  The licensee
 of this program is prohibited from giving any competitor of
 Gaussian, Inc. access to this program.  By using this program,
 the user acknowledges that Gaussian, Inc. is engaged in the
 business of creating and licensing software in the field of
 computational chemistry and represents and warrants to the
 licensee that it is not a competitor of Gaussian, Inc. and that
 it will not use this program in any manner prohibited above.
 ---------------------------------------------------------------
  

 Cite this work as:
 Gaussian 16, Revision B.01,
 M. J. Frisch, G. W. Trucks, H. B. Schlegel, G. E. Scuseria, 
 M. A. Robb, J. R. Cheeseman, G. Scalmani, V. Barone, 
 G. A. Petersson, H. Nakatsuji, X. Li, M. Caricato, A. V. Marenich, 
 J. Bloino, B. G. Janesko, R. Gomperts, B. Mennucci, H. P. Hratchian, 
 J. V. Ortiz, A. F. Izmaylov, J. L. Sonnenberg, D. Williams-Young, 
 F. Ding, F. Lipparini, F. Egidi, J. Goings, B. Peng, A. Petrone, 
 T. Henderson, D. Ranasinghe, V. G. Zakrzewski, J. Gao, N. Rega, 
 G. Zheng, W. Liang, M. Hada, M. Ehara, K. Toyota, R. Fukuda, 
 J. Hasegawa, M. Ishida, T. Nakajima, Y. Honda, O. Kitao, H. Nakai, 
 T. Vreven, K. Throssell, J. A. Montgomery, Jr., J. E. Peralta, 
 F. Ogliaro, M. J. Bearpark, J. J. Heyd, E. N. Brothers, K. N. Kudin, 
 V. N. Staroverov, T. A. Keith, R. Kobayashi, J. Normand, 
 K. Raghavachari, A. P. Rendell, J. C. Burant, S. S. Iyengar, 
 J. Tomasi, M. Cossi, J. M. Millam, M. Klene, C. Adamo, R. Cammi, 
 J. W. Ochterski, R. L. Martin, K. Morokuma, O. Farkas, 
 J. B. Foresman, and D. J. Fox, Gaussian, Inc., Wallingford CT, 2016.
 
 ******************************************
 Gaussian 16:  EM64L-G16RevB.01 20-Dec-2017
                17-Sep-2023 
 ******************************************
 %nprocshared=30
 Will use up to   30 processors via shared memory.
 %mem=30GB
 %chk=molecule_17.chk
 ---------------------------------------------------------
 # opt freq b3lyp/6-31+g(d) empiricaldispersion=gd3 volume
 ---------------------------------------------------------
 1/18=20,19=15,26=3,38=1/1,3;
 2/9=110,12=2,17=6,18=5,40=1/2;
 3/5=1,6=6,7=11,11=2,25=1,30=1,71=1,74=-5,124=31/1,2,3;
 4//1;
 5/5=2,38=5/2;
 6/7=2,8=2,9=2,10=2,28=1,44=1/1,4;
 7//1,2,3,16;
 1/18=20,19=15,26=3/3(2);
 2/9=110/2;
 99//99;
 2/9=110/2;
 3/5=1,6=6,7=11,11=2,25=1,30=1,71=1,74=-5,124=31/1,2,3;
 4/5=5,16=3,69=1/1;
 5/5=2,38=5/2;
 7//1,2,3,16;
 1/18=20,19=15,26=3/3(-5);
 2/9=110/2;
 6/7=2,8=2,9=2,10=2,19=2,28=1,44=1/1,4;
 99/9=1/99;
 -------------------
 Title Card Required
 -------------------
 Symbolic Z-matrix:
 Charge =  0 Multiplicity = 1
 C                     5.02565   0.05962   1.21036 
 C                     3.63168   0.01971   1.21518 
 C                     2.91753   0.01118   0.00028 
 C                     3.63099   0.04373  -1.21464 
 C                     5.02495   0.08349  -1.20984 
 C                     5.72653   0.09146   0.00025 
 H                     5.56597   0.06599   2.15341 
 H                     3.08477  -0.00488   2.15322 
 H                     3.08352   0.03783  -2.15266 
 H                     5.56472   0.10856  -2.15291 
 H                     6.8129    0.12249   0.00024 
 C                     1.48867  -0.02939   0.00024 
 C                     0.27238  -0.06313   0.00002 
 C                    -1.15431  -0.0996   -0.00035 
 C                    -1.83796  -1.33268  -0.01125 
 C                    -1.90008   1.1018    0.00996 
 C                    -3.22943  -1.35881  -0.01177 
 H                    -1.26767  -2.25653  -0.01936 
 C                    -3.28764   1.06766   0.00944 
 H                    -1.37217   2.05065   0.01836 
 C                    -3.96514  -0.16401  -0.00146 
 H                    -3.75243  -2.31325  -0.02032 
 H                    -3.87035   1.98422   0.01737 
 C                    -5.44344  -0.21211  -0.00228 
 O                    -6.17149   0.76581   0.00616 
 H                    -5.87969  -1.23502  -0.01145 
 

 GradGradGradGradGradGradGradGradGradGradGradGradGradGradGradGradGradGrad
 Berny optimization.
 Initialization pass.
                           ----------------------------
                           !    Initial Parameters    !
                           ! (Angstroms and Degrees)  !
 --------------------------                            --------------------------
 ! Name  Definition              Value          Derivative Info.                !
 --------------------------------------------------------------------------------
 ! R1    R(1,2)                  1.3945         estimate D2E/DX2                !
 ! R2    R(1,6)                  1.3988         estimate D2E/DX2                !
 ! R3    R(1,7)                  1.0869         estimate D2E/DX2                !
 ! R4    R(2,3)                  1.4093         estimate D2E/DX2                !
 ! R5    R(2,8)                  1.0861         estimate D2E/DX2                !
 ! R6    R(3,4)                  1.4093         estimate D2E/DX2                !
 ! R7    R(3,12)                 1.4294         estimate D2E/DX2                !
 ! R8    R(4,5)                  1.3945         estimate D2E/DX2                !
 ! R9    R(4,9)                  1.0861         estimate D2E/DX2                !
 ! R10   R(5,6)                  1.3988         estimate D2E/DX2                !
 ! R11   R(5,10)                 1.0869         estimate D2E/DX2                !
 ! R12   R(6,11)                 1.0868         estimate D2E/DX2                !
 ! R13   R(12,13)                1.2168         estimate D2E/DX2                !
 ! R14   R(13,14)                1.4272         estimate D2E/DX2                !
 ! R15   R(14,15)                1.41           estimate D2E/DX2                !
 ! R16   R(14,16)                1.4141         estimate D2E/DX2                !
 ! R17   R(15,17)                1.3917         estimate D2E/DX2                !
 ! R18   R(15,18)                1.0857         estimate D2E/DX2                !
 ! R19   R(16,19)                1.388          estimate D2E/DX2                !
 ! R20   R(16,20)                1.0859         estimate D2E/DX2                !
 ! R21   R(17,21)                1.4032         estimate D2E/DX2                !
 ! R22   R(17,22)                1.0884         estimate D2E/DX2                !
 ! R23   R(19,21)                1.4058         estimate D2E/DX2                !
 ! R24   R(19,23)                1.0861         estimate D2E/DX2                !
 ! R25   R(21,24)                1.4791         estimate D2E/DX2                !
 ! R26   R(24,25)                1.2192         estimate D2E/DX2                !
 ! R27   R(24,26)                1.1121         estimate D2E/DX2                !
 ! A1    A(2,1,6)              120.2982         estimate D2E/DX2                !
 ! A2    A(2,1,7)              119.6091         estimate D2E/DX2                !
 ! A3    A(6,1,7)              120.0927         estimate D2E/DX2                !
 ! A4    A(1,2,3)              120.2469         estimate D2E/DX2                !
 ! A5    A(1,2,8)              120.4624         estimate D2E/DX2                !
 ! A6    A(3,2,8)              119.2906         estimate D2E/DX2                !
 ! A7    A(2,3,4)              119.1103         estimate D2E/DX2                !
 ! A8    A(2,3,12)             120.4466         estimate D2E/DX2                !
 ! A9    A(4,3,12)             120.4431         estimate D2E/DX2                !
 ! A10   A(3,4,5)              120.2477         estimate D2E/DX2                !
 ! A11   A(3,4,9)              119.2897         estimate D2E/DX2                !
 ! A12   A(5,4,9)              120.4626         estimate D2E/DX2                !
 ! A13   A(4,5,6)              120.2976         estimate D2E/DX2                !
 ! A14   A(4,5,10)             119.6095         estimate D2E/DX2                !
 ! A15   A(6,5,10)             120.0929         estimate D2E/DX2                !
 ! A16   A(1,6,5)              119.7993         estimate D2E/DX2                !
 ! A17   A(1,6,11)             120.1003         estimate D2E/DX2                !
 ! A18   A(5,6,11)             120.1004         estimate D2E/DX2                !
 ! A19   A(13,14,15)           120.4685         estimate D2E/DX2                !
 ! A20   A(13,14,16)           120.3645         estimate D2E/DX2                !
 ! A21   A(15,14,16)           119.167          estimate D2E/DX2                !
 ! A22   A(14,15,17)           120.0801         estimate D2E/DX2                !
 ! A23   A(14,15,18)           119.3096         estimate D2E/DX2                !
 ! A24   A(17,15,18)           120.6103         estimate D2E/DX2                !
 ! A25   A(14,16,19)           120.4195         estimate D2E/DX2                !
 ! A26   A(14,16,20)           119.0819         estimate D2E/DX2                !
 ! A27   A(19,16,20)           120.4986         estimate D2E/DX2                !
 ! A28   A(15,17,21)           120.5458         estimate D2E/DX2                !
 ! A29   A(15,17,22)           119.7962         estimate D2E/DX2                !
 ! A30   A(21,17,22)           119.658          estimate D2E/DX2                !
 ! A31   A(16,19,21)           120.2221         estimate D2E/DX2                !
 ! A32   A(16,19,23)           121.0365         estimate D2E/DX2                !
 ! A33   A(21,19,23)           118.7414         estimate D2E/DX2                !
 ! A34   A(17,21,19)           119.5654         estimate D2E/DX2                !
 ! A35   A(17,21,24)           119.7577         estimate D2E/DX2                !
 ! A36   A(19,21,24)           120.6769         estimate D2E/DX2                !
 ! A37   A(21,24,25)           124.8023         estimate D2E/DX2                !
 ! A38   A(21,24,26)           114.9611         estimate D2E/DX2                !
 ! A39   A(25,24,26)           120.2366         estimate D2E/DX2                !
 ! A40   L(3,12,13,9,-1)       179.9906         estimate D2E/DX2                !
 ! A41   L(12,13,14,20,-1)     179.8752         estimate D2E/DX2                !
 ! A42   L(3,12,13,9,-2)       180.046          estimate D2E/DX2                !
 ! A43   L(12,13,14,20,-2)     179.9933         estimate D2E/DX2                !
 ! D1    D(6,1,2,3)             -0.0025         estimate D2E/DX2                !
 ! D2    D(6,1,2,8)           -179.9886         estimate D2E/DX2                !
 ! D3    D(7,1,2,3)            179.9911         estimate D2E/DX2                !
 ! D4    D(7,1,2,8)              0.005          estimate D2E/DX2                !
 ! D5    D(2,1,6,5)              0.0142         estimate D2E/DX2                !
 ! D6    D(2,1,6,11)          -179.998          estimate D2E/DX2                !
 ! D7    D(7,1,6,5)           -179.9794         estimate D2E/DX2                !
 ! D8    D(7,1,6,11)             0.0084         estimate D2E/DX2                !
 ! D9    D(1,2,3,4)             -0.0121         estimate D2E/DX2                !
 ! D10   D(1,2,3,12)          -179.9863         estimate D2E/DX2                !
 ! D11   D(8,2,3,4)            179.9742         estimate D2E/DX2                !
 ! D12   D(8,2,3,12)             0.0            estimate D2E/DX2                !
 ! D13   D(2,3,4,5)              0.0151         estimate D2E/DX2                !
 ! D14   D(2,3,4,9)           -179.9657         estimate D2E/DX2                !
 ! D15   D(12,3,4,5)           179.9893         estimate D2E/DX2                !
 ! D16   D(12,3,4,9)             0.0085         estimate D2E/DX2                !
 ! D17   D(2,3,14,15)          -89.9955         estimate D2E/DX2                !
 ! D18   D(2,3,14,16)           90.0252         estimate D2E/DX2                !
 ! D19   D(4,3,14,15)           90.1102         estimate D2E/DX2                !
 ! D20   D(4,3,14,16)          -89.869          estimate D2E/DX2                !
 ! D21   D(3,4,5,6)             -0.0036         estimate D2E/DX2                !
 ! D22   D(3,4,5,10)          -179.9877         estimate D2E/DX2                !
 ! D23   D(9,4,5,6)            179.977          estimate D2E/DX2                !
 ! D24   D(9,4,5,10)            -0.0071         estimate D2E/DX2                !
 ! D25   D(4,5,6,1)             -0.0112         estimate D2E/DX2                !
 ! D26   D(4,5,6,11)          -179.999          estimate D2E/DX2                !
 ! D27   D(10,5,6,1)           179.9729         estimate D2E/DX2                !
 ! D28   D(10,5,6,11)           -0.0149         estimate D2E/DX2                !
 ! D29   D(13,14,15,17)       -179.9882         estimate D2E/DX2                !
 ! D30   D(13,14,15,18)          0.0017         estimate D2E/DX2                !
 ! D31   D(16,14,15,17)         -0.0009         estimate D2E/DX2                !
 ! D32   D(16,14,15,18)        179.9891         estimate D2E/DX2                !
 ! D33   D(13,14,16,19)        179.9918         estimate D2E/DX2                !
 ! D34   D(13,14,16,20)         -0.0137         estimate D2E/DX2                !
 ! D35   D(15,14,16,19)          0.0045         estimate D2E/DX2                !
 ! D36   D(15,14,16,20)        179.9989         estimate D2E/DX2                !
 ! D37   D(14,15,17,21)         -0.0024         estimate D2E/DX2                !
 ! D38   D(14,15,17,22)        179.9935         estimate D2E/DX2                !
 ! D39   D(18,15,17,21)       -179.9922         estimate D2E/DX2                !
 ! D40   D(18,15,17,22)          0.0037         estimate D2E/DX2                !
 ! D41   D(14,16,19,21)         -0.0049         estimate D2E/DX2                !
 ! D42   D(14,16,19,23)        179.9958         estimate D2E/DX2                !
 ! D43   D(20,16,19,21)       -179.9992         estimate D2E/DX2                !
 ! D44   D(20,16,19,23)          0.0014         estimate D2E/DX2                !
 ! D45   D(15,17,21,19)          0.0021         estimate D2E/DX2                !
 ! D46   D(15,17,21,24)        179.9962         estimate D2E/DX2                !
 ! D47   D(22,17,21,19)       -179.9938         estimate D2E/DX2                !
 ! D48   D(22,17,21,24)          0.0003         estimate D2E/DX2                !
 ! D49   D(16,19,21,17)          0.0016         estimate D2E/DX2                !
 ! D50   D(16,19,21,24)       -179.9925         estimate D2E/DX2                !
 ! D51   D(23,19,21,17)       -179.9991         estimate D2E/DX2                !
 ! D52   D(23,19,21,24)          0.0069         estimate D2E/DX2                !
 ! D53   D(17,21,24,25)        179.9985         estimate D2E/DX2                !
 ! D54   D(17,21,24,26)         -0.0033         estimate D2E/DX2                !
 ! D55   D(19,21,24,25)         -0.0075         estimate D2E/DX2                !
 ! D56   D(19,21,24,26)        179.9908         estimate D2E/DX2                !
 --------------------------------------------------------------------------------
 Trust Radius=3.00D-01 FncErr=1.00D-07 GrdErr=1.00D-06 EigMax=2.50D+02 EigMin=1.00D-04
 Number of steps in this run=    136 maximum allowed number of steps=    156.
 GradGradGradGradGradGradGradGradGradGradGradGradGradGradGradGradGradGrad

                          Input orientation:                          
 ---------------------------------------------------------------------
 Center     Atomic      Atomic             Coordinates (Angstroms)
 Number     Number       Type             X           Y           Z
 ---------------------------------------------------------------------
      1          6           0        5.025651    0.059622    1.210355
      2          6           0        3.631682    0.019711    1.215179
      3          6           0        2.917533    0.011179    0.000275
      4          6           0        3.630985    0.043733   -1.214635
      5          6           0        5.024952    0.083485   -1.209843
      6          6           0        5.726533    0.091456    0.000251
      7          1           0        5.565970    0.065990    2.153414
      8          1           0        3.084773   -0.004883    2.153223
      9          1           0        3.083517    0.037826   -2.152658
     10          1           0        5.564721    0.108556   -2.152905
     11          1           0        6.812901    0.122490    0.000244
     12          6           0        1.488673   -0.029387    0.000240
     13          6           0        0.272378   -0.063131    0.000018
     14          6           0       -1.154313   -0.099602   -0.000349
     15          6           0       -1.837964   -1.332684   -0.011251
     16          6           0       -1.900080    1.101799    0.009955
     17          6           0       -3.229431   -1.358814   -0.011774
     18          1           0       -1.267669   -2.256529   -0.019356
     19          6           0       -3.287636    1.067664    0.009439
     20          1           0       -1.372167    2.050654    0.018362
     21          6           0       -3.965136   -0.164006   -0.001456
     22          1           0       -3.752430   -2.313253   -0.020319
     23          1           0       -3.870351    1.984220    0.017366
     24          6           0       -5.443435   -0.212114   -0.002275
     25          8           0       -6.171491    0.765809    0.006163
     26          1           0       -5.879693   -1.235015   -0.011451
 ---------------------------------------------------------------------
                    Distance matrix (angstroms):
                    1          2          3          4          5
     1  C    0.000000
     2  C    1.394549   0.000000
     3  C    2.431214   1.409281   0.000000
     4  C    2.797485   2.429933   1.409283   0.000000
     5  C    2.420316   2.797499   2.431220   1.394542   0.000000
     6  C    1.398785   2.422725   2.810147   2.422715   1.398788
     7  H    1.086897   2.150325   3.413683   3.884381   3.406538
     8  H    2.158742   1.086113   2.159494   3.412210   3.883596
     9  H    3.883583   3.412204   2.159486   1.086114   2.158739
    10  H    3.406539   3.884395   3.413689   2.150323   1.086897
    11  H    2.159302   3.406873   3.896958   3.406864   2.159304
    12  C    3.739320   2.463935   1.429436   2.463893   3.739293
    13  C    4.906484   3.573290   2.646199   3.573100   4.906345
    14  C    6.299453   4.939382   4.073353   4.939040   6.299183
    15  C    7.109152   5.766293   4.941746   5.766460   7.109274
    16  C    7.105832   5.764015   4.939528   5.762968   7.104994
    17  C    8.464747   7.104971   6.297793   7.104880   8.464658
    18  H    6.817816   5.541569   4.760126   5.542266   6.818358
    19  C    8.459852   7.101336   6.294471   7.100289   8.458982
    20  H    6.805669   5.531329   4.749875   5.529877   6.804511
    21  C    9.074841   7.695817   6.884898   7.695194   9.074312
    22  H    9.176045   7.841829   7.063414   7.841976   9.176151
    23  H    9.179660   7.846945   7.068844   7.845595   9.178521
    24  C   10.542584   9.159350   8.363950   9.158623  10.541951
    25  O   11.283828   9.905583   9.120299   9.904558  11.282933
    26  H   11.049680   9.671877   8.885062   9.671393  11.049247
                    6          7          8          9         10
     6  C    0.000000
     7  H    2.159292   0.000000
     8  H    3.409320   2.482209   0.000000
     9  H    3.409315   4.970475   4.306093   0.000000
    10  H    2.159295   4.306530   4.970488   2.482212   0.000000
    11  H    1.086811   2.488809   4.307027   4.307024   2.488815
    12  C    4.239583   4.611898   2.680200   2.680115   4.611857
    13  C    5.456345   5.716284   3.542492   3.542133   5.716069
    14  C    6.883498   7.058918   4.755701   4.755052   7.058487
    15  C    7.697397   7.839662   5.539074   5.539395   7.839872
    16  C    7.693251   7.836403   5.537789   5.535808   7.835033
    17  C    9.072636   9.169361   6.810985   6.810822   9.169227
    18  H    7.377824   7.537483   5.360388   5.361703   7.538383
    19  C    9.066880   9.164405   6.808360   6.806381   9.162960
    20  H    7.364124   7.525628   5.352306   5.349572   7.523733
    21  C    9.695035   9.774372   7.373546   7.372375   9.773495
    22  H    9.779253   9.859944   7.536591   7.536884   9.860141
    23  H    9.781770   9.863390   7.542690   7.540142   9.861479
    24  C   11.174093  11.221913   8.798832   8.797473  11.220853
    25  O   11.917121  11.952758   9.533219   9.531298  11.951244
    26  H   11.681787  11.721026   9.303800   9.302904  11.720308
                   11         12         13         14         15
    11  H    0.000000
    12  C    5.326394   0.000000
    13  C    6.543156   1.216763   0.000000
    14  C    7.970309   2.643919   1.427157   0.000000
    15  C    8.772407   3.572846   2.462810   1.409961   0.000000
    16  C    8.767849   3.572579   2.465103   1.414086   2.435368
    17  C   10.151002   4.901839   3.733845   2.427315   1.391712
    18  H    8.423522   3.543722   2.680133   2.159987   1.085722
    19  C   10.144668   4.900687   3.735303   2.431804   2.804220
    20  H    8.409131   3.537132   2.678237   2.161345   3.415380
    21  C   10.781844   5.455470   4.238715   2.811561   2.427090
    22  H   10.842485   5.717135   4.611132   3.413336   2.150995
    23  H   10.844271   5.724862   4.621055   3.423374   3.890150
    24  C   12.260903   6.934516   5.717755   4.290598   3.775603
    25  O   13.000320   7.701330   6.496971   5.091272   4.814918
    26  H   12.764987   7.466357   6.262701   4.859887   4.042909
                   16         17         18         19         20
    16  C    0.000000
    17  C    2.796831   0.000000
    18  H    3.417480   2.157420   0.000000
    19  C    1.387976   2.427269   3.889904   0.000000
    20  H    1.085858   3.882629   4.308616   2.152991   0.000000
    21  C    2.422158   1.403187   3.413986   1.405751   3.410073
    22  H    3.885189   1.088373   2.485409   3.412846   4.970999
    23  H    2.158863   3.404042   4.975867   1.086137   2.499067
    24  C    3.779138   2.493356   4.649403   2.507078   4.657872
    25  O    4.284607   3.629058   5.760438   2.899611   4.968348
    26  H    4.615027   2.653152   4.723803   3.467207   5.578019
                   21         22         23         24         25
    21  C    0.000000
    22  H    2.159829   0.000000
    23  H    2.150398   4.299256   0.000000
    24  C    1.479082   2.697148   2.701641   0.000000
    25  O    2.394288   3.915760   2.603823   1.219209   0.000000
    26  H    2.193784   2.384937   3.794965   1.112084   2.022067
                   26
    26  H    0.000000
 Stoichiometry    C15H10O
 Framework group  C1[X(C15H10O)]
 Deg. of freedom    72
 Full point group                 C1      NOp   1
 Largest Abelian subgroup         C1      NOp   1
 Largest concise Abelian subgroup C1      NOp   1
                         Standard orientation:                         
 ---------------------------------------------------------------------
 Center     Atomic      Atomic             Coordinates (Angstroms)
 Number     Number       Type             X           Y           Z
 ---------------------------------------------------------------------
      1          6           0       -5.025651   -0.059622    1.210355
      2          6           0       -3.631682   -0.019711    1.215179
      3          6           0       -2.917533   -0.011179    0.000275
      4          6           0       -3.630985   -0.043733   -1.214635
      5          6           0       -5.024952   -0.083485   -1.209843
      6          6           0       -5.726533   -0.091456    0.000251
      7          1           0       -5.565970   -0.065990    2.153414
      8          1           0       -3.084773    0.004883    2.153223
      9          1           0       -3.083517   -0.037826   -2.152658
     10          1           0       -5.564721   -0.108556   -2.152905
     11          1           0       -6.812901   -0.122490    0.000244
     12          6           0       -1.488673    0.029387    0.000240
     13          6           0       -0.272378    0.063131    0.000018
     14          6           0        1.154313    0.099602   -0.000349
     15          6           0        1.837964    1.332684   -0.011251
     16          6           0        1.900080   -1.101799    0.009955
     17          6           0        3.229431    1.358814   -0.011774
     18          1           0        1.267669    2.256529   -0.019356
     19          6           0        3.287636   -1.067664    0.009439
     20          1           0        1.372167   -2.050654    0.018362
     21          6           0        3.965136    0.164006   -0.001456
     22          1           0        3.752430    2.313253   -0.020319
     23          1           0        3.870351   -1.984220    0.017366
     24          6           0        5.443435    0.212114   -0.002275
     25          8           0        6.171491   -0.765809    0.006163
     26          1           0        5.879693    1.235015   -0.011451
 ---------------------------------------------------------------------
 Rotational constants (GHZ):           2.6333778           0.1560350           0.1553928
 Standard basis: 6-31+G(d) (6D, 7F)
 There are   324 symmetry adapted cartesian basis functions of A   symmetry.
 There are   324 symmetry adapted basis functions of A   symmetry.
   324 basis functions,   552 primitive gaussians,   324 cartesian basis functions
    54 alpha electrons       54 beta electrons
       nuclear repulsion energy       850.9707864140 Hartrees.
 NAtoms=   26 NActive=   26 NUniq=   26 SFac= 1.00D+00 NAtFMM=   60 NAOKFM=F Big=F
 Integral buffers will be    131072 words long.
 Raffenetti 2 integral format.
 Two-electron integral symmetry is turned on.
 Nuclear repulsion after empirical dispersion term =      850.9534368706 Hartrees.
 One-electron integrals computed using PRISM.
 NBasis=   324 RedAO= T EigKep=  1.10D-06  NBF=   324
 NBsUse=   321 1.00D-06 EigRej=  3.27D-07 NBFU=   321
 ExpMin= 4.38D-02 ExpMax= 5.48D+03 ExpMxC= 8.25D+02 IAcc=3 IRadAn=         5 AccDes= 0.00D+00
 Harris functional with IExCor=  402 and IRadAn=       5 diagonalized for initial guess.
 HarFok:  IExCor=  402 AccDes= 0.00D+00 IRadAn=         5 IDoV= 1 UseB2=F ITyADJ=14
 ICtDFT=  3500011 ScaDFX=  1.000000  1.000000  1.000000  1.000000
 FoFCou: FMM=F IPFlag=           0 FMFlag=      100000 FMFlg1=           0
         NFxFlg=           0 DoJE=T BraDBF=F KetDBF=T FulRan=T
         wScrn=  0.000000 ICntrl=       500 IOpCl=  0 I1Cent=   200000004 NGrid=           0
         NMat0=    1 NMatS0=      1 NMatT0=    0 NMatD0=    1 NMtDS0=    0 NMtDT0=    0
 Petite list used in FoFCou.
 Requested convergence on RMS density matrix=1.00D-08 within 128 cycles.
 Requested convergence on MAX density matrix=1.00D-06.
 Requested convergence on             energy=1.00D-06.
 No special actions if energy rises.
 SCF Done:  E(RB3LYP) =  -652.828721812     A.U. after   16 cycles
            NFock= 16  Conv=0.35D-08     -V/T= 2.0099

 **********************************************************************

            Population analysis using the SCF Density.

 **********************************************************************

 Orbital symmetries:
       Occupied  (A) (A) (A) (A) (A) (A) (A) (A) (A) (A) (A) (A)
                 (A) (A) (A) (A) (A) (A) (A) (A) (A) (A) (A) (A)
                 (A) (A) (A) (A) (A) (A) (A) (A) (A) (A) (A) (A)
                 (A) (A) (A) (A) (A) (A) (A) (A) (A) (A) (A) (A)
                 (A) (A) (A) (A) (A) (A)
       Virtual   (A) (A) (A) (A) (A) (A) (A) (A) (A) (A) (A) (A)
                 (A) (A) (A) (A) (A) (A) (A) (A) (A) (A) (A) (A)
                 (A) (A) (A) (A) (A) (A) (A) (A) (A) (A) (A) (A)
                 (A) (A) (A) (A) (A) (A) (A) (A) (A) (A) (A) (A)
                 (A) (A) (A) (A) (A) (A) (A) (A) (A) (A) (A) (A)
                 (A) (A) (A) (A) (A) (A) (A) (A) (A) (A) (A) (A)
                 (A) (A) (A) (A) (A) (A) (A) (A) (A) (A) (A) (A)
                 (A) (A) (A) (A) (A) (A) (A) (A) (A) (A) (A) (A)
                 (A) (A) (A) (A) (A) (A) (A) (A) (A) (A) (A) (A)
                 (A) (A) (A) (A) (A) (A) (A) (A) (A) (A) (A) (A)
                 (A) (A) (A) (A) (A) (A) (A) (A) (A) (A) (A) (A)
                 (A) (A) (A) (A) (A) (A) (A) (A) (A) (A) (A) (A)
                 (A) (A) (A) (A) (A) (A) (A) (A) (A) (A) (A) (A)
                 (A) (A) (A) (A) (A) (A) (A) (A) (A) (A) (A) (A)
                 (A) (A) (A) (A) (A) (A) (A) (A) (A) (A) (A) (A)
                 (A) (A) (A) (A) (A) (A) (A) (A) (A) (A) (A) (A)
                 (A) (A) (A) (A) (A) (A) (A) (A) (A) (A) (A) (A)
                 (A) (A) (A) (A) (A) (A) (A) (A) (A) (A) (A) (A)
                 (A) (A) (A) (A) (A) (A) (A) (A) (A) (A) (A) (A)
                 (A) (A) (A) (A) (A) (A) (A) (A) (A) (A) (A) (A)
                 (A) (A) (A) (A) (A) (A) (A) (A) (A) (A) (A) (A)
                 (A) (A) (A) (A) (A) (A) (A) (A) (A) (A) (A) (A)
                 (A) (A) (A)
 The electronic state is 1-A.
 Alpha  occ. eigenvalues --  -19.16119 -10.28698 -10.24505 -10.23376 -10.22444
 Alpha  occ. eigenvalues --  -10.22101 -10.22016 -10.21971 -10.21810 -10.21363
 Alpha  occ. eigenvalues --  -10.21362 -10.21219 -10.21171 -10.21097 -10.21077
 Alpha  occ. eigenvalues --  -10.20851  -1.05319  -0.88846  -0.87771  -0.81454
 Alpha  occ. eigenvalues --   -0.79012  -0.77471  -0.76506  -0.73984  -0.67792
 Alpha  occ. eigenvalues --   -0.63792  -0.63204  -0.62415  -0.59136  -0.56359
 Alpha  occ. eigenvalues --   -0.54413  -0.51077  -0.49593  -0.48112  -0.47156
 Alpha  occ. eigenvalues --   -0.46115  -0.45084  -0.44767  -0.44090  -0.43997
 Alpha  occ. eigenvalues --   -0.41989  -0.39910  -0.39443  -0.38793  -0.37503
 Alpha  occ. eigenvalues --   -0.37107  -0.36619  -0.32221  -0.32171  -0.28060
 Alpha  occ. eigenvalues --   -0.27142  -0.26948  -0.25271  -0.24701
 Alpha virt. eigenvalues --   -0.08795  -0.04916  -0.03393  -0.02659  -0.00410
 Alpha virt. eigenvalues --   -0.00395   0.00453   0.01487   0.01968   0.02491
 Alpha virt. eigenvalues --    0.03172   0.04141   0.04262   0.04469   0.04536
 Alpha virt. eigenvalues --    0.05146   0.05585   0.06583   0.06952   0.07215
 Alpha virt. eigenvalues --    0.07250   0.07952   0.07965   0.08958   0.09210
 Alpha virt. eigenvalues --    0.09660   0.10392   0.10617   0.10675   0.12507
 Alpha virt. eigenvalues --    0.12854   0.13437   0.13530   0.14033   0.14085
 Alpha virt. eigenvalues --    0.14118   0.14241   0.14853   0.15629   0.15798
 Alpha virt. eigenvalues --    0.15987   0.16240   0.16572   0.17204   0.18197
 Alpha virt. eigenvalues --    0.18711   0.18963   0.19399   0.19863   0.20095
 Alpha virt. eigenvalues --    0.20654   0.20896   0.21137   0.21478   0.21543
 Alpha virt. eigenvalues --    0.21922   0.22035   0.22761   0.23479   0.23773
 Alpha virt. eigenvalues --    0.24079   0.25124   0.25536   0.26018   0.26584
 Alpha virt. eigenvalues --    0.26689   0.26997   0.27562   0.27796   0.28057
 Alpha virt. eigenvalues --    0.28770   0.29114   0.29144   0.29565   0.30230
 Alpha virt. eigenvalues --    0.31423   0.32051   0.32335   0.33337   0.33366
 Alpha virt. eigenvalues --    0.33849   0.34216   0.34927   0.35497   0.36701
 Alpha virt. eigenvalues --    0.37955   0.39885   0.40314   0.41754   0.45942
 Alpha virt. eigenvalues --    0.48506   0.49268   0.55141   0.55331   0.58786
 Alpha virt. eigenvalues --    0.59286   0.63348   0.65580   0.67006   0.67756
 Alpha virt. eigenvalues --    0.68731   0.69390   0.69656   0.70164   0.70603
 Alpha virt. eigenvalues --    0.71196   0.72307   0.72535   0.72606   0.72679
 Alpha virt. eigenvalues --    0.74170   0.74493   0.75301   0.75327   0.76411
 Alpha virt. eigenvalues --    0.76780   0.77474   0.77727   0.77935   0.79817
 Alpha virt. eigenvalues --    0.81487   0.82251   0.82767   0.83332   0.84475
 Alpha virt. eigenvalues --    0.84729   0.85842   0.87765   0.88802   0.90792
 Alpha virt. eigenvalues --    0.92650   0.93572   0.94016   0.94858   0.96460
 Alpha virt. eigenvalues --    0.98542   0.99025   0.99778   1.00169   1.00697
 Alpha virt. eigenvalues --    1.02978   1.04899   1.07313   1.07867   1.08283
 Alpha virt. eigenvalues --    1.11989   1.12981   1.15043   1.16357   1.16506
 Alpha virt. eigenvalues --    1.19137   1.19805   1.21742   1.22515   1.22772
 Alpha virt. eigenvalues --    1.23033   1.24095   1.25010   1.28026   1.29863
 Alpha virt. eigenvalues --    1.31647   1.32069   1.32428   1.33957   1.38410
 Alpha virt. eigenvalues --    1.38603   1.41678   1.42130   1.42593   1.42926
 Alpha virt. eigenvalues --    1.43743   1.44030   1.45103   1.45204   1.47245
 Alpha virt. eigenvalues --    1.47856   1.49030   1.52349   1.52758   1.55095
 Alpha virt. eigenvalues --    1.55440   1.59259   1.66444   1.70710   1.74278
 Alpha virt. eigenvalues --    1.78169   1.79244   1.80189   1.82179   1.85282
 Alpha virt. eigenvalues --    1.86095   1.87750   1.89678   1.89818   1.89923
 Alpha virt. eigenvalues --    1.91658   1.95062   1.96713   1.97114   1.97295
 Alpha virt. eigenvalues --    1.98026   2.02138   2.05454   2.06849   2.08396
 Alpha virt. eigenvalues --    2.10238   2.11315   2.12802   2.13676   2.15083
 Alpha virt. eigenvalues --    2.15441   2.15633   2.19870   2.22392   2.24259
 Alpha virt. eigenvalues --    2.26137   2.28738   2.28963   2.28966   2.29608
 Alpha virt. eigenvalues --    2.34042   2.37343   2.37679   2.50516   2.51168
 Alpha virt. eigenvalues --    2.56094   2.57163   2.59222   2.59423   2.59844
 Alpha virt. eigenvalues --    2.61659   2.62090   2.62717   2.65167   2.69152
 Alpha virt. eigenvalues --    2.72993   2.73350   2.74033   2.75289   2.81324
 Alpha virt. eigenvalues --    2.83561   2.89331   2.93320   3.01489   3.02909
 Alpha virt. eigenvalues --    3.14000   3.17778   3.20824   3.32753   3.40338
 Alpha virt. eigenvalues --    3.58699   4.15309   4.22345   4.22748   4.23100
 Alpha virt. eigenvalues --    4.23148   4.25297   4.29674   4.34011   4.36112
 Alpha virt. eigenvalues --    4.37724   4.38239   4.44342   4.56059   4.63437
 Alpha virt. eigenvalues --    4.76852   4.97477
          Condensed to atoms (all electrons):
               1          2          3          4          5          6
     1  C    8.177506  -5.118098   0.521595   3.155115  -1.288336   0.621652
     2  C   -5.118098  22.282817  -2.331496 -12.164015   3.154372  -0.324478
     3  C    0.521595  -2.331496  10.888703  -2.339043   0.523136  -0.054663
     4  C    3.155115 -12.164015  -2.339043  22.277714  -5.114220  -0.324251
     5  C   -1.288336   3.154372   0.523136  -5.114220   8.174916   0.621415
     6  C    0.621652  -0.324478  -0.054663  -0.324251   0.621415   5.468135
     7  H    0.289608  -0.010769  -0.005894  -0.005047   0.005737   0.024172
     8  H   -0.063904   0.298482   0.002968   0.034081  -0.010016   0.007699
     9  H   -0.010005   0.034058   0.002942   0.298474  -0.063853   0.007702
    10  H    0.005731  -0.005039  -0.005899  -0.010747   0.289584   0.024172
    11  H   -0.006602   0.011390   0.002313   0.011448  -0.006621   0.280981
    12  C   -0.291589   0.729542  -1.434933   0.734864  -0.292937  -0.165179
    13  C    0.002345  -0.218453   0.471809  -0.217654   0.002065   0.038150
    14  C    0.035853  -0.068104  -0.043789  -0.066521   0.035656  -0.020014
    15  C    0.011512   0.000384   0.162903  -0.002435   0.011087  -0.000379
    16  C   -0.006521   0.016247  -0.214353   0.019386  -0.006033   0.002336
    17  C   -0.000800   0.008433  -0.034205   0.007906  -0.000873   0.000515
    18  H   -0.000143  -0.000576   0.001658  -0.000576  -0.000143  -0.000003
    19  C    0.003492   0.003215   0.047044   0.003596   0.003570  -0.000433
    20  H   -0.000135  -0.000601   0.001885  -0.000598  -0.000135  -0.000006
    21  C    0.002384  -0.004225   0.013286  -0.004134   0.002385  -0.000598
    22  H   -0.000001  -0.000004  -0.000005  -0.000004  -0.000001   0.000000
    23  H   -0.000001  -0.000003  -0.000063  -0.000003  -0.000001   0.000000
    24  C    0.000189  -0.000504   0.003192  -0.000494   0.000188  -0.000044
    25  O    0.000000  -0.000002   0.000000  -0.000002   0.000000   0.000000
    26  H    0.000000   0.000000   0.000004   0.000000   0.000000   0.000000
               7          8          9         10         11         12
     1  C    0.289608  -0.063904  -0.010005   0.005731  -0.006602  -0.291589
     2  C   -0.010769   0.298482   0.034058  -0.005039   0.011390   0.729542
     3  C   -0.005894   0.002968   0.002942  -0.005899   0.002313  -1.434933
     4  C   -0.005047   0.034081   0.298474  -0.010747   0.011448   0.734864
     5  C    0.005737  -0.010016  -0.063853   0.289584  -0.006621  -0.292937
     6  C    0.024172   0.007699   0.007702   0.024172   0.280981  -0.165179
     7  H    0.530778  -0.004577   0.000016  -0.000159  -0.004701  -0.003865
     8  H   -0.004577   0.525481  -0.000144   0.000016  -0.000141   0.014008
     9  H    0.000016  -0.000144   0.525476  -0.004577  -0.000141   0.014007
    10  H   -0.000159   0.000016  -0.004577   0.530777  -0.004701  -0.003862
    11  H   -0.004701  -0.000141  -0.000141  -0.004701   0.533561  -0.000537
    12  C   -0.003865   0.014008   0.014007  -0.003862  -0.000537   7.276803
    13  C   -0.000317   0.003773   0.003769  -0.000316   0.000335  -0.477978
    14  C   -0.000024  -0.000831  -0.000833  -0.000024  -0.000031   0.299746
    15  C   -0.000004  -0.000850  -0.000856  -0.000004   0.000001  -0.421932
    16  C   -0.000008  -0.000443  -0.000437  -0.000008   0.000001  -0.096019
    17  C   -0.000001  -0.000128  -0.000128  -0.000001   0.000000   0.129675
    18  H    0.000000   0.000000   0.000000   0.000000   0.000000  -0.004050
    19  C   -0.000002  -0.000263  -0.000263  -0.000002   0.000000  -0.001524
    20  H    0.000000   0.000000   0.000000   0.000000   0.000000  -0.002259
    21  C    0.000000  -0.000073  -0.000073   0.000000   0.000000  -0.111474
    22  H    0.000000   0.000000   0.000000   0.000000   0.000000   0.000571
    23  H    0.000000   0.000000   0.000000   0.000000   0.000000   0.000390
    24  C    0.000000  -0.000003  -0.000003   0.000000   0.000000  -0.033343
    25  O    0.000000   0.000000   0.000000   0.000000   0.000000  -0.000210
    26  H    0.000000   0.000000   0.000000   0.000000   0.000000  -0.000028
              13         14         15         16         17         18
     1  C    0.002345   0.035853   0.011512  -0.006521  -0.000800  -0.000143
     2  C   -0.218453  -0.068104   0.000384   0.016247   0.008433  -0.000576
     3  C    0.471809  -0.043789   0.162903  -0.214353  -0.034205   0.001658
     4  C   -0.217654  -0.066521  -0.002435   0.019386   0.007906  -0.000576
     5  C    0.002065   0.035656   0.011087  -0.006033  -0.000873  -0.000143
     6  C    0.038150  -0.020014  -0.000379   0.002336   0.000515  -0.000003
     7  H   -0.000317  -0.000024  -0.000004  -0.000008  -0.000001   0.000000
     8  H    0.003773  -0.000831  -0.000850  -0.000443  -0.000128   0.000000
     9  H    0.003769  -0.000833  -0.000856  -0.000437  -0.000128   0.000000
    10  H   -0.000316  -0.000024  -0.000004  -0.000008  -0.000001   0.000000
    11  H    0.000335  -0.000031   0.000001   0.000001   0.000000   0.000000
    12  C   -0.477978   0.299746  -0.421932  -0.096019   0.129675  -0.004050
    13  C    6.833671  -0.845069   0.643990   0.020792  -0.252811   0.026984
    14  C   -0.845069  10.508767  -2.353465  -1.346072   0.883182  -0.026581
    15  C    0.643990  -2.353465  18.510013  -8.999186  -5.279848   0.397657
    16  C    0.020792  -1.346072  -8.999186  20.464623   3.167526   0.017072
    17  C   -0.252811   0.883182  -5.279848   3.167526  11.554334  -0.123040
    18  H    0.026984  -0.026581   0.397657   0.017072  -0.123040   0.513194
    19  C   -0.119081   0.414883   2.737049  -7.022064  -2.980811  -0.006492
    20  H    0.012951  -0.009327   0.047192   0.312300  -0.028945  -0.000140
    21  C   -0.064255  -0.824156   0.691172  -0.497475  -1.455357   0.004016
    22  H   -0.003805  -0.000238   0.024969  -0.011736   0.180803  -0.003902
    23  H   -0.003649  -0.001669  -0.013491  -0.056040   0.055779   0.000015
    24  C    0.039530  -0.351773  -0.031926   0.469990   0.735884   0.003693
    25  O   -0.000464  -0.019171   0.001628   0.152310   0.070821   0.000029
    26  H    0.000526  -0.005644   0.062259   0.001162   0.121257   0.000004
              19         20         21         22         23         24
     1  C    0.003492  -0.000135   0.002384  -0.000001  -0.000001   0.000189
     2  C    0.003215  -0.000601  -0.004225  -0.000004  -0.000003  -0.000504
     3  C    0.047044   0.001885   0.013286  -0.000005  -0.000063   0.003192
     4  C    0.003596  -0.000598  -0.004134  -0.000004  -0.000003  -0.000494
     5  C    0.003570  -0.000135   0.002385  -0.000001  -0.000001   0.000188
     6  C   -0.000433  -0.000006  -0.000598   0.000000   0.000000  -0.000044
     7  H   -0.000002   0.000000   0.000000   0.000000   0.000000   0.000000
     8  H   -0.000263   0.000000  -0.000073   0.000000   0.000000  -0.000003
     9  H   -0.000263   0.000000  -0.000073   0.000000   0.000000  -0.000003
    10  H   -0.000002   0.000000   0.000000   0.000000   0.000000   0.000000
    11  H    0.000000   0.000000   0.000000   0.000000   0.000000   0.000000
    12  C   -0.001524  -0.002259  -0.111474   0.000571   0.000390  -0.033343
    13  C   -0.119081   0.012951  -0.064255  -0.003805  -0.003649   0.039530
    14  C    0.414883  -0.009327  -0.824156  -0.000238  -0.001669  -0.351773
    15  C    2.737049   0.047192   0.691172   0.024969  -0.013491  -0.031926
    16  C   -7.022064   0.312300  -0.497475  -0.011736  -0.056040   0.469990
    17  C   -2.980811  -0.028945  -1.455357   0.180803   0.055779   0.735884
    18  H   -0.006492  -0.000140   0.004016  -0.003902   0.000015   0.003693
    19  C   12.148110  -0.056125   1.448578   0.038889   0.254394  -0.879085
    20  H   -0.056125   0.513125   0.010121   0.000017  -0.003634   0.001976
    21  C    1.448578   0.010121   8.303885   0.090692   0.076213  -1.683005
    22  H    0.038889   0.000017   0.090692   0.526552  -0.000141  -0.039416
    23  H    0.254394  -0.003634   0.076213  -0.000141   0.489110  -0.024343
    24  C   -0.879085   0.001976  -1.683005  -0.039416  -0.024343   6.776214
    25  O   -0.275326   0.000135  -0.160841   0.000563   0.006452   0.509773
    26  H   -0.067457   0.000003  -0.364978   0.005881   0.000099   0.524021
              25         26
     1  C    0.000000   0.000000
     2  C   -0.000002   0.000000
     3  C    0.000000   0.000004
     4  C   -0.000002   0.000000
     5  C    0.000000   0.000000
     6  C    0.000000   0.000000
     7  H    0.000000   0.000000
     8  H    0.000000   0.000000
     9  H    0.000000   0.000000
    10  H    0.000000   0.000000
    11  H    0.000000   0.000000
    12  C   -0.000210  -0.000028
    13  C   -0.000464   0.000526
    14  C   -0.019171  -0.005644
    15  C    0.001628   0.062259
    16  C    0.152310   0.001162
    17  C    0.070821   0.121257
    18  H    0.000029   0.000004
    19  C   -0.275326  -0.067457
    20  H    0.000135   0.000003
    21  C   -0.160841  -0.364978
    22  H    0.000563   0.005881
    23  H    0.006452   0.000099
    24  C    0.509773   0.524021
    25  O    8.158216  -0.063538
    26  H   -0.063538   0.630488
 Mulliken charges:
               1
     1  C   -0.040848
     2  C   -0.292572
     3  C   -0.179093
     4  C   -0.292840
     5  C   -0.040942
     6  C   -0.206883
     7  H    0.185056
     8  H    0.194865
     9  H    0.194870
    10  H    0.185058
    11  H    0.183445
    12  C    0.142113
    13  C    0.103162
    14  C   -0.194753
    15  C   -0.197436
    16  C   -0.387351
    17  C   -0.759165
    18  H    0.201325
    19  C    0.306109
    20  H    0.202200
    21  C    0.527914
    22  H    0.190318
    23  H    0.220588
    24  C   -0.020711
    25  O   -0.380373
    26  H    0.155942
 Sum of Mulliken charges =   0.00000
 Mulliken charges with hydrogens summed into heavy atoms:
               1
     1  C    0.144208
     2  C   -0.097706
     3  C   -0.179093
     4  C   -0.097969
     5  C    0.144116
     6  C   -0.023437
    12  C    0.142113
    13  C    0.103162
    14  C   -0.194753
    15  C    0.003889
    16  C   -0.185151
    17  C   -0.568847
    19  C    0.526698
    21  C    0.527914
    24  C    0.135231
    25  O   -0.380373
 Electronic spatial extent (au):  <R**2>=           6592.1530
 Charge=              0.0000 electrons
 Dipole moment (field-independent basis, Debye):
    X=             -3.9740    Y=              1.7252    Z=             -0.0153  Tot=              4.3323
 Quadrupole moment (field-independent basis, Debye-Ang):
   XX=           -103.8905   YY=            -91.0323   ZZ=            -89.8430
   XY=             11.8064   XZ=             -0.1008   YZ=              0.0193
 Traceless Quadrupole moment (field-independent basis, Debye-Ang):
   XX=             -8.9686   YY=              3.8897   ZZ=              5.0789
   XY=             11.8064   XZ=             -0.1008   YZ=              0.0193
 Octapole moment (field-independent basis, Debye-Ang**2):
  XXX=           -265.4140  YYY=              0.6827  ZZZ=              0.0411  XYY=             34.7249
  XXY=             68.8242  XXZ=             -0.5850  XZZ=            -18.0465  YZZ=             -1.9465
  YYZ=             -0.0411  XYZ=             -0.5149
 Hexadecapole moment (field-independent basis, Debye-Ang**3):
 XXXX=          -9171.3705 YYYY=           -374.7919 ZZZZ=           -341.7836 XXXY=            462.2085
 XXXZ=             -3.9236 YYYX=             -7.0749 YYYZ=             -0.6381 ZZZX=              0.1454
 ZZZY=              0.6510 XXYY=          -1533.7585 XXZZ=          -1369.8421 YYZZ=           -142.4069
 XXYZ=              1.5477 YYXZ=             -0.0427 ZZXY=             -5.9394
 N-N= 8.509534368706D+02 E-N=-3.214879656307D+03  KE= 6.464544782716D+02
 Evaluate density.
 Using the total density.
 Monte-Carlo method of calculating molar volume:
 based on  0.001 e/bohr**3 density envelope.
 Number of points per bohr**3 =   20 CutOff= 1.00D-04
 Using the SCF density.
 There are       439 points.  Will hold       439 in memory.
 LenV=  4026282548 MDV=  4026531840.
 Box volume =10628.910 fraction occupied=0.164
 Integrated density= 7.1803878364604742D+01 error=-3.6196121635395258D+01
 Molar volume = 1743.238 bohr**3/mol (155.565 cm**3/mol)
 Recommended a0 for SCRF calculation =  4.85 angstrom (  9.16 bohr)
 Calling FoFJK, ICntrl=      2127 FMM=F ISym2X=0 I1Cent= 0 IOpClX= 0 NMat=1 NMatS=1 NMatT=0.
 ***** Axes restored to original set *****
 -------------------------------------------------------------------
 Center     Atomic                   Forces (Hartrees/Bohr)
 Number     Number              X              Y              Z
 -------------------------------------------------------------------
      1        6           0.000013615   -0.000010175    0.000014015
      2        6          -0.000019074   -0.000007943    0.000014300
      3        6           0.000031278    0.000001702    0.000002792
      4        6          -0.000023361    0.000000659   -0.000018094
      5        6           0.000016471    0.000004844   -0.000010998
      6        6          -0.000006880    0.000004607    0.000000000
      7        1          -0.000003896    0.000000179   -0.000000648
      8        1          -0.000006120    0.000001549   -0.000003481
      9        1          -0.000004928   -0.000004948    0.000003558
     10        1          -0.000003925   -0.000004255    0.000000518
     11        1          -0.000002170    0.000006240    0.000000087
     12        6           0.000029244   -0.000015020   -0.000002854
     13        6          -0.000001015    0.000016010    0.000003231
     14        6          -0.000040933   -0.000001177   -0.000013453
     15        6           0.000037193    0.000009519   -0.000006044
     16        6           0.000022923    0.000038056    0.000014677
     17        6          -0.000042613   -0.000022591   -0.000001625
     18        1          -0.000005962    0.000003604    0.000005595
     19        6          -0.000032179   -0.000016239    0.000001794
     20        1           0.000007942   -0.000001874   -0.000002858
     21        6           0.000043232    0.000004516   -0.000002867
     22        1           0.000013996   -0.000002171    0.000002385
     23        1          -0.000006902   -0.000009012   -0.000002152
     24        6           0.000019600    0.000022881    0.000000750
     25        8          -0.000014880   -0.000001760    0.000000412
     26        1          -0.000020656   -0.000017200    0.000000961
 -------------------------------------------------------------------
 Cartesian Forces:  Max     0.000043232 RMS     0.000015386

 GradGradGradGradGradGradGradGradGradGradGradGradGradGradGradGradGradGrad
 Berny optimization.
 FormGI is forming the generalized inverse of G from B-inverse, IUseBI=4.
 Internal  Forces:  Max     0.000071325 RMS     0.000013566
 Search for a local minimum.
 Step number   1 out of a maximum of  136
 All quantities printed in internal units (Hartrees-Bohrs-Radians)
 Mixed Optimization -- En-DIIS/RFO-DIIS
 Second derivative matrix not updated -- first step.
 ITU=  0
     Eigenvalues ---    0.00230   0.01043   0.01043   0.01087   0.01206
     Eigenvalues ---    0.01726   0.01808   0.01840   0.01961   0.01987
     Eigenvalues ---    0.02051   0.02053   0.02057   0.02070   0.02098
     Eigenvalues ---    0.02105   0.02108   0.02111   0.02121   0.02134
     Eigenvalues ---    0.02137   0.02138   0.02156   0.03879   0.04230
     Eigenvalues ---    0.16000   0.16000   0.16000   0.16000   0.16000
     Eigenvalues ---    0.16000   0.16000   0.16000   0.16000   0.16000
     Eigenvalues ---    0.22000   0.22000   0.22000   0.22000   0.22965
     Eigenvalues ---    0.23474   0.24000   0.25000   0.25000   0.25000
     Eigenvalues ---    0.32380   0.34675   0.35001   0.35174   0.35174
     Eigenvalues ---    0.35184   0.35263   0.35266   0.35266   0.35296
     Eigenvalues ---    0.35312   0.40636   0.40985   0.41070   0.41401
     Eigenvalues ---    0.41482   0.41538   0.44288   0.44374   0.44684
     Eigenvalues ---    0.45117   0.45837   0.45998   0.46537   0.47394
     Eigenvalues ---    0.95735   0.96832
 RFO step:  Lambda=-4.68785023D-07 EMin= 2.30000000D-03
 Linear search not attempted -- first point.
 Iteration  1 RMS(Cart)=  0.00432602 RMS(Int)=  0.00000302
 Iteration  2 RMS(Cart)=  0.00001092 RMS(Int)=  0.00000008
 Iteration  3 RMS(Cart)=  0.00000000 RMS(Int)=  0.00000008
 Variable       Old X    -DE/DX   Delta X   Delta X   Delta X     New X
                                 (Linear)    (Quad)   (Total)
    R1        2.63531   0.00000   0.00000   0.00001   0.00001   2.63532
    R2        2.64332   0.00001   0.00000   0.00003   0.00003   2.64335
    R3        2.05394   0.00000   0.00000  -0.00001  -0.00001   2.05393
    R4        2.66316  -0.00001   0.00000  -0.00001  -0.00001   2.66314
    R5        2.05246   0.00000   0.00000   0.00000   0.00000   2.05246
    R6        2.66316   0.00000   0.00000  -0.00001  -0.00001   2.66315
    R7        2.70124  -0.00001   0.00000  -0.00002  -0.00002   2.70122
    R8        2.63530   0.00001   0.00000   0.00002   0.00002   2.63532
    R9        2.05246   0.00000   0.00000   0.00000   0.00000   2.05246
   R10        2.64333   0.00001   0.00000   0.00003   0.00003   2.64336
   R11        2.05394   0.00000   0.00000  -0.00001  -0.00001   2.05393
   R12        2.05378   0.00000   0.00000  -0.00001  -0.00001   2.05377
   R13        2.29935   0.00002   0.00000   0.00002   0.00002   2.29937
   R14        2.69694   0.00002   0.00000   0.00005   0.00005   2.69698
   R15        2.66444  -0.00001   0.00000  -0.00002  -0.00002   2.66442
   R16        2.67224   0.00001   0.00000   0.00003   0.00003   2.67227
   R17        2.62996   0.00001   0.00000   0.00001   0.00001   2.62997
   R18        2.05172  -0.00001   0.00000  -0.00002  -0.00002   2.05170
   R19        2.62289   0.00003   0.00000   0.00008   0.00008   2.62297
   R20        2.05198   0.00000   0.00000   0.00001   0.00001   2.05198
   R21        2.65164   0.00000   0.00000  -0.00001  -0.00001   2.65163
   R22        2.05673  -0.00001   0.00000  -0.00001  -0.00001   2.05671
   R23        2.65648   0.00000   0.00000  -0.00001  -0.00001   2.65648
   R24        2.05250   0.00000   0.00000  -0.00001  -0.00001   2.05249
   R25        2.79506   0.00002   0.00000   0.00005   0.00005   2.79511
   R26        2.30397   0.00001   0.00000   0.00001   0.00001   2.30398
   R27        2.10153   0.00002   0.00000   0.00007   0.00007   2.10161
    A1        2.09960  -0.00001   0.00000  -0.00004  -0.00004   2.09956
    A2        2.08757   0.00000   0.00000   0.00000   0.00000   2.08757
    A3        2.09601   0.00001   0.00000   0.00004   0.00004   2.09605
    A4        2.09870  -0.00001   0.00000  -0.00005  -0.00005   2.09866
    A5        2.10247   0.00001   0.00000   0.00007   0.00007   2.10254
    A6        2.08201   0.00000   0.00000  -0.00002  -0.00002   2.08199
    A7        2.07887   0.00003   0.00000   0.00011   0.00011   2.07898
    A8        2.10219  -0.00002   0.00000  -0.00007  -0.00007   2.10212
    A9        2.10213  -0.00001   0.00000  -0.00004  -0.00004   2.10209
   A10        2.09872  -0.00001   0.00000  -0.00006  -0.00006   2.09865
   A11        2.08200   0.00000   0.00000  -0.00001  -0.00001   2.08199
   A12        2.10247   0.00001   0.00000   0.00007   0.00007   2.10254
   A13        2.09959  -0.00001   0.00000  -0.00003  -0.00003   2.09956
   A14        2.08758   0.00000   0.00000  -0.00001  -0.00001   2.08757
   A15        2.09602   0.00001   0.00000   0.00003   0.00003   2.09605
   A16        2.09089   0.00001   0.00000   0.00006   0.00006   2.09096
   A17        2.09615  -0.00001   0.00000  -0.00003  -0.00003   2.09611
   A18        2.09615  -0.00001   0.00000  -0.00003  -0.00003   2.09612
   A19        2.10257  -0.00006   0.00000  -0.00025  -0.00025   2.10232
   A20        2.10076   0.00005   0.00000   0.00018   0.00018   2.10094
   A21        2.07986   0.00002   0.00000   0.00007   0.00007   2.07993
   A22        2.09579   0.00001   0.00000   0.00006   0.00006   2.09585
   A23        2.08235   0.00000   0.00000  -0.00001  -0.00001   2.08234
   A24        2.10505  -0.00001   0.00000  -0.00005  -0.00005   2.10500
   A25        2.10172  -0.00003   0.00000  -0.00014  -0.00014   2.10158
   A26        2.07837   0.00001   0.00000   0.00002   0.00002   2.07839
   A27        2.10310   0.00002   0.00000   0.00012   0.00012   2.10322
   A28        2.10392  -0.00002   0.00000  -0.00010  -0.00010   2.10382
   A29        2.09084   0.00000   0.00000  -0.00003  -0.00003   2.09081
   A30        2.08843   0.00002   0.00000   0.00014   0.00014   2.08856
   A31        2.09827   0.00001   0.00000   0.00005   0.00005   2.09832
   A32        2.11248   0.00001   0.00000   0.00004   0.00004   2.11253
   A33        2.07243  -0.00001   0.00000  -0.00009  -0.00009   2.07234
   A34        2.08681   0.00002   0.00000   0.00007   0.00007   2.08688
   A35        2.09017   0.00000   0.00000  -0.00001  -0.00001   2.09016
   A36        2.10621  -0.00001   0.00000  -0.00006  -0.00006   2.10615
   A37        2.17821   0.00001   0.00000   0.00005   0.00005   2.17826
   A38        2.00645   0.00001   0.00000   0.00006   0.00006   2.00651
   A39        2.09853  -0.00002   0.00000  -0.00011  -0.00011   2.09842
   A40        3.14143   0.00001   0.00000   0.00029   0.00029   3.14172
   A41        3.13942   0.00007   0.00000   0.00456   0.00456   3.14397
   A42        3.14240   0.00000   0.00000  -0.00030  -0.00030   3.14210
   A43        3.14148   0.00000   0.00000   0.00051   0.00051   3.14199
    D1       -0.00004   0.00000   0.00000   0.00008   0.00008   0.00003
    D2       -3.14139   0.00000   0.00000   0.00019   0.00019  -3.14121
    D3        3.14144   0.00000   0.00000  -0.00010  -0.00010   3.14134
    D4        0.00009   0.00000   0.00000   0.00001   0.00001   0.00010
    D5        0.00025   0.00000   0.00000  -0.00024  -0.00024   0.00001
    D6       -3.14156   0.00000   0.00000  -0.00019  -0.00019   3.14144
    D7       -3.14123   0.00000   0.00000  -0.00006  -0.00006  -3.14130
    D8        0.00015   0.00000   0.00000  -0.00001  -0.00001   0.00014
    D9       -0.00021   0.00000   0.00000   0.00015   0.00015  -0.00006
   D10       -3.14135   0.00001   0.00000   0.00014   0.00014  -3.14121
   D11        3.14114   0.00000   0.00000   0.00004   0.00004   3.14118
   D12        0.00000   0.00001   0.00000   0.00003   0.00003   0.00003
   D13        0.00026   0.00000   0.00000  -0.00021  -0.00021   0.00006
   D14       -3.14099   0.00000   0.00000  -0.00021  -0.00021  -3.14121
   D15        3.14141  -0.00001   0.00000  -0.00020  -0.00020   3.14121
   D16        0.00015  -0.00001   0.00000  -0.00020  -0.00020  -0.00005
   D17       -1.57072   0.00002   0.00000   0.00184   0.00184  -1.56888
   D18        1.57124   0.00001   0.00000   0.00109   0.00109   1.57232
   D19        1.57272  -0.00001   0.00000  -0.00023  -0.00023   1.57249
   D20       -1.56851  -0.00002   0.00000  -0.00098  -0.00098  -1.56949
   D21       -0.00006   0.00000   0.00000   0.00005   0.00005  -0.00002
   D22       -3.14138   0.00000   0.00000   0.00000   0.00000  -3.14138
   D23        3.14119   0.00000   0.00000   0.00005   0.00005   3.14124
   D24       -0.00012   0.00000   0.00000   0.00000   0.00000  -0.00012
   D25       -0.00020   0.00000   0.00000   0.00018   0.00018  -0.00002
   D26       -3.14158   0.00000   0.00000   0.00013   0.00013  -3.14145
   D27        3.14112   0.00000   0.00000   0.00023   0.00023   3.14135
   D28       -0.00026   0.00000   0.00000   0.00017   0.00017  -0.00009
   D29       -3.14139   0.00000   0.00000  -0.00025  -0.00025   3.14155
   D30        0.00003   0.00000   0.00000  -0.00004  -0.00004  -0.00001
   D31       -0.00002   0.00000   0.00000   0.00007   0.00007   0.00005
   D32        3.14140   0.00000   0.00000   0.00027   0.00027  -3.14151
   D33        3.14145   0.00000   0.00000   0.00017   0.00017  -3.14156
   D34       -0.00024   0.00000   0.00000   0.00029   0.00029   0.00005
   D35        0.00008   0.00000   0.00000  -0.00015  -0.00015  -0.00007
   D36        3.14157   0.00000   0.00000  -0.00003  -0.00003   3.14155
   D37       -0.00004   0.00000   0.00000   0.00003   0.00003  -0.00001
   D38        3.14148   0.00000   0.00000   0.00012   0.00012  -3.14158
   D39       -3.14146   0.00000   0.00000  -0.00018  -0.00018   3.14155
   D40        0.00006   0.00000   0.00000  -0.00008  -0.00008  -0.00002
   D41       -0.00008   0.00000   0.00000   0.00012   0.00012   0.00004
   D42        3.14152   0.00000   0.00000   0.00010   0.00010  -3.14156
   D43       -3.14158   0.00000   0.00000   0.00000   0.00000  -3.14158
   D44        0.00003   0.00000   0.00000  -0.00002  -0.00002   0.00000
   D45        0.00004   0.00000   0.00000  -0.00005  -0.00005  -0.00002
   D46        3.14153   0.00000   0.00000   0.00005   0.00005   3.14158
   D47       -3.14148   0.00000   0.00000  -0.00015  -0.00015   3.14155
   D48        0.00001   0.00000   0.00000  -0.00004  -0.00004  -0.00003
   D49        0.00003   0.00000   0.00000  -0.00002  -0.00002   0.00000
   D50       -3.14146   0.00000   0.00000  -0.00013  -0.00013   3.14159
   D51       -3.14158   0.00000   0.00000   0.00000   0.00000  -3.14158
   D52        0.00012   0.00000   0.00000  -0.00011  -0.00011   0.00001
   D53        3.14157   0.00000   0.00000  -0.00009  -0.00009   3.14148
   D54       -0.00006   0.00000   0.00000   0.00006   0.00006   0.00000
   D55       -0.00013   0.00000   0.00000   0.00002   0.00002  -0.00011
   D56        3.14143   0.00000   0.00000   0.00017   0.00017  -3.14159
         Item               Value     Threshold  Converged?
 Maximum Force            0.000071     0.000450     YES
 RMS     Force            0.000014     0.000300     YES
 Maximum Displacement     0.016741     0.001800     NO 
 RMS     Displacement     0.004326     0.001200     NO 
 Predicted change in Energy=-2.343765D-07
 GradGradGradGradGradGradGradGradGradGradGradGradGradGradGradGradGradGrad

                          Input orientation:                          
 ---------------------------------------------------------------------
 Center     Atomic      Atomic             Coordinates (Angstroms)
 Number     Number       Type             X           Y           Z
 ---------------------------------------------------------------------
      1          6           0        5.025171    0.056082    1.210692
      2          6           0        3.631099    0.019679    1.214913
      3          6           0        2.917508    0.013361   -0.000324
      4          6           0        3.631477    0.044350   -1.214965
      5          6           0        5.025545    0.080666   -1.209572
      6          6           0        5.726604    0.086657    0.000856
      7          1           0        5.565100    0.060862    2.153979
      8          1           0        3.083666   -0.003756    2.152681
      9          1           0        3.084330    0.039938   -2.153183
     10          1           0        5.565769    0.104557   -2.152400
     11          1           0        6.813039    0.115132    0.001314
     12          6           0        1.488558   -0.023438   -0.000939
     13          6           0        0.272175   -0.054272   -0.001304
     14          6           0       -1.154458   -0.093834   -0.001307
     15          6           0       -1.835124   -1.328557   -0.011622
     16          6           0       -1.903050    1.105828    0.009162
     17          6           0       -3.226527   -1.358130   -0.011497
     18          1           0       -1.262598   -2.251011   -0.019592
     19          6           0       -3.290557    1.068244    0.009200
     20          1           0       -1.377378    2.055934    0.017140
     21          6           0       -3.965055   -0.165073   -0.001139
     22          1           0       -3.747133   -2.313873   -0.019473
     23          1           0       -3.875581    1.983321    0.017163
     24          6           0       -5.443260   -0.216699   -0.001193
     25          8           0       -6.173687    0.759458    0.007427
     26          1           0       -5.877162   -1.240649   -0.009803
 ---------------------------------------------------------------------
                    Distance matrix (angstroms):
                    1          2          3          4          5
     1  C    0.000000
     2  C    1.394554   0.000000
     3  C    2.431178   1.409274   0.000000
     4  C    2.797558   2.430003   1.409278   0.000000
     5  C    2.420388   2.797557   2.431179   1.394552   0.000000
     6  C    1.398801   2.422717   2.810052   2.422719   1.398804
     7  H    1.086893   2.150326   3.413652   3.884451   3.406609
     8  H    2.158789   1.086113   2.159474   3.412250   3.883654
     9  H    3.883655   3.412248   2.159476   1.086113   2.158791
    10  H    3.406608   3.884449   3.413654   2.150324   1.086893
    11  H    2.159294   3.406857   3.896860   3.406858   2.159297
    12  C    3.739252   2.463867   1.429424   2.463849   3.739239
    13  C    4.906331   3.573097   2.646198   3.573179   4.906388
    14  C    6.299146   4.938991   4.073377   4.939355   6.299428
    15  C    7.104571   5.762094   4.938459   5.763387   7.105616
    16  C    7.109563   5.767180   4.942808   5.766819   7.109269
    17  C    8.460749   7.101372   6.295259   7.102641   8.461810
    18  H    6.809723   5.534285   4.754055   5.536205   6.811279
    19  C    8.462824   7.103700   6.297058   7.103625   8.462758
    20  H    6.812974   5.537675   4.755887   5.536532   6.812044
    21  C    9.074228   7.695095   6.884876   7.695748   9.074778
    22  H    9.169695   7.836292   7.059307   7.838003   9.171152
    23  H    9.184887   7.851162   7.072984   7.850711   9.184499
    24  C   10.541875   9.158536   8.363933   9.159271  10.542509
    25  O   11.285256   9.906520   9.121762   9.906910  11.285595
    26  H   11.046809   9.669301   8.883628   9.670462  11.047820
                    6          7          8          9         10
     6  C    0.000000
     7  H    2.159326   0.000000
     8  H    3.409347   2.482276   0.000000
     9  H    3.409351   4.970543   4.306085   0.000000
    10  H    2.159328   4.306601   4.970542   2.482280   0.000000
    11  H    1.086808   2.488828   4.307057   4.307062   2.488831
    12  C    4.239476   4.611830   2.680081   2.680048   4.611812
    13  C    5.456249   5.716079   3.542129   3.542269   5.716168
    14  C    6.883429   7.058446   4.754942   4.755605   7.058895
    15  C    7.693030   7.834771   5.534780   5.537155   7.836450
    16  C    7.697427   7.839991   5.540142   5.539477   7.839524
    17  C    9.068965   9.164908   6.807094   6.809430   9.166646
    18  H    7.369807   7.529053   5.353404   5.356906   7.531545
    19  C    9.070434   9.167200   6.809875   6.809735   9.167100
    20  H    7.371898   7.532888   5.357590   5.355500   7.531405
    21  C    9.694928   9.773405   7.372207   7.373409   9.774315
    22  H    9.773159   9.852966   7.530916   7.534058   9.855370
    23  H    9.787724   9.868551   7.545861   7.545031   9.867920
    24  C   11.173983  11.220776   8.797328   8.798677  11.221837
    25  O   11.919296  11.953863   9.533267   9.533982  11.954437
    26  H   11.679436  11.717561   9.300681   9.302812  11.719256
                   11         12         13         14         15
    11  H    0.000000
    12  C    5.326284   0.000000
    13  C    6.543057   1.216774   0.000000
    14  C    7.970237   2.643953   1.427182   0.000000
    15  C    8.767846   3.570758   2.462644   1.409948   0.000000
    16  C    8.772214   3.574681   2.465268   1.414103   2.435421
    17  C   10.147096   4.900362   3.733774   2.427348   1.391718
    18  H    8.415164   3.539957   2.679837   2.159964   1.085712
    19  C   10.148455   4.902225   3.735400   2.431760   2.804171
    20  H    8.417238   3.540862   2.678495   2.161374   3.415427
    21  C   10.781736   5.455453   4.238679   2.811500   2.427018
    22  H   10.835945   5.714796   4.610961   3.413336   2.150974
    23  H   10.850667   5.727250   4.621256   3.423364   3.890094
    24  C   12.260790   6.934512   5.717743   4.290562   3.775578
    25  O   13.002701   7.702142   6.497028   5.091252   4.814904
    26  H   12.762423   7.465622   6.262739   4.859957   4.042994
                   16         17         18         19         20
    16  C    0.000000
    17  C    2.796982   0.000000
    18  H    3.417510   2.157388   0.000000
    19  C    1.388016   2.427307   3.889846   0.000000
    20  H    1.085862   3.882783   4.308631   2.153102   0.000000
    21  C    2.422223   1.403181   3.413906   1.405747   3.410173
    22  H    3.885333   1.088365   2.485330   3.412916   4.971146
    23  H    2.158920   3.404025   4.975801   1.086132   2.499258
    24  C    3.779190   2.493366   4.649376   2.507054   4.657960
    25  O    4.284661   3.629089   5.760421   2.899619   4.968453
    26  H    4.615179   2.653237   4.723889   3.467257   5.578193
                   21         22         23         24         25
    21  C    0.000000
    22  H    2.159900   0.000000
    23  H    2.150334   4.299269   0.000000
    24  C    1.479106   2.697280   2.701489   0.000000
    25  O    2.394344   3.915898   2.603695   1.219213   0.000000
    26  H    2.193875   2.385147   3.794869   1.112123   2.022042
                   26
    26  H    0.000000
 Stoichiometry    C15H10O
 Framework group  C1[X(C15H10O)]
 Deg. of freedom    72
 Full point group                 C1      NOp   1
 Largest Abelian subgroup         C1      NOp   1
 Largest concise Abelian subgroup C1      NOp   1
                         Standard orientation:                         
 ---------------------------------------------------------------------
 Center     Atomic      Atomic             Coordinates (Angstroms)
 Number     Number       Type             X           Y           Z
 ---------------------------------------------------------------------
      1          6           0       -5.025242   -0.052923    1.211238
      2          6           0       -3.631172   -0.016406    1.215269
      3          6           0       -2.917663   -0.013247   -0.000028
      4          6           0       -3.631711   -0.047496   -1.214535
      5          6           0       -5.025776   -0.083899   -1.208952
      6          6           0       -5.726753   -0.086744    0.001534
      7          1           0       -5.565107   -0.055250    2.154571
      8          1           0       -3.083677    0.009545    2.152935
      9          1           0       -3.084627   -0.045523   -2.152798
     10          1           0       -5.566061   -0.110321   -2.151678
     11          1           0       -6.813186   -0.115297    0.002140
     12          6           0       -1.488715    0.023654   -0.000837
     13          6           0       -0.272335    0.054576   -0.001365
     14          6           0        1.154295    0.094241   -0.001569
     15          6           0        1.834870    1.328982   -0.015191
     16          6           0        1.902975   -1.105334    0.012019
     17          6           0        3.226272    1.358656   -0.015237
     18          1           0        1.262277    2.251371   -0.025560
     19          6           0        3.290480   -1.067650    0.011865
     20          1           0        1.377374   -2.055454    0.022542
     21          6           0        3.964888    0.165685   -0.001778
     22          1           0        3.746807    2.314413   -0.025773
     23          1           0        3.875571   -1.982660    0.022206
     24          6           0        5.443089    0.217418   -0.002068
     25          8           0        6.173587   -0.758660    0.009082
     26          1           0        5.876915    1.241373   -0.013412
 ---------------------------------------------------------------------
 Rotational constants (GHZ):           2.6361214           0.1560154           0.1553832
 Standard basis: 6-31+G(d) (6D, 7F)
 There are   324 symmetry adapted cartesian basis functions of A   symmetry.
 There are   324 symmetry adapted basis functions of A   symmetry.
   324 basis functions,   552 primitive gaussians,   324 cartesian basis functions
    54 alpha electrons       54 beta electrons
       nuclear repulsion energy       850.9672621229 Hartrees.
 NAtoms=   26 NActive=   26 NUniq=   26 SFac= 1.00D+00 NAtFMM=   60 NAOKFM=F Big=F
 Integral buffers will be    131072 words long.
 Raffenetti 2 integral format.
 Two-electron integral symmetry is turned on.
 Nuclear repulsion after empirical dispersion term =      850.9499123525 Hartrees.
 One-electron integrals computed using PRISM.
 NBasis=   324 RedAO= T EigKep=  1.10D-06  NBF=   324
 NBsUse=   321 1.00D-06 EigRej=  3.27D-07 NBFU=   321
 Initial guess from the checkpoint file:  "molecule_17.chk"
 B after Tr=     0.000000    0.000000    0.000000
         Rot=    0.999999    0.001366   -0.000017   -0.000087 Ang=   0.16 deg.
 Requested convergence on RMS density matrix=1.00D-08 within 128 cycles.
 Requested convergence on MAX density matrix=1.00D-06.
 Requested convergence on             energy=1.00D-06.
 No special actions if energy rises.
 SCF Done:  E(RB3LYP) =  -652.828721628     A.U. after   11 cycles
            NFock= 11  Conv=0.85D-08     -V/T= 2.0099
 Calling FoFJK, ICntrl=      2127 FMM=F ISym2X=0 I1Cent= 0 IOpClX= 0 NMat=1 NMatS=1 NMatT=0.
 ***** Axes restored to original set *****
 -------------------------------------------------------------------
 Center     Atomic                   Forces (Hartrees/Bohr)
 Number     Number              X              Y              Z
 -------------------------------------------------------------------
      1        6           0.000004161   -0.000000312   -0.000001553
      2        6          -0.000005100   -0.000000585    0.000005340
      3        6           0.000008418    0.000055919   -0.000012219
      4        6          -0.000002486    0.000003777   -0.000002144
      5        6           0.000006114   -0.000003085    0.000002250
      6        6          -0.000005883   -0.000004333   -0.000001263
      7        1           0.000000781   -0.000001637   -0.000001276
      8        1          -0.000001932    0.000001590   -0.000002359
      9        1          -0.000001250    0.000001957    0.000002449
     10        1           0.000001092   -0.000000031    0.000001248
     11        1           0.000000770    0.000003002   -0.000000120
     12        6          -0.000006971   -0.000016162    0.000003660
     13        6           0.000011359   -0.000156436    0.000015373
     14        6          -0.000018471    0.000150131   -0.000001666
     15        6           0.000022636   -0.000018766   -0.000000629
     16        6          -0.000007519   -0.000018966   -0.000006756
     17        6          -0.000007731   -0.000001590    0.000000715
     18        1           0.000002312    0.000000763   -0.000002183
     19        6          -0.000009681   -0.000002674    0.000002082
     20        1          -0.000001818   -0.000002019   -0.000000430
     21        6           0.000011537    0.000009581   -0.000004277
     22        1           0.000004816   -0.000000245   -0.000000880
     23        1          -0.000004630   -0.000001895    0.000000441
     24        6          -0.000001877    0.000004813    0.000013417
     25        8           0.000000658   -0.000000833   -0.000004770
     26        1           0.000000694   -0.000001963   -0.000004450
 -------------------------------------------------------------------
 Cartesian Forces:  Max     0.000156436 RMS     0.000026238

 GradGradGradGradGradGradGradGradGradGradGradGradGradGradGradGradGradGrad
 Berny optimization.
 Using GEDIIS/GDIIS optimizer.
 FormGI is forming the generalized inverse of G from B-inverse, IUseBI=4.
 Internal  Forces:  Max     0.000171601 RMS     0.000019589
 Search for a local minimum.
 Step number   2 out of a maximum of  136
 All quantities printed in internal units (Hartrees-Bohrs-Radians)
 Mixed Optimization -- En-DIIS/RFO-DIIS
 Swapping is turned off.
 Update second derivatives using D2CorX and points    1    2
 DE=  1.84D-07 DEPred=-2.34D-07 R=-7.85D-01
 Trust test=-7.85D-01 RLast= 5.29D-03 DXMaxT set to 1.50D-01
 ITU= -1  0
     Eigenvalues ---    0.00229   0.01042   0.01043   0.01086   0.01366
     Eigenvalues ---    0.01723   0.01833   0.01958   0.01980   0.02038
     Eigenvalues ---    0.02052   0.02056   0.02069   0.02093   0.02100
     Eigenvalues ---    0.02107   0.02110   0.02117   0.02134   0.02137
     Eigenvalues ---    0.02138   0.02155   0.03580   0.04211   0.05989
     Eigenvalues ---    0.15686   0.16000   0.16000   0.16000   0.16000
     Eigenvalues ---    0.16000   0.16000   0.16000   0.16000   0.16012
     Eigenvalues ---    0.21114   0.22000   0.22000   0.22001   0.22933
     Eigenvalues ---    0.22994   0.23829   0.24608   0.25000   0.25005
     Eigenvalues ---    0.32320   0.34647   0.34998   0.35172   0.35174
     Eigenvalues ---    0.35184   0.35262   0.35266   0.35266   0.35296
     Eigenvalues ---    0.35308   0.40624   0.40934   0.41072   0.41332
     Eigenvalues ---    0.41476   0.41538   0.44287   0.44365   0.44684
     Eigenvalues ---    0.45106   0.45830   0.45998   0.46520   0.47262
     Eigenvalues ---    0.95727   0.96784
 En-DIIS/RFO-DIIS/Sim-DIIS IScMMF=       -3 using points:     2    1
 RFO step:  Lambda=-6.87654031D-07.
 DidBck=T Rises=F RFO-DIIS coefs:    0.40553    0.59447
 Iteration  1 RMS(Cart)=  0.00278602 RMS(Int)=  0.00000130
 Iteration  2 RMS(Cart)=  0.00000478 RMS(Int)=  0.00000003
 Iteration  3 RMS(Cart)=  0.00000000 RMS(Int)=  0.00000003
 Variable       Old X    -DE/DX   Delta X   Delta X   Delta X     New X
                                 (Linear)    (Quad)   (Total)
    R1        2.63532   0.00000  -0.00001   0.00001   0.00000   2.63533
    R2        2.64335   0.00000  -0.00002   0.00002   0.00000   2.64335
    R3        2.05393   0.00000   0.00000  -0.00001   0.00000   2.05393
    R4        2.66314   0.00000   0.00001  -0.00001   0.00000   2.66314
    R5        2.05246   0.00000   0.00000   0.00000   0.00000   2.05245
    R6        2.66315   0.00000   0.00001  -0.00001   0.00000   2.66315
    R7        2.70122   0.00001   0.00001  -0.00001   0.00000   2.70122
    R8        2.63532   0.00000  -0.00001   0.00002   0.00001   2.63533
    R9        2.05246   0.00000   0.00000   0.00000   0.00000   2.05245
   R10        2.64336   0.00000  -0.00002   0.00002   0.00000   2.64336
   R11        2.05393   0.00000   0.00000  -0.00001   0.00000   2.05393
   R12        2.05377   0.00000   0.00000   0.00000   0.00000   2.05377
   R13        2.29937   0.00000  -0.00001   0.00001   0.00000   2.29937
   R14        2.69698   0.00001  -0.00003   0.00004   0.00001   2.69699
   R15        2.66442   0.00000   0.00001  -0.00002   0.00000   2.66441
   R16        2.67227  -0.00001  -0.00002   0.00002   0.00000   2.67227
   R17        2.62997   0.00000  -0.00001   0.00001   0.00000   2.62997
   R18        2.05170   0.00000   0.00001  -0.00001   0.00000   2.05170
   R19        2.62297   0.00000  -0.00005   0.00006   0.00002   2.62299
   R20        2.05198   0.00000   0.00000   0.00000   0.00000   2.05198
   R21        2.65163   0.00000   0.00001  -0.00001   0.00000   2.65163
   R22        2.05671   0.00000   0.00001  -0.00001   0.00000   2.05671
   R23        2.65648  -0.00001   0.00000  -0.00001  -0.00001   2.65647
   R24        2.05249   0.00000   0.00001  -0.00001   0.00000   2.05249
   R25        2.79511   0.00000  -0.00003   0.00003   0.00001   2.79511
   R26        2.30398   0.00000   0.00000   0.00001   0.00000   2.30398
[...]
 9547,0.00002874,0.00001063,0.00000016,0.00004927,-0.00000163,0.0000126
 9,-0.00005259,-0.00000197,-0.00003007,-0.00005260,-0.00000280,0.000030
 02,0.00004926,-0.00000124,-0.00001272,0.00002820,-0.00000199,-0.000000
 02,-0.00303282,-0.00081699,-0.00000692,0.00764344,0.00283962,0.0000239
 8,-0.03380887,0.06920208,0.00058454,-0.04529644,-0.02478121,-0.0002015
 3,-0.35806005,-0.03796597,-0.00028228,0.05847414,-0.01578038,-0.000138
 60,-0.00050013,-0.00079660,-0.00000661,0.71409387,-0.00002363,-0.00001
 350,-0.00005797,0.00004042,0.00001221,-0.00005408,-0.00004969,0.000246
 19,0.00000572,0.00003991,0.00000917,0.00005442,-0.00002355,-0.00001361
 ,0.00005768,0.00011178,0.00000477,0.00000013,0.00001108,-0.00000487,0.
 00001075,-0.00000523,-0.00000844,0.00000972,-0.00000518,-0.00000861,-0
 .00001012,0.00001106,-0.00000458,-0.00001086,0.00000889,0.00000124,0.,
 -0.00002460,0.00007378,0.00000308,0.00486184,-0.00466637,-0.00009887,0
 .02622252,0.03508076,0.00024769,-0.02850033,-0.01633976,-0.00009241,0.
 02448964,-0.13125281,-0.00059725,0.02234859,-0.05432924,-0.00051465,-0
 .00078224,0.00012465,0.00000641,-0.04252595,0.70366375,0.00000541,0.00
 008862,-0.00000853,-0.00004871,-0.00009590,0.00000370,-0.00000077,0.00
 000464,-0.00044998,0.00005003,0.00009708,0.00000666,-0.00000574,-0.000
 08904,-0.00001014,0.00000064,0.00000027,-0.00000478,-0.00000275,0.0000
 0233,0.00000098,-0.00000053,-0.00002937,0.00000783,0.00000033,0.000029
 06,0.00000841,0.00000303,-0.00000242,0.00000078,0.00000008,-0.00000001
 ,0.00000136,0.00000051,0.00000393,-0.00024948,0.00003989,-0.00009883,0
 .00693177,0.00022658,0.00024187,0.00520361,-0.00023327,-0.00009352,-0.
 00478403,0.00024297,-0.00058633,-0.06116633,0.00018225,-0.00051100,0.0
 0668311,-0.00000654,0.00000635,-0.00062462,-0.00043214,0.00476119,0.13
 859930,-0.00000721,0.00000071,-0.00002422,0.00003011,0.00000250,-0.000
 01669,-0.00012306,-0.00002503,-0.00000018,0.00002996,0.00000224,0.0000
 1665,-0.00000720,0.00000006,0.00002428,0.00004185,0.00000148,0.,0.0000
 0723,0.00000093,0.00000658,-0.00000336,0.00000428,-0.00000330,-0.00000
 335,0.00000436,0.00000345,0.00000722,0.00000106,-0.00000656,0.00000682
 ,-0.00000055,0.,-0.00001813,-0.00016291,-0.00000162,0.00110078,0.00100
 019,0.00000768,0.01053441,0.01669792,0.00013960,-0.00176851,0.00299027
 ,0.00002607,-0.12541976,-0.12125993,-0.00101037,-0.00065387,0.00078576
 ,0.00000660,0.00060833,0.00086194,0.00000719,-0.01052277,-0.02891370,-
 0.00024126,0.13110604,0.00000102,0.00000762,0.00002973,0.00000763,-0.0
 0000958,0.00000799,0.00003783,-0.00001022,-0.00000155,0.00000781,-0.00
 000918,-0.00000845,0.00000096,0.00000784,-0.00002948,-0.00003144,-0.00
 000590,-0.00000008,-0.00000335,-0.00000211,-0.00000558,0.00000507,-0.0
 0001240,0.00000401,0.00000502,-0.00001195,-0.00000408,-0.00000339,-0.0
 0000221,0.00000557,-0.00000619,-0.00000034,0.00000001,0.00070526,0.000
 23392,0.00000212,-0.00097644,0.00047600,0.00003238,-0.01458580,-0.0190
 2720,-0.00018541,0.00408864,-0.00252722,-0.00007085,-0.11925986,-0.276
 96057,-0.00200108,0.00076301,0.00027041,0.00000657,-0.00076946,-0.0009
 6499,-0.00001083,0.00177522,0.00437090,0.00000586,0.12785463,0.2917332
 9,-0.00000219,-0.00003144,-0.00001010,0.00000402,0.00002204,0.00002441
 ,0.00000043,-0.00000157,0.00017715,-0.00000404,-0.00002278,0.00002399,
 0.00000219,0.00003175,-0.00000973,-0.00000019,-0.00000012,0.00000511,-
 0.00000272,0.00000048,-0.00000201,-0.00000373,0.00002146,-0.00001392,0
 .00000375,-0.00002135,-0.00001452,0.00000265,-0.00000046,-0.00000193,-
 0.00000006,0.00000003,-0.00000272,0.00000564,0.00000231,-0.00002117,-0
 .00000844,0.00003206,-0.00337318,-0.00012412,-0.00019094,0.00325241,0.
 00003611,-0.00007045,0.00583698,-0.00099367,-0.00199937,-0.03734541,0.
 00000633,0.00000673,-0.00052867,-0.00000659,-0.00001112,0.00033597,0.0
 0001656,0.00000955,0.00366685,0.00106393,0.00222313,0.02557476,-0.0000
 5147,0.00000054,-0.00011702,-0.00067278,-0.00002393,0.00053049,0.00087
 586,0.00002878,0.00000014,-0.00067282,-0.00001005,-0.00053081,-0.00005
 145,-0.00000361,0.00011696,-0.00024273,-0.00000664,-0.00000007,-0.0001
 6465,-0.00000362,-0.00006729,0.00015753,0.00000386,0.00010023,0.000157
 52,0.00000630,-0.00010013,-0.00016464,-0.00000519,0.00006720,-0.000101
 69,-0.00000275,-0.00000003,0.00317506,0.00006829,0.00000118,-0.0070077
 3,-0.00018977,-0.00000246,0.00662665,0.00116559,0.00000926,-0.03393424
 ,0.02424295,0.00020878,-0.03068062,-0.02714257,-0.00022258,-0.16902275
 ,0.10718513,0.00091814,-0.00529849,-0.00083420,-0.00000512,-0.15563346
 ,-0.09613738,-0.00079511,-0.00548815,0.00054202,0.00000614,0.62968072,
 -0.00001179,-0.00000475,-0.00002303,-0.00012413,-0.00001426,0.00008712
 ,0.00016338,0.00005257,0.00000004,-0.00012427,-0.00001216,-0.00008751,
 -0.00001149,-0.00000547,0.00002256,-0.00003996,-0.00000336,-0.00000007
 ,-0.00002889,0.00000165,-0.00001158,0.00002717,0.00000515,0.00001778,0
 .00002724,0.00000558,-0.00001749,-0.00002883,0.00000139,0.00001173,-0.
 00001751,0.00000044,0.00000007,0.00025365,0.00071163,0.00000432,-0.000
 75801,-0.00122258,0.00000161,0.00155915,-0.05967083,-0.00044643,0.0667
 4025,0.03093891,0.00017555,-0.07015047,0.02802893,0.00018116,0.0583740
 0,-0.27329443,-0.00177984,-0.00228206,0.00147296,-0.00004931,-0.049681
 51,-0.27536382,-0.00176772,0.00155203,0.00157041,-0.00005382,-0.005359
 45,0.69855969,0.00001276,0.00000774,0.00002397,-0.00001268,-0.00000953
 ,0.00000868,0.00000128,0.00000128,0.00004105,0.00001080,0.00000837,0.0
 0000749,-0.00001298,-0.00000805,0.00002415,-0.00000033,-0.00000013,-0.
 00000184,0.00000306,0.00000066,-0.00000685,0.00000530,-0.00000174,-0.0
 0000963,-0.00000490,0.00000201,-0.00000987,-0.00000351,-0.00000051,-0.
 00000669,-0.00000013,0.00000008,-0.00000795,0.00000176,0.00000367,0.00
 019873,-0.00000576,0.00000089,-0.00135275,0.00001184,-0.00044631,-0.00
 664566,0.00056567,0.00018135,0.00868756,-0.00058661,0.00017447,0.00771
 938,0.00050939,-0.00178687,-0.06252848,-0.00001739,-0.00004915,0.00738
 134,-0.00040096,-0.00176020,-0.06457571,0.00001481,-0.00005390,0.00794
 806,-0.00011508,0.00474345,0.13497631,-0.00000005,-0.00000182,0.000018
 62,-0.00004789,0.00000065,0.00003317,0.00009617,0.00009052,0.00000075,
 -0.00004780,0.00000123,-0.00003310,-0.00000005,-0.00000135,-0.00001869
 ,-0.00004825,-0.00000043,0.,-0.00001063,-0.00000237,-0.00000709,0.0000
 0799,-0.00000286,0.00000207,0.00000799,-0.00000283,-0.00000214,-0.0000
 1062,-0.00000251,0.00000703,-0.00000689,-0.00000096,-0.00000001,-0.000
 34874,-0.00000061,-0.00000005,-0.00036899,-0.00129599,-0.00001063,-0.0
 0505357,0.00141582,0.00001349,-0.01043362,-0.02963727,-0.00024582,-0.0
 0061914,0.00064120,0.00000536,-0.12300520,-0.11362685,-0.00093931,0.00
 067107,0.00035216,0.00000218,-0.00183168,0.00291922,0.00002559,0.00005
 715,-0.00008633,-0.00000092,0.01294571,0.01290687,0.00010643,0.1276486
 2,-0.00000341,0.00000017,0.00000222,-0.00001721,0.00000047,0.00001950,
 0.00002103,-0.00000337,-0.00000013,-0.00001730,0.00000053,-0.00001956,
 -0.00000340,0.00000030,-0.00000215,-0.00001039,0.00000043,-0.00000002,
 -0.00000528,-0.00000062,-0.00000286,0.00000487,-0.00000119,0.00000345,
 0.00000486,-0.00000117,-0.00000343,-0.00000531,-0.00000066,0.00000286,
 -0.00000383,-0.00000040,0.,0.00008549,-0.00005704,0.00000081,-0.000046
 89,0.00009026,-0.00000052,0.00092402,0.00181055,-0.00004616,0.00161277
 ,0.00361683,-0.00000246,0.00069626,0.00023024,0.00000769,-0.11519862,-
 0.27253051,-0.00195006,-0.00026223,0.00083465,0.00004159,0.00428523,-0
 .00291466,-0.00007544,-0.00010817,-0.00000686,0.00000873,-0.01360170,-
 0.01991570,-0.00018994,0.12394248,0.28909659,0.00000103,0.00000587,-0.
 00000384,-0.00000530,-0.00002064,0.00000480,-0.00000010,-0.00000017,0.
 00001278,0.00000516,0.00002055,0.00000476,-0.00000116,-0.00000580,-0.0
 0000407,-0.00000007,-0.00000003,0.00000308,-0.00000169,0.00000086,-0.0
 0000087,-0.00000047,-0.00000267,-0.00000251,0.00000054,0.00000272,-0.0
 0000251,0.00000161,-0.00000084,-0.00000084,-0.00000003,0.,-0.00000025,
 0.00000107,0.00000077,-0.00015470,-0.00000065,-0.00000027,0.00015171,0
 .00000955,-0.00004688,0.00732518,0.00001561,0.00000206,0.00388982,0.00
 000555,0.00000780,-0.00069762,-0.00095320,-0.00194936,-0.03719875,-0.0
 0000274,0.00004142,-0.00413346,0.00003727,-0.00007523,0.00601406,-0.00
 000107,0.00000879,-0.00104954,-0.00011493,-0.00019560,0.00306182,0.001
 02332,0.00218428,0.02564463,-0.00000072,0.00000158,0.00001375,-0.00003
 319,-0.00000336,0.00002531,0.00006510,-0.00008268,-0.00000069,-0.00003
 326,-0.00000295,-0.00002542,-0.00000073,0.00000193,-0.00001369,-0.0000
 3570,-0.00000173,-0.00000002,-0.00000727,0.00000174,-0.00000443,0.0000
 0432,0.00000312,-0.00000020,0.00000431,0.00000310,0.00000027,-0.000007
 28,0.00000166,0.00000446,-0.00000378,0.00000051,0.,-0.00029393,0.00000
 714,0.00000006,-0.00041826,0.00111247,0.00000942,-0.00458579,-0.001533
 39,-0.00001152,-0.00056237,-0.00077999,-0.00000659,-0.01130427,0.02708
 148,0.00023023,-0.00165113,-0.00290610,-0.00002330,0.00005263,0.000081
 07,0.00000054,-0.13989722,0.12779229,0.00108466,0.00074124,-0.00030646
 ,-0.00000310,0.01395159,-0.01227791,-0.00010486,0.00039290,-0.00098887
 ,-0.00000826,0.14423841,0.00000371,0.00000037,0.00000247,-0.00000135,-
 0.00000060,-0.00000796,0.00002073,-0.00001738,-0.00000035,-0.00000144,
 -0.00000033,0.00000789,0.00000374,0.00000028,-0.00000241,-0.00000428,0
 .00000027,-0.00000002,0.00000087,0.00000012,0.,-0.00000063,-0.00000049
 ,-0.00000086,-0.00000064,-0.00000045,0.00000089,0.00000085,0.00000010,
 0.00000001,0.00000039,0.00000002,0.,-0.00013363,-0.00004316,0.00000101
 ,-0.00000931,0.00023236,0.00000181,-0.00151622,0.00135142,-0.00005460,
 -0.00058183,0.00022406,0.00000887,-0.00297351,0.00633027,0.00001603,-0
 .00404694,-0.00304231,-0.00007541,0.00010069,0.00001813,0.00000890,0.1
 2744074,-0.26307872,-0.00189625,0.00028822,0.00077274,0.00004397,0.014
 83729,-0.02017834,-0.00020294,0.00087447,-0.00097915,-0.00001264,-0.13
 694684,0.27797254,0.00000182,-0.00000906,-0.00000312,-0.00000445,0.000
 02557,0.00000361,0.00000045,-0.00000036,0.00002454,0.00000428,-0.00002
 565,0.00000340,-0.00000168,0.00000911,-0.00000285,-0.00000002,-0.00000
 004,0.00000322,-0.00000133,-0.00000122,-0.00000093,-0.00000058,0.00000
 348,-0.00000239,0.00000058,-0.00000341,-0.00000246,0.00000135,0.000001
 24,-0.00000092,0.,0.,-0.00000024,-0.00000147,0.00000099,-0.00016523,0.
 00000053,0.00000158,0.00002124,-0.00001155,-0.00005421,0.00786215,-0.0
 0000501,0.00000893,-0.00082177,-0.00002237,0.00001158,0.00448576,-0.00
 003302,-0.00007556,0.00599262,0.00000074,0.00000883,-0.00104229,0.0010
 8144,-0.00189619,-0.03967574,0.00000170,0.00004416,-0.00445597,0.00012
 310,-0.00019999,0.00380408,0.00000744,-0.00001242,0.00051016,-0.001164
 23,0.00212951,0.02698449,0.00004643,0.00000454,0.00004619,0.00076262,0
 .00002760,-0.00051813,-0.00122596,-0.00003504,-0.00000015,0.00076263,0
 .00001468,0.00051857,0.00004640,0.00000702,-0.00004607,0.00034708,0.00
 000922,0.00000011,0.00018394,0.00000215,0.00009163,-0.00018415,-0.0000
 0799,-0.00012433,-0.00018413,-0.00001088,0.00012412,0.00018394,0.00000
 418,-0.00009156,0.00013119,0.00000220,0.00000002,-0.00147763,-0.000065
 37,-0.00000114,0.00416472,0.00019332,0.00000191,-0.00464489,0.00035333
 ,0.00000276,0.00703171,0.00358171,0.00002922,0.00804597,-0.00441435,-0
 .00003672,-0.02707426,0.01683243,0.00014453,0.00069992,-0.00041521,-0.
 00000337,-0.02956973,-0.01944153,-0.00015948,0.00045375,0.00040950,0.0
 0000343,-0.19572970,-0.01991242,-0.00014822,0.00002602,-0.00361551,-0.
 00003015,0.00012161,0.00287711,0.00002375,0.65762355,-0.00000131,-0.00
 001280,-0.00000710,-0.00006410,-0.00000969,0.00006610,0.00006577,0.000
 03033,-0.00000031,-0.00006396,-0.00000781,-0.00006638,-0.00000140,-0.0
 0001308,0.00000704,-0.00003434,-0.00000344,-0.00000005,-0.00001907,0.0
 0000684,-0.00000866,0.00001862,0.00001374,0.00001129,0.00001861,0.0000
 1397,-0.00001100,-0.00001914,0.00000662,0.00000877,-0.00001355,0.00000
 495,0.00000003,0.00073117,0.00003205,-0.00000033,-0.00162246,-0.000058
 55,0.00001078,0.00237390,-0.00469469,-0.00003442,0.00390990,-0.0057733
 2,-0.00011497,-0.00762414,-0.00540672,-0.00010267,0.03510292,0.0010434
 5,0.00000258,0.00154779,0.00019049,-0.00000309,-0.02642658,0.01211022,
 0.00008633,-0.00195347,-0.00001797,-0.00000195,-0.04913465,-0.11351613
 ,-0.00032866,0.00340264,-0.00055130,0.00003177,-0.00099974,-0.00236380
 ,0.00001056,-0.16546887,0.84977904,-0.00000715,0.00000179,-0.00001206,
 0.00000883,-0.00000352,0.00000433,0.00000066,-0.00000056,0.00007065,-0
 .00001005,0.00000331,0.00000313,0.00000712,-0.00000175,-0.00001201,-0.
 00000033,-0.00000004,0.00000066,-0.00000322,0.00000012,0.00000241,-0.0
 0000120,-0.00000081,0.00000054,0.00000155,0.00000105,0.00000035,0.0000
 0286,-0.00000005,0.00000258,-0.00000013,0.00000002,0.00000237,0.000006
 31,0.00000015,0.00004387,-0.00001412,0.00001007,-0.00127381,0.00002014
 ,-0.00003333,-0.00067511,0.00003261,-0.00011556,0.00790010,-0.00006374
 ,-0.00010340,0.00691975,0.00029887,0.00000647,0.00006814,0.00001307,-0
 .00000274,0.00052764,-0.00021864,0.00008440,0.00232192,-0.00001644,-0.
 00000219,0.00022977,-0.00039647,-0.00033194,-0.07384522,0.00002828,0.0
 0003187,-0.00431779,-0.00000890,0.00000985,-0.00360305,-0.00143301,0.0
 0561582,0.18555828,-0.00001841,-0.00000213,-0.00000530,-0.00038929,-0.
 00001641,0.00026036,0.00066656,0.00000307,-0.00000007,-0.00038931,-0.0
 0001001,-0.00026067,-0.00001840,-0.00000292,0.00000525,-0.00019297,-0.
 00000675,-0.00000008,-0.00009432,0.00000034,-0.00005019,0.00009537,0.0
 0000760,0.00006517,0.00009536,0.00000907,-0.00006498,-0.00009433,-0.00
 000076,0.00005019,-0.00007036,-0.00000020,0.,0.00057554,0.00003709,0.0
 0000064,-0.00188496,-0.00013755,-0.00000132,0.00188605,0.00151517,0.00
 001282,-0.00432749,0.00047400,0.00000466,-0.00086259,0.00201832,0.0000
 1665,-0.00217637,-0.00951256,-0.00007882,-0.00102104,0.00006452,0.0000
 0058,0.00356342,0.00544040,0.00004533,-0.00015877,-0.00018087,-0.00000
 148,-0.05216535,0.04755232,0.00040726,0.00054005,0.00075538,0.00000636
 ,-0.00093497,-0.00017220,-0.00000095,-0.30919707,0.29254078,0.00248007
 ,0.34785979,0.00001474,0.00000895,0.00002000,0.00025256,0.00001601,-0.
 00018775,-0.00037205,-0.00004250,-0.00000018,0.00025264,0.00001125,0.0
 0018820,0.00001468,0.00000985,-0.00001984,0.00011600,0.00000746,0.0000
 0009,0.00006316,-0.00000521,0.00003042,-0.00006241,-0.00001594,-0.0000
 4095,-0.00006242,-0.00001689,0.00004054,0.00006322,-0.00000452,-0.0000
 3055,0.00004430,-0.00000385,-0.00000004,-0.00090196,0.00002249,0.00000
 028,0.00223343,0.00030284,-0.00000050,-0.00271512,0.00081478,0.0000083
 7,0.00168881,0.00192177,0.00003104,0.00415087,0.00028172,0.00000781,-0
 .00515245,0.00607550,0.00002373,0.00025302,-0.00007744,0.00000219,-0.0
 0638944,-0.00897537,-0.00007107,0.00050922,0.00011326,-0.00000021,0.04
 499501,0.00517917,-0.00011233,-0.00143198,0.00061389,-0.00000123,0.000
 27058,0.00262695,0.00002311,0.28541007,-0.51646886,-0.00385442,-0.3512
 0100,0.55608666,-0.00000277,-0.00000262,0.00000087,0.00000454,0.000006
 76,-0.00000801,-0.00000316,-0.00000011,-0.00001709,-0.00000025,-0.0000
 0639,-0.00000491,0.00000303,0.00000277,0.00000063,0.00000101,0.0000000
 7,-0.00000083,0.00000269,-0.00000059,0.00000182,-0.00000102,-0.0000003
 2,0.00000260,-0.00000004,-0.00000004,0.00000329,-0.00000161,0.00000047
 ,0.00000131,0.00000038,-0.00000004,0.00000042,-0.00000767,0.00000022,-
 0.00002630,0.00001899,-0.00000038,0.00036635,-0.00002291,0.00000773,-0
 .00015928,0.00001455,0.00003168,-0.00184340,0.00003459,0.00000795,-0.0
 0068353,-0.00004265,0.00002406,0.00332986,0.00000217,0.00000215,-0.000
 33732,-0.00005388,-0.00007228,-0.00043282,0.00000430,-0.00000018,0.000
 13632,0.00038700,-0.00011253,0.01799354,-0.00001200,-0.00000133,0.0007
 7223,0.00000248,0.00002265,-0.00014818,0.00241940,-0.00385282,-0.06129
 552,-0.00298282,0.00451396,0.02330131,-0.00000115,0.00000099,0.0000018
 7,-0.00002969,-0.00000006,0.00001718,0.00006344,-0.00000728,-0.0000000
 7,-0.00002968,0.00000030,-0.00001716,-0.00000115,0.00000100,-0.0000018
 6,-0.00001644,0.00000054,0.,-0.00000689,-0.00000122,-0.00000396,0.0000
 0693,-0.00000289,0.00000500,0.00000693,-0.00000278,-0.00000506,-0.0000
 0689,-0.00000130,0.00000394,-0.00000517,-0.00000083,0.,-0.00005388,0.0
 0002998,0.00000029,0.00007975,0.00006545,0.00000049,0.00018036,0.00018
 667,0.00000160,0.00001356,0.00061460,0.00000518,0.00006694,-0.00201761
 ,-0.00001696,0.00026899,-0.00237380,-0.00002002,-0.00009338,0.00001696
 ,0.00000015,-0.00595670,0.00213537,0.00001900,-0.00055075,0.00000597,0
 .00000009,-0.01048790,-0.02834737,-0.00023695,-0.00056055,0.00155573,0
 .00001277,0.00019779,-0.00005997,-0.00000052,-0.11134395,-0.08626531,-
 0.00072694,0.01871385,0.02795652,0.00023567,0.10954566,-0.00000421,0.0
 0000388,-0.00000224,-0.00006297,0.00000037,0.00003933,0.00010718,0.000
 00082,-0.00000010,-0.00006294,0.00000126,-0.00003932,-0.00000421,0.000
 00374,0.00000232,-0.00002882,-0.00000018,0.,-0.00001462,-0.00000239,-0
 .00000772,0.00001478,-0.00000446,0.00001021,0.00001478,-0.00000423,-0.
 00001028,-0.00001462,-0.00000255,0.00000767,-0.00001063,-0.00000190,-0
 .00000002,0.00001880,-0.00002682,0.00000013,-0.00012864,0.00012922,0.0
 0000049,0.00022285,0.00021963,-0.00000006,-0.00070120,0.00028453,0.000
 00642,0.00018378,-0.00011983,0.00000646,0.00068243,0.00062388,0.000016
 08,-0.00010748,0.00002681,-0.00000014,-0.00036195,0.00127671,-0.000010
 59,-0.00013405,0.00001230,0.00000332,-0.00062023,-0.00332664,-0.000173
 71,-0.00045310,0.00066770,0.00000447,0.00047135,0.00017510,-0.00000056
 ,-0.09634188,-0.21433354,-0.00131462,0.01082530,-0.04848199,-0.0005708
 5,0.08651033,0.26287860,-0.00000033,0.00000085,-0.00000068,0.00000028,
 -0.00000252,0.00000185,0.00000087,-0.00000008,0.00001189,-0.00000132,0
 .00000249,0.00000122,0.00000025,-0.00000078,-0.00000068,-0.00000025,0.
 ,0.00000019,-0.00000051,0.00000019,-0.00000032,-0.00000010,-0.00000056
 ,-0.00000095,0.00000035,0.00000052,-0.00000111,0.00000026,-0.00000023,
 -0.00000019,-0.00000009,-0.00000001,-0.00000014,0.00000022,0.00000003,
 -0.00003528,-0.00000118,0.00000066,0.00005862,0.00000196,-0.00000022,0
 .00024182,-0.00000601,0.00000631,-0.00046153,0.00000154,0.00000662,-0.
 00089263,0.00000547,0.00001564,-0.00128854,-0.00000091,-0.00000014,0.0
 0004439,-0.00000218,-0.00001062,0.00253184,-0.00000112,0.00000335,-0.0
 0038292,-0.00000153,-0.00016853,0.01711450,-0.00000396,0.00000349,0.00
 017175,0.00000401,-0.00000045,0.00022986,-0.00081332,-0.00131868,-0.05
 862192,0.00009132,-0.00057065,0.01904664,0.00072626,0.00203333,0.02223
 233\\-0.00000118,-0.00000723,0.00000295,-0.00000004,-0.00000032,-0.000
 00232,-0.00000471,0.00001257,0.00000640,-0.00000019,-0.00000379,-0.000
 00082,-0.00000207,-0.00000305,-0.00000403,0.00000424,0.00000575,0.0000
 0086,-0.00000149,0.00000107,0.00000103,0.00000061,0.00000082,0.0000016
 0,0.00000030,-0.00000067,-0.00000149,-0.00000145,-0.00000109,-0.000000
 99,-0.00000108,-0.00000081,0.00000013,0.00001198,-0.00000950,-0.000003
 47,-0.00000670,0.00000946,0.00000143,0.00000665,-0.00002689,-0.0000083
 7,-0.00000195,0.00000609,-0.00000137,-0.00000132,0.00000937,0.00000721
 ,0.00000678,0.00000337,-0.00000032,-0.00000145,0.00000036,0.00000254,-
 0.00000375,0.00000482,-0.00000097,0.00000121,0.00000199,-0.00000039,-0
 .00000404,-0.00000077,-0.00000526,-0.00000014,-0.00000058,0.00000113,0
 .00000156,-0.00000020,-0.00000069,0.00000498,0.00000016,0.00001653,-0.
 00000294,0.00000030,-0.00000575,-0.00000379,-0.00000122,-0.00000557\\\
 @


 KNOWLEDGE IS CHIMERA - FOR BEYOND IT LIES OTHER KNOWLEDGE,
 AND THE INCOMPLETENESS OF WHAT IS KNOWN RENDERS THE KNOWING FALSE.
     -- THE THOMAS COVENANT CHRONICLES
 Job cpu time:       0 days  1 hours 54 minutes 56.6 seconds.
 Elapsed time:       0 days  0 hours  3 minutes 49.9 seconds.
 File lengths (MBytes):  RWF=    284 Int=      0 D2E=      0 Chk=     10 Scr=      1
 Normal termination of Gaussian 16 at Sun Sep 17 16:56:29 2023.
