 Entering Gaussian System, Link 0=/home/ubuntu/g16/g16
 Input=/home/ubuntu/New/MOLECULE_38.gjf
 Output=/home/ubuntu/New/MOLECULE_38.log
 Initial command:
 /home/ubuntu/g16/l1.exe "/home/ubuntu/Scratch/Gau-5293.inp" -scrdir="/home/ubuntu/Scratch/"
 Entering Link 1 = /home/ubuntu/g16/l1.exe PID=      5297.
  
 Copyright (c) 1988-2017, Gaussian, Inc.  All Rights Reserved.
  
 This is part of the Gaussian(R) 16 program.  It is based on
 the Gaussian(R) 09 system (copyright 2009, Gaussian, Inc.),
 the Gaussian(R) 03 system (copyright 2003, Gaussian, Inc.),
 the Gaussian(R) 98 system (copyright 1998, Gaussian, Inc.),
 the Gaussian(R) 94 system (copyright 1995, Gaussian, Inc.),
 the Gaussian 92(TM) system (copyright 1992, Gaussian, Inc.),
 the Gaussian 90(TM) system (copyright 1990, Gaussian, Inc.),
 the Gaussian 88(TM) system (copyright 1988, Gaussian, Inc.),
 the Gaussian 86(TM) system (copyright 1986, Carnegie Mellon
 University), and the Gaussian 82(TM) system (copyright 1983,
 Carnegie Mellon University). Gaussian is a federally registered
 trademark of Gaussian, Inc.
  
 This software contains proprietary and confidential information,
 including trade secrets, belonging to Gaussian, Inc.
  
 This software is provided under written license and may be
 used, copied, transmitted, or stored only in accord with that
 written license.
  
 The following legend is applicable only to US Government
 contracts under FAR:
  
                    RESTRICTED RIGHTS LEGEND
  
 Use, reproduction and disclosure by the US Government is
 subject to restrictions as set forth in subparagraphs (a)
 and (c) of the Commercial Computer Software - Restricted
 Rights clause in FAR 52.227-19.
  
 Gaussian, Inc.
 340 Quinnipiac St., Bldg. 40, Wallingford CT 06492
  
  
 ---------------------------------------------------------------
 Warning -- This program may not be used in any manner that
 competes with the business of Gaussian, Inc. or will provide
 assistance to any competitor of Gaussian, Inc.  The licensee
 of this program is prohibited from giving any competitor of
 Gaussian, Inc. access to this program.  By using this program,
 the user acknowledges that Gaussian, Inc. is engaged in the
 business of creating and licensing software in the field of
 computational chemistry and represents and warrants to the
 licensee that it is not a competitor of Gaussian, Inc. and that
 it will not use this program in any manner prohibited above.
 ---------------------------------------------------------------
  

 Cite this work as:
 Gaussian 16, Revision B.01,
 M. J. Frisch, G. W. Trucks, H. B. Schlegel, G. E. Scuseria, 
 M. A. Robb, J. R. Cheeseman, G. Scalmani, V. Barone, 
 G. A. Petersson, H. Nakatsuji, X. Li, M. Caricato, A. V. Marenich, 
 J. Bloino, B. G. Janesko, R. Gomperts, B. Mennucci, H. P. Hratchian, 
 J. V. Ortiz, A. F. Izmaylov, J. L. Sonnenberg, D. Williams-Young, 
 F. Ding, F. Lipparini, F. Egidi, J. Goings, B. Peng, A. Petrone, 
 T. Henderson, D. Ranasinghe, V. G. Zakrzewski, J. Gao, N. Rega, 
 G. Zheng, W. Liang, M. Hada, M. Ehara, K. Toyota, R. Fukuda, 
 J. Hasegawa, M. Ishida, T. Nakajima, Y. Honda, O. Kitao, H. Nakai, 
 T. Vreven, K. Throssell, J. A. Montgomery, Jr., J. E. Peralta, 
 F. Ogliaro, M. J. Bearpark, J. J. Heyd, E. N. Brothers, K. N. Kudin, 
 V. N. Staroverov, T. A. Keith, R. Kobayashi, J. Normand, 
 K. Raghavachari, A. P. Rendell, J. C. Burant, S. S. Iyengar, 
 J. Tomasi, M. Cossi, J. M. Millam, M. Klene, C. Adamo, R. Cammi, 
 J. W. Ochterski, R. L. Martin, K. Morokuma, O. Farkas, 
 J. B. Foresman, and D. J. Fox, Gaussian, Inc., Wallingford CT, 2016.
 
 ******************************************
 Gaussian 16:  EM64L-G16RevB.01 20-Dec-2017
                18-Sep-2023 
 ******************************************
 %nprocshared=30
 Will use up to   30 processors via shared memory.
 %mem=30GB
 %chk=MOLECULE_38.chk
 ----------------------------------------------------------------------
 # opt=cartesian freq b3lyp/6-31+g(d) nosymm empiricaldispersion=gd3 vo
 lume
 ----------------------------------------------------------------------
 1/10=7,18=10,26=3,38=1/1,3;
 2/12=2,15=1,17=6,18=5,29=2,40=1/2;
 3/5=1,6=6,7=11,11=2,25=1,30=1,71=1,74=-5,124=31/1,2,3;
 4//1;
 5/5=2,38=5/2;
 6/7=2,8=2,9=2,10=2,28=1,44=1/1,4;
 7/7=1,29=1,30=1/1,2,3,16;
 1/10=7,18=10,26=3/3(2);
 2/15=1,29=1/2;
 99/12=1/99;
 2/15=1,29=1/2;
 3/5=1,6=6,7=11,11=2,25=1,30=1,71=1,74=-5,124=31/1,2,3;
 4/5=5,16=3,69=1/1;
 5/5=2,38=5/2;
 7/7=1,30=1/1,2,3,16;
 1/18=10,26=3/3(-5);
 2/15=1,29=1/2;
 6/7=2,8=2,9=2,10=2,19=2,28=1,44=1/1,4;
 99/9=1,12=1/99;
 -------------------
 Title Card Required
 -------------------
 Symbolic Z-matrix:
 Charge =  0 Multiplicity = 1
 C
 C                    1    B1
 C                    2    B2       1    A1
 C                    3    B3       2    A2       1    D1       0
 C                    4    B4       3    A3       2    D2       0
 C                    5    B5       4    A4       3    D3       0
 C                    5    B6       4    A5       3    D4       0
 C                    6    B7       5    A6       4    D5       0
 H                    6    B8       5    A7       4    D6       0
 C                    7    B9       5    A8       4    D7       0
 H                    7    B10      5    A9       4    D8       0
 C                    10   B11      7    A10      5    D9       0
 H                    8    B12      6    A11      5    D10      0
 H                    10   B13      7    A12      5    D11      0
 H                    12   B14      10   A13      7    D12      0
 C                    1    B15      2    A14      3    D13      0
 H                    16   B16      1    A15      2    D14      0
 H                    16   B17      1    A16      2    D15      0
 C                    16   B18      1    A17      2    D16      0
 C                    19   B19      16   A18      1    D17      0
 C                    19   B20      16   A19      1    D18      0
 C                    20   B21      19   A20      16   D19      0
 H                    20   B22      19   A21      16   D20      0
 C                    21   B23      19   A22      16   D21      0
 H                    21   B24      19   A23      16   D22      0
 C                    24   B25      21   A24      19   D23      0
 H                    22   B26      20   A25      19   D24      0
 H                    24   B27      21   A26      19   D25      0
 H                    26   B28      24   A27      21   D26      0
 H                    20   B29      19   A28      16   D27      0
 H                    22   B30      20   A29      19   D28      0
 H                    26   B31      24   A30      21   D29      0
 H                    24   B32      21   A31      19   D30      0
 H                    21   B33      19   A32      16   D31      0
 H                    19   B34      16   A33      1    D32      0
       Variables:
  B1                    1.22244                  
  B2                    1.36321                  
  B3                    1.2243                   
  B4                    1.4245                   
  B5                    1.41368                  
  B6                    1.41373                  
  B7                    1.39561                  
  B8                    1.08461                  
  B9                    1.39558                  
  B10                   1.08461                  
  B11                   1.40098                  
  B12                   1.08538                  
  B13                   1.08539                  
  B14                   1.08527                  
  B15                   1.46122                  
  B16                   1.10136                  
  B17                   1.10031                  
  B18                   1.55488                  
  B19                   1.54428                  
  B20                   1.54384                  
  B21                   1.5418                   
  B22                   1.10179                  
  B23                   1.54119                  
  B24                   1.10187                  
  B25                   1.54167                  
  B26                   1.10056                  
  B27                   1.09756                  
  B28                   1.09769                  
  B29                   1.09882                  
  B30                   1.09764                  
  B31                   1.10079                  
  B32                   1.10071                  
  B33                   1.09671                  
  B34                   1.10132                  
  A1                  179.71352                  
  A2                  179.90723                  
  A3                  179.76193                  
  A4                  120.60063                  
  A5                  120.55035                  
  A6                  120.36274                  
  A7                  119.11981                  
  A8                  120.36158                  
  A9                  119.12457                  
  A10                 120.32346                  
  A11                 119.64364                  
  A12                 119.64544                  
  A13                 120.10711                  
  A14                 177.64871                  
  A15                 109.77673                  
  A16                 109.54366                  
  A17                 113.6583                   
  A18                 110.39657                  
  A19                 111.82102                  
  A20                 111.62541                  
  A21                 108.76768                  
  A22                 111.60526                  
  A23                 108.6237                   
  A24                 111.32079                  
  A25                 109.07214                  
  A26                 110.04357                  
  A27                 110.36854                  
  A28                 109.97378                  
  A29                 110.05422                  
  A30                 109.11341                  
  A31                 109.1231                   
  A32                 109.77821                  
  A33                 107.70944                  
  D1                  179.00453                  
  D2                   -1.41028                  
  D3                 -124.03562                  
  D4                   55.85025                  
  D5                  179.84803                  
  D6                   -0.12579                  
  D7                 -179.82626                  
  D8                    0.13675                  
  D9                   -0.035                    
  D10                -179.99007                  
  D11                 179.96474                  
  D12                -179.99378                  
  D13                 179.96116                  
  D14                -129.91883                  
  D15                 113.85089                  
  D16                  -8.23148                  
  D17                 175.33219                  
  D18                 -61.23783                  
  D19                 179.61066                  
  D20                  58.98912                  
  D21                -178.8034                   
  D22                 -58.23769                  
  D23                  55.68985                  
  D24                  64.84967                  
  D25                 178.34866                  
  D26                -177.76326                  
  D27                 -57.68142                  
  D28                -178.32789                  
  D29                  65.14867                  
  D30                 -64.86504                  
  D31                  58.27922                  
  D32                  57.38282                  
 

 GradGradGradGradGradGradGradGradGradGradGradGradGradGradGradGradGradGrad
 Berny optimization.
 Initialization pass.
 Trust Radius=3.00D-01 FncErr=1.00D-07 GrdErr=1.00D-06 EigMax=2.50D+02 EigMin=1.00D-04
 Number of steps in this run=    115 maximum allowed number of steps=    210.
 GradGradGradGradGradGradGradGradGradGradGradGradGradGradGradGradGradGrad

 ---------------------------------------------------------------------------------------------------
                            Z-MATRIX (ANGSTROMS AND DEGREES)
   CD    Cent   Atom    N1       Length/X        N2       Alpha/Y        N3        Beta/Z          J
 ---------------------------------------------------------------------------------------------------
      1      1  C 
      2      2  C        1   1.222437(     1)
      3      3  C        2   1.363207(     2)      1  179.714(    35)
      4      4  C        3   1.224304(     3)      2  179.907(    36)      1  179.005(    68)      0
      5      5  C        4   1.424495(     4)      3  179.762(    37)      2   -1.410(    69)      0
      6      6  C        5   1.413677(     5)      4  120.601(    38)      3 -124.036(    70)      0
      7      7  C        5   1.413725(     6)      4  120.550(    39)      3   55.850(    71)      0
      8      8  C        6   1.395606(     7)      5  120.363(    40)      4  179.848(    72)      0
      9      9  H        6   1.084610(     8)      5  119.120(    41)      4   -0.126(    73)      0
     10     10  C        7   1.395576(     9)      5  120.362(    42)      4 -179.826(    74)      0
     11     11  H        7   1.084611(    10)      5  119.125(    43)      4    0.137(    75)      0
     12     12  C       10   1.400977(    11)      7  120.323(    44)      5   -0.035(    76)      0
     13     13  H        8   1.085379(    12)      6  119.644(    45)      5 -179.990(    77)      0
     14     14  H       10   1.085392(    13)      7  119.645(    46)      5  179.965(    78)      0
     15     15  H       12   1.085268(    14)     10  120.107(    47)      7 -179.994(    79)      0
     16     16  C        1   1.461221(    15)      2  177.649(    48)      3  179.961(    80)      0
     17     17  H       16   1.101358(    16)      1  109.777(    49)      2 -129.919(    81)      0
     18     18  H       16   1.100306(    17)      1  109.544(    50)      2  113.851(    82)      0
     19     19  C       16   1.554885(    18)      1  113.658(    51)      2   -8.231(    83)      0
     20     20  C       19   1.544284(    19)     16  110.397(    52)      1  175.332(    84)      0
     21     21  C       19   1.543836(    20)     16  111.821(    53)      1  -61.238(    85)      0
     22     22  C       20   1.541804(    21)     19  111.625(    54)     16  179.611(    86)      0
     23     23  H       20   1.101785(    22)     19  108.768(    55)     16   58.989(    87)      0
     24     24  C       21   1.541186(    23)     19  111.605(    56)     16 -178.803(    88)      0
     25     25  H       21   1.101875(    24)     19  108.624(    57)     16  -58.238(    89)      0
     26     26  C       24   1.541674(    25)     21  111.321(    58)     19   55.690(    90)      0
     27     27  H       22   1.100564(    26)     20  109.072(    59)     19   64.850(    91)      0
     28     28  H       24   1.097560(    27)     21  110.044(    60)     19  178.349(    92)      0
     29     29  H       26   1.097688(    28)     24  110.369(    61)     21 -177.763(    93)      0
     30     30  H       20   1.098817(    29)     19  109.974(    62)     16  -57.681(    94)      0
     31     31  H       22   1.097639(    30)     20  110.054(    63)     19 -178.328(    95)      0
     32     32  H       26   1.100793(    31)     24  109.113(    64)     21   65.149(    96)      0
     33     33  H       24   1.100715(    32)     21  109.123(    65)     19  -64.865(    97)      0
     34     34  H       21   1.096712(    33)     19  109.778(    66)     16   58.279(    98)      0
     35     35  H       19   1.101321(    34)     16  107.709(    67)      1   57.383(    99)      0
 ---------------------------------------------------------------------------------------------------
                         Z-Matrix orientation:                         
 ---------------------------------------------------------------------
 Center     Atomic      Atomic             Coordinates (Angstroms)
 Number     Number       Type             X           Y           Z
 ---------------------------------------------------------------------
      1          6           0        0.000000    0.000000    0.000000
      2          6           0        0.000000    0.000000    1.222437
      3          6           0        0.006816    0.000000    2.585627
      4          6           0        0.010955    0.000034    3.809924
      5          6           0        0.009858    0.000323    5.234419
      6          6           0        0.732084    0.979345    5.954411
      7          6           0       -0.715825   -0.977506    5.952648
      8          6           0        0.724999    0.976865    7.349996
      9          1           0        1.290543    1.731494    5.407809
     10          6           0       -0.717096   -0.971358    7.348209
     11          1           0       -1.271192   -1.731001    5.404749
     12          6           0        0.001627    0.003830    8.051901
     13          1           0        1.283485    1.734122    7.891018
     14          1           0       -1.278730   -1.727251    7.887903
     15          1           0       -0.001717    0.005257    9.137164
     16          6           0       -0.059948   -0.000041   -1.459991
     17          1           0        0.589800   -0.794470   -1.859613
     18          1           0        0.343239    0.948596   -1.844962
     19          6           0       -1.493753   -0.204920   -2.025584
     20          6           0       -1.488782   -0.076034   -3.564472
     21          6           0       -2.090062   -1.563652   -1.599332
     22          6           0       -2.897034   -0.284133   -4.156654
     23          1           0       -0.804027   -0.831882   -3.981287
     24          6           0       -3.499198   -1.774330   -2.186871
     25          1           0       -1.424069   -2.366865   -1.953492
     26          6           0       -3.492285   -1.638449   -3.722529
     27          1           0       -3.555796    0.527106   -3.811451
     28          1           0       -3.886183   -2.758355   -1.892633
     29          1           0       -4.508930   -1.751698   -4.120682
     30          1           0       -1.094258    0.906746   -3.857548
     31          1           0       -2.858663   -0.216754   -5.251551
     32          1           0       -2.888875   -2.451946   -4.153649
     33          1           0       -4.183314   -1.024645   -1.760806
     34          1           0       -2.115468   -1.630850   -0.504975
     35          1           0       -2.132808    0.592794   -1.615498
 ---------------------------------------------------------------------
                    Distance matrix (angstroms):
                    1          2          3          4          5
     1  C    0.000000
     2  C    1.222437   0.000000
     3  C    2.585636   1.363207   0.000000
     4  C    3.809940   2.587510   1.224304   0.000000
     5  C    5.234428   4.011993   2.648793   1.424495   0.000000
     6  C    6.078657   4.887396   3.582434   2.465340   1.413677
     7  C    6.074697   4.882910   3.579742   2.464764   1.413725
     8  C    7.449989   6.247149   4.916224   3.741145   2.437361
     9  H    5.823055   4.709661   3.551160   2.681144   2.160364
    10  C    7.446741   6.243624   4.914242   3.740739   2.437363
    11  H    5.815807   4.701492   3.546423   2.680271   2.160460
    12  C    8.051903   6.829465   5.466278   4.241989   2.817497
    13  H    8.180628   7.008885   5.725751   4.613211   3.418436
    14  H    8.175424   7.003354   5.722774   4.612669   3.418472
    15  H    9.137165   7.914728   6.551544   5.327257   3.902765
    16  C    1.461221   2.683098   4.046169   5.270392   6.694773
    17  H    2.106468   3.236986   4.553154   5.754124   7.161935
    18  H    2.102744   3.229023   4.543472   5.743511   7.150385
    19  C    2.525130   3.580912   4.853552   6.029868   7.416914
    20  C    3.863640   5.013657   6.329796   7.525737   8.925930
    21  C    3.061246   3.843923   4.935158   6.009945   7.318184
    22  C    5.074575   6.116222   7.346526   8.485489   9.834795
    23  H    4.145977   5.330781   6.668872   7.877769   9.288929
    24  C    4.491663   5.197693   6.182000   7.171547   8.398714
    25  H    3.383216   4.209103   5.315363   6.393627   7.702323
    26  C    5.360764   6.271623   7.397368   8.467300   9.755895
    27  H    5.239149   6.185593   7.341162   8.431185   9.737513
    28  H    5.127670   5.693383   6.543606   7.437443   8.578129
    29  H    6.354441   7.207484   8.272545   9.294754  10.535983
    30  H    4.110993   5.275020   6.599171   7.799599   9.203506
    31  H    5.983120   7.080357   8.347414   9.507472  10.873412
    32  H    5.622316   6.577229   7.734010   8.822682  10.126801
    33  H    4.653004   5.239251   6.123607   7.048042   8.219879
    34  H    2.718433   3.181011   4.088470   5.079352   6.333907
    35  H    2.740458   3.599188   4.751721   5.863641   7.201625
                    6          7          8          9         10
     6  C    0.000000
     7  C    2.434279   0.000000
     8  C    1.395606   2.801450   0.000000
     9  H    1.084610   3.414827   2.159026   0.000000
    10  C    2.801435   1.395576   2.423884   3.886023   0.000000
    11  H    3.414853   1.084611   3.886040   4.307131   2.158963
    12  C    2.425833   2.425824   1.400977   3.411357   1.400977
    13  H    2.150390   3.886829   1.085379   2.483220   3.408311
    14  H    3.886827   2.150393   3.408301   4.971413   1.085392
    15  H    3.408406   3.408359   2.160117   4.307890   2.160069
    16  C    7.520629   7.505520   8.898672   7.210320   8.885927
    17  H    8.014089   7.922725   9.379382   7.725733   9.301788
    18  H    7.809121   8.101494   9.202924   7.356155   9.451187
    19  C    8.368820   8.053213   9.706749   8.170516   9.437088
    20  C    9.831337   9.590917  11.186377   9.565230  10.976507
    21  C    8.455198   7.698343   9.719530   8.449053   9.071623
    22  C   10.816678  10.365155  12.128984  10.633791  11.729718
    23  H   10.215589   9.935393  11.576159   9.955563  11.330688
    24  C    9.579506   8.639089  10.787249   9.639066   9.965069
    25  H    8.853307   8.058472  10.117011   8.851803   9.432333
    26  C   10.878479  10.087350  12.133679  10.844124  11.432757
    27  H   10.675322  10.279442  11.962667  10.484861  11.612133
    28  H    9.842504   8.647024  10.983673  10.012677   9.931246
    29  H   11.680510  10.791617  12.900214  11.685832  12.104644
    30  H    9.980748   9.996677  11.354455   9.602829  11.368312
    31  H   11.827836  11.432610  13.155468  11.603169  12.802722
    32  H   11.272000  10.441904  12.535976  11.242339  11.798369
    33  H    9.364918   8.457131  10.540602   9.431249   9.746367
    34  H    7.526310   6.639786   8.750372   7.607056   8.003930
    35  H    8.103120   7.858150   9.417784   7.895747   9.208630
                   11         12         13         14         15
    11  H    0.000000
    12  C    3.411323   0.000000
    13  H    4.971417   2.159387   0.000000
    14  H    2.483168   2.159363   4.306513   0.000000
    15  H    4.307793   1.085268   2.488694   2.488573   0.000000
    16  C    7.182478   9.512092   9.604868   9.583934  10.597316
    17  H    7.557204   9.960991  10.097018   9.968728  11.041673
    18  H    7.895881   9.947723   9.812768  10.223483  11.027963
    19  C    7.588696  10.189968  10.479118  10.031996  11.263981
    20  C    9.123222  11.711867  11.924360  11.572706  12.788648
    21  C    7.053772   9.998923  10.598248   9.523268  11.049660
    22  C    9.805979  12.551255  12.911099  12.238172  13.608534
    23  H    9.440568  12.089049  12.324516  11.912375  13.169595
    24  C    7.911926  10.965860  11.693892  10.316673  11.984701
    25  H    7.387246  10.380785  11.002877   9.863228  11.430340
    26  C    9.394095  12.391195  13.002180  11.819892  13.426002
    27  H    9.759959  12.396298  12.720979  12.130212  13.437650
    28  H    7.819553  11.028984  11.942681  10.174520  12.015949
    29  H   10.060676  13.099572  13.783466  12.435469  14.112843
    30  H    9.632194  11.993799  12.015282  12.038587  13.071681
    31  H   10.879786  13.609253  13.917270  13.320024  14.671282
    32  H    9.721092  12.781287  13.416622  12.170321  13.820970
    33  H    7.766889  10.717309  11.430415  10.100883  11.718028
    34  H    5.970567   8.965178   9.662744   8.435036  10.005780
    35  H    7.444883   9.917727  10.165999   9.819709  10.977544
                   16         17         18         19         20
    16  C    0.000000
    17  H    1.101358   0.000000
    18  H    1.100306   1.760479   0.000000
    19  C    1.554885   2.171707   2.176640   0.000000
    20  C    2.544834   2.782660   2.713462   1.544284   0.000000
    21  C    2.566253   2.800187   3.506091   1.543836   2.536991
    22  C    3.924507   4.206526   4.166882   2.552829   1.541804
    23  H    2.757271   2.538829   3.008355   2.166467   1.101785
    24  C    3.937626   4.217479   4.721816   2.551641   2.970483
    25  H    2.776009   2.556738   3.758648   2.164269   2.801313
    26  C    4.425426   4.565761   4.992925   2.988103   2.545613
    27  H    4.245963   4.768879   4.387164   2.824395   2.167331
    28  H    4.736618   4.887981   5.624213   3.501633   3.967043
    29  H    5.471839   5.659132   6.001169   3.984125   3.498360
    30  H    2.764116   3.118002   2.473590   2.179791   1.098817
    31  H    4.717594   4.871437   4.818201   3.502854   2.177754
    32  H    4.611991   4.484530   5.228793   3.394724   2.819991
    33  H    4.259395   4.779682   4.938668   2.824145   3.378399
    34  H    2.792267   3.138957   3.807144   2.175329   3.488654
    35  H    2.161569   3.065402   2.511983   1.101321   2.158842
                   21         22         23         24         25
    21  C    0.000000
    22  C    2.971241   0.000000
    23  H    2.804119   2.170591   0.000000
    24  C    1.541186   2.542309   3.372252   0.000000
    25  H    1.101875   3.370657   2.617743   2.170651   0.000000
    26  C    2.545543   1.541739   2.818552   1.541674   2.817375
    27  H    3.378331   1.100564   3.073748   2.817636   4.046152
    28  H    2.177015   3.496567   4.192071   1.097560   2.493787
    29  H    3.499070   2.180195   3.819922   2.181673   3.819884
    30  H    3.491996   2.181206   1.767024   3.970273   3.801413
    31  H    3.967819   1.097639   2.492686   3.496941   4.190255
    32  H    2.819877   2.167830   2.645923   2.167919   2.644539
    33  H    2.167558   2.818326   4.048120   1.100715   3.074430
    34  H    1.096712   3.969792   3.800390   2.182674   1.765772
    35  H    2.156930   2.794730   3.064689   2.792269   3.062047
                   26         27         28         29         30
    26  C    0.000000
    27  H    2.168310   0.000000
    28  H    2.181254   3.819067   0.000000
    29  H    1.097688   2.489385   2.522969   0.000000
    30  H    3.499540   2.491068   5.008863   4.335499   0.000000
    31  H    2.181880   1.764429   4.335650   2.521567   2.513687
    32  H    1.100793   3.071911   2.490121   1.765223   3.819573
    33  H    2.168556   2.647046   1.763921   2.490712   4.203435
    34  H    3.499762   4.202868   2.516405   4.337810   4.326893
    35  H    3.356516   2.617522   3.792272   4.173553   2.490771
                   31         32         33         34         35
    31  H    0.000000
    32  H    2.490459   0.000000
    33  H    3.820038   3.072207   0.000000
    34  H    5.008192   3.819054   2.494109   0.000000
    35  H    3.795143   4.035379   2.615683   2.485589   0.000000
 Symmetry turned off by external request.
 Stoichiometry    C17H18
 Framework group  C1[X(C17H18)]
 Deg. of freedom    99
 Full point group                 C1      NOp   1
 Rotational constants (GHZ):           1.5250341           0.1153497           0.1091586
 Standard basis: 6-31+G(d) (6D, 7F)
   359 basis functions,   616 primitive gaussians,   359 cartesian basis functions
    60 alpha electrons       60 beta electrons
       nuclear repulsion energy       973.0079824529 Hartrees.
 NAtoms=   35 NActive=   35 NUniq=   35 SFac= 1.00D+00 NAtFMM=   60 NAOKFM=F Big=F
 Integral buffers will be    131072 words long.
 Raffenetti 2 integral format.
 Two-electron integral symmetry is turned off.
 Nuclear repulsion after empirical dispersion term =      972.9806180848 Hartrees.
 One-electron integrals computed using PRISM.
 NBasis=   359 RedAO= T EigKep=  1.23D-06  NBF=   359
 NBsUse=   355 1.00D-06 EigRej=  1.46D-07 NBFU=   355
 ExpMin= 4.38D-02 ExpMax= 3.05D+03 ExpMxC= 4.57D+02 IAcc=3 IRadAn=         5 AccDes= 0.00D+00
 Harris functional with IExCor=  402 and IRadAn=       5 diagonalized for initial guess.
 HarFok:  IExCor=  402 AccDes= 0.00D+00 IRadAn=         5 IDoV= 1 UseB2=F ITyADJ=14
 ICtDFT=  3500011 ScaDFX=  1.000000  1.000000  1.000000  1.000000
 FoFCou: FMM=F IPFlag=           0 FMFlag=      100000 FMFlg1=           0
         NFxFlg=           0 DoJE=T BraDBF=F KetDBF=T FulRan=T
         wScrn=  0.000000 ICntrl=       500 IOpCl=  0 I1Cent=   200000004 NGrid=           0
         NMat0=    1 NMatS0=      1 NMatT0=    0 NMatD0=    1 NMtDS0=    0 NMtDT0=    0
 Symmetry not used in FoFCou.
 Requested convergence on RMS density matrix=1.00D-08 within 128 cycles.
 Requested convergence on MAX density matrix=1.00D-06.
 Requested convergence on             energy=1.00D-06.
 No special actions if energy rises.
 SCF Done:  E(RB3LYP) =  -658.607051762     A.U. after   16 cycles
            NFock= 16  Conv=0.24D-08     -V/T= 2.0103

 **********************************************************************

            Population analysis using the SCF Density.

 **********************************************************************

 Alpha  occ. eigenvalues --  -10.22773 -10.21776 -10.20986 -10.20733 -10.20726
 Alpha  occ. eigenvalues --  -10.20718 -10.20595 -10.20510 -10.20509 -10.20493
 Alpha  occ. eigenvalues --  -10.20399 -10.20136 -10.18906 -10.18695 -10.18477
 Alpha  occ. eigenvalues --  -10.18444 -10.18346  -0.87024  -0.84362  -0.80580
 Alpha  occ. eigenvalues --   -0.79109  -0.76559  -0.75832  -0.74352  -0.72983
 Alpha  occ. eigenvalues --   -0.69365  -0.63842  -0.61746  -0.61437  -0.60173
 Alpha  occ. eigenvalues --   -0.58399  -0.55888  -0.54068  -0.49118  -0.48049
 Alpha  occ. eigenvalues --   -0.47743  -0.46445  -0.45901  -0.44502  -0.44445
 Alpha  occ. eigenvalues --   -0.43516  -0.43365  -0.41295  -0.38931  -0.38695
 Alpha  occ. eigenvalues --   -0.38182  -0.36975  -0.36558  -0.36100  -0.34783
 Alpha  occ. eigenvalues --   -0.34593  -0.33969  -0.33516  -0.32396  -0.30943
 Alpha  occ. eigenvalues --   -0.30272  -0.28571  -0.26495  -0.24159  -0.22246
 Alpha virt. eigenvalues --   -0.05515  -0.02050  -0.01790   0.00172   0.00504
 Alpha virt. eigenvalues --    0.01372   0.01851   0.01888   0.02379   0.02520
 Alpha virt. eigenvalues --    0.03233   0.03898   0.04448   0.04985   0.05227
 Alpha virt. eigenvalues --    0.05411   0.05668   0.05884   0.06683   0.07245
 Alpha virt. eigenvalues --    0.07702   0.08036   0.08274   0.08994   0.09112
 Alpha virt. eigenvalues --    0.09158   0.09530   0.09713   0.10276   0.10864
 Alpha virt. eigenvalues --    0.11324   0.12089   0.12962   0.13086   0.13175
 Alpha virt. eigenvalues --    0.13940   0.14116   0.14335   0.14580   0.14926
 Alpha virt. eigenvalues --    0.15313   0.15504   0.15653   0.15834   0.16623
 Alpha virt. eigenvalues --    0.16812   0.17024   0.17123   0.17927   0.18155
 Alpha virt. eigenvalues --    0.18626   0.18930   0.19417   0.19871   0.20096
 Alpha virt. eigenvalues --    0.20582   0.20936   0.20991   0.21270   0.21414
 Alpha virt. eigenvalues --    0.22146   0.22207   0.22436   0.22708   0.22753
 Alpha virt. eigenvalues --    0.23041   0.23829   0.24369   0.24651   0.24928
 Alpha virt. eigenvalues --    0.25571   0.25851   0.26520   0.26675   0.26822
 Alpha virt. eigenvalues --    0.27323   0.28316   0.28926   0.29175   0.29556
 Alpha virt. eigenvalues --    0.29608   0.30261   0.30735   0.31212   0.31942
 Alpha virt. eigenvalues --    0.32610   0.32762   0.33801   0.33961   0.34541
 Alpha virt. eigenvalues --    0.35032   0.35871   0.36939   0.37239   0.38389
 Alpha virt. eigenvalues --    0.39150   0.41125   0.42072   0.42453   0.45246
 Alpha virt. eigenvalues --    0.47139   0.48554   0.51245   0.55998   0.58353
 Alpha virt. eigenvalues --    0.59427   0.60882   0.63623   0.63660   0.65045
 Alpha virt. eigenvalues --    0.65706   0.66282   0.66946   0.68546   0.68963
 Alpha virt. eigenvalues --    0.69082   0.70029   0.70239   0.71028   0.71219
 Alpha virt. eigenvalues --    0.71748   0.72486   0.72695   0.73206   0.73718
 Alpha virt. eigenvalues --    0.73998   0.74138   0.74959   0.75296   0.77087
 Alpha virt. eigenvalues --    0.77605   0.78593   0.79660   0.80527   0.81076
 Alpha virt. eigenvalues --    0.82335   0.83379   0.84386   0.84855   0.85470
 Alpha virt. eigenvalues --    0.86144   0.86971   0.89199   0.91131   0.92205
 Alpha virt. eigenvalues --    0.92873   0.93659   0.95010   0.97317   0.97688
 Alpha virt. eigenvalues --    0.98513   0.99423   1.00363   1.00661   1.01465
 Alpha virt. eigenvalues --    1.01993   1.02690   1.05180   1.06905   1.07712
 Alpha virt. eigenvalues --    1.08204   1.09834   1.11315   1.11988   1.12384
 Alpha virt. eigenvalues --    1.13153   1.13285   1.14649   1.15105   1.17415
 Alpha virt. eigenvalues --    1.17644   1.18114   1.19066   1.19303   1.20278
 Alpha virt. eigenvalues --    1.21988   1.22563   1.23675   1.26690   1.29468
 Alpha virt. eigenvalues --    1.29733   1.31976   1.34027   1.38475   1.39955
 Alpha virt. eigenvalues --    1.42137   1.42374   1.43350   1.43887   1.44960
 Alpha virt. eigenvalues --    1.45453   1.47730   1.48988   1.49243   1.49769
 Alpha virt. eigenvalues --    1.51348   1.54510   1.56665   1.59285   1.60906
 Alpha virt. eigenvalues --    1.61898   1.63062   1.67001   1.73422   1.73785
 Alpha virt. eigenvalues --    1.75065   1.76112   1.78575   1.81565   1.84093
 Alpha virt. eigenvalues --    1.84777   1.85686   1.87891   1.88990   1.90121
 Alpha virt. eigenvalues --    1.90709   1.91383   1.92408   1.93928   1.95370
 Alpha virt. eigenvalues --    1.97255   1.98608   1.99388   2.00010   2.01658
 Alpha virt. eigenvalues --    2.02769   2.03491   2.04938   2.04994   2.07205
 Alpha virt. eigenvalues --    2.07501   2.10591   2.11858   2.12392   2.14105
 Alpha virt. eigenvalues --    2.16299   2.16905   2.18139   2.19476   2.22052
 Alpha virt. eigenvalues --    2.24809   2.28859   2.28911   2.29610   2.30038
 Alpha virt. eigenvalues --    2.33196   2.36226   2.39493   2.40535   2.41313
 Alpha virt. eigenvalues --    2.42928   2.45296   2.48091   2.51138   2.51567
 Alpha virt. eigenvalues --    2.55058   2.59606   2.61560   2.62219   2.62895
 Alpha virt. eigenvalues --    2.64739   2.66580   2.69759   2.72594   2.74186
 Alpha virt. eigenvalues --    2.74255   2.76809   2.78185   2.81145   2.82703
 Alpha virt. eigenvalues --    2.85433   2.99451   3.00610   3.15644   3.27092
 Alpha virt. eigenvalues --    3.31823   3.44412   3.71743   4.17096   4.20219
 Alpha virt. eigenvalues --    4.23279   4.24473   4.27123   4.28442   4.30398
 Alpha virt. eigenvalues --    4.35538   4.38297   4.40456   4.56771   4.59758
 Alpha virt. eigenvalues --    4.61651   4.65819   4.72995   4.83203   5.55315
          Condensed to atoms (all electrons):
               1          2          3          4          5          6
     1  C   17.541440   0.701277   0.452995  -0.057000  -0.771622   0.044519
     2  C    0.701277   9.220820  -3.820338  -0.058801  -1.875692   0.298854
     3  C    0.452995  -3.820338  14.590619  -2.158332   2.113037  -0.662417
     4  C   -0.057000  -0.058801  -2.158332  13.642348  -6.351735   2.806331
     5  C   -0.771622  -1.875692   2.113037  -6.351735  18.761889  -5.367241
     6  C    0.044519   0.298854  -0.662417   2.806331  -5.367241  31.537848
     7  C    0.073162   0.083308  -0.450089   2.227939  -4.980433 -18.395662
     8  C   -0.051480  -0.137694   0.080291  -1.402510   2.447372  -9.250392
     9  H    0.001634   0.004267   0.000347   0.043865  -0.052571   0.332667
    10  C   -0.041078  -0.045409   0.043383  -1.129209   2.200027   5.692010
    11  H    0.001171   0.002339   0.000165   0.034544  -0.040515   0.026131
    12  C    0.012952  -0.007484   0.110398  -0.170328   0.161826  -0.584221
    13  H   -0.000010  -0.000123  -0.000227  -0.007548   0.002797  -0.037076
    14  H   -0.000004  -0.000102  -0.000145  -0.006492   0.000718   0.000419
    15  H    0.000007   0.000011   0.000587   0.001156  -0.000059   0.013280
    16  C  -10.713725   1.030353  -5.500129  -0.020141  -0.815129   0.031858
    17  H   -0.296859   0.000743  -0.032181  -0.000792  -0.000721  -0.000009
    18  H   -0.328042  -0.003186  -0.037118  -0.000939  -0.000855  -0.000016
    19  C   -0.082767  -0.015544   0.006826  -0.004298   0.006958   0.001770
    20  C    0.184353  -0.081795   0.022131  -0.010345  -0.000157   0.000193
    21  C   -0.378876   0.044405  -0.118297   0.011192  -0.010881   0.000449
    22  C   -0.472909  -0.014904  -0.047808  -0.001919  -0.001820   0.000016
    23  H   -0.043236   0.001479  -0.001302  -0.000002  -0.000007   0.000000
    24  C    0.052680  -0.009110   0.005223  -0.006073   0.001412   0.000137
    25  H   -0.000915   0.020843  -0.003542   0.001346  -0.000048  -0.000005
    26  C   -0.039443  -0.005814  -0.001161  -0.000352  -0.000158  -0.000033
    27  H   -0.009830   0.001557  -0.000393   0.000015  -0.000002   0.000000
    28  H   -0.006349  -0.000511  -0.000634  -0.000062  -0.000016   0.000000
    29  H    0.001582   0.000032   0.000036   0.000002   0.000000   0.000000
    30  H   -0.075624  -0.005512  -0.001902  -0.000117  -0.000012   0.000000
    31  H   -0.000648  -0.000070  -0.000001   0.000000   0.000000   0.000000
    32  H    0.002798   0.001017  -0.000008   0.000013   0.000000   0.000000
    33  H   -0.004700   0.005821  -0.001238   0.000311  -0.000016  -0.000001
    34  H    0.040417  -0.017583   0.019967  -0.002963   0.001671   0.000100
    35  H   -0.003454   0.024099  -0.006046   0.001571  -0.000156  -0.000011
               7          8          9         10         11         12
     1  C    0.073162  -0.051480   0.001634  -0.041078   0.001171   0.012952
     2  C    0.083308  -0.137694   0.004267  -0.045409   0.002339  -0.007484
     3  C   -0.450089   0.080291   0.000347   0.043383   0.000165   0.110398
     4  C    2.227939  -1.402510   0.043865  -1.129209   0.034544  -0.170328
     5  C   -4.980433   2.447372  -0.052571   2.200027  -0.040515   0.161826
     6  C  -18.395662  -9.250392   0.332667   5.692010   0.026131  -0.584221
     7  C   32.031335   5.522369   0.026249  -9.561063   0.326996  -0.385635
     8  C    5.522369   9.869766  -0.074613  -1.966487  -0.008341   0.656776
     9  H    0.026249  -0.074613   0.525403  -0.008601  -0.000141   0.009566
    10  C   -9.561063  -1.966487  -0.008601   9.984952  -0.069422   0.574483
    11  H    0.326996  -0.008341  -0.000141  -0.069422   0.526086   0.009727
    12  C   -0.385635   0.656776   0.009566   0.574483   0.009727   5.464044
    13  H    0.001389   0.305782  -0.004508   0.004109   0.000016   0.023837
    14  H   -0.032758   0.004131   0.000016   0.302797  -0.004521   0.024301
    15  H    0.014099  -0.009936  -0.000139  -0.010018  -0.000140   0.282881
    16  C    0.021283  -0.021812   0.000277  -0.009961   0.000172   0.002492
    17  H    0.000016   0.000000   0.000000  -0.000004   0.000000   0.000000
    18  H    0.000011  -0.000005   0.000000   0.000000   0.000000   0.000000
    19  C   -0.002308   0.000015  -0.000001   0.000572  -0.000007  -0.000028
    20  C   -0.000295  -0.000082   0.000000   0.000143   0.000000  -0.000001
    21  C    0.000054  -0.000170   0.000000  -0.000586   0.000006   0.000045
    22  C    0.000015  -0.000001   0.000000  -0.000022   0.000000   0.000000
    23  H    0.000000   0.000000   0.000000   0.000000   0.000000   0.000000
    24  C   -0.000243  -0.000030   0.000000   0.000215  -0.000002  -0.000001
    25  H    0.000014   0.000000   0.000000  -0.000001   0.000000   0.000000
    26  C    0.000083  -0.000002   0.000000   0.000001   0.000000   0.000001
    27  H    0.000000   0.000000   0.000000   0.000000   0.000000   0.000000
    28  H    0.000000   0.000000   0.000000   0.000000   0.000000   0.000000
    29  H    0.000000   0.000000   0.000000   0.000000   0.000000   0.000000
    30  H    0.000000   0.000000   0.000000   0.000000   0.000000   0.000000
    31  H    0.000000   0.000000   0.000000   0.000000   0.000000   0.000000
    32  H    0.000000   0.000000   0.000000   0.000000   0.000000   0.000000
    33  H    0.000002   0.000000   0.000000   0.000000   0.000000   0.000000
    34  H   -0.000358  -0.000003   0.000000  -0.000003   0.000000   0.000000
    35  H    0.000019   0.000001   0.000000  -0.000004   0.000000   0.000000
              13         14         15         16         17         18
     1  C   -0.000010  -0.000004   0.000007 -10.713725  -0.296859  -0.328042
     2  C   -0.000123  -0.000102   0.000011   1.030353   0.000743  -0.003186
     3  C   -0.000227  -0.000145   0.000587  -5.500129  -0.032181  -0.037118
     4  C   -0.007548  -0.006492   0.001156  -0.020141  -0.000792  -0.000939
     5  C    0.002797   0.000718  -0.000059  -0.815129  -0.000721  -0.000855
     6  C   -0.037076   0.000419   0.013280   0.031858  -0.000009  -0.000016
     7  C    0.001389  -0.032758   0.014099   0.021283   0.000016   0.000011
     8  C    0.305782   0.004131  -0.009936  -0.021812   0.000000  -0.000005
     9  H   -0.004508   0.000016  -0.000139   0.000277   0.000000   0.000000
    10  C    0.004109   0.302797  -0.010018  -0.009961  -0.000004   0.000000
    11  H    0.000016  -0.004521  -0.000140   0.000172   0.000000   0.000000
    12  C    0.023837   0.024301   0.282881   0.002492   0.000000   0.000000
    13  H    0.532948  -0.000159  -0.004652  -0.000001   0.000000   0.000000
    14  H   -0.000159   0.533162  -0.004653   0.000000   0.000000   0.000000
    15  H   -0.004652  -0.004653   0.535831   0.000000   0.000000   0.000000
    16  C   -0.000001   0.000000   0.000000  22.514518   0.713188   0.735896
    17  H    0.000000   0.000000   0.000000   0.713188   0.508061  -0.035032
    18  H    0.000000   0.000000   0.000000   0.735896  -0.035032   0.515252
    19  C    0.000000   0.000000   0.000000  -0.813830  -0.070142  -0.122144
    20  C    0.000000   0.000000   0.000000   0.046358  -0.004897   0.015355
    21  C    0.000000   0.000000   0.000000   0.489997  -0.023631   0.027753
    22  C    0.000000   0.000000   0.000000   0.259949  -0.003353   0.000676
    23  H    0.000000   0.000000   0.000000   0.063123   0.003425  -0.000456
    24  C    0.000000   0.000000   0.000000  -0.197715  -0.004601   0.000107
    25  H    0.000000   0.000000   0.000000  -0.028177   0.003988  -0.000006
    26  C    0.000000   0.000000   0.000000   0.095027   0.000709   0.000839
    27  H    0.000000   0.000000   0.000000   0.015653   0.000000   0.000002
    28  H    0.000000   0.000000   0.000000   0.004513  -0.000001   0.000002
    29  H    0.000000   0.000000   0.000000  -0.000468   0.000000   0.000000
    30  H    0.000000   0.000000   0.000000   0.046212  -0.000357   0.003715
    31  H    0.000000   0.000000   0.000000  -0.007452   0.000002  -0.000003
    32  H    0.000000   0.000000   0.000000   0.006781   0.000003   0.000001
    33  H    0.000000   0.000000   0.000000   0.005544   0.000002   0.000002
    34  H    0.000000   0.000000   0.000000  -0.063846  -0.000075  -0.000002
    35  H    0.000000   0.000000   0.000000   0.019580   0.004808  -0.003547
              19         20         21         22         23         24
     1  C   -0.082767   0.184353  -0.378876  -0.472909  -0.043236   0.052680
     2  C   -0.015544  -0.081795   0.044405  -0.014904   0.001479  -0.009110
     3  C    0.006826   0.022131  -0.118297  -0.047808  -0.001302   0.005223
     4  C   -0.004298  -0.010345   0.011192  -0.001919  -0.000002  -0.006073
     5  C    0.006958  -0.000157  -0.010881  -0.001820  -0.000007   0.001412
     6  C    0.001770   0.000193   0.000449   0.000016   0.000000   0.000137
     7  C   -0.002308  -0.000295   0.000054   0.000015   0.000000  -0.000243
     8  C    0.000015  -0.000082  -0.000170  -0.000001   0.000000  -0.000030
     9  H   -0.000001   0.000000   0.000000   0.000000   0.000000   0.000000
    10  C    0.000572   0.000143  -0.000586  -0.000022   0.000000   0.000215
    11  H   -0.000007   0.000000   0.000006   0.000000   0.000000  -0.000002
    12  C   -0.000028  -0.000001   0.000045   0.000000   0.000000  -0.000001
    13  H    0.000000   0.000000   0.000000   0.000000   0.000000   0.000000
    14  H    0.000000   0.000000   0.000000   0.000000   0.000000   0.000000
    15  H    0.000000   0.000000   0.000000   0.000000   0.000000   0.000000
    16  C   -0.813830   0.046358   0.489997   0.259949   0.063123  -0.197715
    17  H   -0.070142  -0.004897  -0.023631  -0.003353   0.003425  -0.004601
    18  H   -0.122144   0.015355   0.027753   0.000676  -0.000456   0.000107
    19  C    7.590909  -0.598708  -0.281257   0.134801  -0.112800   0.056895
    20  C   -0.598708   7.394409  -0.506829  -0.696558   0.422210   0.202569
    21  C   -0.281257  -0.506829   6.845266   0.168761   0.000041  -0.466249
    22  C    0.134801  -0.696558   0.168761   6.751970  -0.040150  -0.192011
    23  H   -0.112800   0.422210   0.000041  -0.040150   0.538776  -0.009514
    24  C    0.056895   0.202569  -0.466249  -0.192011  -0.009514   6.425849
    25  H   -0.015130  -0.048118   0.416922  -0.009248   0.003196  -0.052700
    26  C   -0.028503  -0.174711  -0.132440   0.086685   0.001261   0.016264
    27  H    0.022927  -0.124003   0.014184   0.444725   0.004715  -0.024000
    28  H    0.015024   0.002633  -0.095407   0.024435  -0.000027   0.433937
    29  H   -0.002144   0.035693   0.020559  -0.071352  -0.000017  -0.057696
    30  H   -0.116562   0.412353   0.011130   0.018562  -0.035599   0.002007
    31  H    0.025195  -0.110311  -0.002448   0.445318  -0.003755   0.025019
    32  H    0.002893   0.010308   0.023124  -0.106470   0.003003  -0.099230
    33  H    0.014768  -0.003628  -0.080393  -0.023192   0.000093   0.424144
    34  H   -0.054507   0.007799   0.391048   0.001989  -0.000021  -0.017920
    35  H    0.320031  -0.028082  -0.020673  -0.040195   0.005058  -0.037031
              25         26         27         28         29         30
     1  C   -0.000915  -0.039443  -0.009830  -0.006349   0.001582  -0.075624
     2  C    0.020843  -0.005814   0.001557  -0.000511   0.000032  -0.005512
     3  C   -0.003542  -0.001161  -0.000393  -0.000634   0.000036  -0.001902
     4  C    0.001346  -0.000352   0.000015  -0.000062   0.000002  -0.000117
     5  C   -0.000048  -0.000158  -0.000002  -0.000016   0.000000  -0.000012
     6  C   -0.000005  -0.000033   0.000000   0.000000   0.000000   0.000000
     7  C    0.000014   0.000083   0.000000   0.000000   0.000000   0.000000
     8  C    0.000000  -0.000002   0.000000   0.000000   0.000000   0.000000
     9  H    0.000000   0.000000   0.000000   0.000000   0.000000   0.000000
    10  C   -0.000001   0.000001   0.000000   0.000000   0.000000   0.000000
    11  H    0.000000   0.000000   0.000000   0.000000   0.000000   0.000000
    12  C    0.000000   0.000001   0.000000   0.000000   0.000000   0.000000
    13  H    0.000000   0.000000   0.000000   0.000000   0.000000   0.000000
    14  H    0.000000   0.000000   0.000000   0.000000   0.000000   0.000000
    15  H    0.000000   0.000000   0.000000   0.000000   0.000000   0.000000
    16  C   -0.028177   0.095027   0.015653   0.004513  -0.000468   0.046212
    17  H    0.003988   0.000709   0.000000  -0.000001   0.000000  -0.000357
    18  H   -0.000006   0.000839   0.000002   0.000002   0.000000   0.003715
    19  C   -0.015130  -0.028503   0.022927   0.015024  -0.002144  -0.116562
    20  C   -0.048118  -0.174711  -0.124003   0.002633   0.035693   0.412353
    21  C    0.416922  -0.132440   0.014184  -0.095407   0.020559   0.011130
    22  C   -0.009248   0.086685   0.444725   0.024435  -0.071352   0.018562
    23  H    0.003196   0.001261   0.004715  -0.000027  -0.000017  -0.035599
    24  C   -0.052700   0.016264  -0.024000   0.433937  -0.057696   0.002007
    25  H    0.540229  -0.001730   0.000086  -0.003754  -0.000014  -0.000025
    26  C   -0.001730   5.941989  -0.051815  -0.065072   0.384899   0.017048
    27  H    0.000086  -0.051815   0.536989  -0.000036  -0.003804  -0.003960
    28  H   -0.003754  -0.065072  -0.000036   0.536398  -0.001987   0.000010
    29  H   -0.000014   0.384899  -0.003804  -0.001987   0.540566  -0.000127
    30  H   -0.000025   0.017048  -0.003960   0.000010  -0.000127   0.541654
    31  H   -0.000028  -0.063070  -0.033713  -0.000130  -0.002012  -0.002337
    32  H    0.002920   0.448463   0.004842  -0.003792  -0.033031  -0.000016
    33  H    0.004682  -0.048243   0.003015  -0.033169  -0.003833  -0.000020
    34  H   -0.033671   0.010146  -0.000025  -0.002334  -0.000119  -0.000126
    35  H    0.005232   0.006450   0.003132  -0.000006  -0.000017  -0.004288
              31         32         33         34         35
     1  C   -0.000648   0.002798  -0.004700   0.040417  -0.003454
     2  C   -0.000070   0.001017   0.005821  -0.017583   0.024099
     3  C   -0.000001  -0.000008  -0.001238   0.019967  -0.006046
     4  C    0.000000   0.000013   0.000311  -0.002963   0.001571
     5  C    0.000000   0.000000  -0.000016   0.001671  -0.000156
     6  C    0.000000   0.000000  -0.000001   0.000100  -0.000011
     7  C    0.000000   0.000000   0.000002  -0.000358   0.000019
     8  C    0.000000   0.000000   0.000000  -0.000003   0.000001
     9  H    0.000000   0.000000   0.000000   0.000000   0.000000
    10  C    0.000000   0.000000   0.000000  -0.000003  -0.000004
    11  H    0.000000   0.000000   0.000000   0.000000   0.000000
    12  C    0.000000   0.000000   0.000000   0.000000   0.000000
    13  H    0.000000   0.000000   0.000000   0.000000   0.000000
    14  H    0.000000   0.000000   0.000000   0.000000   0.000000
    15  H    0.000000   0.000000   0.000000   0.000000   0.000000
    16  C   -0.007452   0.006781   0.005544  -0.063846   0.019580
    17  H    0.000002   0.000003   0.000002  -0.000075   0.004808
    18  H   -0.000003   0.000001   0.000002  -0.000002  -0.003547
    19  C    0.025195   0.002893   0.014768  -0.054507   0.320031
    20  C   -0.110311   0.010308  -0.003628   0.007799  -0.028082
    21  C   -0.002448   0.023124  -0.080393   0.391048  -0.020673
    22  C    0.445318  -0.106470  -0.023192   0.001989  -0.040195
    23  H   -0.003755   0.003003   0.000093  -0.000021   0.005058
    24  C    0.025019  -0.099230   0.424144  -0.017920  -0.037031
    25  H   -0.000028   0.002920   0.004682  -0.033671   0.005232
    26  C   -0.063070   0.448463  -0.048243   0.010146   0.006450
    27  H   -0.033713   0.004842   0.003015  -0.000025   0.003132
    28  H   -0.000130  -0.003792  -0.033169  -0.002334  -0.000006
    29  H   -0.002012  -0.033031  -0.003833  -0.000119  -0.000017
    30  H   -0.002337  -0.000016  -0.000020  -0.000126  -0.004288
    31  H    0.538036  -0.003755  -0.000039   0.000010  -0.000016
    32  H   -0.003755   0.540086   0.004809  -0.000029   0.000092
    33  H   -0.000039   0.004809   0.537990  -0.004060   0.003110
    34  H    0.000010  -0.000029  -0.004060   0.514717  -0.003985
    35  H   -0.000016   0.000092   0.003110  -0.003985   0.555711
 Mulliken charges:
               1
     1  C    0.267585
     2  C    0.658447
     3  C    1.397303
     4  C   -1.380673
     5  C    0.572138
     6  C   -0.489494
     7  C   -0.519500
     8  C    0.037053
     9  H    0.196285
    10  C    0.039175
    11  H    0.195737
    12  C   -0.185633
    13  H    0.183426
    14  H    0.183291
    15  H    0.181743
    16  C   -1.910390
    17  H    0.237707
    18  H    0.231741
    19  C    0.121098
    20  C   -0.367988
    21  C   -0.346800
    22  C   -0.615992
    23  H    0.200507
    24  C   -0.472333
    25  H    0.197653
    26  C   -0.397316
    27  H    0.199740
    28  H    0.196337
    29  H    0.193253
    30  H    0.193893
    31  H    0.196209
    32  H    0.195175
    33  H    0.198239
    34  H    0.213764
    35  H    0.198618
 Sum of Mulliken charges =   0.00000
 Mulliken charges with hydrogens summed into heavy atoms:
               1
     1  C    0.267585
     2  C    0.658447
     3  C    1.397303
     4  C   -1.380673
     5  C    0.572138
     6  C   -0.293210
     7  C   -0.323763
     8  C    0.220479
    10  C    0.222466
    12  C   -0.003889
    16  C   -1.440942
    19  C    0.319716
    20  C    0.026411
    21  C    0.064617
    22  C   -0.220043
    24  C   -0.077757
    26  C   -0.008888
 Electronic spatial extent (au):  <R**2>=          10858.5126
 Charge=              0.0000 electrons
 Dipole moment (field-independent basis, Debye):
    X=             -0.4972    Y=             -0.0971    Z=             -0.5331  Tot=              0.7354
 Quadrupole moment (field-independent basis, Debye-Ang):
   XX=           -103.5409   YY=           -101.5682   ZZ=            -82.9677
   XY=              4.3421   XZ=              0.8324   YZ=              0.2819
 Traceless Quadrupole moment (field-independent basis, Debye-Ang):
   XX=             -7.5153   YY=             -5.5426   ZZ=             13.0579
   XY=              4.3421   XZ=              0.8324   YZ=              0.2819
 Octapole moment (field-independent basis, Debye-Ang**2):
  XXX=            294.8965  YYY=            111.1137  ZZZ=           -271.5581  XYY=             99.5057
  XXY=             36.9548  XXZ=           -161.6963  XZZ=             97.9250  YZZ=             36.4953
  YYZ=           -143.8165  XYZ=             27.7828
 Hexadecapole moment (field-independent basis, Debye-Ang**3):
 XXXX=          -1956.2969 YYYY=           -690.1534 ZZZZ=         -11083.6948 XXXY=           -394.8694
 XXXZ=           -889.3843 YYYX=           -382.3628 YYYZ=           -289.4635 ZZZX=           -895.4096
 ZZZY=           -282.4478 XXYY=           -433.6375 XXZZ=          -2528.3149 YYZZ=          -2201.0363
 XXYZ=            -95.6424 YYXZ=           -301.7475 ZZXY=             60.8242
 N-N= 9.729806180848D+02 E-N=-3.468168198468D+03  KE= 6.519028460787D+02
 Evaluate density.
 Using the total density.
 Monte-Carlo method of calculating molar volume:
 based on  0.001 e/bohr**3 density envelope.
 Number of points per bohr**3 =   20 CutOff= 1.00D-04
 Using the SCF density.
 There are       480 points.  Will hold       480 in memory.
 LenV=  4026228360 MDV=  4026531840.
 Box volume =13832.276 fraction occupied=0.148
 Integrated density= 6.6845681295032733D+01 error=-5.3154318704967267D+01
 Molar volume = 2046.024 bohr**3/mol (182.585 cm**3/mol)
 Recommended a0 for SCRF calculation =  5.09 angstrom (  9.61 bohr)
 Calling FoFJK, ICntrl=      2127 FMM=F ISym2X=0 I1Cent= 0 IOpClX= 0 NMat=1 NMatS=1 NMatT=0.
 -------------------------------------------------------------------
 Center     Atomic                   Forces (Hartrees/Bohr)
 Number     Number              X              Y              Z
 -------------------------------------------------------------------
      1        6           0.000131360    0.000245638    0.004946960
      2        6           0.000050123    0.000129941   -0.007438699
      3        6           0.000286019   -0.000071994    0.006489059
      4        6          -0.000207931    0.000039838   -0.004430163
      5        6          -0.000014111   -0.000003490    0.001842816
      6        6          -0.001428754   -0.001918165    0.000651982
      7        6           0.001430663    0.001952282    0.000697487
      8        6          -0.001506134   -0.002041789   -0.001292510
      9        1           0.000528846    0.000717713   -0.000446619
     10        6           0.001512106    0.002005737   -0.001273516
     11        1          -0.000529515   -0.000717374   -0.000454945
     12        6           0.000041222   -0.000017817   -0.002735887
     13        1           0.000576506    0.000778943    0.000442190
     14        1          -0.000570122   -0.000780967    0.000438279
     15        1          -0.000005549    0.000007543    0.001051426
     16        6          -0.002457205   -0.000413851   -0.001605037
     17        1           0.000182630    0.000286430    0.000912074
     18        1           0.000189732   -0.000218673    0.000919253
     19        6           0.000482374   -0.001966225   -0.000517021
     20        6          -0.001921803   -0.000570517    0.002085401
     21        6          -0.001245850    0.002241032   -0.001728753
     22        6           0.001228875   -0.001996779    0.001866432
     23        1          -0.000131606    0.000255548   -0.000119572
     24        6           0.002210810    0.000728591   -0.001808114
     25        1          -0.000107350    0.000020664    0.000131030
     26        6           0.000963545    0.002008179    0.001884982
     27        1           0.000088545   -0.000058426   -0.000128345
     28        1           0.000020867   -0.000054775    0.000088986
     29        1          -0.000057747   -0.000022310   -0.000050514
     30        1          -0.000013787   -0.000036900   -0.000136459
     31        1           0.000078478    0.000079822   -0.000063451
     32        1          -0.000103266    0.000037794   -0.000012484
     33        1           0.000101261   -0.000176792   -0.000004881
     34        1          -0.000191381   -0.000226414   -0.000105820
     35        1           0.000388149   -0.000242436   -0.000095564
 -------------------------------------------------------------------
 Cartesian Forces:  Max     0.007438699 RMS     0.001531470

 GradGradGradGradGradGradGradGradGradGradGradGradGradGradGradGradGradGrad
 Berny optimization.
 Search for a local minimum.
 Step number   1 out of a maximum of  115
 All quantities printed in internal units (Hartrees-Bohrs-Radians)
 Second derivative matrix not updated -- first step.
 ITU=  0
     Eigenvalues ---    0.00000   0.00013   0.00025   0.00123   0.00156
     Eigenvalues ---    0.00251   0.00344   0.00675   0.00785   0.00958
     Eigenvalues ---    0.01325   0.01571   0.01646   0.02042   0.02235
     Eigenvalues ---    0.02275   0.02514   0.03046   0.03776   0.04783
     Eigenvalues ---    0.04885   0.04909   0.04990   0.05112   0.05301
     Eigenvalues ---    0.05437   0.05656   0.05711   0.05781   0.06028
     Eigenvalues ---    0.06327   0.06425   0.06832   0.06866   0.06982
     Eigenvalues ---    0.07051   0.07164   0.07586   0.08023   0.08744
     Eigenvalues ---    0.08918   0.09550   0.09861   0.10935   0.11301
     Eigenvalues ---    0.11852   0.13301   0.13622   0.14150   0.15958
     Eigenvalues ---    0.16483   0.16553   0.16779   0.17312   0.18247
     Eigenvalues ---    0.20894   0.24369   0.26780   0.29335   0.29406
     Eigenvalues ---    0.29638   0.33954   0.35260   0.37565   0.39821
     Eigenvalues ---    0.42602   0.46521   0.50994   0.51449   0.56384
     Eigenvalues ---    0.57024   0.61760   0.63896   0.68849   0.69414
     Eigenvalues ---    0.74739   0.80994   0.82788   0.87477   0.88842
     Eigenvalues ---    0.91448   0.92861   0.94734   0.96296   0.97729
     Eigenvalues ---    0.98727   1.01856   1.04901   1.08697   1.09260
     Eigenvalues ---    1.10690   1.21252   1.23134   1.43947   1.55742
     Eigenvalues ---    1.57238   2.17108   2.68276  21.90691
 RFO step:  Lambda=-3.55697728D-04 EMin= 2.16150693D-08
 Linear search not attempted -- first point.
 B after Tr=    -0.000917   -0.000314   -0.000347
         Rot=    1.000000    0.000080   -0.000028    0.000026 Ang=   0.01 deg.
 Variable       Old X    -DE/DX   Delta X   Delta X   Delta X     New X
                                 (Linear)    (Quad)   (Total)
    X1        0.00000   0.00013   0.00000  -0.01591  -0.01682  -0.01682
    Y1        0.00000   0.00025   0.00000  -0.01373  -0.01404  -0.01404
    Z1        0.00000   0.00495   0.00000   0.01107   0.01073   0.01073
    X2        0.00000   0.00005   0.00000  -0.01292  -0.01371  -0.01371
    Y2        0.00000   0.00013   0.00000  -0.00396  -0.00390  -0.00390
    Z2        2.31007  -0.00744   0.00000   0.00425   0.00391   2.31398
    X3        0.01288   0.00029   0.00000  -0.00885  -0.00950   0.00338
    Y3        0.00000  -0.00007   0.00000   0.00244   0.00291   0.00291
    Z3        4.88613   0.00649   0.00000   0.00617   0.00582   4.89195
    X4        0.02070  -0.00021   0.00000  -0.00698  -0.00750   0.01321
    Y4        0.00007   0.00004   0.00000   0.00586   0.00669   0.00676
    Z4        7.19971  -0.00443   0.00000   0.00030  -0.00005   7.19967
    X5        0.01863  -0.00001   0.00000  -0.00271  -0.00307   0.01556
    Y5        0.00061   0.00000   0.00000   0.00710   0.00837   0.00898
    Z5        9.89162   0.00184   0.00000  -0.00220  -0.00255   9.88907
    X6        1.38344  -0.00143   0.00000  -0.00741  -0.00760   1.37584
    Y6        1.85069  -0.00192   0.00000   0.00887   0.01028   1.86098
    Z6       11.25221   0.00065   0.00000  -0.00969  -0.01041  11.24179
    X7       -1.35271   0.00143   0.00000   0.00892   0.00853  -1.34418
    Y7       -1.84722   0.00195   0.00000   0.00434   0.00589  -1.84133
    Z7       11.24887   0.00070   0.00000  -0.00397  -0.00395  11.24492
    X8        1.37005  -0.00151   0.00000  -0.00036  -0.00041   1.36964
    Y8        1.84601  -0.00204   0.00000   0.00726   0.00909   1.85509
    Z8       13.88948  -0.00129   0.00000  -0.01325  -0.01397  13.87551
    X9        2.43877   0.00053   0.00000  -0.01329  -0.01347   2.42531
    Y9        3.27205   0.00072   0.00000   0.01470   0.01589   3.28794
    Z9       10.21928  -0.00045   0.00000  -0.01323  -0.01424  10.20504
   X10       -1.35512   0.00151   0.00000   0.01630   0.01606  -1.33905
   Y10       -1.83560   0.00201   0.00000   0.00283   0.00480  -1.83080
   Z10       13.88610  -0.00127   0.00000  -0.00759  -0.00757  13.87854
   X11       -2.40221  -0.00053   0.00000   0.00985   0.00933  -2.39288
   Y11       -3.27112  -0.00072   0.00000  -0.00085   0.00060  -3.27052
   Z11       10.21350  -0.00045   0.00000  -0.00337  -0.00306  10.21044
   X12        0.00308   0.00004   0.00000   0.01181   0.01174   0.01481
   Y12        0.00724  -0.00002   0.00000   0.00421   0.00633   0.01356
   Z12       15.21589  -0.00274   0.00000  -0.01213  -0.01248  15.20341
   X13        2.42543   0.00058   0.00000  -0.00059  -0.00050   2.42493
   Y13        3.27702   0.00078   0.00000   0.01292   0.01485   3.29187
   Z13       14.91186   0.00044   0.00000  -0.01492  -0.01593  14.89593
   X14       -2.41645  -0.00057   0.00000   0.02220   0.02194  -2.39451
   Y14       -3.26403  -0.00078   0.00000  -0.00407  -0.00188  -3.26591
   Z14       14.90598   0.00044   0.00000  -0.00508  -0.00478  14.90120
   X15       -0.00324  -0.00001   0.00000   0.01741   0.01745   0.01421
   Y15        0.00993   0.00001   0.00000   0.00317   0.00561   0.01554
   Z15       17.26674   0.00105   0.00000  -0.00913  -0.00948  17.25726
   X16       -0.11329  -0.00246   0.00000  -0.01444  -0.01551  -0.12880
   Y16       -0.00008  -0.00041   0.00000  -0.02514  -0.02588  -0.02596
   Z16       -2.75898  -0.00161   0.00000   0.01502   0.01468  -2.74430
   X17        1.11456   0.00018   0.00000  -0.01037  -0.01156   1.10300
   Y17       -1.50133   0.00029   0.00000  -0.02921  -0.03014  -1.53147
   Z17       -3.51416   0.00091   0.00000   0.03328   0.03312  -3.48104
   X18        0.64863   0.00019   0.00000  -0.00277  -0.00378   0.64484
   Y18        1.79259  -0.00022   0.00000  -0.02839  -0.02929   1.76329
   Z18       -3.48647   0.00092   0.00000   0.02286   0.02220  -3.46428
   X19       -2.82278   0.00048   0.00000  -0.00689  -0.00804  -2.83083
   Y19       -0.38724  -0.00197   0.00000  -0.01783  -0.01861  -0.40585
   Z19       -3.82780  -0.00052   0.00000   0.01452   0.01440  -3.81340
   X20       -2.81339  -0.00192   0.00000   0.00147   0.00017  -2.81322
   Y20       -0.14368  -0.00057   0.00000   0.00606   0.00483  -0.13886
   Z20       -6.73588   0.00209   0.00000   0.02613   0.02596  -6.70992
   X21       -3.94964  -0.00125   0.00000  -0.01104  -0.01228  -3.96193
   Y21       -2.95487   0.00224   0.00000  -0.01381  -0.01440  -2.96927
   Z21       -3.02230  -0.00173   0.00000  -0.01078  -0.01044  -3.03273
   X22       -5.47460   0.00123   0.00000   0.01449   0.01310  -5.46150
   Y22       -0.53693  -0.00200   0.00000   0.01426   0.01298  -0.52396
   Z22       -7.85494   0.00187   0.00000   0.01479   0.01483  -7.84011
   X23       -1.51939  -0.00013   0.00000   0.00529   0.00387  -1.51552
   Y23       -1.57203   0.00026   0.00000   0.01641   0.01498  -1.55705
   Z23       -7.52354  -0.00012   0.00000   0.01527   0.01525  -7.50829
   X24       -6.61253   0.00221   0.00000   0.00201   0.00068  -6.61184
   Y24       -3.35300   0.00073   0.00000  -0.00495  -0.00558  -3.35858
   Z24       -4.13259  -0.00181   0.00000  -0.02288  -0.02232  -4.15491
   X25       -2.69110  -0.00011   0.00000  -0.00969  -0.01105  -2.70215
   Y25       -4.47273   0.00002   0.00000  -0.01132  -0.01208  -4.48481
   Z25       -3.69156   0.00013   0.00000  -0.01274  -0.01222  -3.70379
   X26       -6.59946   0.00096   0.00000   0.01129   0.00982  -6.58964
   Y26       -3.09622   0.00201   0.00000   0.01739   0.01630  -3.07992
   Z26       -7.03456   0.00188   0.00000  -0.01157  -0.01106  -7.04562
   X27       -6.71948   0.00009   0.00000   0.01216   0.01090  -6.70858
   Y27        0.99609  -0.00006   0.00000   0.01083   0.00973   1.00581
   Z27       -7.20260  -0.00013   0.00000   0.01708   0.01695  -7.18565
   X28       -7.34382   0.00002   0.00000   0.00185   0.00046  -7.34336
   Y28       -5.21254  -0.00005   0.00000  -0.01006  -0.01057  -5.22311
   Z28       -3.57656   0.00009   0.00000  -0.03945  -0.03855  -3.61511
   X29       -8.52064  -0.00006   0.00000   0.01312   0.01160  -8.50905
   Y29       -3.31023  -0.00002   0.00000   0.02627   0.02516  -3.28507
   Z29       -7.78696  -0.00005   0.00000  -0.01939  -0.01874  -7.80570
   X30       -2.06785  -0.00001   0.00000   0.00053  -0.00070  -2.06855
   Y30        1.71350  -0.00004   0.00000   0.01136   0.01000   1.72350
   Z30       -7.28971  -0.00014   0.00000   0.04264   0.04214  -7.24757
   X31       -5.40209   0.00008   0.00000   0.02608   0.02460  -5.37749
   Y31       -0.40961   0.00008   0.00000   0.02889   0.02727  -0.38233
   Z31       -9.92399  -0.00006   0.00000   0.01587   0.01589  -9.90811
   X32       -5.45918  -0.00010   0.00000   0.01044   0.00884  -5.45034
   Y32       -4.63351   0.00004   0.00000   0.02188   0.02060  -4.61291
   Z32       -7.84926  -0.00001   0.00000  -0.02065  -0.01995  -7.86921
   X33       -7.90532   0.00010   0.00000  -0.00195  -0.00315  -7.90847
   Y33       -1.93630  -0.00018   0.00000  -0.01364  -0.01407  -1.95037
   Z33       -3.32744   0.00000   0.00000  -0.01535  -0.01494  -3.34238
   X34       -3.99766  -0.00019   0.00000  -0.02480  -0.02594  -4.02359
   Y34       -3.08186  -0.00023   0.00000  -0.03054  -0.03080  -3.11265
   Z34       -0.95427  -0.00011   0.00000  -0.01238  -0.01200  -0.96627
   X35       -4.03042   0.00039   0.00000  -0.00348  -0.00451  -4.03493
   Y35        1.12022  -0.00024   0.00000  -0.02131  -0.02189   1.09832
   Z35       -3.05285  -0.00010   0.00000   0.02312   0.02282  -3.03002
         Item               Value     Threshold  Converged?
 Maximum Force            0.007439     0.000450     NO 
 RMS     Force            0.001531     0.000300     NO 
 Maximum Displacement     0.042137     0.001800     NO 
 RMS     Displacement     0.015215     0.001200     NO 
 Predicted change in Energy=-1.821557D-04
 GradGradGradGradGradGradGradGradGradGradGradGradGradGradGradGradGradGrad

                          Input orientation:                          
 ---------------------------------------------------------------------
 Center     Atomic      Atomic             Coordinates (Angstroms)
 Number     Number       Type             X           Y           Z
 ---------------------------------------------------------------------
      1          6           0       -0.008903   -0.007431    0.005677
      2          6           0       -0.007254   -0.002063    1.224506
      3          6           0        0.001790    0.001541    2.588706
      4          6           0        0.006989    0.003575    3.809899
      5          6           0        0.008232    0.004750    5.233070
      6          6           0        0.728061    0.984787    5.948902
      7          6           0       -0.711309   -0.974390    5.950558
      8          6           0        0.724784    0.981674    7.342604
      9          1           0        1.283418    1.739904    5.400276
     10          6           0       -0.708595   -0.968819    7.344206
     11          1           0       -1.266257   -1.730686    5.403130
     12          6           0        0.007839    0.007177    8.045296
     13          1           0        1.283220    1.741982    7.882588
     14          1           0       -1.267120   -1.728248    7.885376
     15          1           0        0.007520    0.008225    9.132146
     16          6           0       -0.068157   -0.013736   -1.452221
     17          1           0        0.583681   -0.810419   -1.842087
     18          1           0        0.341237    0.933095   -1.833217
     19          6           0       -1.498010   -0.214766   -2.017966
     20          6           0       -1.488689   -0.073480   -3.550735
     21          6           0       -2.096561   -1.571271   -1.604854
     22          6           0       -2.890099   -0.277265   -4.148806
     23          1           0       -0.801978   -0.823956   -3.973215
     24          6           0       -3.498836   -1.777285   -2.198684
     25          1           0       -1.429915   -2.373258   -1.959960
     26          6           0       -3.487086   -1.629823   -3.728384
     27          1           0       -3.550030    0.532253   -3.802482
     28          1           0       -3.885940   -2.763949   -1.913033
     29          1           0       -4.502793   -1.738385   -4.130597
     30          1           0       -1.094628    0.912038   -3.835250
     31          1           0       -2.845647   -0.202322   -5.243144
     32          1           0       -2.884195   -2.441048   -4.164208
     33          1           0       -4.184983   -1.032091   -1.768714
     34          1           0       -2.129194   -1.647146   -0.511327
     35          1           0       -2.135194    0.581208   -1.603420
 ---------------------------------------------------------------------
                    Distance matrix (angstroms):
                    1          2          3          4          5
     1  C    0.000000
     2  C    1.218841   0.000000
     3  C    2.583067   1.364235   0.000000
     4  C    3.804271   2.585439   1.221205   0.000000
     5  C    5.227435   4.008600   2.644373   1.423172   0.000000
     6  C    6.070381   4.882057   3.575634   2.461312   1.411043
     7  C    6.063826   4.876134   3.572534   2.460648   1.411114
     8  C    7.439564   6.239771   4.907435   3.735225   2.432686
     9  H    5.815924   4.705034   3.545335   2.678322   2.159819
    10  C    7.434235   6.235161   4.905204   3.734828   2.432812
    11  H    5.803710   4.694053   3.539709   2.677164   2.159856
    12  C    8.039650   6.820814   5.456597   4.235399   2.812228
    13  H    8.171643   7.002648   5.718075   4.608429   3.415189
    14  H    8.162963   6.995296   5.714631   4.607828   3.415337
    15  H    9.126498   7.907661   6.543446   5.322250   3.899078
    16  C    1.459115   2.677444   4.041561   5.262684   6.685752
    17  H    2.100042   3.225931   4.542004   5.739347   7.145172
    18  H    2.094927   3.216463   4.531713   5.728917   7.134783
    19  C    2.521023   3.575082   4.849496   6.023014   7.409080
    20  C    3.852557   5.000267   6.318219   7.511453   8.910787
    21  C    3.065571   3.851349   4.945984   6.018688   7.326062
    22  C    5.062987   6.104016   7.337223   8.474254   9.823414
    23  H    4.138510   5.321973   6.662305   7.868679   9.278948
    24  C    4.491238   5.201998   6.191745   7.180901   8.408694
    25  H    3.388236   4.217505   5.327271   6.403538   7.711217
    26  C    5.354729   6.268169   7.398596   8.467718   9.756881
    27  H    5.228089   6.173116   7.331056   8.419040   9.725261
    28  H    5.129450   5.702312   6.559576   7.454262   8.596339
    29  H    6.348229   7.204290   8.274518   9.296452  10.538791
    30  H    4.095967   5.255387   6.580148   7.777349   9.180082
    31  H    5.969524   7.065909   8.335906   9.494077  10.859952
    32  H    5.619407   6.577512   7.739315   8.827315  10.131973
    33  H    4.651670   5.241540   6.130626   7.054513   8.226972
    34  H    2.729761   3.197192   4.107246   5.095208   6.347869
    35  H    2.730715   3.586850   4.740953   5.850353   7.187779
                    6          7          8          9         10
     6  C    0.000000
     7  C    2.431083   0.000000
     8  C    1.393709   2.797560   0.000000
     9  H    1.086100   3.413083   2.158616   0.000000
    10  C    2.797755   1.393662   2.420537   3.883833   0.000000
    11  H    3.413058   1.086107   3.883645   4.306489   2.158519
    12  C    2.422666   2.422515   1.399082   3.409630   1.399062
    13  H    2.149579   3.884529   1.086970   2.482313   3.406703
    14  H    3.884744   2.149592   3.406752   4.970819   1.086990
    15  H    3.406743   3.406575   2.159753   4.307376   2.159668
    16  C    7.510501   7.492505   8.886424   7.201299   8.871272
    17  H    7.996444   7.901215   9.358955   7.710097   9.278095
    18  H    7.791898   8.082914   9.183962   7.339078   9.431040
    19  C    8.358546   8.043214   9.694975   8.160109   9.425605
    20  C    9.812085   9.575517  11.165914   9.544293  10.959467
    21  C    8.459973   7.704507   9.722886   8.453400   9.076071
    22  C   10.800350  10.355205  12.112176  10.614716  11.718641
    23  H   10.201028   9.925327  11.560236   9.939044  11.318734
    24  C    9.585346   8.650150  10.792914   9.642860   9.975260
    25  H    8.859087   8.065328  10.121066   8.857390   9.437174
    26  C   10.874442  10.090413  12.129572  10.837213  11.434998
    27  H   10.658158  10.268890  11.945248  10.464770  11.600674
    28  H    9.856573   8.666998  10.997966  10.024541   9.950602
    29  H   11.677919  10.797625  12.898085  11.679737  12.110296
    30  H    9.952744   9.973343  11.325172   9.572638  11.343142
    31  H   11.808577  11.421490  13.135861  11.580319  12.790461
    32  H   11.272077  10.448971  12.535807  11.239604  11.804418
    33  H    9.368425   8.465039  10.544058   9.433015   9.753696
    34  H    7.538271   6.649733   8.760143   7.620044   8.011718
    35  H    8.086944   7.842826   9.400595   7.879165   9.192267
                   11         12         13         14         15
    11  H    0.000000
    12  C    3.409477   0.000000
    13  H    4.970610   2.159310   0.000000
    14  H    2.482246   2.159350   4.306592   0.000000
    15  H    4.307189   1.086851   2.488920   2.488872   0.000000
    16  C    7.167929   9.497844   9.594134   9.569105  10.584660
    17  H    7.534078   9.937827  10.078363   9.944415  11.019797
    18  H    7.876833   9.927412   9.794820  10.203950  11.009357
    19  C    7.577888  10.177725  10.468288  10.020983  11.253504
    20  C    9.108651  11.692478  11.903792  11.557334  12.771092
    21  C    7.058800  10.002269  10.602458   9.527700  11.054643
    22  C    9.797387  12.536949  12.893735  12.229511  13.596375
    23  H    9.431520  12.074403  12.308215  11.902112  13.156684
    24  C    7.923015  10.973614  11.699801  10.328176  11.994594
    25  H    7.392888  10.384545  11.007818   9.867785  11.435581
    26  C    9.398234  12.390069  12.997675  11.824438  13.427163
    27  H    9.750888  12.381599  12.702937  12.121368  13.425178
    28  H    7.839427  11.045767  11.957333  10.195082  12.034947
    29  H   10.068127  13.101342  13.780693  12.444005  14.117150
    30  H    9.610469  11.965851  11.985437  12.015570  13.045496
    31  H   10.870765  13.592973  13.896499  13.310831  14.657212
    32  H    9.729147  12.783961  13.416049  12.178484  13.825845
    33  H    7.774468  10.722622  11.434349  10.109401  11.725532
    34  H    5.977662   8.973266   9.674118   8.441230  10.015107
    35  H    7.429108   9.900496  10.149744   9.804304  10.962295
                   16         17         18         19         20
    16  C    0.000000
    17  H    1.100723   0.000000
    18  H    1.099660   1.760312   0.000000
    19  C    1.550793   2.172366   2.175901   0.000000
    20  C    2.534807   2.785189   2.704014   1.539296   0.000000
    21  C    2.561960   2.796225   3.502408   1.539166   2.529692
    22  C    3.912082   4.203851   4.155534   2.546037   1.537260
    23  H    2.747793   2.542036   2.995624   2.163001   1.101488
    24  C    3.928978   4.210575   4.714434   2.545079   2.961702
    25  H    2.771196   2.551653   3.753001   2.160345   2.796962
    26  C    4.413812   4.560777   4.981593   2.980661   2.539164
    27  H    4.236187   4.767965   4.379571   2.820164   2.163195
    28  H    4.727736   4.878404   5.616363   3.494504   3.958220
    29  H    5.460230   5.654257   5.989940   3.976600   3.491843
    30  H    2.754910   3.123505   2.463795   2.175989   1.098854
    31  H    4.703309   4.867983   4.803436   3.495434   2.173058
    32  H    4.601824   4.480777   5.217448   3.388834   2.815877
    33  H    4.252702   4.774378   4.934854   2.819570   3.371133
    34  H    2.793060   3.135399   3.808946   2.172572   3.482050
    35  H    2.156261   3.063636   2.511841   1.100648   2.153746
                   21         22         23         24         25
    21  C    0.000000
    22  C    2.962406   0.000000
    23  H    2.800636   2.165630   0.000000
    24  C    1.536701   2.534481   3.366131   0.000000
    25  H    1.101681   3.363981   2.616837   2.166242   0.000000
    26  C    2.538970   1.537063   2.814102   1.536835   2.812822
    27  H    3.371492   1.100349   3.069241   2.812250   4.041258
    28  H    2.172402   3.489123   4.185540   1.097703   2.487348
    29  H    3.492457   2.176231   3.815361   2.177551   3.815403
    30  H    3.485020   2.176345   1.765886   3.961189   3.797670
    31  H    3.958827   1.097801   2.485101   3.489398   4.182888
    32  H    2.815523   2.163845   2.643311   2.163711   2.641634
    33  H    2.163116   2.812708   4.043250   1.100448   3.070131
    34  H    1.096642   3.960658   3.797870   2.177161   1.764871
    35  H    2.152826   2.790313   3.060699   2.788610   3.058334
                   26         27         28         29         30
    26  C    0.000000
    27  H    2.164261   0.000000
    28  H    2.177343   3.814158   0.000000
    29  H    1.097826   2.484192   2.519897   0.000000
    30  H    3.492325   2.484816   4.999922   4.327535   0.000000
    31  H    2.178004   1.763876   4.328254   2.518607   2.507993
    32  H    1.100684   3.068337   2.485065   1.764858   3.814964
    33  H    2.164405   2.643209   1.763402   2.485628   4.195296
    34  H    3.491937   4.195266   2.509618   4.329135   4.320673
    35  H    3.351379   2.615346   3.788277   4.168052   2.484611
                   31         32         33         34         35
    31  H    0.000000
[...]
 02385,-0.00000138,-0.00000088,-0.00000954,0.00000012,0.00000257,0.0000
 0121,0.00000620,0.00000761,0.00000957,0.00000114,-0.00000482,-0.000000
 81,-0.00000225,-0.00000092,-0.00000080,-0.00000393,-0.00000047,-0.0000
 0050,0.00000031,-0.00000308,0.00000122,0.00000042,0.00000036,0.0000037
 1,-0.00000027,-0.00000003,-0.00000044,-0.00000036,-0.00000059,0.000002
 11,-0.00000031,-0.00000037,0.00000007,0.00121452,0.00117097,0.00054207
 ,-0.00006107,-0.00006409,-0.00002070,-0.00105925,-0.00058182,-0.000358
 99,0.01192143,0.03160631,-0.00937106,0.02443099,0.05565001,-0.06420716
 ,-0.00073054,-0.00154202,-0.00696875,-0.00481873,-0.01338204,0.0036419
 3,-0.00522463,-0.01103176,0.00307239,-0.00054501,-0.00019791,-0.000208
 99,-0.00025469,-0.00000780,0.00013278,-0.00287748,0.00023856,-0.001014
 62,0.00053137,0.00038996,0.00031141,0.00009847,-0.00000057,0.00018362,
 -0.00070529,-0.00071779,0.00045639,-0.02416901,-0.06259845,0.07273969,
 -0.00064720,-0.00003580,-0.00001590,0.00005055,0.00001590,-0.00027680,
 0.00004187,0.00000372,0.00005394,0.00000301,-0.00000207,-0.00006152,-0
 .00000368,0.00000025,0.00006431,0.00000357,0.00001089,-0.00002857,-0.0
 0000572,-0.00001462,-0.00003005,0.00000787,0.00000362,0.00000209,0.000
 00018,0.00000355,0.00000500,-0.00000521,-0.00000326,0.00000228,-0.0000
 0108,-0.00000131,0.00000489,-0.00000037,-0.00000025,-0.00002429,-0.000
 00216,-0.00000320,-0.00000553,0.00000170,0.00000379,-0.00000662,-0.000
 00018,0.00000019,-0.00000434,0.00033381,0.00015876,-0.00184431,0.00003
 022,0.00007201,0.00002645,0.00010941,-0.00002007,0.00000518,-0.0061530
 7,-0.00080444,-0.00025269,0.00154596,0.00176933,-0.03316483,-0.0003231
 8,-0.00030864,0.00012718,-0.04945651,0.00026781,0.01697489,0.00103590,
 0.00050258,0.00036924,-0.00099190,-0.00324543,-0.00000042,0.00006850,0
 .00007007,0.00001649,-0.00109315,0.00042034,0.01443165,-0.00129500,-0.
 00145414,0.01950453,0.00028041,-0.00040321,0.00107914,-0.00012282,0.00
 048309,0.00018713,0.00107413,-0.00026517,0.00050104,0.05468745,-0.0000
 9458,-0.00000918,0.00006062,-0.00000193,0.00002875,-0.00007409,0.00002
 705,-0.00002097,0.00001598,-0.00000778,0.00001023,-0.00001781,0.000000
 93,-0.00000136,0.00001590,0.00000068,0.00000157,-0.00000595,-0.0000023
 9,-0.00000515,-0.00000827,0.00000196,0.00000163,0.00000093,0.00000030,
 0.00000104,0.00000101,-0.00000051,-0.00000037,0.00000094,-0.00000045,0
 .00000059,0.00000065,-0.00000009,-0.00000024,-0.00000586,-0.00000034,-
 0.00000044,-0.00000095,0.00000018,0.00000089,-0.00000189,-0.00000006,0
 .00000021,-0.00000067,-0.00011517,0.00038465,-0.00033477,-0.00007913,-
 0.00000889,-0.00002096,0.00006574,0.00000749,0.00000460,-0.00093657,0.
 00026609,-0.00041683,0.00102029,-0.00039321,-0.00358174,-0.00038531,-0
 .00002838,-0.00033555,0.00034714,-0.04984772,0.01239600,0.00001072,0.0
 0011732,0.00050682,-0.00271628,-0.00559637,-0.00030487,0.00008482,0.00
 000725,-0.00001684,-0.00169415,-0.00169259,0.03122723,0.00109185,0.001
 54352,-0.02512907,-0.00012152,-0.00019172,0.00194098,0.00003175,0.0010
 1746,-0.00054128,0.00019387,-0.00003377,-0.00039489,0.00270526,0.05328
 722,-0.00033025,-0.00001272,-0.00002215,-0.00000121,0.00000407,-0.0001
 2652,0.00002829,-0.00000979,0.00003634,-0.00000818,0.00000285,-0.00003
 795,0.00000004,0.00000041,0.00007736,0.00000704,0.00001575,-0.00003585
 ,-0.00000554,-0.00001110,-0.00003153,0.00000636,0.00000633,0.00000193,
 0.00000198,0.00000343,0.00000756,-0.00000812,-0.00000832,0.00000195,-0
 .00000123,-0.00000594,0.00000807,-0.00000014,0.00000007,-0.00002843,-0
 .00000336,-0.00000588,-0.00000830,0.00000345,0.00000500,-0.00000695,0.
 ,-0.00000029,-0.00000778,0.00040516,0.00027497,-0.00076277,-0.00005512
 ,0.00004057,-0.00003242,0.00002845,-0.00003262,-0.00001416,-0.00332696
 ,-0.00047248,0.00111410,0.00121575,0.00024062,-0.01221960,0.00014971,-
 0.00036628,0.00059000,0.01617910,0.01329362,-0.30249300,-0.00034479,0.
 00057160,0.00053636,0.00107690,0.00243641,0.00123077,-0.00004470,0.000
 06920,-0.00001250,0.00054633,-0.00037738,-0.00736697,0.00111612,-0.000
 17311,-0.00992074,-0.00016671,0.00002388,-0.00071816,0.00066405,0.0001
 9134,0.00029813,-0.00026584,-0.00065898,0.00026170,-0.01650234,-0.0154
 7721,0.32858004,0.00002822,-0.00000580,-0.00002196,-0.00000495,0.00001
 385,0.00002582,0.00000568,-0.00000640,-0.00001849,0.00000015,0.0000013
 4,0.00001269,0.00000003,-0.00000029,-0.00002576,-0.00000215,-0.0000044
 4,0.00001118,0.00000349,0.00000280,0.00001080,-0.00000100,-0.00000271,
 -0.00000054,-0.00000179,-0.00000088,-0.00000240,0.00000292,0.00000240,
 -0.00000115,-0.00000094,0.00000312,-0.00000299,0.00000045,-0.00000021,
 0.00000872,0.00000056,0.00000208,0.00000245,-0.00000194,-0.00000130,0.
 00000263,-0.00000041,0.00000044,0.00000265,0.00000093,0.00005385,0.000
 00294,-0.00001583,0.00000469,0.00000784,0.00001856,0.00001384,0.000005
 34,-0.00004625,-0.00016500,-0.00004617,0.00114116,-0.00067237,-0.00033
 097,0.00060097,-0.00065144,-0.00072435,0.00689841,-0.01111608,-0.00541
 625,0.00000096,0.00008770,0.00024066,-0.00152437,0.00103870,0.00090150
 ,0.00045958,0.00006229,-0.00002526,-0.12293366,0.09992901,0.04937094,-
 0.00022766,-0.00304371,0.00034121,-0.00015452,-0.00019914,0.00047222,-
 0.01648249,0.02312883,0.01193375,0.00020150,0.00021035,0.00014037,0.00
 048674,0.00079946,-0.00039500,0.13047255,-0.00004830,0.00001790,0.0000
 1784,0.00002589,-0.00002030,-0.00002377,-0.00002378,0.00001379,0.00000
 858,0.00001015,-0.00000383,-0.00000568,-0.00000136,0.00000085,0.000009
 34,-0.00000068,0.00000161,-0.00000339,-0.00000210,-0.00000112,-0.00000
 421,0.00000019,0.00000143,0.00000032,0.00000179,-0.00000007,0.00000079
 ,-0.00000185,-0.00000006,0.00000051,0.00000163,-0.00000159,0.00000095,
 -0.00000052,0.00000022,-0.00000277,0.00000038,-0.00000100,-0.00000060,
 0.00000127,0.00000020,-0.00000103,0.00000057,-0.00000038,-0.00000095,0
 .00000331,-0.00002408,-0.00009331,-0.00004271,0.00001613,-0.00001271,0
 .00000217,0.00000716,-0.00000961,-0.00024661,0.00004715,0.00011512,0.0
 0153737,0.00056877,-0.00038608,-0.00001413,-0.00013708,-0.00014944,0.0
 1620540,-0.02482605,-0.01074144,-0.00127572,0.00040827,-0.00014694,-0.
 00170489,0.00267932,0.00167847,-0.00046367,0.00004804,-0.00029173,0.09
 921875,-0.18693410,-0.07164173,-0.00324469,-0.00475892,0.00189186,-0.0
 0020443,0.00079902,-0.00045520,-0.00072619,0.00197500,0.00154055,-0.00
 011405,0.00049558,0.00039847,0.00018794,0.00077038,0.00057613,-0.10889
 464,0.20745655,0.00000166,0.00001686,0.00001432,-0.00001551,0.00000129
 ,0.00000761,0.00001477,-0.00000423,-0.00000332,-0.00001012,0.00000381,
 0.00000598,0.00000034,0.00000019,-0.00000077,-0.00000002,0.00000034,0.
 00000049,-0.00000012,0.00000266,0.00000211,-0.00000079,0.00000043,0.00
 000024,0.00000113,-0.00000084,-0.00000002,-0.00000264,0.00000016,0.000
 00060,0.00000301,-0.00000300,0.00000015,-0.00000022,0.00000034,0.00000
 075,0.00000048,-0.00000062,-0.00000010,0.00000124,-0.00000069,0.000000
 44,0.00000057,-0.00000048,-0.00000034,-0.00001758,-0.00007424,0.000028
 45,-0.00003981,0.00000597,0.00000095,-0.00003116,-0.00001078,-0.000001
 97,-0.00013817,0.00015000,-0.00014946,-0.00017880,-0.00067056,-0.00008
 114,0.00132499,-0.00088396,0.00120875,-0.00530719,0.00839951,0.0035418
 9,-0.00008839,-0.00023212,0.00003693,0.01937746,-0.02593978,-0.0154817
 7,-0.00116038,0.00045549,-0.00005369,0.04889045,-0.07143251,-0.0840650
 5,0.00115160,0.00220229,0.00038115,0.00020096,0.00043452,0.00106800,-0
 .00611749,0.00980168,0.00488778,-0.00016909,-0.00000881,-0.00008351,-0
 .00058575,-0.00010282,0.00045717,-0.05696223,0.07645690,0.09478359,0.0
 0004615,-0.00000601,0.00004278,0.00000997,-0.00004088,-0.00001811,-0.0
 0001266,0.00001206,0.00002669,0.00001118,-0.00000758,-0.00001993,0.000
 00078,-0.00000045,0.00001348,0.00000296,0.00000252,-0.00000846,0.00000
 161,-0.00000396,-0.00000749,0.00000060,-0.00000118,-0.00000063,-0.0000
 0250,0.00000188,0.00000137,0.00000290,-0.00000161,-0.00000087,-0.00000
 611,0.00000339,0.00000189,0.00000057,-0.00000040,-0.00000491,-0.000001
 66,0.00000016,-0.00000167,-0.00000146,0.00000170,-0.00000151,-0.000001
 08,0.00000064,-0.00000073,0.00011844,-0.00021742,-0.00024057,0.0003582
 6,-0.00006387,-0.00002505,0.00000945,-0.00011999,-0.00006259,0.0005598
 3,0.00193081,0.00069991,-0.00008563,-0.00026700,-0.00004757,-0.0210722
 1,0.02226902,0.01088906,-0.00032914,0.00040090,0.00020190,0.00018266,0
 .00000343,-0.00020067,-0.13974096,0.10346772,0.05747898,-0.00541615,-0
 .00119651,-0.00269538,-0.00010697,0.00019468,0.00000356,-0.00004963,-0
 .00046418,0.00024029,0.00804969,-0.00815254,-0.00524679,0.00063178,-0.
 00044672,0.00021662,-0.00002587,-0.00004454,0.00008206,0.00009574,-0.0
 0023422,-0.00006915,0.00111559,-0.00002813,-0.00022332,0.15472631,0.00
 002503,0.00000635,-0.00007651,0.00001275,0.00001097,0.00005230,-0.0000
 1129,0.00000212,-0.00003357,-0.00000517,-0.00000014,0.00003031,0.00000
 020,0.00000107,-0.00002847,-0.00000298,-0.00000291,0.00001281,0.000001
 41,0.00001014,0.00001608,-0.00000329,-0.00000070,0.00000012,0.00000154
 ,-0.00000321,-0.00000237,-0.00000418,0.00000242,0.00000047,0.00000727,
 -0.00000518,-0.00000282,-0.00000052,0.00000086,0.00001094,0.00000196,0
 .00000012,0.00000218,0.00000181,-0.00000333,0.00000389,0.00000141,-0.0
 0000097,0.00000151,-0.00009189,0.00027701,0.00001984,-0.00010107,-0.00
 013577,-0.00002269,0.00008421,0.00001269,0.00002322,-0.00070605,0.0006
 6220,0.00024137,-0.00008027,0.00006590,0.00004162,-0.00221269,0.002038
 35,0.00167939,-0.00053368,0.00080807,0.00058475,0.00001095,-0.00016808
 ,-0.00000979,0.10420499,-0.17216078,-0.06446888,-0.00094600,0.00107798
 ,0.00013924,-0.00194689,0.00132195,0.00092007,0.00022485,0.00040482,0.
 00000355,0.01806294,-0.02087083,-0.01118910,-0.00031718,0.00010814,-0.
 00071176,0.00005371,0.00000923,-0.00002911,0.00001822,0.00018339,-0.00
 010884,-0.00059608,0.00118951,0.00067053,-0.11571201,0.18461019,0.0000
 1993,0.00000175,0.00002973,0.00005433,-0.00000151,-0.00002255,-0.00004
 409,0.00000686,0.00000735,0.00002169,-0.00000491,-0.00000868,-0.000002
 14,0.00000074,0.00000539,-0.00000036,0.00000083,-0.00000230,-0.0000014
 7,-0.00000360,-0.00000429,0.00000040,0.00000092,0.00000013,0.00000054,
 0.00000051,0.00000048,0.00000121,0.00000011,-0.00000021,-0.00000146,0.
 00000175,0.00000015,-0.00000039,0.00000003,-0.00000191,0.00000007,-0.0
 0000014,-0.00000023,0.,0.00000041,-0.00000094,0.00000011,0.00000009,-0
 .00000016,-0.00000996,0.00016746,0.00000218,0.00004017,-0.00004799,-0.
 00005413,0.00004539,-0.00003929,-0.00001965,0.00061586,0.00029450,0.00
 011813,-0.00007154,0.00018837,-0.00014550,-0.00951676,0.01012942,0.004
 96409,0.00023402,-0.00152465,0.00118842,-0.00021005,-0.00002100,-0.000
 02591,0.05758671,-0.06403547,-0.08294665,-0.00321320,-0.00053555,-0.00
 027757,0.02102202,-0.02473836,-0.01540956,-0.00009698,0.00123459,0.000
 04396,-0.00574890,0.00560673,0.00316318,-0.00055108,-0.00020550,0.0009
 6218,0.00008313,0.00003981,0.00006819,-0.00054604,0.00010451,0.0003206
 0,0.00034418,0.00108308,-0.00690004,-0.06061146,0.07190181,0.09439468,
 -0.00085809,-0.00054817,-0.00007697,-0.00010471,-0.00000217,-0.0004606
 1,0.00006866,-0.00000437,-0.00005066,-0.00004393,0.00001767,0.00005456
 ,0.00000531,0.,-0.00009569,-0.00000783,-0.00002066,0.00004822,0.000009
 38,0.00002456,0.00004988,-0.00000647,0.00000081,-0.00000013,0.00000011
 ,-0.00000695,-0.00000890,-0.00000042,0.00000159,0.00000060,0.00001020,
 -0.00000019,-0.00001079,0.00000047,0.00000034,0.00003044,0.00000360,0.
 00000404,0.00000993,-0.00000083,-0.00000619,0.00001171,0.00000099,-0.0
 0000043,0.00000673,0.00006460,0.00004872,0.00101290,-0.00006856,-0.000
 01718,0.00004020,0.00016179,0.00005317,-0.00011286,-0.00138002,0.00044
 678,0.01387157,-0.00107576,-0.00308080,0.00013000,-0.04947310,0.000338
 65,0.01451201,-0.00030376,-0.00029986,0.00006018,0.00010187,0.00000035
 ,-0.00051482,0.00173979,0.00189330,-0.03281669,-0.00124907,-0.00137502
 ,0.01970765,-0.00636370,-0.00082482,-0.00073030,0.00005319,0.00007553,
 0.00002002,0.00110018,-0.00028333,0.00048544,-0.00004500,0.00021757,-0
 .00201735,0.00025294,-0.00045536,0.00107078,0.00013690,0.00011931,0.00
 004446,0.00009380,-0.00023602,0.00001171,0.00101631,0.00054023,0.00036
 605,0.05577223,-0.00077074,-0.00033348,-0.00007708,0.00015058,-0.00006
 063,-0.00043485,-0.00001763,-0.00001333,-0.00004466,0.00001470,-0.0000
 0107,0.00004433,0.00000321,-0.00000171,-0.00007932,-0.00000564,-0.0000
 1565,0.00003356,0.00001342,0.00002839,0.00004125,-0.00000945,-0.000007
 10,-0.00000255,-0.00000319,-0.00000439,-0.00000639,0.00000953,-0.00000
 172,-0.00000385,-0.00000530,0.00000574,-0.00000390,0.00000042,0.000001
 26,0.00002905,0.00000139,0.00000401,0.00000667,-0.00000344,-0.00000363
 ,0.00000969,-0.00000091,-0.00000009,0.00000497,0.00043050,0.00086782,0
 .00027056,-0.00011071,-0.00005432,-0.00008800,0.00031453,-0.00003267,-
 0.00005605,-0.00215947,-0.00196569,0.03136901,-0.00274674,-0.00536037,
 -0.00035273,0.00055366,-0.05052261,0.01290665,-0.00035042,-0.00001174,
 -0.00033009,-0.00023110,0.00017581,0.00014139,0.00103942,-0.00034046,-
 0.00372579,0.00104733,0.00154722,-0.02498083,-0.00108850,0.00034794,-0
 .00042273,0.00008825,0.00000432,-0.00001642,0.00019929,-0.00004629,-0.
 00040064,-0.00017858,0.00039650,-0.00037797,-0.00017538,-0.00022909,0.
 00194556,0.00011391,0.00008158,-0.00001700,-0.00007900,0.00011731,0.00
 054523,0.00001211,0.00012537,0.00049888,0.00322873,0.05453293,-0.00037
 494,-0.00049814,-0.00036650,-0.00052030,-0.00051779,0.00019844,-0.0000
 1800,0.00004986,0.00022513,0.00000151,0.00000316,-0.00005680,0.0000080
 1,0.00000162,0.00005069,0.00000931,0.00001162,-0.00002840,0.00000096,0
 .00000582,-0.00001733,-0.00000507,-0.00000379,-0.00000241,0.00000192,0
 .00000174,0.00000622,-0.00000236,-0.00000389,-0.00000212,-0.00000376,-
 0.00000939,0.00001004,0.00000092,0.00000054,-0.00000816,-0.00000260,-0
 .00000428,-0.00000743,0.00000223,0.00000284,-0.00000342,-0.00000046,-0
 .00000086,-0.00000633,-0.00011418,-0.00002053,-0.00019225,0.00000651,0
 .00005402,-0.00002452,0.00009590,0.00009031,0.00006603,0.00114082,0.00
 047182,-0.00844230,0.00056214,0.00223270,0.00118716,0.01512753,0.01440
 562,-0.30584507,0.00025842,-0.00027761,0.00044076,-0.00004089,-0.00010
 540,0.00028767,0.00098181,0.00021401,-0.01126681,0.00092393,0.00001427
 ,-0.00952537,-0.00328769,-0.00047054,0.00088885,-0.00003788,0.00006803
 ,-0.00001055,-0.00021444,-0.00062849,0.00027998,0.00009006,0.00027212,
 -0.00085985,-0.00012768,0.00005452,-0.00063483,-0.00001610,-0.00002624
 ,-0.00005771,0.00007045,-0.00001941,0.00036490,-0.00030779,0.00051341,
 0.00051386,-0.01405028,-0.01633287,0.33235179,0.00048247,0.00030133,0.
 00201801,0.00021161,-0.00017327,-0.00110136,-0.00000081,-0.00001030,0.
 00018385,-0.00001234,-0.00000170,-0.00011954,0.00000756,-0.00000095,0.
 00004362,0.00000219,-0.00000230,-0.00001873,0.00000316,0.00000282,-0.0
 0001675,-0.00000128,-0.00000638,0.00000308,-0.00000521,0.00000312,0.00
 000111,0.00000336,0.00000299,0.00000310,-0.00000449,0.00000109,0.00000
 134,0.00000061,-0.00000017,-0.00000440,-0.00000210,0.00000060,-0.00000
 212,-0.00000125,0.00000096,-0.00000128,-0.00000108,0.00000052,-0.00000
 034,-0.02117940,0.02238619,0.00855974,-0.00521558,-0.00079739,-0.00234
 845,0.00062276,-0.00025515,0.00055388,-0.12540734,0.10164042,0.0501746
 9,-0.00094073,0.00100566,0.00095093,0.00697702,-0.01065040,-0.00479180
 ,0.00052432,-0.00051004,-0.00072217,0.00059020,-0.00035910,0.00002048,
 0.00100742,-0.00064298,-0.00027944,-0.00051202,-0.00292107,0.00042533,
 -0.00000473,-0.00007911,-0.00000629,0.00039967,0.00003122,-0.00007447,
 0.00020981,0.00016200,0.00011268,-0.00001028,0.00003442,-0.00001172,-0
 .00016899,-0.00007791,0.00034681,0.00010730,-0.00011084,0.00005549,-0.
 00013428,0.00007767,0.00006840,-0.00008874,0.00001779,0.00019011,0.000
 38894,0.00071525,-0.00015799,0.14215226,0.00017411,0.00043152,0.000014
 60,-0.00017703,-0.00002006,0.00032008,0.00005949,-0.00002490,-0.000028
 14,-0.00003728,0.00001917,0.00003140,0.00000118,0.00000049,-0.00000314
 ,-0.00000006,-0.00000188,0.00000584,-0.00000488,-0.00000051,0.00000193
 ,-0.00000160,0.00000487,0.00000078,0.00000452,-0.00000144,-0.00000021,
 -0.00000191,-0.00000003,0.00000136,0.00000566,-0.00000374,-0.00000067,
 -0.00000054,0.00000001,0.00000085,0.00000153,-0.00000081,0.00000084,0.
 00000207,-0.00000096,-0.00000032,0.00000129,-0.00000068,-0.00000022,-0
 .00246397,0.00255769,0.00106715,-0.00115829,0.00091470,-0.00023825,0.0
 0041125,0.00065253,0.00030797,0.10254633,-0.18401081,-0.06724870,-0.00
 159450,0.00224799,0.00146095,0.01576256,-0.02530962,-0.01034917,0.0000
 9230,-0.00010831,-0.00020149,-0.00018437,0.00119963,0.00102240,0.00158
 296,0.00046825,-0.00033302,-0.00281737,-0.00476866,0.00174495,-0.00030
 747,0.00004701,0.00006752,-0.00046158,0.00009610,-0.00025228,-0.000129
 92,0.00048823,0.00038198,-0.00003250,0.00000298,-0.00009619,-0.0001803
 7,0.00080283,-0.00047305,-0.00024964,0.00011910,-0.00001833,0.00008471
 ,0.00009438,0.00021724,-0.00129183,0.00042305,-0.00010519,0.00015017,0
 .00076982,0.00045117,-0.10978502,0.20291206,-0.00069166,0.00106856,0.0
 0108254,0.00018069,-0.00018816,-0.00006703,-0.00004085,0.00004219,-0.0
 0002767,0.00002195,-0.00002834,0.00003522,-0.00000044,0.00000335,-0.00
 004190,-0.00000399,-0.00000778,0.00001704,0.00000158,0.00000726,0.0000
 1546,-0.00000733,-0.00000591,-0.00000262,0.00000062,-0.00000089,-0.000
 00240,0.00000793,0.00000690,-0.00000306,-0.00000122,0.00000220,-0.0000
 0280,-0.00000032,0.00000050,0.00002110,0.00000179,0.00000252,0.0000037
 9,-0.00000140,-0.00000250,0.00000339,0.00000013,0.00000007,0.00000292,
 -0.00908225,0.00927143,0.00327214,-0.00274532,0.00007589,-0.00058225,0
 .00074091,-0.00011728,0.00008594,0.05137779,-0.06787740,-0.08150331,0.
 01920270,-0.02499424,-0.01578963,-0.00475783,0.00789111,0.00336982,0.0
 0129681,-0.00085746,0.00106278,0.00008392,0.00049405,-0.00658264,-0.00
 018255,-0.00066161,0.00005187,0.00064207,0.00215995,0.00036367,-0.0001
 6197,0.00013280,-0.00012083,-0.00115899,0.00046744,-0.00011637,-0.0001
 6233,-0.00000766,-0.00009693,-0.00005884,-0.00006603,0.00003346,0.0001
 8130,0.00048483,0.00099599,0.00001066,0.00052238,0.00038141,0.00006515
 ,0.00021111,0.00002891,-0.00010394,-0.00018550,0.00003759,-0.00059900,
 -0.00009309,0.00048664,-0.05405577,0.07224934,0.09358775\\-0.00000394,
 0.00003121,0.00000271,0.00000482,-0.00001759,-0.00000294,-0.00000192,-
 0.00000562,0.00000050,0.00000267,0.00000565,-0.00000188,0.00000054,-0.
 00000298,-0.00000263,0.00000324,0.00000012,0.00000133,-0.00000213,-0.0
 0000026,0.00000254,0.00000152,-0.00000068,-0.00000188,0.00000225,0.000
 00069,-0.00000051,-0.00000398,-0.00000206,-0.00000311,-0.00000353,-0.0
 0000240,-0.00000195,0.00000258,0.00000335,0.00000321,0.00000373,0.0000
 0257,0.00000162,-0.00000220,-0.00000052,0.00000061,0.00000022,0.000000
 72,0.00000050,0.00000274,-0.00001940,-0.00000103,-0.00000220,0.0000003
 0,0.00000157,0.00000175,-0.00000278,0.00000113,0.00000454,-0.00000198,
 -0.00000105,-0.00000005,0.00000114,0.00000005,-0.00000298,0.00000240,0
 .00000142,0.00000111,-0.00000019,-0.00000132,-0.00000119,0.00000024,0.
 00000052,-0.00000236,0.00000039,-0.00000006,-0.00000232,0.00000083,0.0
 0000067,-0.00000280,0.00000371,0.00000078,0.00000185,-0.00000019,-0.00
 000062,-0.00000214,0.00000196,0.00000051,-0.00000087,0.00000095,-0.000
 00054,0.00000136,-0.00000116,-0.00000062,-0.00000010,0.00000086,-0.000
 00027,-0.00000241,0.00000156,0.00000055,0.00000074,0.00000054,-0.00000
 027,-0.00000068,-0.00000045,0.00000118,0.00000212,-0.00000092,-0.00000
 075\\\@


 MY DESCRIPTION OF EXPERIENCE IS NOT WHAT HAPPENS
 TO A MAN.  EXPERIENCE IS WHAT A MAN DOES WITH WHAT
 HAPPENS TO HIM.
                         - CHUCK KNOX, SEATTLE SEAHAWKS, 1985
 Job cpu time:       0 days  3 hours 15 minutes 11.6 seconds.
 Elapsed time:       0 days  0 hours  6 minutes 37.1 seconds.
 File lengths (MBytes):  RWF=    465 Int=      0 D2E=      0 Chk=     12 Scr=      1
 Normal termination of Gaussian 16 at Mon Sep 18 12:00:51 2023.
