 Entering Gaussian System, Link 0=g16
 Input=/home/ubuntu/ML products/molecule_88.gjf
 Output=/home/ubuntu/ML products/molecule_88.log
 Initial command:
 /home/ubuntu/g16/l1.exe "/home/ubuntu/Scratch/Gau-38920.inp" -scrdir="/home/ubuntu/Scratch/"
 Entering Link 1 = /home/ubuntu/g16/l1.exe PID=     38924.
  
 Copyright (c) 1988-2017, Gaussian, Inc.  All Rights Reserved.
  
 This is part of the Gaussian(R) 16 program.  It is based on
 the Gaussian(R) 09 system (copyright 2009, Gaussian, Inc.),
 the Gaussian(R) 03 system (copyright 2003, Gaussian, Inc.),
 the Gaussian(R) 98 system (copyright 1998, Gaussian, Inc.),
 the Gaussian(R) 94 system (copyright 1995, Gaussian, Inc.),
 the Gaussian 92(TM) system (copyright 1992, Gaussian, Inc.),
 the Gaussian 90(TM) system (copyright 1990, Gaussian, Inc.),
 the Gaussian 88(TM) system (copyright 1988, Gaussian, Inc.),
 the Gaussian 86(TM) system (copyright 1986, Carnegie Mellon
 University), and the Gaussian 82(TM) system (copyright 1983,
 Carnegie Mellon University). Gaussian is a federally registered
 trademark of Gaussian, Inc.
  
 This software contains proprietary and confidential information,
 including trade secrets, belonging to Gaussian, Inc.
  
 This software is provided under written license and may be
 used, copied, transmitted, or stored only in accord with that
 written license.
  
 The following legend is applicable only to US Government
 contracts under FAR:
  
                    RESTRICTED RIGHTS LEGEND
  
 Use, reproduction and disclosure by the US Government is
 subject to restrictions as set forth in subparagraphs (a)
 and (c) of the Commercial Computer Software - Restricted
 Rights clause in FAR 52.227-19.
  
 Gaussian, Inc.
 340 Quinnipiac St., Bldg. 40, Wallingford CT 06492
  
  
 ---------------------------------------------------------------
 Warning -- This program may not be used in any manner that
 competes with the business of Gaussian, Inc. or will provide
 assistance to any competitor of Gaussian, Inc.  The licensee
 of this program is prohibited from giving any competitor of
 Gaussian, Inc. access to this program.  By using this program,
 the user acknowledges that Gaussian, Inc. is engaged in the
 business of creating and licensing software in the field of
 computational chemistry and represents and warrants to the
 licensee that it is not a competitor of Gaussian, Inc. and that
 it will not use this program in any manner prohibited above.
 ---------------------------------------------------------------
  

 Cite this work as:
 Gaussian 16, Revision B.01,
 M. J. Frisch, G. W. Trucks, H. B. Schlegel, G. E. Scuseria, 
 M. A. Robb, J. R. Cheeseman, G. Scalmani, V. Barone, 
 G. A. Petersson, H. Nakatsuji, X. Li, M. Caricato, A. V. Marenich, 
 J. Bloino, B. G. Janesko, R. Gomperts, B. Mennucci, H. P. Hratchian, 
 J. V. Ortiz, A. F. Izmaylov, J. L. Sonnenberg, D. Williams-Young, 
 F. Ding, F. Lipparini, F. Egidi, J. Goings, B. Peng, A. Petrone, 
 T. Henderson, D. Ranasinghe, V. G. Zakrzewski, J. Gao, N. Rega, 
 G. Zheng, W. Liang, M. Hada, M. Ehara, K. Toyota, R. Fukuda, 
 J. Hasegawa, M. Ishida, T. Nakajima, Y. Honda, O. Kitao, H. Nakai, 
 T. Vreven, K. Throssell, J. A. Montgomery, Jr., J. E. Peralta, 
 F. Ogliaro, M. J. Bearpark, J. J. Heyd, E. N. Brothers, K. N. Kudin, 
 V. N. Staroverov, T. A. Keith, R. Kobayashi, J. Normand, 
 K. Raghavachari, A. P. Rendell, J. C. Burant, S. S. Iyengar, 
 J. Tomasi, M. Cossi, J. M. Millam, M. Klene, C. Adamo, R. Cammi, 
 J. W. Ochterski, R. L. Martin, K. Morokuma, O. Farkas, 
 J. B. Foresman, and D. J. Fox, Gaussian, Inc., Wallingford CT, 2016.
 
 ******************************************
 Gaussian 16:  EM64L-G16RevB.01 20-Dec-2017
                15-Sep-2023 
 ******************************************
 %nprocshared=30
 Will use up to   30 processors via shared memory.
 %mem=30GB
 %chk=molecule_88.chk
 ----------------------------------------------------------------------
 # opt freq b3lyp/6-31+g(d) geom=connectivity empiricaldispersion=gd3 v
 olume
 ----------------------------------------------------------------------
 1/18=20,19=15,26=3,38=1,57=2/1,3;
 2/9=110,12=2,17=6,18=5,40=1/2;
 3/5=1,6=6,7=11,11=2,25=1,30=1,71=1,74=-5,124=31/1,2,3;
 4//1;
 5/5=2,38=5/2;
 6/7=2,8=2,9=2,10=2,28=1,44=1/1,4;
 7//1,2,3,16;
 1/18=20,19=15,26=3/3(2);
 2/9=110/2;
 99//99;
 2/9=110/2;
 3/5=1,6=6,7=11,11=2,25=1,30=1,71=1,74=-5,124=31/1,2,3;
 4/5=5,16=3,69=1/1;
 5/5=2,38=5/2;
 7//1,2,3,16;
 1/18=20,19=15,26=3/3(-5);
 2/9=110/2;
 6/7=2,8=2,9=2,10=2,19=2,28=1,44=1/1,4;
 99/9=1/99;
 -------------
 ML molecule88
 -------------
 Symbolic Z-matrix:
 Charge =  0 Multiplicity = 1
 C                    -4.74942  -0.23058  -0.40002 
 C                    -4.8202    0.23854  -1.71867 
 C                    -4.55025   1.58484  -1.99888 
 C                    -4.20951   2.46203  -0.96044 
 C                    -4.13873   1.99291   0.35822 
 C                    -4.40868   0.64661   0.63842 
 H                    -5.08036  -0.43121  -2.51155 
 H                    -3.87857   2.66266   1.15109 
 H                    -4.35464   0.28843   1.64524 
 O                    -3.91049   3.9533   -1.27081 
 C                    -3.81752   4.69985  -2.77936 
 C                    -4.13168   3.88761  -3.87731 
 C                    -3.30395   5.98751  -2.98454 
 C                    -3.93225   4.36302  -5.18043 
 C                    -3.10452   6.46292  -4.28767 
 H                    -3.06408   6.60768  -2.14623 
 C                    -3.41867   5.65068  -5.38561 
 H                    -4.17211   3.74285  -6.01874 
 H                    -2.7124    7.44608  -4.44432 
 H                    -4.60429   1.94302  -3.0057 
 H                    -4.5238    2.90445  -3.72065 
 H                    -3.26641   6.01366  -6.38058 
 C                    -5.04607  -1.71003  -0.0921 
 O                    -5.96452  -2.01815   0.71107 
 C                    -4.21589  -2.81622  -0.76941 
 H                    -4.27753  -3.71372  -0.1901 
 H                    -4.59888  -2.99874  -1.75171 
 H                    -3.19445  -2.50479  -0.83702 
 

 GradGradGradGradGradGradGradGradGradGradGradGradGradGradGradGradGradGrad
 Berny optimization.
 Initialization pass.
                           ----------------------------
                           !    Initial Parameters    !
                           ! (Angstroms and Degrees)  !
 --------------------------                            --------------------------
 ! Name  Definition              Value          Derivative Info.                !
 --------------------------------------------------------------------------------
 ! R1    R(1,2)                  1.4014         estimate D2E/DX2                !
 ! R2    R(1,6)                  1.4014         estimate D2E/DX2                !
 ! R3    R(1,23)                 1.54           estimate D2E/DX2                !
 ! R4    R(2,3)                  1.4014         estimate D2E/DX2                !
 ! R5    R(2,7)                  1.07           estimate D2E/DX2                !
 ! R6    R(3,4)                  1.4014         estimate D2E/DX2                !
 ! R7    R(3,20)                 1.07           estimate D2E/DX2                !
 ! R8    R(4,5)                  1.4014         estimate D2E/DX2                !
 ! R9    R(4,10)                 1.5523         estimate D2E/DX2                !
 ! R10   R(5,6)                  1.4014         estimate D2E/DX2                !
 ! R11   R(5,8)                  1.07           estimate D2E/DX2                !
 ! R12   R(6,9)                  1.07           estimate D2E/DX2                !
 ! R13   R(10,11)                1.6857         estimate D2E/DX2                !
 ! R14   R(11,12)                1.4014         estimate D2E/DX2                !
 ! R15   R(11,13)                1.4014         estimate D2E/DX2                !
 ! R16   R(12,14)                1.4014         estimate D2E/DX2                !
 ! R17   R(12,21)                1.07           estimate D2E/DX2                !
 ! R18   R(13,15)                1.4014         estimate D2E/DX2                !
 ! R19   R(13,16)                1.07           estimate D2E/DX2                !
 ! R20   R(14,17)                1.4014         estimate D2E/DX2                !
 ! R21   R(14,18)                1.07           estimate D2E/DX2                !
 ! R22   R(15,17)                1.4014         estimate D2E/DX2                !
 ! R23   R(15,19)                1.07           estimate D2E/DX2                !
 ! R24   R(17,22)                1.07           estimate D2E/DX2                !
 ! R25   R(23,24)                1.2584         estimate D2E/DX2                !
 ! R26   R(23,25)                1.54           estimate D2E/DX2                !
 ! R27   R(25,26)                1.07           estimate D2E/DX2                !
 ! R28   R(25,27)                1.07           estimate D2E/DX2                !
 ! R29   R(25,28)                1.07           estimate D2E/DX2                !
 ! A1    A(2,1,6)              120.0            estimate D2E/DX2                !
 ! A2    A(2,1,23)             120.0            estimate D2E/DX2                !
 ! A3    A(6,1,23)             120.0            estimate D2E/DX2                !
 ! A4    A(1,2,3)              120.0            estimate D2E/DX2                !
 ! A5    A(1,2,7)              120.0            estimate D2E/DX2                !
 ! A6    A(3,2,7)              120.0            estimate D2E/DX2                !
 ! A7    A(2,3,4)              120.0            estimate D2E/DX2                !
 ! A8    A(2,3,20)             120.0            estimate D2E/DX2                !
 ! A9    A(4,3,20)             120.0            estimate D2E/DX2                !
 ! A10   A(3,4,5)              120.0            estimate D2E/DX2                !
 ! A11   A(3,4,10)             120.0            estimate D2E/DX2                !
 ! A12   A(5,4,10)             120.0            estimate D2E/DX2                !
 ! A13   A(4,5,6)              120.0            estimate D2E/DX2                !
 ! A14   A(4,5,8)              120.0            estimate D2E/DX2                !
 ! A15   A(6,5,8)              120.0            estimate D2E/DX2                !
 ! A16   A(1,6,5)              120.0            estimate D2E/DX2                !
 ! A17   A(1,6,9)              120.0            estimate D2E/DX2                !
 ! A18   A(5,6,9)              120.0            estimate D2E/DX2                !
 ! A19   A(4,10,11)            127.9526         estimate D2E/DX2                !
 ! A20   A(10,11,12)           115.5989         estimate D2E/DX2                !
 ! A21   A(10,11,13)           123.9281         estimate D2E/DX2                !
 ! A22   A(12,11,13)           120.0            estimate D2E/DX2                !
 ! A23   A(11,12,14)           120.0            estimate D2E/DX2                !
 ! A24   A(11,12,21)           120.0            estimate D2E/DX2                !
 ! A25   A(14,12,21)           120.0            estimate D2E/DX2                !
 ! A26   A(11,13,15)           120.0            estimate D2E/DX2                !
 ! A27   A(11,13,16)           120.0            estimate D2E/DX2                !
 ! A28   A(15,13,16)           120.0            estimate D2E/DX2                !
 ! A29   A(12,14,17)           120.0            estimate D2E/DX2                !
 ! A30   A(12,14,18)           120.0            estimate D2E/DX2                !
 ! A31   A(17,14,18)           120.0            estimate D2E/DX2                !
 ! A32   A(13,15,17)           120.0            estimate D2E/DX2                !
 ! A33   A(13,15,19)           120.0            estimate D2E/DX2                !
 ! A34   A(17,15,19)           120.0            estimate D2E/DX2                !
 ! A35   A(14,17,15)           120.0            estimate D2E/DX2                !
 ! A36   A(14,17,22)           120.0            estimate D2E/DX2                !
 ! A37   A(15,17,22)           120.0            estimate D2E/DX2                !
 ! A38   A(1,23,24)            120.2269         estimate D2E/DX2                !
 ! A39   A(1,23,25)            119.8865         estimate D2E/DX2                !
 ! A40   A(24,23,25)           119.8865         estimate D2E/DX2                !
 ! A41   A(23,25,26)           109.4712         estimate D2E/DX2                !
 ! A42   A(23,25,27)           109.4712         estimate D2E/DX2                !
 ! A43   A(23,25,28)           109.4712         estimate D2E/DX2                !
 ! A44   A(26,25,27)           109.4713         estimate D2E/DX2                !
 ! A45   A(26,25,28)           109.4712         estimate D2E/DX2                !
 ! A46   A(27,25,28)           109.4712         estimate D2E/DX2                !
 ! D1    D(6,1,2,3)              0.0001         estimate D2E/DX2                !
 ! D2    D(6,1,2,7)           -179.9998         estimate D2E/DX2                !
 ! D3    D(23,1,2,3)          -179.9999         estimate D2E/DX2                !
 ! D4    D(23,1,2,7)             0.0002         estimate D2E/DX2                !
 ! D5    D(2,1,6,5)             -0.0001         estimate D2E/DX2                !
 ! D6    D(2,1,6,9)            179.9998         estimate D2E/DX2                !
 ! D7    D(23,1,6,5)           179.9999         estimate D2E/DX2                !
 ! D8    D(23,1,6,9)            -0.0002         estimate D2E/DX2                !
 ! D9    D(2,1,23,24)         -121.7673         estimate D2E/DX2                !
 ! D10   D(2,1,23,25)           58.2327         estimate D2E/DX2                !
 ! D11   D(6,1,23,24)           58.2327         estimate D2E/DX2                !
 ! D12   D(6,1,23,25)         -121.7673         estimate D2E/DX2                !
 ! D13   D(1,2,3,4)              0.0001         estimate D2E/DX2                !
 ! D14   D(1,2,3,20)          -179.9999         estimate D2E/DX2                !
 ! D15   D(7,2,3,4)            179.9999         estimate D2E/DX2                !
 ! D16   D(7,2,3,20)            -0.0001         estimate D2E/DX2                !
 ! D17   D(2,3,4,5)             -0.0002         estimate D2E/DX2                !
 ! D18   D(2,3,4,10)           179.9998         estimate D2E/DX2                !
 ! D19   D(20,3,4,5)           179.9998         estimate D2E/DX2                !
 ! D20   D(20,3,4,10)           -0.0002         estimate D2E/DX2                !
 ! D21   D(3,4,5,6)              0.0001         estimate D2E/DX2                !
 ! D22   D(3,4,5,8)           -180.0            estimate D2E/DX2                !
 ! D23   D(10,4,5,6)          -179.9999         estimate D2E/DX2                !
 ! D24   D(10,4,5,8)             0.0            estimate D2E/DX2                !
 ! D25   D(3,4,10,11)           -5.2547         estimate D2E/DX2                !
 ! D26   D(5,4,10,11)          174.7453         estimate D2E/DX2                !
 ! D27   D(4,5,6,1)              0.0            estimate D2E/DX2                !
 ! D28   D(4,5,6,9)           -179.9999         estimate D2E/DX2                !
 ! D29   D(8,5,6,1)           -179.9999         estimate D2E/DX2                !
 ! D30   D(8,5,6,9)              0.0002         estimate D2E/DX2                !
 ! D31   D(4,10,11,12)           4.3564         estimate D2E/DX2                !
 ! D32   D(4,10,11,13)        -167.7268         estimate D2E/DX2                !
 ! D33   D(10,11,12,14)       -172.4167         estimate D2E/DX2                !
 ! D34   D(10,11,12,21)          7.5833         estimate D2E/DX2                !
 ! D35   D(13,11,12,14)          0.0002         estimate D2E/DX2                !
 ! D36   D(13,11,12,21)       -179.9998         estimate D2E/DX2                !
 ! D37   D(10,11,13,15)        171.7535         estimate D2E/DX2                !
 ! D38   D(10,11,13,16)         -8.2466         estimate D2E/DX2                !
 ! D39   D(12,11,13,15)          0.0            estimate D2E/DX2                !
 ! D40   D(12,11,13,16)        179.9999         estimate D2E/DX2                !
 ! D41   D(11,12,14,17)         -0.0002         estimate D2E/DX2                !
 ! D42   D(11,12,14,18)        179.9998         estimate D2E/DX2                !
 ! D43   D(21,12,14,17)        179.9998         estimate D2E/DX2                !
 ! D44   D(21,12,14,18)         -0.0002         estimate D2E/DX2                !
 ! D45   D(11,13,15,17)         -0.0001         estimate D2E/DX2                !
 ! D46   D(11,13,15,19)        179.9999         estimate D2E/DX2                !
 ! D47   D(16,13,15,17)        179.9999         estimate D2E/DX2                !
 ! D48   D(16,13,15,19)          0.0            estimate D2E/DX2                !
 ! D49   D(12,14,17,15)          0.0001         estimate D2E/DX2                !
 ! D50   D(12,14,17,22)       -179.9999         estimate D2E/DX2                !
 ! D51   D(18,14,17,15)       -179.9999         estimate D2E/DX2                !
 ! D52   D(18,14,17,22)          0.0001         estimate D2E/DX2                !
 ! D53   D(13,15,17,14)          0.0001         estimate D2E/DX2                !
 ! D54   D(13,15,17,22)       -179.9999         estimate D2E/DX2                !
 ! D55   D(19,15,17,14)       -180.0            estimate D2E/DX2                !
 ! D56   D(19,15,17,22)          0.0            estimate D2E/DX2                !
 ! D57   D(1,23,25,26)         158.2172         estimate D2E/DX2                !
 ! D58   D(1,23,25,27)         -81.7828         estimate D2E/DX2                !
 ! D59   D(1,23,25,28)          38.2172         estimate D2E/DX2                !
 ! D60   D(24,23,25,26)        -21.7828         estimate D2E/DX2                !
 ! D61   D(24,23,25,27)         98.2172         estimate D2E/DX2                !
 ! D62   D(24,23,25,28)       -141.7828         estimate D2E/DX2                !
 --------------------------------------------------------------------------------
 Trust Radius=3.00D-01 FncErr=1.00D-07 GrdErr=1.00D-06 EigMax=2.50D+02 EigMin=1.00D-04
 Number of steps in this run=    147 maximum allowed number of steps=    168.
 GradGradGradGradGradGradGradGradGradGradGradGradGradGradGradGradGradGrad

                          Input orientation:                          
 ---------------------------------------------------------------------
 Center     Atomic      Atomic             Coordinates (Angstroms)
 Number     Number       Type             X           Y           Z
 ---------------------------------------------------------------------
      1          6           0       -4.749416   -0.230579   -0.400021
      2          6           0       -4.820199    0.238538   -1.718672
      3          6           0       -4.550247    1.584841   -1.998879
      4          6           0       -4.209510    2.462026   -0.960435
      5          6           0       -4.138728    1.992910    0.358216
      6          6           0       -4.408682    0.646607    0.638423
      7          1           0       -5.080361   -0.431212   -2.511547
      8          1           0       -3.878568    2.662660    1.151091
      9          1           0       -4.354640    0.288426    1.645243
     10          8           0       -3.910486    3.953296   -1.270814
     11          6           0       -3.817523    4.699853   -2.779363
     12          6           0       -4.131676    3.887607   -3.877310
     13          6           0       -3.303947    5.987511   -2.984541
     14          6           0       -3.932249    4.363019   -5.180435
     15          6           0       -3.104523    6.462923   -4.287666
     16          1           0       -3.064085    6.607679   -2.146234
     17          6           0       -3.418674    5.650677   -5.385613
     18          1           0       -4.172109    3.742850   -6.018741
     19          1           0       -2.712397    7.446079   -4.444324
     20          1           0       -4.604292    1.943023   -3.005698
     21          1           0       -4.523805    2.904453   -3.720651
     22          1           0       -3.266408    6.013665   -6.380578
     23          6           0       -5.046066   -1.710033   -0.092102
     24          8           0       -5.964517   -2.018145    0.711071
     25          6           0       -4.215889   -2.816224   -0.769411
     26          1           0       -4.277526   -3.713723   -0.190104
     27          1           0       -4.598882   -2.998742   -1.751706
     28          1           0       -3.194449   -2.504794   -0.837020
 ---------------------------------------------------------------------
                    Distance matrix (angstroms):
                    1          2          3          4          5
     1  C    0.000000
     2  C    1.401400   0.000000
     3  C    2.427296   1.401400   0.000000
     4  C    2.802800   2.427296   1.401400   0.000000
     5  C    2.427296   2.802800   2.427296   1.401400   0.000000
     6  C    1.401400   2.427296   2.802800   2.427296   1.401400
     7  H    2.146700   1.070000   2.146700   3.396345   3.872800
     8  H    3.396345   3.872800   3.396345   2.146700   1.070000
     9  H    2.146700   3.396345   3.872800   3.396345   2.146700
    10  O    4.355100   3.850660   2.559092   1.552300   2.559092
    11  C    5.553274   4.694012   3.293833   2.910330   4.156335
    12  C    5.425182   4.295286   3.001072   3.247537   4.640001
    13  C    6.887218   6.078827   4.680630   4.164864   5.275199
    14  C    6.679914   5.457435   4.268781   4.636706   6.027993
    15  C    7.913434   6.948831   5.578920   5.319647   6.529535
    16  H    7.256127   6.620627   5.240161   4.461452   5.359405
    17  C    7.824077   6.685954   5.411233   5.511362   6.847577
    18  H    6.905899   5.584874   4.578131   5.218081   6.612790
    19  H    8.912739   7.988783   6.611506   6.262556   7.405125
    20  H    3.396345   2.146700   1.070000   2.146700   3.396345
    21  H    4.572298   3.347069   2.169464   2.813062   4.197184
    22  H    8.772511   7.582857   6.360975   6.548399   7.895490
    23  C    1.540000   2.548270   3.838989   4.342800   3.838989
    24  O    2.430306   3.507953   4.724987   5.093714   4.421150
    25  C    2.665832   3.255436   4.581786   5.281710   4.940168
    26  H    3.521227   4.272164   5.605428   6.223979   5.734595
    27  H    3.084224   3.245005   4.590501   5.531520   5.438759
    28  H    2.789434   3.308511   4.462423   5.070984   4.748641
                    6          7          8          9         10
     6  C    0.000000
     7  H    3.396345   0.000000
     8  H    2.146700   4.942800   0.000000
     9  H    1.070000   4.280590   2.471400   0.000000
    10  O    3.850660   4.704459   2.744520   4.704459   0.000000
    11  C    5.334748   5.290965   4.427454   6.271070   1.685736
    12  C    5.565309   4.627906   5.181638   6.595635   2.616688
    13  C    6.547638   6.676779   5.337441   7.417441   2.728146
    14  C    6.920825   5.605869   6.556091   7.960565   3.931091
    15  C    7.732834   7.388345   6.679913   8.653706   4.006145
    16  H    6.715403   7.331085   5.205662   7.481563   2.920360
    17  C    7.893659   6.928985   7.201962   8.891721   4.478231
    18  H    7.345783   5.527036   7.256685   8.408509   4.759784
    19  H    8.657051   8.449532   7.453169   9.540010   4.868893
    20  H    3.872800   2.471400   4.280590   4.942800   2.744520
    21  H    4.910464   3.591427   4.920231   5.972021   2.734581
    22  H    8.909348   7.732804   8.266197   9.918488   5.547039
    23  C    2.548270   2.736837   4.693509   2.736837   5.895100
    24  O    3.086552   3.699373   5.143417   2.963891   6.618536
    25  C    3.743042   3.077439   5.815521   3.935563   6.794930
    26  H    4.440286   4.099820   6.528111   4.403595   7.751505
    27  H    4.363194   2.720550   6.402856   4.733328   7.002570
    28  H    3.685461   3.265034   5.578816   3.912768   6.512128
                   11         12         13         14         15
    11  C    0.000000
    12  C    1.401400   0.000000
    13  C    1.401400   2.427296   0.000000
    14  C    2.427296   1.401400   2.802800   0.000000
    15  C    2.427296   2.802800   1.401400   2.427296   0.000000
    16  H    2.146700   3.396345   1.070000   3.872800   2.146700
    17  C    2.802800   2.427296   2.427296   1.401400   1.401400
    18  H    3.396345   2.146700   3.872800   1.070000   3.396345
    19  H    3.396345   3.872800   2.146700   3.396345   1.070000
    20  H    2.875821   2.182769   4.248439   3.322273   4.931759
    21  H    2.146700   1.070000   3.396345   2.146700   3.872800
    22  H    3.872800   3.396345   3.396345   2.146700   2.146700
    23  C    7.058139   6.818907   8.405556   8.000855   9.389865
    24  O    7.869194   7.700030   9.210142   8.919597  10.251608
    25  C    7.790380   7.389688   9.123825   8.430843   9.985782
    26  H    8.814994   8.449673  10.142518   9.500335  11.033136
    27  H    7.806085   7.222069   9.162395   8.148380   9.908951
    28  H    7.487847   7.140346   8.760312   8.159439   9.609110
                   16         17         18         19         20
    16  H    0.000000
    17  C    3.396345   0.000000
    18  H    4.942800   2.146700   0.000000
    19  H    2.471400   2.146700   4.280590   0.000000
    20  H    4.986976   4.562498   3.536183   5.994376   0.000000
    21  H    4.280590   3.396345   2.471400   4.942800   1.200826
    22  H    4.280590   1.070000   2.471400   2.471400   5.454344
    23  C    8.793864   9.211391   8.100790  10.402992   4.693509
    24  O    9.538424  10.122337   9.038372  11.257261   5.599593
    25  C    9.593344   9.676430   8.401121  11.003652   5.272786
    26  H   10.574981  10.743506   9.464915  12.045298   6.327173
    27  H    9.736251   9.455719   7.989918  10.950037   5.098389
    28  H    9.206964   9.340861   8.175519  10.595513   5.145279
                   21         22         23         24         25
    21  H    0.000000
    22  H    4.280590   0.000000
    23  C    5.893438  10.117689   0.000000
    24  O    6.778480  11.049038   1.258400   0.000000
    25  C    6.444438  10.504934   1.540000   2.426202   0.000000
    26  H    7.505043  11.574385   2.148263   2.555981   1.070000
    27  H    6.223351  10.218875   2.148263   2.981913   1.070000
    28  H    6.272357  10.163678   2.148263   3.210403   1.070000
                   26         27         28
    26  H    0.000000
    27  H    1.747303   0.000000
    28  H    1.747303   1.747303   0.000000
 Stoichiometry    C14H12O2
 Framework group  C1[X(C14H12O2)]
 Deg. of freedom    78
 Full point group                 C1      NOp   1
 Largest Abelian subgroup         C1      NOp   1
 Largest concise Abelian subgroup C1      NOp   1
                         Standard orientation:                         
 ---------------------------------------------------------------------
 Center     Atomic      Atomic             Coordinates (Angstroms)
 Number     Number       Type             X           Y           Z
 ---------------------------------------------------------------------
      1          6           0       -2.813790    0.064705   -0.044411
      2          6           0       -1.765502   -0.845370   -0.236187
      3          6           0       -0.437599   -0.397707   -0.222325
      4          6           0       -0.157983    0.960030   -0.016685
      5          6           0       -1.206272    1.870104    0.175089
      6          6           0       -2.534175    1.422442    0.161226
      7          1           0       -1.978995   -1.882032   -0.393199
      8          1           0       -0.992779    2.906767    0.332099
      9          1           0       -3.334567    2.117304    0.307648
     10          8           0        1.312907    1.455895   -0.001327
     11          6           0        2.719692    0.531124   -0.087699
     12          6           0        2.529554   -0.843847   -0.280638
     13          6           0        4.001709    1.030669    0.178400
     14          6           0        3.621432   -1.719273   -0.207474
     15          6           0        5.093588    0.155243    0.251561
     16          1           0        4.146884    2.080490    0.325712
     17          6           0        4.903450   -1.219728    0.058625
     18          1           0        3.476257   -2.769094   -0.354783
     19          1           0        6.072437    0.536657    0.454733
     20          1           0        0.362793   -1.092569   -0.368752
     21          1           0        1.550706   -1.225260   -0.483813
     22          1           0        5.737123   -1.888135    0.114486
     23          6           0       -4.273025   -0.427233   -0.059643
     24          8           0       -5.094395    0.051531   -0.884086
     25          6           0       -4.728650   -1.508781    0.937482
     26          1           0       -5.790990   -1.460138    1.055669
     27          1           0       -4.454925   -2.474247    0.566199
     28          1           0       -4.256607   -1.343425    1.883385
 ---------------------------------------------------------------------
 Rotational constants (GHZ):           1.6373936           0.2022176           0.1844383
 Standard basis: 6-31+G(d) (6D, 7F)
 There are   328 symmetry adapted cartesian basis functions of A   symmetry.
 There are   328 symmetry adapted basis functions of A   symmetry.
   328 basis functions,   560 primitive gaussians,   328 cartesian basis functions
    56 alpha electrons       56 beta electrons
       nuclear repulsion energy       936.5483801841 Hartrees.
 NAtoms=   28 NActive=   28 NUniq=   28 SFac= 1.00D+00 NAtFMM=   60 NAOKFM=F Big=F
 Integral buffers will be    131072 words long.
 Raffenetti 2 integral format.
 Two-electron integral symmetry is turned on.
 Nuclear repulsion after empirical dispersion term =      936.5269570240 Hartrees.
 One-electron integrals computed using PRISM.
 NBasis=   328 RedAO= T EigKep=  1.12D-06  NBF=   328
 NBsUse=   327 1.00D-06 EigRej=  3.78D-07 NBFU=   327
 ExpMin= 4.38D-02 ExpMax= 5.48D+03 ExpMxC= 8.25D+02 IAcc=3 IRadAn=         5 AccDes= 0.00D+00
 Harris functional with IExCor=  402 and IRadAn=       5 diagonalized for initial guess.
 HarFok:  IExCor=  402 AccDes= 0.00D+00 IRadAn=         5 IDoV= 1 UseB2=F ITyADJ=14
 ICtDFT=  3500011 ScaDFX=  1.000000  1.000000  1.000000  1.000000
 FoFCou: FMM=F IPFlag=           0 FMFlag=      100000 FMFlg1=           0
         NFxFlg=           0 DoJE=T BraDBF=F KetDBF=T FulRan=T
         wScrn=  0.000000 ICntrl=       500 IOpCl=  0 I1Cent=   200000004 NGrid=           0
         NMat0=    1 NMatS0=      1 NMatT0=    0 NMatD0=    1 NMtDS0=    0 NMtDT0=    0
 Petite list used in FoFCou.
 Requested convergence on RMS density matrix=1.00D-08 within 128 cycles.
 Requested convergence on MAX density matrix=1.00D-06.
 Requested convergence on             energy=1.00D-06.
 No special actions if energy rises.
 SCF Done:  E(RB3LYP) =  -691.104790941     A.U. after   16 cycles
            NFock= 16  Conv=0.72D-08     -V/T= 2.0105

 **********************************************************************

            Population analysis using the SCF Density.

 **********************************************************************

 Orbital symmetries:
       Occupied  (A) (A) (A) (A) (A) (A) (A) (A) (A) (A) (A) (A)
                 (A) (A) (A) (A) (A) (A) (A) (A) (A) (A) (A) (A)
                 (A) (A) (A) (A) (A) (A) (A) (A) (A) (A) (A) (A)
                 (A) (A) (A) (A) (A) (A) (A) (A) (A) (A) (A) (A)
                 (A) (A) (A) (A) (A) (A) (A) (A)
       Virtual   (A) (A) (A) (A) (A) (A) (A) (A) (A) (A) (A) (A)
                 (A) (A) (A) (A) (A) (A) (A) (A) (A) (A) (A) (A)
                 (A) (A) (A) (A) (A) (A) (A) (A) (A) (A) (A) (A)
                 (A) (A) (A) (A) (A) (A) (A) (A) (A) (A) (A) (A)
                 (A) (A) (A) (A) (A) (A) (A) (A) (A) (A) (A) (A)
                 (A) (A) (A) (A) (A) (A) (A) (A) (A) (A) (A) (A)
                 (A) (A) (A) (A) (A) (A) (A) (A) (A) (A) (A) (A)
                 (A) (A) (A) (A) (A) (A) (A) (A) (A) (A) (A) (A)
                 (A) (A) (A) (A) (A) (A) (A) (A) (A) (A) (A) (A)
                 (A) (A) (A) (A) (A) (A) (A) (A) (A) (A) (A) (A)
                 (A) (A) (A) (A) (A) (A) (A) (A) (A) (A) (A) (A)
                 (A) (A) (A) (A) (A) (A) (A) (A) (A) (A) (A) (A)
                 (A) (A) (A) (A) (A) (A) (A) (A) (A) (A) (A) (A)
                 (A) (A) (A) (A) (A) (A) (A) (A) (A) (A) (A) (A)
                 (A) (A) (A) (A) (A) (A) (A) (A) (A) (A) (A) (A)
                 (A) (A) (A) (A) (A) (A) (A) (A) (A) (A) (A) (A)
                 (A) (A) (A) (A) (A) (A) (A) (A) (A) (A) (A) (A)
                 (A) (A) (A) (A) (A) (A) (A) (A) (A) (A) (A) (A)
                 (A) (A) (A) (A) (A) (A) (A) (A) (A) (A) (A) (A)
                 (A) (A) (A) (A) (A) (A) (A) (A) (A) (A) (A) (A)
                 (A) (A) (A) (A) (A) (A) (A) (A) (A) (A) (A) (A)
                 (A) (A) (A) (A) (A) (A) (A) (A) (A) (A) (A) (A)
                 (A) (A) (A) (A) (A) (A) (A)
 The electronic state is 1-A.
 Alpha  occ. eigenvalues --  -19.19123 -19.15711 -10.29899 -10.28652 -10.27912
 Alpha  occ. eigenvalues --  -10.22269 -10.21954 -10.21941 -10.21812 -10.21721
 Alpha  occ. eigenvalues --  -10.21680 -10.21455 -10.21429 -10.21235 -10.21072
 Alpha  occ. eigenvalues --  -10.19767  -1.03131  -0.97676  -0.87904  -0.87064
 Alpha  occ. eigenvalues --   -0.78176  -0.77794  -0.76846  -0.76339  -0.74247
 Alpha  occ. eigenvalues --   -0.64858  -0.63524  -0.62614  -0.61612  -0.57647
 Alpha  occ. eigenvalues --   -0.54420  -0.51787  -0.49171  -0.48620  -0.48036
 Alpha  occ. eigenvalues --   -0.47304  -0.45977  -0.45575  -0.45107  -0.43750
 Alpha  occ. eigenvalues --   -0.43040  -0.42657  -0.40536  -0.39842  -0.39026
 Alpha  occ. eigenvalues --   -0.38654  -0.38072  -0.36147  -0.35151  -0.33451
 Alpha  occ. eigenvalues --   -0.32372  -0.27817  -0.27729  -0.27327  -0.26023
 Alpha  occ. eigenvalues --   -0.23935
 Alpha virt. eigenvalues --   -0.05493  -0.03939  -0.03824  -0.02655  -0.02272
 Alpha virt. eigenvalues --   -0.00750  -0.00184   0.00435   0.01508   0.02170
 Alpha virt. eigenvalues --    0.02489   0.03687   0.04304   0.04602   0.04981
 Alpha virt. eigenvalues --    0.05391   0.06010   0.06503   0.06773   0.07273
 Alpha virt. eigenvalues --    0.07633   0.08255   0.08823   0.08872   0.09361
 Alpha virt. eigenvalues --    0.09464   0.10888   0.11085   0.11757   0.12166
 Alpha virt. eigenvalues --    0.12280   0.12761   0.13346   0.13460   0.13572
 Alpha virt. eigenvalues --    0.13828   0.14673   0.15065   0.15397   0.15975
 Alpha virt. eigenvalues --    0.16327   0.16762   0.17355   0.17579   0.18399
 Alpha virt. eigenvalues --    0.18887   0.19074   0.19769   0.20260   0.20417
 Alpha virt. eigenvalues --    0.20493   0.21460   0.21679   0.21919   0.22502
 Alpha virt. eigenvalues --    0.22820   0.23211   0.23653   0.24296   0.24563
 Alpha virt. eigenvalues --    0.25281   0.25483   0.25843   0.25931   0.26687
 Alpha virt. eigenvalues --    0.27150   0.27498   0.27977   0.28521   0.29186
 Alpha virt. eigenvalues --    0.29365   0.30346   0.30632   0.30959   0.31247
 Alpha virt. eigenvalues --    0.32049   0.32630   0.33037   0.33482   0.33981
 Alpha virt. eigenvalues --    0.34807   0.35352   0.36154   0.36512   0.37062
 Alpha virt. eigenvalues --    0.38643   0.38961   0.39470   0.39792   0.41622
 Alpha virt. eigenvalues --    0.42151   0.43264   0.45538   0.46359   0.49844
 Alpha virt. eigenvalues --    0.55121   0.56908   0.59040   0.60760   0.61864
 Alpha virt. eigenvalues --    0.63629   0.64805   0.66228   0.66318   0.67553
 Alpha virt. eigenvalues --    0.68622   0.68825   0.69855   0.71330   0.71831
 Alpha virt. eigenvalues --    0.72329   0.72824   0.73280   0.73735   0.75102
 Alpha virt. eigenvalues --    0.75856   0.76140   0.76780   0.77101   0.77551
 Alpha virt. eigenvalues --    0.78489   0.79218   0.80491   0.82740   0.82940
 Alpha virt. eigenvalues --    0.84143   0.85947   0.87193   0.89160   0.89501
 Alpha virt. eigenvalues --    0.90369   0.93242   0.93385   0.93605   0.94526
 Alpha virt. eigenvalues --    0.96179   0.98518   0.99784   1.01260   1.02192
 Alpha virt. eigenvalues --    1.03537   1.06537   1.07828   1.09799   1.10995
 Alpha virt. eigenvalues --    1.12093   1.13369   1.14917   1.15518   1.15928
 Alpha virt. eigenvalues --    1.17029   1.18286   1.18546   1.19862   1.20600
 Alpha virt. eigenvalues --    1.21888   1.23218   1.23302   1.24444   1.27393
 Alpha virt. eigenvalues --    1.27918   1.29293   1.30581   1.32490   1.33096
 Alpha virt. eigenvalues --    1.35243   1.37199   1.38141   1.40262   1.41741
 Alpha virt. eigenvalues --    1.42485   1.43068   1.44499   1.45423   1.45914
 Alpha virt. eigenvalues --    1.46481   1.47387   1.47739   1.48688   1.50297
 Alpha virt. eigenvalues --    1.51096   1.55269   1.58969   1.62854   1.66562
 Alpha virt. eigenvalues --    1.68071   1.72177   1.75229   1.76894   1.77686
 Alpha virt. eigenvalues --    1.79779   1.80850   1.82130   1.84135   1.85325
 Alpha virt. eigenvalues --    1.85534   1.89608   1.92384   1.94548   1.94677
 Alpha virt. eigenvalues --    1.96389   1.96877   1.97417   1.99618   2.01692
 Alpha virt. eigenvalues --    2.03017   2.06150   2.07990   2.09198   2.10633
 Alpha virt. eigenvalues --    2.11013   2.12604   2.13167   2.14947   2.15842
 Alpha virt. eigenvalues --    2.17686   2.18885   2.22246   2.24755   2.26321
 Alpha virt. eigenvalues --    2.27254   2.27890   2.27968   2.28610   2.30667
 Alpha virt. eigenvalues --    2.32247   2.35945   2.37527   2.42672   2.43861
 Alpha virt. eigenvalues --    2.47385   2.53405   2.58255   2.59770   2.61273
 Alpha virt. eigenvalues --    2.61874   2.62310   2.63842   2.66413   2.70402
 Alpha virt. eigenvalues --    2.71694   2.72298   2.75568   2.77384   2.78204
 Alpha virt. eigenvalues --    2.79804   2.84235   2.92950   2.96823   3.00439
 Alpha virt. eigenvalues --    3.04548   3.07276   3.10849   3.38520   3.40400
 Alpha virt. eigenvalues --    4.19056   4.21420   4.25039   4.25905   4.26205
 Alpha virt. eigenvalues --    4.28087   4.30139   4.35673   4.37585   4.38339
 Alpha virt. eigenvalues --    4.40964   4.41385   4.45294   4.55487   4.69110
 Alpha virt. eigenvalues --    4.75144
          Condensed to atoms (all electrons):
               1          2          3          4          5          6
     1  C   11.384365  -3.793786   0.787085  -2.539291   0.437065   0.931380
     2  C   -3.793786  16.910008  -5.971677   1.648580   0.854738  -4.252018
     3  C    0.787085  -5.971677  15.745599  -1.974173  -3.157586   0.730800
     4  C   -2.539291   1.648580  -1.974173  11.832200  -2.679179   0.103408
     5  C    0.437065   0.854738  -3.157586  -2.679179  12.272009  -1.275826
     6  C    0.931380  -4.252018   0.730800   0.103408  -1.275826  10.413789
     7  H    0.110889   0.093533   0.091988  -0.002870  -0.050501   0.075184
     8  H    0.010306  -0.047322   0.099976   0.043404   0.281826  -0.092932
     9  H    0.027041   0.023065  -0.008346   0.017185  -0.093241   0.342150
    10  O   -0.018369   0.009912  -0.118326   0.331540  -0.206099   0.034209
    11  C    0.049729  -0.403997   0.458124  -0.665295   0.621430  -0.066469
    12  C   -0.081621   0.276658  -0.565353   0.733700  -0.401536   0.155292
    13  C   -0.013121  -0.472364   0.062651  -0.027754   0.117910  -0.020244
    14  C   -0.013313   0.154013   0.255944  -0.154537  -0.530230   0.057272
    15  C    0.001400   0.022276   0.062019  -0.034295  -0.040462  -0.006706
    16  H    0.000075  -0.000218   0.003470  -0.001255  -0.002812  -0.000213
    17  C   -0.002348  -0.023956   0.000357   0.000502  -0.000153   0.003516
    18  H    0.000174   0.004119  -0.003416  -0.002198  -0.000548   0.000035
    19  H    0.000000   0.000046  -0.000029   0.000393  -0.000052   0.000006
    20  H   -0.001504   0.041386   0.037175   0.067155   0.048718   0.020583
    21  H    0.008084  -0.039135   0.029216  -0.012942  -0.012534   0.011962
    22  H   -0.000005  -0.000111  -0.000322   0.000461   0.000048  -0.000003
    23  C   -1.241664   1.238344  -0.947955  -0.279923   0.311871  -0.915338
    24  O    0.013454  -0.044721  -0.027188  -0.020634  -0.008744  -0.064140
    25  C   -0.314477  -0.211474   0.042236  -0.009921   0.040384   0.091594
    26  H    0.011785  -0.008608  -0.004802  -0.000643   0.000852   0.001502
    27  H   -0.089594   0.074732   0.028754   0.007077  -0.006272  -0.014848
    28  H    0.092582  -0.038604  -0.001560   0.000206   0.006678   0.018854
               7          8          9         10         11         12
     1  C    0.110889   0.010306   0.027041  -0.018369   0.049729  -0.081621
     2  C    0.093533  -0.047322   0.023065   0.009912  -0.403997   0.276658
     3  C    0.091988   0.099976  -0.008346  -0.118326   0.458124  -0.565353
     4  C   -0.002870   0.043404   0.017185   0.331540  -0.665295   0.733700
     5  C   -0.050501   0.281826  -0.093241  -0.206099   0.621430  -0.401536
     6  C    0.075184  -0.092932   0.342150   0.034209  -0.066469   0.155292
     7  H    0.543741   0.000017  -0.000166  -0.000253   0.002248  -0.004044
     8  H    0.000017   0.509458  -0.004766  -0.004418  -0.001253  -0.001249
     9  H   -0.000166  -0.004766   0.507741  -0.000135   0.000300   0.000412
    10  O   -0.000253  -0.004418  -0.000135   8.382116   0.283302  -0.030708
    11  C    0.002248  -0.001253   0.000300   0.283302  10.103685  -0.274195
    12  C   -0.004044  -0.001249   0.000412  -0.030708  -0.274195  10.716072
    13  C    0.000072   0.001805  -0.000097  -0.226623  -3.355308  -0.472010
    14  C    0.002387  -0.000270   0.000050   0.013766  -0.208935  -3.501148
    15  C   -0.000002  -0.000101   0.000003   0.016564   0.187638  -0.757709
    16  H    0.000000   0.000000   0.000000  -0.001854  -0.014204   0.053545
    17  C    0.000140   0.000035  -0.000001  -0.014715  -0.709533  -0.158119
    18  H    0.000000   0.000000   0.000000  -0.000190   0.028655  -0.049270
    19  H    0.000000   0.000000   0.000000  -0.000129   0.034632  -0.016582
    20  H   -0.008370  -0.000194   0.000016  -0.011282   0.034630  -0.003019
    21  H    0.000323   0.000005   0.000000  -0.010927   0.051431   0.076434
    22  H    0.000000   0.000000   0.000000   0.000047  -0.008962   0.046318
    23  C   -0.038344   0.001516  -0.018616   0.000226  -0.051661   0.009428
    24  O   -0.000168   0.000005   0.001489  -0.000006  -0.000176  -0.000114
    25  C    0.002840  -0.000135  -0.000145  -0.000276   0.000872  -0.001562
    26  H   -0.000028   0.000000  -0.000012   0.000000  -0.000011   0.000009
    27  H   -0.000021   0.000000  -0.000006   0.000000   0.000063  -0.000100
    28  H   -0.000064   0.000000   0.000004   0.000000   0.000026   0.000000
              13         14         15         16         17         18
     1  C   -0.013121  -0.013313   0.001400   0.000075  -0.002348   0.000174
     2  C   -0.472364   0.154013   0.022276  -0.000218  -0.023956   0.004119
     3  C    0.062651   0.255944   0.062019   0.003470   0.000357  -0.003416
     4  C   -0.027754  -0.154537  -0.034295  -0.001255   0.000502  -0.002198
     5  C    0.117910  -0.530230  -0.040462  -0.002812  -0.000153  -0.000548
     6  C   -0.020244   0.057272  -0.006706  -0.000213   0.003516   0.000035
     7  H    0.000072   0.002387  -0.000002   0.000000   0.000140   0.000000
     8  H    0.001805  -0.000270  -0.000101   0.000000   0.000035   0.000000
     9  H   -0.000097   0.000050   0.000003   0.000000  -0.000001   0.000000
    10  O   -0.226623   0.013766   0.016564  -0.001854  -0.014715  -0.000190
    11  C   -3.355308  -0.208935   0.187638  -0.014204  -0.709533   0.028655
    12  C   -0.472010  -3.501148  -0.757709   0.053545  -0.158119  -0.049270
    13  C   11.217465  -1.254039   0.017621   0.311641   0.486256  -0.043153
    14  C   -1.254039  10.222605   0.553007  -0.026365   0.359487   0.375118
    15  C    0.017621   0.553007   5.385050  -0.050727   0.427991   0.016165
    16  H    0.311641  -0.026365  -0.050727   0.509497   0.018119   0.000016
    17  C    0.486256   0.359487   0.427991   0.018119   5.359439  -0.031981
    18  H   -0.043153   0.375118   0.016165   0.000016  -0.031981   0.532492
    19  H   -0.040021   0.019054   0.321509  -0.005418  -0.020522  -0.000175
    20  H    0.001665  -0.022867   0.002283   0.000004  -0.004683   0.000317
    21  H    0.049638   0.043143   0.008249  -0.000200   0.009348  -0.009024
    22  H    0.014075  -0.021145  -0.035062  -0.000146   0.298448  -0.004568
    23  C   -0.009076   0.005682   0.000137   0.000003  -0.000014   0.000011
    24  O   -0.000006  -0.000031   0.000000   0.000000   0.000000   0.000000
    25  C    0.000481  -0.000584  -0.000027   0.000000   0.000030   0.000000
    26  H    0.000000   0.000001   0.000000   0.000000   0.000000   0.000000
    27  H    0.000004   0.000005   0.000000   0.000000   0.000001   0.000000
    28  H    0.000000  -0.000001   0.000000   0.000000   0.000000   0.000000
              19         20         21         22         23         24
     1  C    0.000000  -0.001504   0.008084  -0.000005  -1.241664   0.013454
     2  C    0.000046   0.041386  -0.039135  -0.000111   1.238344  -0.044721
     3  C   -0.000029   0.037175   0.029216  -0.000322  -0.947955  -0.027188
     4  C    0.000393   0.067155  -0.012942   0.000461  -0.279923  -0.020634
     5  C   -0.000052   0.048718  -0.012534   0.000048   0.311871  -0.008744
     6  C    0.000006   0.020583   0.011962  -0.000003  -0.915338  -0.064140
     7  H    0.000000  -0.008370   0.000323   0.000000  -0.038344  -0.000168
     8  H    0.000000  -0.000194   0.000005   0.000000   0.001516   0.000005
     9  H    0.000000   0.000016   0.000000   0.000000  -0.018616   0.001489
    10  O   -0.000129  -0.011282  -0.010927   0.000047   0.000226  -0.000006
    11  C    0.034632   0.034630   0.051431  -0.008962  -0.051661  -0.000176
    12  C   -0.016582  -0.003019   0.076434   0.046318   0.009428  -0.000114
    13  C   -0.040021   0.001665   0.049638   0.014075  -0.009076  -0.000006
    14  C    0.019054  -0.022867   0.043143  -0.021145   0.005682  -0.000031
    15  C    0.321509   0.002283   0.008249  -0.035062   0.000137   0.000000
    16  H   -0.005418   0.000004  -0.000200  -0.000146   0.000003   0.000000
    17  C   -0.020522  -0.004683   0.009348   0.298448  -0.000014   0.000000
    18  H   -0.000175   0.000317  -0.009024  -0.004568   0.000011   0.000000
    19  H    0.520361   0.000000   0.000013  -0.004653   0.000000   0.000000
    20  H    0.000000   0.661425  -0.003244   0.000001   0.002580   0.000014
    21  H    0.000013  -0.003244   0.649871  -0.000189  -0.001506  -0.000001
    22  H   -0.004653   0.000001  -0.000189   0.532671   0.000000   0.000000
    23  C    0.000000   0.002580  -0.001506   0.000000   6.882507   0.569755
    24  O    0.000000   0.000014  -0.000001   0.000000   0.569755   8.090142
    25  C    0.000000  -0.000140   0.000015   0.000000   0.098440  -0.126236
    26  H    0.000000   0.000000   0.000000   0.000000  -0.040449  -0.002591
    27  H    0.000000  -0.000002   0.000000   0.000000  -0.052108   0.000894
    28  H    0.000000  -0.000001   0.000000   0.000000  -0.117181   0.006118
              25         26         27         28
     1  C   -0.314477   0.011785  -0.089594   0.092582
     2  C   -0.211474  -0.008608   0.074732  -0.038604
     3  C    0.042236  -0.004802   0.028754  -0.001560
     4  C   -0.009921  -0.000643   0.007077   0.000206
     5  C    0.040384   0.000852  -0.006272   0.006678
     6  C    0.091594   0.001502  -0.014848   0.018854
     7  H    0.002840  -0.000028  -0.000021  -0.000064
     8  H   -0.000135   0.000000   0.000000   0.000000
     9  H   -0.000145  -0.000012  -0.000006   0.000004
    10  O   -0.000276   0.000000   0.000000   0.000000
    11  C    0.000872  -0.000011   0.000063   0.000026
    12  C   -0.001562   0.000009  -0.000100   0.000000
    13  C    0.000481   0.000000   0.000004   0.000000
    14  C   -0.000584   0.000001   0.000005  -0.000001
    15  C   -0.000027   0.000000   0.000000   0.000000
    16  H    0.000000   0.000000   0.000000   0.000000
    17  C    0.000030   0.000000   0.000001   0.000000
    18  H    0.000000   0.000000   0.000000   0.000000
    19  H    0.000000   0.000000   0.000000   0.000000
    20  H   -0.000140   0.000000  -0.000002  -0.000001
    21  H    0.000015   0.000000   0.000000   0.000000
    22  H    0.000000   0.000000   0.000000   0.000000
    23  C    0.098440  -0.040449  -0.052108  -0.117181
    24  O   -0.126236  -0.002591   0.000894   0.006118
    25  C    6.115412   0.393050   0.387650   0.370681
    26  H    0.393050   0.451411  -0.020253  -0.026310
    27  H    0.387650  -0.020253   0.474883  -0.025379
    28  H    0.370681  -0.026310  -0.025379   0.481868
 Mulliken charges:
               1
     1  C    0.243680
     2  C   -0.043418
     3  C    0.345337
     4  C   -0.380900
     5  C   -0.527752
     6  C   -0.282798
     7  H    0.181469
     8  H    0.204289
     9  H    0.206076
    10  O   -0.427371
    11  C   -0.096765
    12  C    0.250472
    13  C   -0.347465
    14  C   -0.328069
    15  C   -0.096818
    16  H    0.207044
    17  C    0.002357
    18  H    0.187424
    19  H    0.191567
    20  H    0.137355
    21  H    0.151972
    22  H    0.183098
    23  C    0.593337
    24  O   -0.387114
    25  C   -0.878707
    26  H    0.245098
    27  H    0.234519
    28  H    0.232083
 Sum of Mulliken charges =   0.00000
 Mulliken charges with hydrogens summed into heavy atoms:
               1
     1  C    0.243680
     2  C    0.138051
     3  C    0.482693
     4  C   -0.380900
     5  C   -0.323463
     6  C   -0.076722
    10  O   -0.427371
    11  C   -0.096765
    12  C    0.402444
    13  C   -0.140421
    14  C   -0.140645
    15  C    0.094749
    17  C    0.185455
    23  C    0.593337
    24  O   -0.387114
    25  C   -0.167007
 Electronic spatial extent (au):  <R**2>=           5587.1926
 Charge=              0.0000 electrons
 Dipole moment (field-independent basis, Debye):
    X=              3.2448    Y=             -2.6792    Z=              2.1350  Tot=              4.7186
 Quadrupole moment (field-independent basis, Debye-Ang):
   XX=            -93.9678   YY=            -84.5409   ZZ=           -100.7645
   XY=              2.1620   XZ=            -10.2464   YZ=              2.3660
 Traceless Quadrupole moment (field-independent basis, Debye-Ang):
   XX=             -0.8767   YY=              8.5502   ZZ=             -7.6735
   XY=              2.1620   XZ=            -10.2464   YZ=              2.3660
 Octapole moment (field-independent basis, Debye-Ang**2):
  XXX=            178.0137  YYY=             -2.0790  ZZZ=              1.1611  XYY=            -10.0601
  XXY=            -24.4976  XXZ=             71.1746  XZZ=             -8.9783  YZZ=             -0.0270
  YYZ=              0.1775  XYZ=              1.9568
 Hexadecapole moment (field-independent basis, Debye-Ang**3):
 XXXX=          -6658.6568 YYYY=           -802.0368 ZZZZ=           -212.9408 XXXY=            129.2189
 XXXZ=           -234.3579 YYYX=            -17.8812 YYYZ=             17.7367 ZZZX=             -2.2519
 ZZZY=             -2.5533 XXYY=          -1109.9839 XXZZ=          -1241.6352 YYZZ=           -192.6546
 XXYZ=             15.3756 YYXZ=             -0.6444 ZZXY=             16.1948
 N-N= 9.365269570240D+02 E-N=-3.477423967397D+03  KE= 6.839531645060D+02
 Evaluate density.
 Using the total density.
 Monte-Carlo method of calculating molar volume:
 based on  0.001 e/bohr**3 density envelope.
 Number of points per bohr**3 =   20 CutOff= 1.00D-04
 Using the SCF density.
 There are       424 points.  Will hold       424 in memory.
 LenV=  4026283160 MDV=  4026531840.
 Box volume = 9590.154 fraction occupied=0.222
 Integrated density= 9.4390056928664123D+01 error=-1.7609943071335877D+01
 Molar volume = 2126.119 bohr**3/mol (189.733 cm**3/mol)
 Recommended a0 for SCRF calculation =  5.15 angstrom (  9.72 bohr)
 Calling FoFJK, ICntrl=      2127 FMM=F ISym2X=0 I1Cent= 0 IOpClX= 0 NMat=1 NMatS=1 NMatT=0.
 ***** Axes restored to original set *****
 -------------------------------------------------------------------
 Center     Atomic                   Forces (Hartrees/Bohr)
 Number     Number              X              Y              Z
 -------------------------------------------------------------------
      1        6          -0.002231112   -0.023525087    0.001114199
      2        6           0.008234985    0.011685701    0.013972199
      3        6          -0.002373489   -0.012522857    0.015063995
      4        6           0.007345921    0.049930074   -0.041111041
      5        6           0.000637695    0.006247866   -0.007738886
      6        6          -0.002973357    0.008699928   -0.017924080
      7        1          -0.002660633   -0.006677612   -0.009792572
      8        1           0.003184050    0.008182071    0.007573918
      9        1           0.000005092   -0.002977658    0.010800322
     10        8          -0.002993681   -0.007407138   -0.023844404
     11        6          -0.002918287   -0.058623195    0.028136436
     12        6           0.002594852    0.016576865   -0.004387922
     13        6          -0.004132710   -0.011536956    0.018446755
     14        6           0.003459307    0.014778482    0.013395535
     15        6          -0.010592214   -0.020439340   -0.000901273
     16        1           0.003671477    0.005849246    0.009940078
     17        6          -0.001427801   -0.004839868    0.011320678
     18        1          -0.003146505   -0.007761763   -0.008526889
     19        1           0.004053422    0.010807201    0.000711378
     20        1          -0.002747682   -0.021328156    0.012689469
     21        1           0.000722362    0.018331852   -0.016652368
     22        1           0.002148422    0.004066075   -0.011057171
     23        6          -0.034704108   -0.006750130    0.028504462
     24        8           0.040644478    0.015717901   -0.030873962
     25        6          -0.011413771    0.024930037    0.015467224
     26        1          -0.004132597   -0.013044682    0.008454921
     27        1          -0.005317557   -0.002947967   -0.018130398
     28        1           0.017063441    0.004579107   -0.004650601
 -------------------------------------------------------------------
 Cartesian Forces:  Max     0.058623195 RMS     0.016154296

 GradGradGradGradGradGradGradGradGradGradGradGradGradGradGradGradGradGrad
 Berny optimization.
 FormGI is forming the generalized inverse of G from B-inverse, IUseBI=4.
 Internal  Forces:  Max     0.167379736 RMS     0.024255868
 Search for a local minimum.
 Step number   1 out of a maximum of  147
 All quantities printed in internal units (Hartrees-Bohrs-Radians)
 Mixed Optimization -- RFO/linear search
 Second derivative matrix not updated -- first step.
 ITU=  0
     Eigenvalues ---    0.00230   0.00230   0.00237   0.00237   0.00237
     Eigenvalues ---    0.01500   0.01744   0.01786   0.02070   0.02070
     Eigenvalues ---    0.02070   0.02070   0.02070   0.02070   0.02070
     Eigenvalues ---    0.02070   0.02070   0.02070   0.02070   0.02070
     Eigenvalues ---    0.02070   0.02070   0.02070   0.07243   0.07243
     Eigenvalues ---    0.16000   0.16000   0.16000   0.16000   0.16000
     Eigenvalues ---    0.16000   0.16000   0.16000   0.16000   0.16000
     Eigenvalues ---    0.16000   0.16000   0.18708   0.22000   0.22000
     Eigenvalues ---    0.22000   0.22981   0.23439   0.24000   0.24759
     Eigenvalues ---    0.25000   0.25000   0.25000   0.25000   0.25000
     Eigenvalues ---    0.27457   0.28519   0.28519   0.37230   0.37230
     Eigenvalues ---    0.37230   0.37230   0.37230   0.37230   0.37230
     Eigenvalues ---    0.37230   0.37230   0.37230   0.37230   0.37230
     Eigenvalues ---    0.41268   0.41268   0.41450   0.41640   0.45389
     Eigenvalues ---    0.45389   0.45389   0.45389   0.45389   0.45389
     Eigenvalues ---    0.45389   0.45389   0.80209
 RFO step:  Lambda=-1.83176966D-01 EMin= 2.30000000D-03
 Linear search not attempted -- first point.
 Maximum step size (   0.300) exceeded in Quadratic search.
    -- Step size scaled by   0.465
 Iteration  1 RMS(Cart)=  0.23722801 RMS(Int)=  0.01362475
 Iteration  2 RMS(Cart)=  0.16270332 RMS(Int)=  0.00405513
 Iteration  3 RMS(Cart)=  0.00987787 RMS(Int)=  0.00013491
 Iteration  4 RMS(Cart)=  0.00001107 RMS(Int)=  0.00013486
 Iteration  5 RMS(Cart)=  0.00000001 RMS(Int)=  0.00013486
 Variable       Old X    -DE/DX   Delta X   Delta X   Delta X     New X
                                 (Linear)    (Quad)   (Total)
    R1        2.64826  -0.00774   0.00000  -0.00572  -0.00573   2.64254
    R2        2.64826  -0.00907   0.00000  -0.00686  -0.00686   2.64140
    R3        2.91018  -0.02226   0.00000  -0.02212  -0.02212   2.88806
    R4        2.64826  -0.00296   0.00000  -0.00200  -0.00200   2.64626
    R5        2.02201   0.01208   0.00000   0.01012   0.01012   2.03213
    R6        2.64826   0.00411   0.00000   0.00323   0.00324   2.65150
    R7        2.02201  -0.01894   0.00000  -0.01587  -0.01587   2.00614
    R8        2.64826  -0.00558   0.00000  -0.00402  -0.00401   2.64425
    R9        2.93342  -0.04358   0.00000  -0.04431  -0.04431   2.88911
   R10        2.64826  -0.00744   0.00000  -0.00560  -0.00560   2.64266
   R11        2.02201   0.01151   0.00000   0.00964   0.00964   2.03165
   R12        2.02201   0.01116   0.00000   0.00935   0.00935   2.03136
   R13        3.18558  -0.05101   0.00000  -0.06411  -0.06411   3.12147
   R14        2.64826  -0.00297   0.00000  -0.00214  -0.00215   2.64612
   R15        2.64826  -0.01214   0.00000  -0.00898  -0.00898   2.63928
   R16        2.64826  -0.00174   0.00000  -0.00114  -0.00114   2.64712
   R17        2.02201  -0.01955   0.00000  -0.01638  -0.01638   2.00563
   R18        2.64826  -0.00479   0.00000  -0.00363  -0.00363   2.64463
   R19        2.02201   0.01200   0.00000   0.01005   0.01005   2.03206
   R20        2.64826  -0.00911   0.00000  -0.00655  -0.00655   2.64171
   R21        2.02201   0.01188   0.00000   0.00996   0.00996   2.03196
   R22        2.64826  -0.00940   0.00000  -0.00689  -0.00688   2.64138
   R23        2.02201   0.01131   0.00000   0.00948   0.00948   2.03148
   R24        2.02201   0.01197   0.00000   0.01003   0.01003   2.03203
   R25        2.37803  -0.05322   0.00000  -0.02514  -0.02514   2.35289
   R26        2.91018  -0.01226   0.00000  -0.01218  -0.01218   2.89800
   R27        2.02201   0.01576   0.00000   0.01320   0.01320   2.03521
   R28        2.02201   0.01905   0.00000   0.01596   0.01596   2.03797
   R29        2.02201   0.01792   0.00000   0.01501   0.01501   2.03702
    A1        2.09440  -0.00638   0.00000  -0.00754  -0.00756   2.08684
    A2        2.09440   0.00526   0.00000   0.00599   0.00600   2.10039
    A3        2.09440   0.00112   0.00000   0.00155   0.00156   2.09595
    A4        2.09440   0.00522   0.00000   0.00593   0.00591   2.10031
    A5        2.09440  -0.00136   0.00000  -0.00127  -0.00126   2.09313
    A6        2.09440  -0.00386   0.00000  -0.00466  -0.00465   2.08974
    A7        2.09440   0.00269   0.00000   0.00347   0.00347   2.09786
    A8        2.09440  -0.01779   0.00000  -0.02403  -0.02403   2.07036
    A9        2.09440   0.01510   0.00000   0.02057   0.02057   2.11496
   A10        2.09440  -0.01380   0.00000  -0.01465  -0.01464   2.07976
   A11        2.09440   0.10270   0.00000   0.11024   0.11024   2.20463
   A12        2.09440  -0.08889   0.00000  -0.09559  -0.09560   1.99879
   A13        2.09440   0.00981   0.00000   0.01088   0.01089   2.10529
   A14        2.09440  -0.00631   0.00000  -0.00735  -0.00735   2.08704
   A15        2.09440  -0.00350   0.00000  -0.00353  -0.00354   2.09086
   A16        2.09440   0.00246   0.00000   0.00192   0.00192   2.09632
   A17        2.09440  -0.00057   0.00000  -0.00007  -0.00007   2.09432
   A18        2.09440  -0.00188   0.00000  -0.00185  -0.00185   2.09255
   A19        2.23319   0.16738   0.00000   0.17983   0.17983   2.41302
   A20        2.01758   0.10513   0.00000   0.11396   0.11404   2.13162
   A21        2.16295  -0.09782   0.00000  -0.10530  -0.10541   2.05754
   A22        2.09440  -0.00668   0.00000  -0.00707  -0.00707   2.08733
   A23        2.09440   0.00063   0.00000   0.00082   0.00081   2.09520
   A24        2.09440   0.01373   0.00000   0.01864   0.01864   2.11303
   A25        2.09440  -0.01436   0.00000  -0.01946  -0.01946   2.07493
   A26        2.09440   0.00504   0.00000   0.00527   0.00527   2.09966
   A27        2.09440  -0.00338   0.00000  -0.00380  -0.00380   2.09060
   A28        2.09440  -0.00166   0.00000  -0.00147  -0.00147   2.09293
   A29        2.09440   0.00426   0.00000   0.00515   0.00515   2.09954
   A30        2.09440  -0.00341   0.00000  -0.00431  -0.00431   2.09009
   A31        2.09440  -0.00085   0.00000  -0.00084  -0.00084   2.09355
   A32        2.09440   0.00325   0.00000   0.00335   0.00335   2.09774
   A33        2.09440  -0.00405   0.00000  -0.00496  -0.00496   2.08944
   A34        2.09440   0.00080   0.00000   0.00161   0.00161   2.09600
   A35        2.09440  -0.00650   0.00000  -0.00752  -0.00752   2.08688
   A36        2.09440   0.00343   0.00000   0.00401   0.00401   2.09840
   A37        2.09440   0.00306   0.00000   0.00351   0.00351   2.09790
   A38        2.09836   0.00045   0.00000   0.00049   0.00049   2.09884
   A39        2.09241  -0.00727   0.00000  -0.00781  -0.00781   2.08460
   A40        2.09241   0.00681   0.00000   0.00732   0.00732   2.09974
   A41        1.91063  -0.00303   0.00000  -0.00396  -0.00396   1.90667
   A42        1.91063   0.00043   0.00000   0.00020   0.00020   1.91083
   A43        1.91063   0.00370   0.00000   0.00526   0.00526   1.91590
   A44        1.91063   0.00000   0.00000  -0.00049  -0.00049   1.91014
   A45        1.91063   0.00178   0.00000   0.00320   0.00320   1.91383
   A46        1.91063  -0.00288   0.00000  -0.00421  -0.00421   1.90643
    D1        0.00000  -0.00045   0.00000  -0.00103  -0.00103  -0.00103
    D2       -3.14159  -0.00004   0.00000  -0.00008  -0.00008   3.14152
    D3       -3.14159  -0.00073   0.00000  -0.00167  -0.00167   3.13993
    D4        0.00000  -0.00031   0.00000  -0.00072  -0.00071  -0.00071
    D5        0.00000  -0.00014   0.00000  -0.00033  -0.00032  -0.00033
    D6        3.14159  -0.00029   0.00000  -0.00067  -0.00066   3.14093
    D7        3.14159   0.00013   0.00000   0.00031   0.00031  -3.14128
    D8        0.00000  -0.00002   0.00000  -0.00003  -0.00003  -0.00003
    D9       -2.12524  -0.00287   0.00000  -0.00722  -0.00722  -2.13246
   D10        1.01635  -0.00264   0.00000  -0.00664  -0.00663   1.00972
   D11        1.01635  -0.00314   0.00000  -0.00786  -0.00786   1.00849
   D12       -2.12524  -0.00291   0.00000  -0.00727  -0.00728  -2.13251
   D13        0.00000   0.00065   0.00000   0.00149   0.00149   0.00149
   D14       -3.14159   0.00014   0.00000   0.00033   0.00034  -3.14125
   D15        3.14159   0.00024   0.00000   0.00054   0.00054  -3.14105
   D16        0.00000  -0.00027   0.00000  -0.00062  -0.00060  -0.00061
   D17        0.00000  -0.00026   0.00000  -0.00059  -0.00059  -0.00059
   D18        3.14159  -0.00019   0.00000  -0.00043  -0.00042   3.14117
   D19        3.14159   0.00025   0.00000   0.00057   0.00059  -3.14101
   D20        0.00000   0.00032   0.00000   0.00074   0.00076   0.00075
   D21        0.00000  -0.00034   0.00000  -0.00077  -0.00077  -0.00076
   D22       -3.14159   0.00003   0.00000   0.00007   0.00007  -3.14152
   D23       -3.14159  -0.00041   0.00000  -0.00093  -0.00091   3.14068
   D24        0.00000  -0.00004   0.00000  -0.00009  -0.00008  -0.00008
   D25       -0.09171   0.00121   0.00000   0.00304   0.00304  -0.08867
   D26        3.04988   0.00128   0.00000   0.00320   0.00320   3.05308
   D27        0.00000   0.00054   0.00000   0.00122   0.00123   0.00123
   D28       -3.14159   0.00068   0.00000   0.00157   0.00157  -3.14002
   D29       -3.14159   0.00017   0.00000   0.00038   0.00039  -3.14120
   D30        0.00000   0.00032   0.00000   0.00072   0.00073   0.00073
   D31        0.07603   0.01136   0.00000   0.02805   0.02773   0.10377
   D32       -2.92738   0.00536   0.00000   0.01390   0.01422  -2.91317
   D33       -3.00924   0.00356   0.00000  -0.00113  -0.00198  -3.01121
   D34        0.13235   0.00556   0.00000   0.00501   0.00436   0.13672
   D35        0.00000   0.00105   0.00000   0.00354   0.00365   0.00366
   D36       -3.14159   0.00305   0.00000   0.00967   0.00999  -3.13160
   D37        2.99766   0.01147   0.00000   0.01771   0.01703   3.01469
   D38       -0.14393   0.01046   0.00000   0.01705   0.01651  -0.12742
   D39        0.00000  -0.00263   0.00000  -0.00554  -0.00551  -0.00551
   D40        3.14159  -0.00365   0.00000  -0.00621  -0.00604   3.13555
   D41        0.00000   0.00122   0.00000   0.00104   0.00087   0.00087
   D42        3.14159   0.00049   0.00000   0.00102   0.00099  -3.14060
   D43        3.14159  -0.00078   0.00000  -0.00509  -0.00533   3.13626
   D44        0.00000  -0.00151   0.00000  -0.00511  -0.00521  -0.00521
   D45        0.00000   0.00195   0.00000   0.00297   0.00286   0.00285
   D46        3.14159   0.00051   0.00000   0.00125   0.00126  -3.14033
   D47        3.14159   0.00296   0.00000   0.00364   0.00338  -3.13821
   D48        0.00000   0.00152   0.00000   0.00191   0.00179   0.00179
   D49        0.00000  -0.00190   0.00000  -0.00361  -0.00354  -0.00354
   D50       -3.14159  -0.00080   0.00000  -0.00099  -0.00091   3.14069
   D51       -3.14159  -0.00117   0.00000  -0.00359  -0.00366   3.13793
   D52        0.00000  -0.00006   0.00000  -0.00097  -0.00103  -0.00103
   D53        0.00000   0.00032   0.00000   0.00161   0.00169   0.00169
   D54       -3.14159  -0.00079   0.00000  -0.00102  -0.00094   3.14065
   D55       -3.14159   0.00176   0.00000   0.00333   0.00328  -3.13831
   D56        0.00000   0.00065   0.00000   0.00071   0.00065   0.00065
   D57        2.76141   0.00162   0.00000   0.00310   0.00310   2.76451
   D58       -1.42738   0.00002   0.00000   0.00019   0.00019  -1.42718
   D59        0.66702  -0.00097   0.00000  -0.00161  -0.00161   0.66540
   D60       -0.38018   0.00185   0.00000   0.00368   0.00368  -0.37650
   D61        1.71421   0.00025   0.00000   0.00078   0.00078   1.71499
   D62       -2.47458  -0.00074   0.00000  -0.00103  -0.00103  -2.47560
         Item               Value     Threshold  Converged?
 Maximum Force            0.167380     0.000450     NO 
 RMS     Force            0.024256     0.000300     NO 
 Maximum Displacement     1.397155     0.001800     NO 
 RMS     Displacement     0.392513     0.001200     NO 
 Predicted change in Energy=-7.384523D-02
 GradGradGradGradGradGradGradGradGradGradGradGradGradGradGradGradGradGrad

                          Input orientation:                          
 ---------------------------------------------------------------------
 Center     Atomic      Atomic             Coordinates (Angstroms)
 Number     Number       Type             X           Y           Z
 ---------------------------------------------------------------------
      1          6           0       -4.751757   -0.359871   -0.317730
      2          6           0       -4.900315   -0.077336   -1.679178
      3          6           0       -4.658883    1.214007   -2.164049
      4          6           0       -4.263828    2.235008   -1.286431
      5          6           0       -4.116072    1.945049    0.074479
      6          6           0       -4.358830    0.655731    0.558580
      7          1           0       -5.202285   -0.854314   -2.358525
      8          1           0       -3.813726    2.722325    0.752913
      9          1           0       -4.243114    0.446338    1.606567
     10          8           0       -3.964513    3.686439   -1.662123
     11          6           0       -3.854987    4.608434   -3.028288
     12          6           0       -4.184306    4.107061   -4.293560
     13          6           0       -3.275390    5.874292   -2.917397
     14          6           0       -3.928500    4.871416   -5.439228
     15          6           0       -3.018310    6.636006   -4.062930
     16          1           0       -3.026412    6.264574   -1.946827
     17          6           0       -3.343329    6.136019   -5.327090
     18          1           0       -4.184128    4.482193   -6.408435
     19          1           0       -2.570813    7.608707   -3.966728
     20          1           0       -4.780249    1.398274   -3.202468
     21          1           0       -4.633798    3.152005   -4.404261
     22          1           0       -3.146659    6.721528   -6.207307
     23          6           0       -5.017326   -1.768648    0.211903
     24          8           0       -5.870316   -1.954667    1.099639
     25          6           0       -4.223899   -2.950436   -0.358741
     26          1           0       -4.242644   -3.764182    0.346500
     27          1           0       -4.671169   -3.269337   -1.286802
     28          1           0       -3.204296   -2.651427   -0.540307
 ---------------------------------------------------------------------
                    Distance matrix (angstroms):
                    1          2          3          4          5
     1  C    0.000000
     2  C    1.398370   0.000000
     3  C    2.427882   1.400341   0.000000
     4  C    2.812447   2.430288   1.403112   0.000000
     5  C    2.422928   2.789335   2.416624   1.399279   0.000000
     6  C    1.397770   2.416228   2.795427   2.430474   1.398437
     7  H    2.147625   1.075357   2.147338   3.402058   3.864686
     8  H    3.395013   3.864433   3.390867   2.144527   1.075102
     9  H    2.147466   3.391500   3.870365   3.401353   2.146990
    10  O    4.335871   3.878404   2.616677   1.528851   2.463979
    11  C    5.730216   4.986908   3.593785   2.972266   4.097432
    12  C    6.006888   4.985663   3.623507   3.543124   4.874291
    13  C    6.913951   6.292491   4.919333   4.108704   5.009692
    14  C    7.367079   6.290671   4.963557   4.930397   6.244979
    15  C    8.122417   7.368390   5.974554   5.350611   6.350457
    16  H    7.036622   6.618381   5.312285   4.266699   4.891966
    17  C    8.323098   7.371380   5.996809   5.691409   6.880284
    18  H    7.801569   6.608184   5.377848   5.593847   6.962033
    19  H    9.031609   8.350732   6.964329   6.239146   7.127146
    20  H    3.378403   2.124207   1.061602   2.153605   3.387990
    21  H    5.389520   4.233881   2.962265   3.270875   4.667322
    22  H    9.349315   8.354868   6.997682   6.752181   7.950808
    23  C    1.528296   2.539767   3.830125   4.340740   3.823962
    24  O    2.409041   3.491002   4.707411   5.082077   4.397284
    25  C    2.644115   3.233543   4.559708   5.267925   4.915799
    26  H    3.505671   4.257786   5.590928   6.217491   5.717109
    27  H    3.067667   3.224180   4.568379   5.519397   5.417660
    28  H    2.774059   3.286252   4.437785   5.055349   4.726192
                    6          7          8          9         10
     6  C    0.000000
     7  H    3.391335   0.000000
     8  H    2.146092   4.939787   0.000000
     9  H    1.074948   4.281783   2.468443   0.000000
    10  O    3.777856   4.757678   2.604736   4.610879   0.000000
    11  C    5.361281   5.666164   4.225706   6.241439   1.651810
    12  C    5.956962   5.421797   5.246114   6.943763   2.673891
    13  C    6.363146   7.021353   4.867841   7.131999   2.614824
    14  C    7.343764   6.625499   6.555484   8.326074   3.958786
    15  C    7.675873   7.986215   6.256351   8.482648   3.919071
    16  H    6.285818   7.455366   4.522830   6.925232   2.758236
    17  C    8.105918   7.818750   6.988635   9.014304   4.451775
    18  H    7.950574   6.776188   7.383715   8.973955   4.817566
    19  H    8.486418   9.007424   6.906271   9.228095   4.757919
    20  H    3.856741   2.442234   4.281626   4.931685   2.876420
    21  H    5.562084   4.534182   5.239617   6.603281   2.872784
    22  H    9.167359   8.742546   8.055016  10.081510   5.526242
    23  C    2.536024   2.734469   4.680831   2.729589   5.863306
    24  O    3.064558   3.689978   5.120941   2.944417   6.563649
    25  C    3.723456   3.057794   5.795191   3.924396   6.768619
    26  H    4.426524   4.087225   6.513364   4.395026   7.721637
    27  H    4.348465   2.694997   6.387148   4.728748   7.001646
    28  H    3.671212   3.244609   5.560668   3.909522   6.481122
                   11         12         13         14         15
    11  C    0.000000
    12  C    1.400264   0.000000
    13  C    1.396648   2.417242   0.000000
    14  C    2.426354   1.400796   2.791405   0.000000
    15  C    2.425192   2.794333   1.399480   2.415868   0.000000
    16  H    2.144503   3.391568   1.075321   3.866718   2.148469
    17  C    2.807098   2.427365   2.424817   1.397935   1.397757
    18  H    3.398480   2.147888   3.866665   1.075269   3.391082
    19  H    3.395793   3.869329   2.146095   3.391804   1.075015
    20  H    3.345381   2.980462   4.730814   4.217971   5.592732
    21  H    2.149659   1.061334   3.386279   2.127199   3.855460
    22  H    3.882404   3.402144   3.399690   2.150381   2.149917
    23  C    7.246864   7.450978   8.440461   8.786994   9.638904
    24  O    8.010969   8.286963   9.174029   9.650017  10.420447
    25  C    8.024905   8.080385   9.237002   9.331665  10.347672
    26  H    9.035495   9.137288  10.221976  10.399370  11.362481
    27  H    8.109143   7.980530   9.392177   9.168754  10.418956
    28  H    7.701884   7.792591   8.851186   9.006500   9.934780
                   16         17         18         19         20
    16  H    0.000000
    17  C    3.397520   0.000000
    18  H    4.941977   2.147415   0.000000
    19  H    2.468657   2.148529   4.282501   0.000000
    20  H    5.322917   5.387484   4.488222   6.635901   0.000000
    21  H    4.279107   3.379536   2.447104   4.930470   2.131038
    22  H    4.286602   1.075306   2.476170   2.477676   6.327298
    23  C    8.553157   9.796248   9.143091  10.553728   4.662996
    24  O    9.215458  10.637091  10.032326  11.314280   5.562247
    25  C    9.427216  10.393439   9.583546  11.280327   5.225667
    26  H   10.359272  11.446064  10.659985  12.277686   6.287699
    27  H    9.697232  10.322200   9.303469  11.398480   5.046610
    28  H    9.028012  10.007588   9.288892  10.835682   5.096156
                   21         22         23         24         25
    21  H    0.000000
    22  H    4.266621   0.000000
    23  C    6.757876  10.806884   0.000000
    24  O    7.609204  11.665596   1.245098   0.000000
    25  C    7.333078  11.353989   1.533554   2.414356   0.000000
    26  H    8.399784  12.413851   2.144856   2.547720   1.076986
    27  H    7.138177  11.240680   2.148956   2.976812   1.078446
    28  H    7.117122  10.953104   2.152254   3.206642   1.077943
                   26         27         28
    26  H    0.000000
    27  H    1.759597   0.000000
    28  H    1.761482   1.758062   0.000000
 Stoichiometry    C14H12O2
 Framework group  C1[X(C14H12O2)]
 Deg. of freedom    78
 Full point group                 C1      NOp   1
 Largest Abelian subgroup         C1      NOp   1
 Largest concise Abelian subgroup C1      NOp   1
                         Standard orientation:                         
 ---------------------------------------------------------------------
 Center     Atomic      Atomic             Coordinates (Angstroms)
 Number     Number       Type             X           Y           Z
 ---------------------------------------------------------------------
      1          6           0       -2.965316    0.047275   -0.051070
      2          6           0       -2.046567   -0.992615   -0.224185
      3          6           0       -0.671707   -0.726989   -0.236779
      4          6           0       -0.205076    0.586178   -0.073771
      5          6           0       -1.129911    1.621768    0.100060
      6          6           0       -2.502884    1.356344    0.110967
      7          1           0       -2.395938   -2.001912   -0.349294
      8          1           0       -0.779756    2.630481    0.225498
      9          1           0       -3.203082    2.161052    0.243931
     10          8           0        1.257024    1.032899   -0.064175
     11          6           0        2.756945    0.342725   -0.112891
     12          6           0        2.938242   -1.032031   -0.307613
     13          6           0        3.856195    1.146203    0.198073
     14          6           0        4.215056   -1.595249   -0.186116
     15          6           0        5.130925    0.581924    0.321345
     16          1           0        3.721316    2.203178    0.342736
     17          6           0        5.313503   -0.790657    0.130533
     18          1           0        4.349048   -2.651338   -0.337534
     19          1           0        5.970251    1.208985    0.562143
     20          1           0        0.001518   -1.536867   -0.370434
     21          1           0        2.120930   -1.662841   -0.553598
     22          1           0        6.293036   -1.224242    0.224361
     23          6           0       -4.465902   -0.242200   -0.039481
     24          8           0       -5.219401    0.319021   -0.856511
     25          6           0       -5.035296   -1.228845    0.987217
     26          1           0       -6.087265   -1.038178    1.117242
     27          1           0       -4.894400   -2.237704    0.633100
     28          1           0       -4.525898   -1.108965    1.929610
 ---------------------------------------------------------------------
 Rotational constants (GHZ):           1.9150641           0.1840647           0.1719612
 Standard basis: 6-31+G(d) (6D, 7F)
 There are   328 symmetry adapted cartesian basis functions of A   symmetry.
 There are   328 symmetry adapted basis functions of A   symmetry.
   328 basis functions,   560 primitive gaussians,   328 cartesian basis functions
    56 alpha electrons       56 beta electrons
       nuclear repulsion energy       926.4443078503 Hartrees.
 NAtoms=   28 NActive=   28 NUniq=   28 SFac= 1.00D+00 NAtFMM=   60 NAOKFM=F Big=F
 Integral buffers will be    131072 words long.
 Raffenetti 2 integral format.
 Two-electron integral symmetry is turned on.
 Nuclear repulsion after empirical dispersion term =      926.4234936722 Hartrees.
 One-electron integrals computed using PRISM.
 NBasis=   328 RedAO= T EigKep=  1.25D-06  NBF=   328
 NBsUse=   327 1.00D-06 EigRej=  6.80D-07 NBFU=   327
 Initial guess from the checkpoint file:  "molecule_88.chk"
 B after Tr=     0.000000    0.000000    0.000000
         Rot=    0.999746    0.021937    0.001909   -0.004773 Ang=   2.58 deg.
 ExpMin= 4.38D-02 ExpMax= 5.48D+03 ExpMxC= 8.25D+02 IAcc=3 IRadAn=         5 AccDes= 0.00D+00
 Harris functional with IExCor=  402 and IRadAn=       5 diagonalized for initial guess.
 HarFok:  IExCor=  402 AccDes= 0.00D+00 IRadAn=         5 IDoV= 1 UseB2=F ITyADJ=14
 ICtDFT=  3500011 ScaDFX=  1.000000  1.000000  1.000000  1.000000
 FoFCou: FMM=F IPFlag=           0 FMFlag=      100000 FMFlg1=           0
         NFxFlg=           0 DoJE=T BraDBF=F KetDBF=T FulRan=T
         wScrn=  0.000000 ICntrl=       500 IOpCl=  0 I1Cent=   200000004 NGrid=           0
         NMat0=    1 NMatS0=      1 NMatT0=    0 NMatD0=    1 NMtDS0=    0 NMtDT0=    0
 Petite list used in FoFCou.
 Requested convergence on RMS density matrix=1.00D-08 within 128 cycles.
 Requested convergence on MAX density matrix=1.00D-06.
 Requested convergence on             energy=1.00D-06.
[...]
 0.00001631,-0.00112656,-0.00106755,-0.00064513,0.00035812,-0.00093170,
 0.00310119,-0.00454234,0.00031253,-0.00129375,0.00045580,0.00016650,-0
 .00021380,0.00008353,0.00014587,0.00001001,-0.00002947,-0.04649192,-0.
 03767062,0.06694834,-0.00001580,-0.00002831,0.00001884,0.00001953,0.00
 003676,-0.00000353,0.00003429,-0.00002637,-0.00000129,0.00001525,0.000
 07496,-0.00006251,0.00001157,0.00002094,-0.00000248,0.00000928,-0.0000
 0912,-0.00000523,0.00000302,0.00000244,-0.00000143,-0.00000596,-0.0000
 0144,-0.00000367,-0.00000114,0.00000100,-0.00000023,0.00001856,0.00045
 433,0.00022798,-0.00140670,-0.00040907,-0.00057115,-0.00288679,-0.0049
 1074,-0.00061686,-0.00125169,-0.00328505,-0.00371339,-0.00019842,-0.00
 935846,0.02581261,0.00776555,0.00901945,-0.02023085,0.00034492,0.00034
 934,-0.00102420,-0.06308832,-0.02762358,0.04133518,-0.00024368,0.00185
 902,0.00026805,-0.00024813,0.00175363,0.00082007,-0.00003137,-0.000015
 75,0.00000229,-0.00003277,-0.00054274,0.00125759,0.06119304,0.00000998
 ,-0.00004099,0.00000746,-0.00000359,0.00001579,-0.00001699,-0.00002186
 ,-0.00003508,0.00003944,-0.00002755,0.00003366,0.00005652,-0.00001683,
 -0.00005328,-0.00000138,-0.00001067,0.00002218,0.00001112,-0.00000199,
 -0.00001175,0.00000082,0.00000119,0.00000350,-0.00000268,0.00000144,-0
 .00000250,0.00000050,0.00064820,-0.00081402,-0.00005422,-0.00040929,-0
 .00017806,-0.00069304,-0.00507669,0.00370479,0.00095513,-0.00308620,0.
 00506392,0.00059191,-0.00126265,-0.00282112,0.01495198,0.00078113,0.00
 454764,-0.00530506,-0.00008039,0.00033777,-0.00021385,-0.02752476,-0.0
 8065206,0.10060987,0.00164514,-0.00262975,-0.00122177,0.00193737,-0.00
 266965,-0.00087790,-0.00001278,0.00004632,-0.00000396,-0.00010573,-0.0
 0001380,0.00079596,0.03261886,0.07612474,0.00001563,0.00010665,-0.0000
 2267,-0.00001328,-0.00005811,0.00001836,-0.00003122,0.00009828,0.00002
 602,-0.00001130,-0.00039319,0.00010366,0.00000054,0.00007022,-0.000047
 71,0.00000405,-0.00003453,-0.00000781,-0.00000262,0.00000650,0.0000025
 1,-0.00000186,-0.00000224,0.00000734,0.00000125,0.00000246,-0.00000069
 ,0.00033473,0.00015511,-0.00024873,-0.00064461,-0.00057830,0.00064361,
 0.00011610,0.00154490,0.00185744,-0.00445708,-0.00003452,-0.00090234,-
 0.00086658,0.00063579,-0.00106893,0.00629379,0.00919416,-0.01637021,0.
 00036135,0.00053576,-0.00079884,0.04144000,0.10049947,-0.29150135,0.00
 088840,-0.00085445,0.00043983,0.00020026,-0.00123242,0.00040587,0.0000
 1653,-0.00002016,-0.00001586,-0.00013889,0.00004835,-0.00011244,-0.043
 50772,-0.10962943,0.30759619,-0.07920029,0.00876718,0.00960927,-0.0029
 1670,-0.01400666,0.00249190,0.00475856,0.00041163,0.00528407,-0.001410
 54,-0.00124478,0.00185064,0.00453806,0.00424994,0.00310162,0.00476010,
 0.00555345,-0.00826270,-0.00340634,-0.00033278,-0.00129816,0.00051904,
 0.00088119,-0.00000834,-0.00341020,0.00075958,-0.00017807,-0.00008920,
 0.00164983,-0.00091622,-0.00054112,-0.00042047,0.00068419,0.00013204,0
 .00002259,-0.00014178,0.00004743,0.00007785,-0.00010880,-0.00001961,-0
 .00000297,-0.00004324,0.00000320,-0.00001216,0.00006030,-0.00002128,-0
 .00002466,0.00001037,-0.00003788,0.00002102,-0.00002966,0.00000119,-0.
 00000189,-0.00003490,0.00001917,0.00000007,-0.00001529,0.00077272,-0.0
 0045163,0.00036922,0.00002277,-0.00001645,0.00002283,0.00000396,-0.000
 00129,-0.00001862,0.34171928,0.00198644,-0.18722306,0.00707497,-0.0083
 7112,-0.00577536,0.01785632,0.00025607,0.01041399,0.00010493,-0.000868
 54,-0.01103496,0.00085392,0.00333992,0.00476285,-0.00819697,0.00279988
 ,-0.04240607,-0.00152134,0.00091871,-0.00007641,-0.00259194,-0.0001620
 8,-0.00010940,0.00041026,-0.00084408,0.00036797,0.00157363,0.00269996,
 0.01195541,-0.00514739,-0.00192134,-0.00234293,0.00579444,0.00009639,0
 .00047985,-0.00123544,0.00008776,0.00030553,-0.00086808,-0.00018034,-0
 .00017902,0.00034180,-0.00005514,0.00008845,0.00002110,-0.00013527,-0.
 00017975,0.00007822,0.00026107,0.00016722,-0.00033558,-0.00008249,0.00
 007348,-0.00020316,0.00011494,0.00012119,-0.00012873,0.00032064,0.0009
 6318,-0.00058338,0.00029768,-0.00011965,0.00020429,0.00004473,0.000059
 61,-0.00014144,0.01993553,0.52173692,0.00999338,-0.00727538,-0.0948121
 5,0.00224244,0.03021472,-0.01011490,0.00512321,-0.00183138,-0.00372285
 ,0.00209053,0.00393617,-0.00432070,0.00343945,-0.00847104,0.00045144,-
 0.00787878,-0.00783744,0.01848307,-0.00135625,0.00022287,-0.00106245,0
 .00009133,-0.00174439,0.00056079,-0.00004579,-0.00193927,-0.00326325,-
 0.00150836,-0.00455250,0.00195654,0.00065173,0.00086045,-0.00218098,-0
 .00001580,-0.00020977,0.00046732,-0.00004289,-0.00011459,0.00038084,0.
 00006707,0.00005294,-0.00010816,0.00002531,-0.00005948,-0.00000827,0.0
 0004150,0.00007414,-0.00002718,-0.00008059,-0.00006751,0.00011506,0.00
 001356,-0.00000767,0.00007403,-0.00004551,-0.00003787,0.00005461,0.000
 30388,0.00105312,0.00014558,-0.00010481,0.00005647,-0.00005299,-0.0000
 2049,-0.00000769,0.00004964,-0.25537269,-0.07141089,0.76563061,0.01031
 793,-0.01945703,0.01931896,0.00429623,0.00011336,-0.00130936,-0.001125
 74,-0.00170226,-0.00088849,0.00001151,0.00221570,-0.00032918,-0.000478
 17,-0.00158435,0.00036766,-0.00146877,0.00472563,0.00274543,0.00064125
 ,0.00026022,0.00006265,0.00010210,-0.00020722,0.00006196,0.00026296,-0
 .00046843,-0.00109338,-0.00030843,-0.00215959,0.00079599,0.00039630,0.
 00043068,-0.00097212,-0.00006321,-0.00010003,0.00019800,-0.00001350,-0
 .00006710,0.00014844,0.00003395,0.00001865,-0.00003718,0.00001654,-0.0
 0001038,-0.00002251,0.00002060,0.00004161,-0.00000887,-0.00001976,-0.0
 0002667,0.00005107,0.00000541,-0.00000541,0.00004202,-0.00002073,-0.00
 001230,0.00002175,-0.00041876,-0.00021903,-0.00009566,-0.00005383,0.00
 003264,-0.00002693,-0.00000909,-0.00000307,0.00002418,-0.17245597,-0.0
 4661875,0.22578378,0.15443546,-0.02235184,-0.01616395,0.05036907,0.002
 71547,-0.00590163,-0.00472649,-0.00081519,-0.00373353,0.00164969,-0.00
 042685,0.00389808,0.00109567,-0.00095814,0.00081671,0.00218593,-0.0007
 1747,-0.00088948,0.00160326,-0.00027588,0.00030483,0.00070020,0.000070
 84,-0.00002052,-0.00013961,-0.00071843,-0.00211255,0.00167750,-0.00088
 412,-0.00420419,0.00202569,0.00064243,0.00084533,-0.00220265,-0.000020
 28,-0.00021225,0.00045977,-0.00000581,-0.00013213,0.00033958,0.0000664
 5,0.00006118,-0.00016893,0.00002665,-0.00002835,-0.00001222,0.00005097
 ,0.00007683,-0.00002826,-0.00010906,-0.00006616,0.00013091,0.00003304,
 -0.00002365,0.00008053,-0.00004984,-0.00004694,0.00005178,-0.00011879,
 -0.00075994,0.00023829,-0.00013795,0.00005857,-0.00008350,-0.00001980,
 -0.00002429,0.00006049,-0.05151260,-0.13069848,0.11456519,0.06035590,0
 .14190323,0.01970528,0.04446097,-0.02709872,-0.00167510,0.00053797,0.0
 0711248,-0.00076911,0.00400679,0.00011976,-0.00040755,-0.00517449,0.00
 039409,0.00006031,0.00319045,-0.00149865,0.00325918,-0.00987617,-0.005
 84823,0.00005190,-0.00049959,0.00044898,0.00003333,0.00044873,0.000000
 58,-0.00102538,0.00116691,0.00188818,0.00102976,0.00493894,-0.00171256
 ,-0.00074686,-0.00089688,0.00220856,0.00004356,0.00027271,-0.00046828,
 -0.00000446,0.00008160,-0.00035199,-0.00008804,-0.00006560,0.00015576,
 -0.00003995,0.00005835,-0.00000367,-0.00004019,-0.00008498,0.00002469,
 0.00011201,0.00007815,-0.00011047,-0.00001923,0.00000973,-0.00008008,0
 .00005094,0.00004151,-0.00005656,-0.00010495,0.00044833,-0.00027065,0.
 00013703,-0.00007756,0.00005110,0.00002388,0.00000900,-0.00005811,0.22
 629912,0.10426222,-0.55358908,-0.27881425,-0.13848350,0.62486088,0.014
 08861,0.00045113,0.00206771,-0.00098310,0.00007085,-0.00010661,-0.0011
 7065,0.00004427,-0.00056805,0.00011574,-0.00018170,0.00033534,-0.00024
 620,-0.00000369,-0.00092378,0.00168662,-0.00182011,0.00112227,0.001349
 21,-0.00024397,0.00054832,-0.00028965,-0.00013845,-0.00011286,0.000129
 25,-0.00020531,-0.00000865,0.00022006,0.00029097,-0.00012964,-0.000054
 07,-0.00005453,0.00016790,-0.00000697,0.00001434,-0.00003899,0.0000016
 1,0.00001215,-0.00001562,-0.00000012,-0.00001424,0.00000548,-0.0000071
 8,0.00000614,-0.00000056,-0.00000188,-0.00001040,-0.00000018,0.0000130
 7,0.00000328,-0.00001453,-0.00000551,0.00000796,-0.00000718,0.00000184
 ,0.00000063,-0.00000195,-0.00000043,-0.00000379,-0.00000381,0.00000314
 ,0.00000104,0.00001197,0.00000078,0.00000307,-0.00000348,-0.09302875,0
 .01974555,0.00867007,0.00937342,0.01189465,0.03182153,0.52730608,0.009
 70470,-0.01966806,-0.01695994,0.00007486,-0.00264290,-0.00006647,0.000
 12519,-0.00012893,-0.00038130,0.00033666,0.00075786,-0.00057820,0.0004
 3505,-0.00107558,-0.00083201,-0.00132507,-0.00280401,0.00327705,0.0000
 7711,-0.00199139,0.00018707,-0.00005243,-0.00037611,0.00011921,0.00003
 101,0.00013417,-0.00006617,-0.00028102,-0.00108222,0.00064019,0.000175
 76,0.00027825,-0.00065695,-0.00000931,-0.00003809,0.00013712,-0.000008
 01,-0.00005898,0.00010838,0.00001474,0.00000995,-0.00004621,0.00000174
 ,-0.00000070,-0.00001414,0.00001750,0.00002016,-0.00001083,-0.00002391
 ,-0.00001350,0.00004582,0.00001231,-0.00000909,0.00002391,-0.00001448,
 -0.00001629,0.00001533,-0.00003314,-0.00002958,0.00005750,-0.00003760,
 0.00001218,-0.00003217,-0.00000468,-0.00001130,0.00001773,0.02184835,-
 0.15916331,-0.03897627,0.00229102,0.01639293,-0.00395870,0.03162576,0.
 53644936,0.00118212,0.00231226,0.01234807,-0.00013125,0.00004619,-0.00
 071194,-0.00059366,-0.00021156,-0.00027820,0.00039855,0.00043620,-0.00
 043437,-0.00096892,-0.00006288,0.00146583,0.00106202,0.00444945,-0.000
 53969,0.00050825,0.00082357,0.00044292,-0.00012071,0.00027845,-0.00012
 976,-0.00003750,0.00040099,0.00014479,-0.00012024,-0.00059177,0.000311
 58,0.00010512,0.00009515,-0.00026302,-0.00000565,-0.00000833,0.0000518
 4,-0.00001587,-0.00000959,0.00004393,0.00000609,0.00000872,-0.00000623
 ,-0.00000267,-0.00000391,-0.00000310,0.00000924,0.00000396,-0.00000607
 ,-0.00000584,-0.00000572,0.00001389,0.00000391,-0.00000199,0.00000672,
 -0.00000555,-0.00000633,0.00000444,-0.00001057,0.00001855,0.00000654,-
 0.00000968,0.00000425,-0.00000698,-0.00000157,-0.00000398,0.00000678,0
 .00848656,-0.03444445,-0.10243119,0.03273565,-0.02417135,-0.04143975,0
 .00108396,-0.06709882,0.53374313,0.00035774,0.00097906,0.00212600,-0.0
 0011744,-0.00003989,0.00048076,0.00022806,-0.00002915,-0.00006007,-0.0
 0001487,-0.00003646,0.00006213,-0.00019734,0.00008512,0.00003506,0.000
 44577,0.00049725,-0.00014834,-0.00024217,-0.00014238,-0.00036299,-0.00
 003689,0.00004432,-0.00003424,0.00006521,-0.00000272,0.00001620,-0.000
 01497,-0.00000306,-0.00004242,0.00000380,0.00000770,0.00000568,0.00000
 067,-0.00000367,-0.00000106,0.00000305,-0.00000246,-0.00000138,-0.0000
 0066,0.00000030,-0.00000024,0.00000080,0.00000141,-0.00000088,-0.00000
 011,0.00000152,0.00000045,0.00000042,-0.00000078,-0.00000110,0.0000001
 5,0.00000019,0.00000006,-0.00000052,0.00000030,0.00000011,0.00000220,0
 .00001541,-0.00000206,-0.00000088,0.00000036,-0.00000035,-0.00000012,0
 .,0.00000049,0.00095325,0.01134015,-0.00517524,-0.00050512,-0.00052680
 ,-0.00108857,-0.05712806,-0.04292841,0.02023563,0.05650365,0.00193483,
 -0.00159398,-0.00375575,0.00032756,0.00055123,-0.00074808,-0.00003542,
 0.00002821,0.00008941,0.00008793,0.00031334,-0.00017128,0.00014699,-0.
 00030591,-0.00028175,-0.00036460,-0.00085768,0.00088922,-0.00004180,0.
 00020624,0.00002878,-0.00001236,-0.00012997,0.00003753,0.00002678,-0.0
 0000245,-0.00005069,-0.00009265,-0.00032967,0.00020225,0.00005565,0.00
 007829,-0.00019703,-0.00000163,-0.00001627,0.00004149,-0.00000142,-0.0
 0001704,0.00003252,0.00000424,0.00000418,-0.00001423,0.00000164,-0.000
 00110,-0.00000326,0.00000462,0.00000734,-0.00000246,-0.00000731,-0.000
 00596,0.00001266,0.00000285,-0.00000173,0.00000743,-0.00000477,-0.0000
 0412,0.00000483,-0.00000876,-0.00003553,0.00001801,-0.00001266,0.00000
 540,-0.00000873,-0.00000185,-0.00000229,0.00000565,-0.00500667,-0.0253
 1166,0.01295062,-0.00064146,0.00461442,0.00078906,-0.04066309,-0.26279
 502,0.10674287,0.04381986,0.28453833,0.00202634,-0.00175992,-0.0026850
 3,0.00044469,0.00002993,-0.00082376,-0.00006676,0.00009363,0.00031469,
 0.00005736,0.00003056,-0.00009500,0.00002291,-0.00017385,-0.00021928,-
 0.00006015,-0.00091674,0.00062179,-0.00037098,0.00025219,0.00033211,-0
 .00002751,-0.00008660,0.00001689,0.00001397,0.00001173,0.00004320,-0.0
 0003222,0.00003914,0.00001763,-0.00000227,-0.00001056,0.00001933,-0.00
 000297,0.00000677,-0.00000150,-0.00000114,0.00000237,-0.00000399,0.000
 00034,0.00000215,0.00000617,-0.00000252,0.00000138,0.00000218,0.000000
 14,-0.00000272,-0.00000035,0.00000022,0.00000001,-0.00000029,0.0000001
 5,-0.00000212,-0.00000058,0.00000168,0.00000003,-0.00000054,0.00000038
 ,-0.00002922,0.00000562,0.00000576,-0.00000486,-0.00000093,0.00000091,
 0.00000013,-0.00000179,-0.00355788,-0.02145017,0.00864944,-0.00106975,
 0.00054999,0.00115904,0.02001175,0.11150978,-0.10273253,-0.02363493,-0
 .11576847,0.10857598,-0.00050521,-0.00025092,-0.00072912,0.00065149,-0
 .00012630,-0.00087003,0.00000291,0.00024030,0.00037149,0.00002192,-0.0
 0000455,-0.00011178,0.00002806,0.00000012,0.00005110,-0.00020730,-0.00
 007416,0.00011593,-0.00055434,-0.00034537,0.00030888,0.00001779,-0.000
 00701,0.00002301,-0.00000445,0.00001972,0.00002849,-0.00004402,0.00006
 857,0.00000870,-0.00000315,-0.00001460,0.00003122,0.00000587,0.0000126
 9,-0.00000440,-0.00000635,0.00000487,-0.00000892,-0.00000198,0.0000034
 6,0.00000750,-0.00000289,0.00000034,0.00000264,0.00000012,-0.00000304,
 -0.00000045,-0.00000144,0.00000230,0.00000013,0.00000239,-0.00000286,-
 0.00000237,0.00000174,-0.00000073,-0.00000176,0.00000413,-0.00002824,-
 0.00000240,0.00000709,-0.00000388,-0.00000027,0.00000118,-0.00000202,-
 0.00000136,0.00650974,-0.00144613,0.01166520,-0.00311368,0.00149290,0.
 00124823,-0.10261741,0.00376150,-0.11103473,0.00279941,0.00082900,0.00
 633417,0.11208802,0.00174353,-0.00148527,0.00125606,0.00004655,-0.0008
 3860,-0.00018786,-0.00033267,-0.00011212,-0.00002254,0.00013742,0.0000
 9658,-0.00018755,-0.00034621,-0.00018234,0.00027844,0.00035984,0.00060
 356,0.00034391,-0.00072094,-0.00152902,0.00037721,-0.00006226,0.000003
 45,-0.00003154,0.00000009,0.00011833,0.00004373,-0.00000341,-0.0001306
 7,0.00009206,0.00001755,0.00000667,-0.00004369,-0.00000996,0.00000274,
 0.00000944,-0.00000755,0.00000697,0.00000568,0.00000184,0.00000889,0.0
 0000951,0.00000021,-0.00000331,0.00000235,0.00000193,-0.00000156,-0.00
 000185,-0.00000185,-0.00000052,0.00000254,0.00000047,-0.00000375,0.000
 00178,0.00000144,-0.00000066,0.00000040,0.00000112,-0.00000416,0.00000
 508,0.00000904,-0.00000893,-0.00000236,0.00000133,-0.00000001,-0.00000
 145,-0.01611467,0.00564437,-0.01940424,0.00387647,-0.00187591,-0.00161
 257,0.00281564,-0.04996789,0.00584893,0.01548313,0.00159536,0.02438955
 ,-0.00507061,0.04856094,0.00101754,-0.00006046,0.00047586,0.00054063,0
 .00059838,-0.00007814,0.00004148,-0.00031802,0.00021138,-0.00010351,0.
 00012049,0.00030879,-0.00004013,0.00024768,-0.00017281,0.00033541,-0.0
 0049207,0.00005334,-0.00022476,0.00054964,0.00033359,-0.00003571,-0.00
 002148,-0.00002257,0.00000344,0.00015352,0.00003380,-0.00002958,0.0000
 0850,-0.00003129,-0.00000352,0.00000007,0.00000526,-0.00000393,-0.0000
 0362,0.00000131,0.00000042,0.00000507,-0.00000083,0.00000234,0.0000001
 1,0.00000109,0.00000091,-0.00000172,0.00000142,0.00000063,0.00000044,0
 .00000042,-0.00000120,0.00000065,-0.00000146,-0.00000012,-0.00000141,0
 .00000121,0.00000109,0.00000073,-0.00000050,-0.00000482,-0.00001937,-0
 .00000045,0.00000074,-0.00000211,-0.00000036,0.00000020,0.00000052,-0.
 00000052,-0.00927950,0.00448435,-0.01708147,0.00344877,-0.00393243,-0.
 00139565,-0.11480034,0.00767518,-0.24896351,-0.00646340,-0.00069952,-0
 .01061723,0.12239606,-0.00858478,0.27025590,0.00036510,0.00037151,0.00
 046098,0.00006319,-0.00030063,0.00104780,0.00031081,0.00013759,-0.0002
 3954,0.00009502,-0.00011535,-0.00013079,-0.00008041,-0.00018285,0.0000
 2082,0.00018370,0.00038936,0.00002101,0.00001396,-0.00010563,-0.000751
 31,-0.00001862,0.00001824,-0.00001444,0.00004717,-0.00013847,-0.000024
 00,-0.00003639,-0.00004238,-0.00003789,0.00000905,0.00002223,-0.000025
 35,-0.00000453,-0.00000473,0.00000386,0.00000441,-0.00000990,0.0000060
 5,0.00000003,-0.00000381,-0.00000450,0.00000195,0.00000103,-0.00000558
 ,0.,0.00000447,0.00000116,0.00000318,-0.00000079,0.00000119,-0.0000008
 1,0.00000135,0.00000274,-0.00000141,0.00000149,0.00000109,-0.00000423,
 0.00003043,-0.00000005,-0.00000487,0.00000259,-0.00000209,-0.00000096,
 0.00000097,0.00000133,-0.00822262,-0.00356017,0.00144473,0.00014109,0.
 00229955,0.00094758,-0.29874946,-0.02581520,0.04724732,-0.00310502,-0.
 00034549,-0.00009168,-0.01507965,-0.00182749,0.00320087,0.32407033,-0.
 00201708,-0.00159159,-0.00046370,0.00019751,-0.00086649,-0.00004121,0.
 00022442,-0.00007988,0.00021876,0.00009081,0.00005120,-0.00020869,0.00
 004534,-0.00014648,0.00044817,-0.00053682,0.00055800,-0.00009978,0.000
 26550,-0.00147691,0.00080363,0.00006272,0.00001193,0.00002834,-0.00004
 095,0.00011343,0.00001998,-0.00011143,-0.00010637,0.00004191,0.0000280
 1,0.00000554,-0.00003324,-0.00000389,0.00000256,0.00000912,-0.00000373
 ,0.00000260,0.00000583,0.00000147,0.00000527,0.00000561,-0.00000435,0.
 00000091,0.00000374,0.00000197,-0.00000362,-0.00000221,0.00000010,-0.0
 0000171,0.00000182,0.00000001,-0.00000225,0.00000095,0.00000128,-0.000
 00111,0.00000073,-0.00000616,-0.00000239,0.00000408,0.00000415,-0.0000
 0319,-0.00000125,0.00000017,0.00000007,-0.00000129,0.02497145,0.007480
 07,-0.00003929,-0.00107881,-0.00207814,-0.00407140,-0.02364814,-0.0521
 8192,0.00515114,-0.02856031,-0.00053195,0.00328590,0.00094467,-0.00050
 316,0.00029167,0.02917207,0.05134557,-0.00125708,0.00011026,-0.0002368
 3,-0.00043829,0.00050673,0.00049001,0.00014540,-0.00039130,-0.00010080
 ,-0.00019973,0.00007368,0.00024118,0.00013551,0.00017995,-0.00008519,-
 0.00015231,-0.00030551,-0.00031157,-0.00020507,0.00064873,-0.00029056,
 0.00004445,-0.00000338,0.00000701,-0.00000650,0.00007972,-0.00000970,0
 .00003717,-0.00003547,-0.00001595,-0.00000246,0.00000504,-0.00001213,-
 0.00000009,-0.00001383,0.00000297,0.00000781,-0.00000066,0.00000445,0.
 00000077,0.00000052,-0.00000701,0.00000217,-0.00000038,0.00000198,-0.0
 0000084,0.00000114,0.00000059,-0.00000168,-0.00000363,-0.00000164,-0.0
 0000156,0.00000169,0.00000086,-0.00000114,0.00000025,0.00000139,0.0000
 0379,0.00001119,0.00000543,-0.00000460,0.00000249,0.00000052,-0.000001
 00,0.00000159,0.00000074,0.02099576,0.00519850,-0.00424334,-0.00113865
 ,-0.00383462,-0.00444167,0.05088992,0.00586392,-0.05064411,0.01405470,
 -0.00015107,-0.00258127,-0.02982515,-0.00258624,0.00668343,-0.05308132
 ,-0.00535931,0.05554122\\-0.00001128,-0.00002088,0.00000243,0.00000032
 ,0.00000675,-0.00000128,0.00000127,0.00000038,-0.00000070,0.00001003,0
 .00001549,-0.00001123,-0.00000148,-0.00000092,0.00000315,-0.00000042,0
 .00001119,-0.00000034,-0.00000197,0.00000217,0.00000001,-0.00000237,-0
 .00000015,-0.00000146,0.00000067,-0.00000020,0.00000009,0.00000489,-0.
 00001120,-0.00000867,-0.00002277,-0.00000471,0.00001102,0.00000696,-0.
 00000337,0.00002119,0.00000429,0.00000204,-0.00000966,0.00000751,0.000
 00351,-0.00000946,0.00000714,0.00000042,0.00000675,-0.00000214,-0.0000
 0206,0.00000241,-0.00000602,-0.00000152,-0.00000284,0.00000033,-0.0000
 0058,0.00000048,-0.00000139,-0.00000137,0.00000040,0.00000183,-0.00000
 308,0.00000076,-0.00000151,0.00000010,-0.00000709,-0.00000117,-0.00000
 147,-0.00000073,0.00001036,0.00001491,-0.00000310,-0.00000555,-0.00000
 193,0.00000694,0.00000298,-0.00000813,0.00001096,0.00000233,0.00000355
 ,0.00000185,0.00000140,0.00000605,-0.00000844,-0.00000423,-0.00000500,
 -0.00000344\\\@


 WOE UNTO THEM THAT CALL EVIL GOOD, AND GOOD EVIL      
 Job cpu time:       0 days  2 hours 21 minutes 45.2 seconds.
 Elapsed time:       0 days  0 hours  4 minutes 43.6 seconds.
 File lengths (MBytes):  RWF=    315 Int=      0 D2E=      0 Chk=     11 Scr=      1
 Normal termination of Gaussian 16 at Fri Sep 15 05:34:57 2023.
