 Entering Gaussian System, Link 0=/home/ubuntu/g16/g16
 Input=/home/ubuntu/ml products/molecule_72.gjf
 Output=/home/ubuntu/ml products/molecule_72.log
 Initial command:
 /home/ubuntu/g16/l1.exe "/home/ubuntu/Scratch/Gau-80507.inp" -scrdir="/home/ubuntu/Scratch/"
 Entering Link 1 = /home/ubuntu/g16/l1.exe PID=     80509.
  
 Copyright (c) 1988-2017, Gaussian, Inc.  All Rights Reserved.
  
 This is part of the Gaussian(R) 16 program.  It is based on
 the Gaussian(R) 09 system (copyright 2009, Gaussian, Inc.),
 the Gaussian(R) 03 system (copyright 2003, Gaussian, Inc.),
 the Gaussian(R) 98 system (copyright 1998, Gaussian, Inc.),
 the Gaussian(R) 94 system (copyright 1995, Gaussian, Inc.),
 the Gaussian 92(TM) system (copyright 1992, Gaussian, Inc.),
 the Gaussian 90(TM) system (copyright 1990, Gaussian, Inc.),
 the Gaussian 88(TM) system (copyright 1988, Gaussian, Inc.),
 the Gaussian 86(TM) system (copyright 1986, Carnegie Mellon
 University), and the Gaussian 82(TM) system (copyright 1983,
 Carnegie Mellon University). Gaussian is a federally registered
 trademark of Gaussian, Inc.
  
 This software contains proprietary and confidential information,
 including trade secrets, belonging to Gaussian, Inc.
  
 This software is provided under written license and may be
 used, copied, transmitted, or stored only in accord with that
 written license.
  
 The following legend is applicable only to US Government
 contracts under FAR:
  
                    RESTRICTED RIGHTS LEGEND
  
 Use, reproduction and disclosure by the US Government is
 subject to restrictions as set forth in subparagraphs (a)
 and (c) of the Commercial Computer Software - Restricted
 Rights clause in FAR 52.227-19.
  
 Gaussian, Inc.
 340 Quinnipiac St., Bldg. 40, Wallingford CT 06492
  
  
 ---------------------------------------------------------------
 Warning -- This program may not be used in any manner that
 competes with the business of Gaussian, Inc. or will provide
 assistance to any competitor of Gaussian, Inc.  The licensee
 of this program is prohibited from giving any competitor of
 Gaussian, Inc. access to this program.  By using this program,
 the user acknowledges that Gaussian, Inc. is engaged in the
 business of creating and licensing software in the field of
 computational chemistry and represents and warrants to the
 licensee that it is not a competitor of Gaussian, Inc. and that
 it will not use this program in any manner prohibited above.
 ---------------------------------------------------------------
  

 Cite this work as:
 Gaussian 16, Revision B.01,
 M. J. Frisch, G. W. Trucks, H. B. Schlegel, G. E. Scuseria, 
 M. A. Robb, J. R. Cheeseman, G. Scalmani, V. Barone, 
 G. A. Petersson, H. Nakatsuji, X. Li, M. Caricato, A. V. Marenich, 
 J. Bloino, B. G. Janesko, R. Gomperts, B. Mennucci, H. P. Hratchian, 
 J. V. Ortiz, A. F. Izmaylov, J. L. Sonnenberg, D. Williams-Young, 
 F. Ding, F. Lipparini, F. Egidi, J. Goings, B. Peng, A. Petrone, 
 T. Henderson, D. Ranasinghe, V. G. Zakrzewski, J. Gao, N. Rega, 
 G. Zheng, W. Liang, M. Hada, M. Ehara, K. Toyota, R. Fukuda, 
 J. Hasegawa, M. Ishida, T. Nakajima, Y. Honda, O. Kitao, H. Nakai, 
 T. Vreven, K. Throssell, J. A. Montgomery, Jr., J. E. Peralta, 
 F. Ogliaro, M. J. Bearpark, J. J. Heyd, E. N. Brothers, K. N. Kudin, 
 V. N. Staroverov, T. A. Keith, R. Kobayashi, J. Normand, 
 K. Raghavachari, A. P. Rendell, J. C. Burant, S. S. Iyengar, 
 J. Tomasi, M. Cossi, J. M. Millam, M. Klene, C. Adamo, R. Cammi, 
 J. W. Ochterski, R. L. Martin, K. Morokuma, O. Farkas, 
 J. B. Foresman, and D. J. Fox, Gaussian, Inc., Wallingford CT, 2016.
 
 ******************************************
 Gaussian 16:  EM64L-G16RevB.01 20-Dec-2017
                16-Sep-2023 
 ******************************************
 %nprocshared=30
 Will use up to   30 processors via shared memory.
 %mem=30GB
 %chk=molecule_72.chk
 ----------------------------------------------------------------------
 # opt freq b3lyp/6-31+g(d) geom=connectivity empiricaldispersion=gd3 v
 olume
 ----------------------------------------------------------------------
 1/18=20,19=15,26=3,38=1,57=2/1,3;
 2/9=110,12=2,17=6,18=5,40=1/2;
 3/5=1,6=6,7=11,11=2,25=1,30=1,71=1,74=-5,124=31/1,2,3;
 4//1;
 5/5=2,38=5/2;
 6/7=2,8=2,9=2,10=2,28=1,44=1/1,4;
 7//1,2,3,16;
 1/18=20,19=15,26=3/3(2);
 2/9=110/2;
 99//99;
 2/9=110/2;
 3/5=1,6=6,7=11,11=2,25=1,30=1,71=1,74=-5,124=31/1,2,3;
 4/5=5,16=3,69=1/1;
 5/5=2,38=5/2;
 7//1,2,3,16;
 1/18=20,19=15,26=3/3(-5);
 2/9=110/2;
 6/7=2,8=2,9=2,10=2,19=2,28=1,44=1/1,4;
 99/9=1/99;
 -------------
 ML molecule72
 -------------
 Symbolic Z-matrix:
 Charge =  0 Multiplicity = 1
 C                    -4.74942  -0.23058  -0.40002 
 C                    -4.8202    0.23854  -1.71867 
 C                    -4.55025   1.58484  -1.99888 
 C                    -4.20951   2.46203  -0.96044 
 C                    -4.13873   1.99291   0.35822 
 C                    -4.40868   0.64661   0.63842 
 H                    -5.08036  -0.43121  -2.51155 
 H                    -3.87857   2.66266   1.15109 
 H                    -4.35464   0.28843   1.64524 
 O                    -3.91049   3.9533   -1.27081 
 C                    -3.81752   4.69985  -2.77936 
 C                    -4.13168   3.88761  -3.87731 
 C                    -3.30395   5.98751  -2.98454 
 C                    -3.93225   4.36302  -5.18043 
 C                    -3.10452   6.46292  -4.28767 
 H                    -3.06408   6.60768  -2.14623 
 C                    -3.41867   5.65068  -5.38561 
 H                    -4.17211   3.74285  -6.01874 
 H                    -2.7124    7.44608  -4.44432 
 H                    -4.60429   1.94302  -3.0057 
 H                    -4.5238    2.90445  -3.72065 
 N                    -5.03258  -1.64279  -0.1061 
 O                    -4.12167  -2.42275  -0.12371 
 O                    -6.16321  -1.95858   0.13958 
 O                    -3.21518   6.13579  -6.71533 
 C                    -3.97143   7.3342   -6.9072 
 H                    -3.47636   8.14976  -6.42277 
 H                    -4.05554   7.53911  -7.95402 
 H                    -4.94824   7.21043  -6.48837 
 

 GradGradGradGradGradGradGradGradGradGradGradGradGradGradGradGradGradGrad
 Berny optimization.
 Initialization pass.
                           ----------------------------
                           !    Initial Parameters    !
                           ! (Angstroms and Degrees)  !
 --------------------------                            --------------------------
 ! Name  Definition              Value          Derivative Info.                !
 --------------------------------------------------------------------------------
 ! R1    R(1,2)                  1.4014         estimate D2E/DX2                !
 ! R2    R(1,6)                  1.4014         estimate D2E/DX2                !
 ! R3    R(1,22)                 1.47           estimate D2E/DX2                !
 ! R4    R(2,3)                  1.4014         estimate D2E/DX2                !
 ! R5    R(2,7)                  1.07           estimate D2E/DX2                !
 ! R6    R(3,4)                  1.4014         estimate D2E/DX2                !
 ! R7    R(3,20)                 1.07           estimate D2E/DX2                !
 ! R8    R(4,5)                  1.4014         estimate D2E/DX2                !
 ! R9    R(4,10)                 1.5523         estimate D2E/DX2                !
 ! R10   R(5,6)                  1.4014         estimate D2E/DX2                !
 ! R11   R(5,8)                  1.07           estimate D2E/DX2                !
 ! R12   R(6,9)                  1.07           estimate D2E/DX2                !
 ! R13   R(10,11)                1.6857         estimate D2E/DX2                !
 ! R14   R(11,12)                1.4014         estimate D2E/DX2                !
 ! R15   R(11,13)                1.4014         estimate D2E/DX2                !
 ! R16   R(12,14)                1.4014         estimate D2E/DX2                !
 ! R17   R(12,21)                1.07           estimate D2E/DX2                !
 ! R18   R(13,15)                1.4014         estimate D2E/DX2                !
 ! R19   R(13,16)                1.07           estimate D2E/DX2                !
 ! R20   R(14,17)                1.4014         estimate D2E/DX2                !
 ! R21   R(14,18)                1.07           estimate D2E/DX2                !
 ! R22   R(15,17)                1.4014         estimate D2E/DX2                !
 ! R23   R(15,19)                1.07           estimate D2E/DX2                !
 ! R24   R(17,25)                1.43           estimate D2E/DX2                !
 ! R25   R(22,23)                1.1993         estimate D2E/DX2                !
 ! R26   R(22,24)                1.1993         estimate D2E/DX2                !
 ! R27   R(25,26)                1.43           estimate D2E/DX2                !
 ! R28   R(26,27)                1.07           estimate D2E/DX2                !
 ! R29   R(26,28)                1.07           estimate D2E/DX2                !
 ! R30   R(26,29)                1.07           estimate D2E/DX2                !
 ! A1    A(2,1,6)              120.0            estimate D2E/DX2                !
 ! A2    A(2,1,22)             120.0            estimate D2E/DX2                !
 ! A3    A(6,1,22)             120.0            estimate D2E/DX2                !
 ! A4    A(1,2,3)              120.0            estimate D2E/DX2                !
 ! A5    A(1,2,7)              120.0            estimate D2E/DX2                !
 ! A6    A(3,2,7)              120.0            estimate D2E/DX2                !
 ! A7    A(2,3,4)              120.0            estimate D2E/DX2                !
 ! A8    A(2,3,20)             120.0            estimate D2E/DX2                !
 ! A9    A(4,3,20)             120.0            estimate D2E/DX2                !
 ! A10   A(3,4,5)              120.0            estimate D2E/DX2                !
 ! A11   A(3,4,10)             120.0            estimate D2E/DX2                !
 ! A12   A(5,4,10)             120.0            estimate D2E/DX2                !
 ! A13   A(4,5,6)              120.0            estimate D2E/DX2                !
 ! A14   A(4,5,8)              120.0            estimate D2E/DX2                !
 ! A15   A(6,5,8)              120.0            estimate D2E/DX2                !
 ! A16   A(1,6,5)              120.0            estimate D2E/DX2                !
 ! A17   A(1,6,9)              120.0            estimate D2E/DX2                !
 ! A18   A(5,6,9)              120.0            estimate D2E/DX2                !
 ! A19   A(4,10,11)            127.9526         estimate D2E/DX2                !
 ! A20   A(10,11,12)           115.5989         estimate D2E/DX2                !
 ! A21   A(10,11,13)           123.9281         estimate D2E/DX2                !
 ! A22   A(12,11,13)           120.0            estimate D2E/DX2                !
 ! A23   A(11,12,14)           120.0            estimate D2E/DX2                !
 ! A24   A(11,12,21)           120.0            estimate D2E/DX2                !
 ! A25   A(14,12,21)           120.0            estimate D2E/DX2                !
 ! A26   A(11,13,15)           120.0            estimate D2E/DX2                !
 ! A27   A(11,13,16)           120.0            estimate D2E/DX2                !
 ! A28   A(15,13,16)           120.0            estimate D2E/DX2                !
 ! A29   A(12,14,17)           120.0            estimate D2E/DX2                !
 ! A30   A(12,14,18)           120.0            estimate D2E/DX2                !
 ! A31   A(17,14,18)           120.0            estimate D2E/DX2                !
 ! A32   A(13,15,17)           120.0            estimate D2E/DX2                !
 ! A33   A(13,15,19)           120.0            estimate D2E/DX2                !
 ! A34   A(17,15,19)           120.0            estimate D2E/DX2                !
 ! A35   A(14,17,15)           120.0            estimate D2E/DX2                !
 ! A36   A(14,17,25)           120.0            estimate D2E/DX2                !
 ! A37   A(15,17,25)           120.0            estimate D2E/DX2                !
 ! A38   A(1,22,23)            118.3934         estimate D2E/DX2                !
 ! A39   A(1,22,24)            118.3927         estimate D2E/DX2                !
 ! A40   A(23,22,24)           123.2139         estimate D2E/DX2                !
 ! A41   A(17,25,26)           109.5            estimate D2E/DX2                !
 ! A42   A(25,26,27)           109.4712         estimate D2E/DX2                !
 ! A43   A(25,26,28)           109.4712         estimate D2E/DX2                !
 ! A44   A(25,26,29)           109.4712         estimate D2E/DX2                !
 ! A45   A(27,26,28)           109.4713         estimate D2E/DX2                !
 ! A46   A(27,26,29)           109.4712         estimate D2E/DX2                !
 ! A47   A(28,26,29)           109.4712         estimate D2E/DX2                !
 ! D1    D(6,1,2,3)              0.0001         estimate D2E/DX2                !
 ! D2    D(6,1,2,7)           -179.9998         estimate D2E/DX2                !
 ! D3    D(22,1,2,3)          -179.9999         estimate D2E/DX2                !
 ! D4    D(22,1,2,7)             0.0002         estimate D2E/DX2                !
 ! D5    D(2,1,6,5)             -0.0001         estimate D2E/DX2                !
 ! D6    D(2,1,6,9)            179.9998         estimate D2E/DX2                !
 ! D7    D(22,1,6,5)           179.9999         estimate D2E/DX2                !
 ! D8    D(22,1,6,9)            -0.0002         estimate D2E/DX2                !
 ! D9    D(2,1,22,23)           90.3367         estimate D2E/DX2                !
 ! D10   D(2,1,22,24)          -89.6634         estimate D2E/DX2                !
 ! D11   D(6,1,22,23)          -89.6633         estimate D2E/DX2                !
 ! D12   D(6,1,22,24)           90.3367         estimate D2E/DX2                !
 ! D13   D(1,2,3,4)              0.0001         estimate D2E/DX2                !
 ! D14   D(1,2,3,20)          -179.9999         estimate D2E/DX2                !
 ! D15   D(7,2,3,4)            179.9999         estimate D2E/DX2                !
 ! D16   D(7,2,3,20)            -0.0001         estimate D2E/DX2                !
 ! D17   D(2,3,4,5)             -0.0002         estimate D2E/DX2                !
 ! D18   D(2,3,4,10)           179.9998         estimate D2E/DX2                !
 ! D19   D(20,3,4,5)           179.9998         estimate D2E/DX2                !
 ! D20   D(20,3,4,10)           -0.0002         estimate D2E/DX2                !
 ! D21   D(3,4,5,6)              0.0001         estimate D2E/DX2                !
 ! D22   D(3,4,5,8)           -180.0            estimate D2E/DX2                !
 ! D23   D(10,4,5,6)          -179.9999         estimate D2E/DX2                !
 ! D24   D(10,4,5,8)             0.0            estimate D2E/DX2                !
 ! D25   D(3,4,10,11)           -5.2547         estimate D2E/DX2                !
 ! D26   D(5,4,10,11)          174.7453         estimate D2E/DX2                !
 ! D27   D(4,5,6,1)              0.0            estimate D2E/DX2                !
 ! D28   D(4,5,6,9)           -179.9999         estimate D2E/DX2                !
 ! D29   D(8,5,6,1)           -179.9999         estimate D2E/DX2                !
 ! D30   D(8,5,6,9)              0.0002         estimate D2E/DX2                !
 ! D31   D(4,10,11,12)           4.3564         estimate D2E/DX2                !
 ! D32   D(4,10,11,13)        -167.7268         estimate D2E/DX2                !
 ! D33   D(10,11,12,14)       -172.4167         estimate D2E/DX2                !
 ! D34   D(10,11,12,21)          7.5833         estimate D2E/DX2                !
 ! D35   D(13,11,12,14)          0.0002         estimate D2E/DX2                !
 ! D36   D(13,11,12,21)       -179.9998         estimate D2E/DX2                !
 ! D37   D(10,11,13,15)        171.7535         estimate D2E/DX2                !
 ! D38   D(10,11,13,16)         -8.2466         estimate D2E/DX2                !
 ! D39   D(12,11,13,15)          0.0            estimate D2E/DX2                !
 ! D40   D(12,11,13,16)        179.9999         estimate D2E/DX2                !
 ! D41   D(11,12,14,17)         -0.0002         estimate D2E/DX2                !
 ! D42   D(11,12,14,18)        179.9998         estimate D2E/DX2                !
 ! D43   D(21,12,14,17)        179.9998         estimate D2E/DX2                !
 ! D44   D(21,12,14,18)         -0.0002         estimate D2E/DX2                !
 ! D45   D(11,13,15,17)         -0.0001         estimate D2E/DX2                !
 ! D46   D(11,13,15,19)        179.9999         estimate D2E/DX2                !
 ! D47   D(16,13,15,17)        179.9999         estimate D2E/DX2                !
 ! D48   D(16,13,15,19)          0.0            estimate D2E/DX2                !
 ! D49   D(12,14,17,15)          0.0001         estimate D2E/DX2                !
 ! D50   D(12,14,17,25)       -179.9999         estimate D2E/DX2                !
 ! D51   D(18,14,17,15)       -179.9999         estimate D2E/DX2                !
 ! D52   D(18,14,17,25)          0.0001         estimate D2E/DX2                !
 ! D53   D(13,15,17,14)          0.0001         estimate D2E/DX2                !
 ! D54   D(13,15,17,25)       -180.0            estimate D2E/DX2                !
 ! D55   D(19,15,17,14)       -180.0            estimate D2E/DX2                !
 ! D56   D(19,15,17,25)          0.0            estimate D2E/DX2                !
 ! D57   D(14,17,25,26)        121.6994         estimate D2E/DX2                !
 ! D58   D(15,17,25,26)        -58.3005         estimate D2E/DX2                !
 ! D59   D(17,25,26,27)         76.4751         estimate D2E/DX2                !
 ! D60   D(17,25,26,28)       -163.5249         estimate D2E/DX2                !
 ! D61   D(17,25,26,29)        -43.5249         estimate D2E/DX2                !
 --------------------------------------------------------------------------------
 Trust Radius=3.00D-01 FncErr=1.00D-07 GrdErr=1.00D-06 EigMax=2.50D+02 EigMin=1.00D-04
 Number of steps in this run=    148 maximum allowed number of steps=    174.
 GradGradGradGradGradGradGradGradGradGradGradGradGradGradGradGradGradGrad

                          Input orientation:                          
 ---------------------------------------------------------------------
 Center     Atomic      Atomic             Coordinates (Angstroms)
 Number     Number       Type             X           Y           Z
 ---------------------------------------------------------------------
      1          6           0       -4.749416   -0.230579   -0.400021
      2          6           0       -4.820199    0.238538   -1.718672
      3          6           0       -4.550247    1.584841   -1.998879
      4          6           0       -4.209510    2.462026   -0.960435
      5          6           0       -4.138728    1.992910    0.358216
      6          6           0       -4.408682    0.646607    0.638423
      7          1           0       -5.080361   -0.431212   -2.511547
      8          1           0       -3.878568    2.662660    1.151091
      9          1           0       -4.354640    0.288426    1.645243
     10          8           0       -3.910486    3.953296   -1.270814
     11          6           0       -3.817523    4.699853   -2.779363
     12          6           0       -4.131676    3.887607   -3.877310
     13          6           0       -3.303947    5.987511   -2.984541
     14          6           0       -3.932249    4.363019   -5.180435
     15          6           0       -3.104523    6.462923   -4.287666
     16          1           0       -3.064085    6.607679   -2.146234
     17          6           0       -3.418674    5.650677   -5.385613
     18          1           0       -4.172109    3.742850   -6.018741
     19          1           0       -2.712397    7.446079   -4.444324
     20          1           0       -4.604292    1.943023   -3.005698
     21          1           0       -4.523805    2.904453   -3.720651
     22          7           0       -5.032581   -1.642786   -0.106098
     23          8           0       -4.121672   -2.422755   -0.123715
     24          8           0       -6.163210   -1.958585    0.139583
     25          8           0       -3.215180    6.135792   -6.715333
     26          6           0       -3.971426    7.334199   -6.907199
     27          1           0       -3.476358    8.149758   -6.422770
     28          1           0       -4.055542    7.539113   -7.954020
     29          1           0       -4.948240    7.210435   -6.488371
 ---------------------------------------------------------------------
                    Distance matrix (angstroms):
                    1          2          3          4          5
     1  C    0.000000
     2  C    1.401400   0.000000
     3  C    2.427296   1.401400   0.000000
     4  C    2.802800   2.427296   1.401400   0.000000
     5  C    2.427296   2.802800   2.427296   1.401400   0.000000
     6  C    1.401400   2.427296   2.802800   2.427296   1.401400
     7  H    2.146700   1.070000   2.146700   3.396345   3.872800
     8  H    3.396345   3.872800   3.396345   2.146700   1.070000
     9  H    2.146700   3.396345   3.872800   3.396345   2.146700
    10  O    4.355100   3.850660   2.559092   1.552300   2.559092
    11  C    5.553274   4.694012   3.293833   2.910330   4.156335
    12  C    5.425182   4.295286   3.001072   3.247537   4.640001
    13  C    6.887218   6.078827   4.680630   4.164864   5.275199
    14  C    6.679914   5.457435   4.268781   4.636706   6.027993
    15  C    7.913434   6.948831   5.578920   5.319647   6.529535
    16  H    7.256127   6.620627   5.240161   4.461452   5.359405
    17  C    7.824077   6.685954   5.411233   5.511362   6.847577
    18  H    6.905899   5.584874   4.578131   5.218081   6.612790
    19  H    8.912739   7.988783   6.611506   6.262556   7.405125
    20  H    3.396345   2.146700   1.070000   2.146700   3.396345
    21  H    4.572298   3.347069   2.169464   2.813062   4.197184
    22  N    1.470000   2.486942   3.772644   4.272800   3.772644
    23  O    2.296964   3.180300   4.445306   4.956703   4.441919
    24  O    2.296952   3.175553   4.441907   4.956691   4.445293
    25  O    9.097676   7.894321   6.688684   6.899572   8.249334
    26  C   10.008721   8.831173   7.581672   7.691472   9.019069
    27  H   10.398280   9.301711   7.988878   7.919905   9.182989
    28  H   10.858751   9.631337   8.435745   8.643538   9.993026
    29  H    9.616456   8.448299   7.208414   7.324696   8.646018
                    6          7          8          9         10
     6  C    0.000000
     7  H    3.396345   0.000000
     8  H    2.146700   4.942800   0.000000
     9  H    1.070000   4.280590   2.471400   0.000000
    10  O    3.850660   4.704459   2.744520   4.704459   0.000000
    11  C    5.334748   5.290965   4.427454   6.271070   1.685736
    12  C    5.565309   4.627906   5.181638   6.595635   2.616688
    13  C    6.547638   6.676779   5.337441   7.417441   2.728146
    14  C    6.920825   5.605869   6.556091   7.960565   3.931091
    15  C    7.732834   7.388345   6.679913   8.653706   4.006145
    16  H    6.715403   7.331085   5.205662   7.481563   2.920360
    17  C    7.893659   6.928985   7.201962   8.891721   4.478231
    18  H    7.345783   5.527036   7.256685   8.408509   4.759784
    19  H    8.657051   8.449532   7.453169   9.540010   4.868893
    20  H    3.872800   2.471400   4.280590   4.942800   2.744520
    21  H    4.910464   3.591427   4.920231   5.972021   2.734581
    22  N    2.486942   2.693767   4.631321   2.693766   5.825100
    23  O    3.175565   3.253778   5.248398   3.245611   6.481856
    24  O    3.180288   3.245600   5.253441   3.253766   6.481845
    25  O    9.253827   8.017247   8.624578  10.265928   5.906735
    26  C   10.092150   8.991835   9.314931  11.087562   6.572902
    27  H   10.345383   9.565747   9.361270  11.298882   6.658934
    28  H   11.020954   9.705506  10.330255  12.033610   7.585800
    29  H    9.703925   8.615529   8.954766  10.696833   6.237690
                   11         12         13         14         15
    11  C    0.000000
    12  C    1.401400   0.000000
    13  C    1.401400   2.427296   0.000000
    14  C    2.427296   1.401400   2.802800   0.000000
    15  C    2.427296   2.802800   1.401400   2.427296   0.000000
    16  H    2.146700   3.396345   1.070000   3.872800   2.146700
    17  C    2.802800   2.427296   2.427296   1.401400   1.401400
    18  H    3.396345   2.146700   3.872800   1.070000   3.396345
    19  H    3.396345   3.872800   2.146700   3.396345   1.070000
    20  H    2.875821   2.182769   4.248439   3.322273   4.931759
    21  H    2.146700   1.070000   3.396345   2.146700   3.872800
    22  N    6.989404   6.754177   8.336368   7.939100   9.322309
    23  O    7.607662   7.342360   8.921075   8.464811   9.865514
    24  O    7.639194   7.378382   9.004220   8.558180   9.993893
    25  O    4.232800   3.734792   3.734792   2.452106   2.452106
    26  C    4.899234   4.591830   4.200755   3.436737   2.893543
    27  H    5.029180   5.007468   4.065274   4.011312   2.746332
    28  H    5.907210   5.473468   5.260046   4.218477   3.937610
    29  H    4.619338   4.304138   4.059072   3.294042   2.966676
                   16         17         18         19         20
    16  H    0.000000
    17  C    3.396345   0.000000
    18  H    4.942800   2.146700   0.000000
    19  H    2.471400   2.146700   4.280590   0.000000
    20  H    4.986976   4.562498   3.536183   5.994376   0.000000
    21  H    4.280590   3.396345   2.471400   4.942800   1.200826
    22  N    8.723949   9.147271   8.043931  10.334937   4.631321
    23  O    9.314387   9.662406   8.530449  10.864972   5.253453
    24  O    9.392040   9.795975   8.625300  11.016716   5.248386
    25  O    4.595886   1.430000   2.669667   2.669667   5.768044
    26  C    4.900804   2.335595   3.705053   2.768289   6.684834
    27  H    4.564727   2.706368   4.479748   2.234512   7.174411
    28  H    5.964975   3.250924   4.262687   3.759077   7.490209
    29  H    4.771531   2.447140   3.584282   3.038527   6.323997
                   21         22         23         24         25
    21  H    0.000000
    22  N    5.831057   0.000000
    23  O    6.440404   1.199341   0.000000
    24  O    6.421697   1.199337   2.110132   0.000000
    25  O    4.595886  10.367796  10.840658  11.009072   0.000000
    26  C    5.484693  11.312262  11.884291  11.866628   1.430000
    27  H    5.992646  11.756533  12.323658  12.347560   2.051796
    28  H    6.294502  12.118240  12.671103  12.655233   2.051796
    29  H    5.136331  10.914212  11.575422  11.378789   2.051796
                   26         27         28         29
    26  C    0.000000
    27  H    1.070000   0.000000
    28  H    1.070000   1.747303   0.000000
    29  H    1.070000   1.747303   1.747303   0.000000
 Stoichiometry    C13H11NO4
 Framework group  C1[X(C13H11NO4)]
 Deg. of freedom    81
 Full point group                 C1      NOp   1
 Largest Abelian subgroup         C1      NOp   1
 Largest concise Abelian subgroup C1      NOp   1
                         Standard orientation:                         
 ---------------------------------------------------------------------
 Center     Atomic      Atomic             Coordinates (Angstroms)
 Number     Number       Type             X           Y           Z
 ---------------------------------------------------------------------
      1          6           0        3.680060   -0.153090    0.006293
      2          6           0        2.532010   -0.953515    0.078570
      3          6           0        1.264032   -0.358058    0.118385
      4          6           0        1.144104    1.037824    0.085922
      5          6           0        2.292154    1.838249    0.013647
      6          6           0        3.560132    1.242791   -0.026167
      7          1           0        2.623578   -2.019301    0.103357
      8          1           0        2.200587    2.904035   -0.011139
      9          1           0        4.436694    1.853933   -0.081349
     10          8           0       -0.260407    1.697398    0.130020
     11          6           0       -1.764462    0.936938    0.095014
     12          6           0       -1.735162   -0.464047    0.112477
     13          6           0       -2.976683    1.609954   -0.108680
     14          6           0       -2.918082   -1.192015   -0.073757
     15          6           0       -4.159604    0.881986   -0.294911
     16          1           0       -2.999054    2.679637   -0.122012
     17          6           0       -4.130303   -0.518999   -0.277451
     18          1           0       -2.895711   -2.261698   -0.060427
     19          1           0       -5.085161    1.395849   -0.450435
     20          1           0        0.387471   -0.969200    0.173571
     21          1           0       -0.809605   -0.977910    0.268005
     22          7           0        5.010106   -0.777696   -0.035473
     23          8           0        5.482282   -1.042906   -1.105581
     24          8           0        5.569951   -0.997132    1.002231
     25          8           0       -5.337366   -1.261824   -0.467483
     26          6           0       -6.287087   -0.894318    0.536444
     27          1           0       -6.712108    0.057264    0.294065
     28          1           0       -7.062389   -1.630433    0.580509
     29          1           0       -5.797393   -0.834800    1.485948
 ---------------------------------------------------------------------
 Rotational constants (GHZ):           1.3819507           0.1367488           0.1274808
 Standard basis: 6-31+G(d) (6D, 7F)
 There are   364 symmetry adapted cartesian basis functions of A   symmetry.
 There are   364 symmetry adapted basis functions of A   symmetry.
   364 basis functions,   620 primitive gaussians,   364 cartesian basis functions
    64 alpha electrons       64 beta electrons
       nuclear repulsion energy      1161.3757227136 Hartrees.
 NAtoms=   29 NActive=   29 NUniq=   29 SFac= 1.00D+00 NAtFMM=   60 NAOKFM=F Big=F
 Integral buffers will be    131072 words long.
 Raffenetti 2 integral format.
 Two-electron integral symmetry is turned on.
 Nuclear repulsion after empirical dispersion term =     1161.3520766558 Hartrees.
 One-electron integrals computed using PRISM.
 NBasis=   364 RedAO= T EigKep=  1.36D-06  NBF=   364
 NBsUse=   363 1.00D-06 EigRej=  3.72D-07 NBFU=   363
 ExpMin= 4.38D-02 ExpMax= 5.48D+03 ExpMxC= 8.25D+02 IAcc=3 IRadAn=         5 AccDes= 0.00D+00
 Harris functional with IExCor=  402 and IRadAn=       5 diagonalized for initial guess.
 HarFok:  IExCor=  402 AccDes= 0.00D+00 IRadAn=         5 IDoV= 1 UseB2=F ITyADJ=14
 ICtDFT=  3500011 ScaDFX=  1.000000  1.000000  1.000000  1.000000
 FoFCou: FMM=F IPFlag=           0 FMFlag=      100000 FMFlg1=           0
         NFxFlg=           0 DoJE=T BraDBF=F KetDBF=T FulRan=T
         wScrn=  0.000000 ICntrl=       500 IOpCl=  0 I1Cent=   200000004 NGrid=           0
         NMat0=    1 NMatS0=      1 NMatT0=    0 NMatD0=    1 NMtDS0=    0 NMtDT0=    0
 Petite list used in FoFCou.
 Requested convergence on RMS density matrix=1.00D-08 within 128 cycles.
 Requested convergence on MAX density matrix=1.00D-06.
 Requested convergence on             energy=1.00D-06.
 No special actions if energy rises.
 SCF Done:  E(RB3LYP) =  -857.478745427     A.U. after   16 cycles
            NFock= 16  Conv=0.44D-08     -V/T= 2.0096

 **********************************************************************

            Population analysis using the SCF Density.

 **********************************************************************

 Orbital symmetries:
       Occupied  (A) (A) (A) (A) (A) (A) (A) (A) (A) (A) (A) (A)
                 (A) (A) (A) (A) (A) (A) (A) (A) (A) (A) (A) (A)
                 (A) (A) (A) (A) (A) (A) (A) (A) (A) (A) (A) (A)
                 (A) (A) (A) (A) (A) (A) (A) (A) (A) (A) (A) (A)
                 (A) (A) (A) (A) (A) (A) (A) (A) (A) (A) (A) (A)
                 (A) (A) (A) (A)
       Virtual   (A) (A) (A) (A) (A) (A) (A) (A) (A) (A) (A) (A)
                 (A) (A) (A) (A) (A) (A) (A) (A) (A) (A) (A) (A)
                 (A) (A) (A) (A) (A) (A) (A) (A) (A) (A) (A) (A)
                 (A) (A) (A) (A) (A) (A) (A) (A) (A) (A) (A) (A)
                 (A) (A) (A) (A) (A) (A) (A) (A) (A) (A) (A) (A)
                 (A) (A) (A) (A) (A) (A) (A) (A) (A) (A) (A) (A)
                 (A) (A) (A) (A) (A) (A) (A) (A) (A) (A) (A) (A)
                 (A) (A) (A) (A) (A) (A) (A) (A) (A) (A) (A) (A)
                 (A) (A) (A) (A) (A) (A) (A) (A) (A) (A) (A) (A)
                 (A) (A) (A) (A) (A) (A) (A) (A) (A) (A) (A) (A)
                 (A) (A) (A) (A) (A) (A) (A) (A) (A) (A) (A) (A)
                 (A) (A) (A) (A) (A) (A) (A) (A) (A) (A) (A) (A)
                 (A) (A) (A) (A) (A) (A) (A) (A) (A) (A) (A) (A)
                 (A) (A) (A) (A) (A) (A) (A) (A) (A) (A) (A) (A)
                 (A) (A) (A) (A) (A) (A) (A) (A) (A) (A) (A) (A)
                 (A) (A) (A) (A) (A) (A) (A) (A) (A) (A) (A) (A)
                 (A) (A) (A) (A) (A) (A) (A) (A) (A) (A) (A) (A)
                 (A) (A) (A) (A) (A) (A) (A) (A) (A) (A) (A) (A)
                 (A) (A) (A) (A) (A) (A) (A) (A) (A) (A) (A) (A)
                 (A) (A) (A) (A) (A) (A) (A) (A) (A) (A) (A) (A)
                 (A) (A) (A) (A) (A) (A) (A) (A) (A) (A) (A) (A)
                 (A) (A) (A) (A) (A) (A) (A) (A) (A) (A) (A) (A)
                 (A) (A) (A) (A) (A) (A) (A) (A) (A) (A) (A) (A)
                 (A) (A) (A) (A) (A) (A) (A) (A) (A) (A) (A) (A)
                 (A) (A) (A) (A) (A) (A) (A) (A) (A) (A) (A)
 The electronic state is 1-A.
 Alpha  occ. eigenvalues --  -19.20503 -19.20501 -19.20156 -19.19056 -14.59339
 Alpha  occ. eigenvalues --  -10.29352 -10.29293 -10.27415 -10.26990 -10.24357
 Alpha  occ. eigenvalues --  -10.23952 -10.23809 -10.23354 -10.23173 -10.22692
 Alpha  occ. eigenvalues --  -10.22671 -10.22539 -10.22288  -1.27480  -1.09059
 Alpha  occ. eigenvalues --   -1.06150  -0.98741  -0.90236  -0.88286  -0.82068
 Alpha  occ. eigenvalues --   -0.79321  -0.78354  -0.77145  -0.71444  -0.70466
 Alpha  occ. eigenvalues --   -0.66878  -0.64511  -0.61966  -0.61406  -0.57792
 Alpha  occ. eigenvalues --   -0.56549  -0.55266  -0.53259  -0.52924  -0.51137
 Alpha  occ. eigenvalues --   -0.50471  -0.48737  -0.48153  -0.47571  -0.47394
 Alpha  occ. eigenvalues --   -0.46166  -0.45538  -0.44137  -0.42106  -0.41799
 Alpha  occ. eigenvalues --   -0.40765  -0.39937  -0.37308  -0.36792  -0.35349
 Alpha  occ. eigenvalues --   -0.33588  -0.33454  -0.32706  -0.31867  -0.30467
 Alpha  occ. eigenvalues --   -0.29128  -0.28555  -0.27203  -0.24603
 Alpha virt. eigenvalues --   -0.08267  -0.05118  -0.04735  -0.04167  -0.03862
 Alpha virt. eigenvalues --   -0.02450  -0.00351   0.00080   0.01048   0.01712
 Alpha virt. eigenvalues --    0.02234   0.02988   0.03699   0.04178   0.04522
 Alpha virt. eigenvalues --    0.04594   0.05105   0.06042   0.06596   0.06933
 Alpha virt. eigenvalues --    0.07288   0.08176   0.08454   0.08719   0.09145
 Alpha virt. eigenvalues --    0.09777   0.10391   0.11050   0.11536   0.11787
 Alpha virt. eigenvalues --    0.11871   0.12251   0.12477   0.13018   0.13100
 Alpha virt. eigenvalues --    0.13690   0.13873   0.14152   0.14368   0.14579
 Alpha virt. eigenvalues --    0.15237   0.15366   0.15996   0.16877   0.17231
 Alpha virt. eigenvalues --    0.17774   0.17844   0.18770   0.18861   0.19325
 Alpha virt. eigenvalues --    0.19357   0.19909   0.20393   0.20973   0.21435
 Alpha virt. eigenvalues --    0.21673   0.22558   0.22868   0.23275   0.23625
 Alpha virt. eigenvalues --    0.23817   0.23989   0.24560   0.24680   0.25267
 Alpha virt. eigenvalues --    0.25556   0.25930   0.26291   0.26635   0.27135
 Alpha virt. eigenvalues --    0.27383   0.28444   0.28821   0.29081   0.29276
 Alpha virt. eigenvalues --    0.29894   0.30355   0.30709   0.31222   0.31483
 Alpha virt. eigenvalues --    0.32133   0.32932   0.33024   0.33370   0.33982
 Alpha virt. eigenvalues --    0.34740   0.35273   0.35796   0.35848   0.36791
 Alpha virt. eigenvalues --    0.37399   0.38319   0.39100   0.39518   0.40242
 Alpha virt. eigenvalues --    0.40523   0.41128   0.41476   0.41990   0.43981
 Alpha virt. eigenvalues --    0.44470   0.46591   0.48848   0.49940   0.55080
 Alpha virt. eigenvalues --    0.56573   0.58805   0.59156   0.60879   0.63995
 Alpha virt. eigenvalues --    0.64722   0.65671   0.65948   0.66440   0.67947
 Alpha virt. eigenvalues --    0.68567   0.69573   0.71085   0.71666   0.72039
 Alpha virt. eigenvalues --    0.73339   0.74373   0.74811   0.75079   0.75864
 Alpha virt. eigenvalues --    0.76632   0.77239   0.77396   0.79066   0.79787
 Alpha virt. eigenvalues --    0.80229   0.81964   0.83393   0.85850   0.86410
 Alpha virt. eigenvalues --    0.87836   0.90044   0.91932   0.92826   0.93128
 Alpha virt. eigenvalues --    0.94927   0.95535   0.96438   0.97518   0.97902
 Alpha virt. eigenvalues --    0.98397   0.99299   1.01844   1.03880   1.07342
 Alpha virt. eigenvalues --    1.07706   1.09678   1.10265   1.11140   1.12183
 Alpha virt. eigenvalues --    1.12376   1.14003   1.15363   1.16888   1.17235
 Alpha virt. eigenvalues --    1.17645   1.18231   1.19095   1.19335   1.20596
 Alpha virt. eigenvalues --    1.20681   1.21844   1.23290   1.24423   1.24795
 Alpha virt. eigenvalues --    1.25864   1.26870   1.27882   1.28211   1.28526
 Alpha virt. eigenvalues --    1.28976   1.31642   1.33273   1.34085   1.34887
 Alpha virt. eigenvalues --    1.35562   1.38745   1.39185   1.40789   1.42243
 Alpha virt. eigenvalues --    1.43322   1.44409   1.45194   1.45829   1.46169
 Alpha virt. eigenvalues --    1.46646   1.46865   1.47747   1.49699   1.50805
 Alpha virt. eigenvalues --    1.54017   1.55420   1.59777   1.64526   1.65581
 Alpha virt. eigenvalues --    1.68073   1.71135   1.72421   1.75968   1.77231
 Alpha virt. eigenvalues --    1.78537   1.79533   1.79586   1.79789   1.80456
 Alpha virt. eigenvalues --    1.81764   1.83122   1.84545   1.85726   1.86355
 Alpha virt. eigenvalues --    1.89113   1.89374   1.93938   1.96096   1.96512
 Alpha virt. eigenvalues --    1.97305   1.98182   2.00552   2.01536   2.02564
 Alpha virt. eigenvalues --    2.04804   2.05527   2.07146   2.07737   2.09107
 Alpha virt. eigenvalues --    2.10798   2.11158   2.12582   2.12934   2.13297
 Alpha virt. eigenvalues --    2.15481   2.16475   2.21526   2.22539   2.23641
 Alpha virt. eigenvalues --    2.24789   2.25613   2.26794   2.27131   2.27765
 Alpha virt. eigenvalues --    2.28596   2.32998   2.35459   2.39195   2.40100
 Alpha virt. eigenvalues --    2.40972   2.45944   2.48842   2.54089   2.57386
 Alpha virt. eigenvalues --    2.59648   2.60247   2.61097   2.61568   2.63791
 Alpha virt. eigenvalues --    2.67603   2.71196   2.72475   2.73751   2.76335
 Alpha virt. eigenvalues --    2.77159   2.79028   2.80325   2.81609   2.84603
 Alpha virt. eigenvalues --    2.88357   2.92854   2.97793   2.98690   3.02562
 Alpha virt. eigenvalues --    3.03075   3.08368   3.09547   3.16954   3.39114
 Alpha virt. eigenvalues --    3.39624   4.13932   4.22899   4.24670   4.25741
 Alpha virt. eigenvalues --    4.28003   4.29694   4.32181   4.33965   4.36080
 Alpha virt. eigenvalues --    4.37419   4.37825   4.40632   4.42456   4.49343
 Alpha virt. eigenvalues --    4.51493   4.54725   4.74103   4.76816
          Condensed to atoms (all electrons):
               1          2          3          4          5          6
     1  C   13.618172  -3.305801  -0.426326  -2.619822  -0.571941  -0.881520
     2  C   -3.305801  23.362110  -6.436352   1.906631  -0.786044  -8.073403
     3  C   -0.426326  -6.436352  14.148482  -0.976619  -1.594365   0.856441
     4  C   -2.619822   1.906631  -0.976619  11.667968  -2.920099  -0.872032
     5  C   -0.571941  -0.786044  -1.594365  -2.920099  12.595314  -0.146034
     6  C   -0.881520  -8.073403   0.856441  -0.872032  -0.146034  14.726304
     7  H   -0.008568   0.323155  -0.019889   0.026313  -0.030755   0.006193
     8  H    0.023645  -0.032149   0.062847   0.014109   0.313728  -0.081563
     9  H    0.003485  -0.007523   0.007597   0.016156  -0.103661   0.380845
    10  O   -0.023633   0.031054  -0.134198   0.307050  -0.201306   0.049815
    11  C   -0.017955  -0.073544  -0.004572  -0.516062   0.777312  -0.074186
    12  C   -0.130602  -0.100994  -0.106372   0.305000  -0.621721   0.329309
    13  C   -0.012773  -0.468981  -0.498597   0.321664   0.514697  -0.065603
    14  C    0.082887   0.170095   0.624226  -0.404671  -0.714063   0.065539
    15  C    0.012299   0.023925   0.160003  -0.021161  -0.088844  -0.017709
    16  H    0.000004  -0.000254   0.002034  -0.002322  -0.002604  -0.000173
    17  C   -0.029253  -0.081185  -0.233403   0.005584   0.020987   0.016079
    18  H    0.000191   0.003642  -0.001274  -0.004084  -0.000845   0.000039
    19  H    0.000003   0.000065   0.000645   0.000298  -0.000077  -0.000002
    20  H   -0.014131   0.027107   0.081593   0.038102   0.045663   0.021430
    21  H    0.001891   0.011784  -0.022474   0.039684   0.013990   0.001560
    22  N   -0.385502   0.342144  -0.224202  -0.078397   0.175728  -0.279860
    23  O    0.290577  -0.185968   0.060047   0.002675  -0.031012  -0.105213
    24  O    0.284013  -0.188055   0.039375   0.001507  -0.026401  -0.079665
    25  O    0.000033  -0.000369  -0.000105   0.000356  -0.000224  -0.000041
    26  C    0.000052  -0.000214   0.000916  -0.000962  -0.000610  -0.000026
    27  H    0.000000  -0.000002  -0.000121   0.000023   0.000002   0.000000
    28  H    0.000000   0.000000  -0.000003   0.000011   0.000000   0.000000
    29  H    0.000002   0.000022   0.000510  -0.000108   0.000005  -0.000001
               7          8          9         10         11         12
     1  C   -0.008568   0.023645   0.003485  -0.023633  -0.017955  -0.130602
     2  C    0.323155  -0.032149  -0.007523   0.031054  -0.073544  -0.100994
     3  C   -0.019889   0.062847   0.007597  -0.134198  -0.004572  -0.106372
     4  C    0.026313   0.014109   0.016156   0.307050  -0.516062   0.305000
     5  C   -0.030755   0.313728  -0.103661  -0.201306   0.777312  -0.621721
     6  C    0.006193  -0.081563   0.380845   0.049815  -0.074186   0.329309
     7  H    0.512450   0.000014  -0.000156  -0.000240  -0.002721  -0.002513
     8  H    0.000014   0.498152  -0.004965  -0.004246  -0.002965   0.000701
     9  H   -0.000156  -0.004965   0.501716  -0.000075   0.000626   0.000566
    10  O   -0.000240  -0.004246  -0.000075   8.370300   0.297292  -0.037312
    11  C   -0.002721  -0.002965   0.000626   0.297292  11.035784  -1.039094
    12  C   -0.002513   0.000701   0.000566  -0.037312  -1.039094  12.639071
    13  C   -0.000565   0.000009  -0.000068  -0.224571  -3.683893   0.049181
    14  C    0.003349  -0.000131   0.000051   0.024749   1.075114  -5.098889
    15  C    0.000032  -0.000103  -0.000001   0.022756   0.103151  -1.042979
    16  H    0.000000  -0.000001   0.000000  -0.002178   0.003843   0.063531
    17  C    0.000111   0.000008   0.000001  -0.026850  -1.818826   0.388257
    18  H    0.000000   0.000000   0.000000  -0.000170   0.016162  -0.066536
    19  H    0.000000   0.000000   0.000000  -0.000100   0.043237  -0.006209
    20  H   -0.008374  -0.000193   0.000014  -0.011245   0.054702   0.005716
    21  H    0.000297   0.000004   0.000000  -0.010918   0.063719   0.072170
    22  N   -0.000902   0.000604  -0.002541   0.000255   0.003787  -0.004575
    23  O    0.000041  -0.000066   0.000716   0.000000   0.000581   0.000400
    24  O    0.000250  -0.000062   0.000495  -0.000012   0.000088   0.000804
    25  O    0.000000   0.000000   0.000000   0.000253  -0.029750  -0.042346
    26  C    0.000000   0.000000   0.000000   0.000083  -0.027314  -0.078207
    27  H    0.000000   0.000000   0.000000   0.000000  -0.006445   0.005507
    28  H    0.000000   0.000000   0.000000   0.000000   0.000184   0.000906
    29  H    0.000000   0.000000   0.000000  -0.000002   0.011739   0.008865
              13         14         15         16         17         18
     1  C   -0.012773   0.082887   0.012299   0.000004  -0.029253   0.000191
     2  C   -0.468981   0.170095   0.023925  -0.000254  -0.081185   0.003642
     3  C   -0.498597   0.624226   0.160003   0.002034  -0.233403  -0.001274
     4  C    0.321664  -0.404671  -0.021161  -0.002322   0.005584  -0.004084
     5  C    0.514697  -0.714063  -0.088844  -0.002604   0.020987  -0.000845
     6  C   -0.065603   0.065539  -0.017709  -0.000173   0.016079   0.000039
     7  H   -0.000565   0.003349   0.000032   0.000000   0.000111   0.000000
     8  H    0.000009  -0.000131  -0.000103  -0.000001   0.000008   0.000000
     9  H   -0.000068   0.000051  -0.000001   0.000000   0.000001   0.000000
    10  O   -0.224571   0.024749   0.022756  -0.002178  -0.026850  -0.000170
    11  C   -3.683893   1.075114   0.103151   0.003843  -1.818826   0.016162
    12  C    0.049181  -5.098889  -1.042979   0.063531   0.388257  -0.066536
    13  C   11.594538  -1.946382  -0.751479   0.321944   1.523238  -0.037928
    14  C   -1.946382  14.664762  -0.255055  -0.037857  -2.185575   0.328894
    15  C   -0.751479  -0.255055   7.749413  -0.075840  -0.294373   0.038664
    16  H    0.321944  -0.037857  -0.075840   0.501976   0.022705   0.000014
    17  C    1.523238  -2.185575  -0.294373   0.022705   8.401287   0.020001
    18  H   -0.037928   0.328894   0.038664   0.000014   0.020001   0.514080
    19  H   -0.104051   0.028143   0.387133  -0.005205  -0.057045  -0.000155
    20  H    0.014140  -0.040056  -0.001725   0.000004  -0.005023   0.000271
    21  H    0.000658   0.057891   0.026943  -0.000210  -0.043822  -0.008387
    22  N    0.000431  -0.001295  -0.000071   0.000000   0.000041   0.000000
    23  O    0.000077  -0.000191  -0.000005   0.000000   0.000025   0.000000
    24  O    0.000019   0.000114  -0.000001   0.000000   0.000008   0.000000
    25  O    0.041805  -0.215693  -0.130171  -0.000610   0.495919  -0.004797
    26  C    0.057384   0.026689  -0.027677   0.000047  -0.159790   0.000188
    27  H    0.011295  -0.062081   0.014330   0.000010   0.016730   0.000004
    28  H   -0.000129   0.013808  -0.017568   0.000000   0.015580  -0.000019
    29  H   -0.013380   0.070816   0.001352  -0.000002  -0.077311  -0.000003
              19         20         21         22         23         24
     1  C    0.000003  -0.014131   0.001891  -0.385502   0.290577   0.284013
     2  C    0.000065   0.027107   0.011784   0.342144  -0.185968  -0.188055
     3  C    0.000645   0.081593  -0.022474  -0.224202   0.060047   0.039375
     4  C    0.000298   0.038102   0.039684  -0.078397   0.002675   0.001507
     5  C   -0.000077   0.045663   0.013990   0.175728  -0.031012  -0.026401
     6  C   -0.000002   0.021430   0.001560  -0.279860  -0.105213  -0.079665
     7  H    0.000000  -0.008374   0.000297  -0.000902   0.000041   0.000250
     8  H    0.000000  -0.000193   0.000004   0.000604  -0.000066  -0.000062
     9  H    0.000000   0.000014   0.000000  -0.002541   0.000716   0.000495
    10  O   -0.000100  -0.011245  -0.010918   0.000255   0.000000  -0.000012
    11  C    0.043237   0.054702   0.063719   0.003787   0.000581   0.000088
    12  C   -0.006209   0.005716   0.072170  -0.004575   0.000400   0.000804
    13  C   -0.104051   0.014140   0.000658   0.000431   0.000077   0.000019
    14  C    0.028143  -0.040056   0.057891  -0.001295  -0.000191   0.000114
    15  C    0.387133  -0.001725   0.026943  -0.000071  -0.000005  -0.000001
    16  H   -0.005205   0.000004  -0.000210   0.000000   0.000000   0.000000
    17  C   -0.057045  -0.005023  -0.043822   0.000041   0.000025   0.000008
    18  H   -0.000155   0.000271  -0.008387   0.000000   0.000000   0.000000
    19  H    0.519467   0.000000   0.000013   0.000000   0.000000   0.000000
    20  H    0.000000   0.645698  -0.001757   0.001341  -0.000048  -0.000070
    21  H    0.000013  -0.001757   0.645270   0.000046  -0.000005  -0.000003
    22  N    0.000000   0.001341   0.000046   7.229824   0.241657   0.248865
    23  O    0.000000  -0.000048  -0.000005   0.241657   7.857427  -0.118324
    24  O    0.000000  -0.000070  -0.000003   0.248865  -0.118324   7.856988
    25  O   -0.003050   0.000000  -0.000188   0.000000   0.000000   0.000000
    26  C    0.003841  -0.000046   0.000452   0.000000   0.000000   0.000000
    27  H    0.001256   0.000000   0.000000   0.000000   0.000000   0.000000
    28  H   -0.000021   0.000000   0.000000   0.000000   0.000000   0.000000
    29  H    0.000092   0.000000   0.000006   0.000000   0.000000   0.000000
              25         26         27         28         29
     1  C    0.000033   0.000052   0.000000   0.000000   0.000002
     2  C   -0.000369  -0.000214  -0.000002   0.000000   0.000022
     3  C   -0.000105   0.000916  -0.000121  -0.000003   0.000510
     4  C    0.000356  -0.000962   0.000023   0.000011  -0.000108
     5  C   -0.000224  -0.000610   0.000002   0.000000   0.000005
     6  C   -0.000041  -0.000026   0.000000   0.000000  -0.000001
     7  H    0.000000   0.000000   0.000000   0.000000   0.000000
     8  H    0.000000   0.000000   0.000000   0.000000   0.000000
     9  H    0.000000   0.000000   0.000000   0.000000   0.000000
    10  O    0.000253   0.000083   0.000000   0.000000  -0.000002
    11  C   -0.029750  -0.027314  -0.006445   0.000184   0.011739
    12  C   -0.042346  -0.078207   0.005507   0.000906   0.008865
    13  C    0.041805   0.057384   0.011295  -0.000129  -0.013380
    14  C   -0.215693   0.026689  -0.062081   0.013808   0.070816
    15  C   -0.130171  -0.027677   0.014330  -0.017568   0.001352
    16  H   -0.000610   0.000047   0.000010   0.000000  -0.000002
    17  C    0.495919  -0.159790   0.016730   0.015580  -0.077311
    18  H   -0.004797   0.000188   0.000004  -0.000019  -0.000003
    19  H   -0.003050   0.003841   0.001256  -0.000021   0.000092
    20  H    0.000000  -0.000046   0.000000   0.000000   0.000000
    21  H   -0.000188   0.000452   0.000000   0.000000   0.000006
    22  N    0.000000   0.000000   0.000000   0.000000   0.000000
    23  O    0.000000   0.000000   0.000000   0.000000   0.000000
    24  O    0.000000   0.000000   0.000000   0.000000   0.000000
    25  O    8.323449   0.079941  -0.047868  -0.045609  -0.050294
    26  C    0.079941   5.305108   0.406166   0.386575   0.384985
    27  H   -0.047868   0.406166   0.551541  -0.032803  -0.047028
    28  H   -0.045609   0.386575  -0.032803   0.497784  -0.026836
    29  H   -0.050294   0.384985  -0.047028  -0.026836   0.528605
 Mulliken charges:
               1
     1  C    0.110574
     2  C   -0.460896
     3  C    0.634158
     4  C   -0.236791
     5  C   -0.616818
     6  C    0.223476
     7  H    0.202481
     8  H    0.212623
     9  H    0.206723
    10  O   -0.426550
    11  C   -0.189993
    12  C    0.508364
    13  C   -0.642682
    14  C   -0.275188
    15  C    0.184764
    16  H    0.211145
    17  C    0.085894
    18  H    0.202049
    19  H    0.191724
    20  H    0.146888
    21  H    0.151387
    22  N   -0.267379
    23  O   -0.013391
    24  O   -0.019933
    25  O   -0.370640
    26  C   -0.357582
    27  H    0.189484
    28  H    0.208141
    29  H    0.207968
 Sum of Mulliken charges =   0.00000
 Mulliken charges with hydrogens summed into heavy atoms:
               1
     1  C    0.110574
     2  C   -0.258415
     3  C    0.781046
     4  C   -0.236791
     5  C   -0.404195
     6  C    0.430198
    10  O   -0.426550
    11  C   -0.189993
    12  C    0.659751
    13  C   -0.431537
    14  C   -0.073139
    15  C    0.376488
    17  C    0.085894
    22  N   -0.267379
    23  O   -0.013391
    24  O   -0.019933
    25  O   -0.370640
    26  C    0.248011
 Electronic spatial extent (au):  <R**2>=           7840.7932
 Charge=              0.0000 electrons
 Dipole moment (field-independent basis, Debye):
    X=             -5.4389    Y=              1.1622    Z=              1.1320  Tot=              5.6757
 Quadrupole moment (field-independent basis, Debye-Ang):
   XX=           -114.1345   YY=            -98.2341   ZZ=           -113.2386
   XY=              6.6150   XZ=             -6.4751   YZ=             -3.1772
 Traceless Quadrupole moment (field-independent basis, Debye-Ang):
   XX=             -5.5988   YY=             10.3016   ZZ=             -4.7029
   XY=              6.6150   XZ=             -6.4751   YZ=             -3.1772
 Octapole moment (field-independent basis, Debye-Ang**2):
  XXX=           -287.5314  YYY=             -3.2428  ZZZ=              0.3173  XYY=             11.4454
  XXY=             95.6937  XXZ=             38.9918  XZZ=             -8.6402  YZZ=             -1.8419
  YYZ=              0.8360  XYZ=             11.1083
 Hexadecapole moment (field-independent basis, Debye-Ang**3):
 XXXX=          -9433.8936 YYYY=           -866.1305 ZZZZ=           -237.9678 XXXY=            308.9639
 XXXZ=           -240.0352 YYYX=            -18.2563 YYYZ=             -6.7567 ZZZX=             -3.5441
 ZZZY=              0.9428 XXYY=          -1622.6477 XXZZ=          -1710.6196 YYZZ=           -209.7169
 XXYZ=            -82.0893 YYXZ=             -8.3262 ZZXY=              8.5205
 N-N= 1.161352076656D+03 E-N=-4.318834846133D+03  KE= 8.493098150655D+02
 Evaluate density.
 Using the total density.
 Monte-Carlo method of calculating molar volume:
 based on  0.001 e/bohr**3 density envelope.
 Number of points per bohr**3 =   20 CutOff= 1.00D-04
 Using the SCF density.
 There are       420 points.  Will hold       420 in memory.
 LenV=  4026244420 MDV=  4026531840.
 Box volume = 9276.126 fraction occupied=0.198
 Integrated density= 6.8368683480191365D+01 error=-5.9631316519808635D+01
 Molar volume = 1833.139 bohr**3/mol (163.587 cm**3/mol)
 Recommended a0 for SCRF calculation =  4.92 angstrom (  9.30 bohr)
 Calling FoFJK, ICntrl=      2127 FMM=F ISym2X=0 I1Cent= 0 IOpClX= 0 NMat=1 NMatS=1 NMatT=0.
 ***** Axes restored to original set *****
 -------------------------------------------------------------------
 Center     Atomic                   Forces (Hartrees/Bohr)
 Number     Number              X              Y              Z
 -------------------------------------------------------------------
      1        6           0.004518432    0.023018317   -0.006056831
      2        6           0.002578340    0.003457910    0.013569198
      3        6          -0.001149730   -0.013725026    0.019193993
      4        6           0.008283130    0.052885482   -0.041761541
      5        6          -0.000425688    0.004752971   -0.010067600
      6        6          -0.002142661    0.000557841   -0.015396937
      7        1          -0.002866963   -0.007133755   -0.008847481
      8        1           0.002828211    0.007324597    0.007781002
      9        1           0.000871212   -0.002843736    0.010993547
     10        8          -0.003864788   -0.010209114   -0.021990731
     11        6          -0.003577869   -0.058682249    0.028268209
     12        6           0.005287033    0.020112359   -0.003494764
     13        6          -0.004829790   -0.013358437    0.015938479
     14        6           0.003627110    0.012178709    0.008012874
     15        6          -0.008982215   -0.018347927    0.002029317
     16        1           0.004009194    0.006128058    0.009363745
     17        6           0.007077740    0.005676593   -0.019517350
     18        1          -0.002420926   -0.005448260   -0.009635583
     19        1           0.004356436    0.009389811    0.000813159
     20        1          -0.002436069   -0.022167454    0.012425523
     21        1           0.000654669    0.018386622   -0.017731099
     22        7           0.004668999    0.022824178   -0.004594929
     23        8           0.047216555   -0.024316161   -0.003706753
     24        8          -0.052526248   -0.001702093    0.009065129
     25        8          -0.008815854   -0.017757429    0.029074207
     26        6           0.007782646   -0.008300713    0.001419007
     27        1           0.006319071    0.017498821    0.006166548
     28        1           0.002263062   -0.000382228   -0.016825935
     29        1          -0.018303038    0.000182314    0.005513596
 -------------------------------------------------------------------
 Cartesian Forces:  Max     0.058682249 RMS     0.016579336

 GradGradGradGradGradGradGradGradGradGradGradGradGradGradGradGradGradGrad
 Berny optimization.
 FormGI is forming the generalized inverse of G from B-inverse, IUseBI=4.
 Internal  Forces:  Max     0.165571819 RMS     0.024733178
 Search for a local minimum.
 Step number   1 out of a maximum of  148
 All quantities printed in internal units (Hartrees-Bohrs-Radians)
 Mixed Optimization -- RFO/linear search
 Second derivative matrix not updated -- first step.
 ITU=  0
     Eigenvalues ---    0.00230   0.00230   0.00766   0.00766   0.01295
     Eigenvalues ---    0.01295   0.01655   0.01752   0.01784   0.01932
     Eigenvalues ---    0.02070   0.02070   0.02070   0.02070   0.02070
     Eigenvalues ---    0.02070   0.02070   0.02070   0.02070   0.02070
     Eigenvalues ---    0.02070   0.02070   0.02070   0.02070   0.10344
     Eigenvalues ---    0.10344   0.16000   0.16000   0.16000   0.16000
     Eigenvalues ---    0.16000   0.16000   0.16000   0.16000   0.16000
     Eigenvalues ---    0.16000   0.16000   0.18708   0.22000   0.22000
     Eigenvalues ---    0.22966   0.22981   0.23969   0.24000   0.24759
     Eigenvalues ---    0.25000   0.25000   0.25000   0.25000   0.25000
     Eigenvalues ---    0.25000   0.25000   0.27457   0.35740   0.37230
     Eigenvalues ---    0.37230   0.37230   0.37230   0.37230   0.37230
     Eigenvalues ---    0.37230   0.37230   0.37230   0.37230   0.37230
     Eigenvalues ---    0.40989   0.40989   0.41268   0.41268   0.41631
     Eigenvalues ---    0.41640   0.45389   0.45389   0.45389   0.45389
     Eigenvalues ---    0.45389   0.45389   0.45389   0.45389   1.05155
     Eigenvalues ---    1.05157
 RFO step:  Lambda=-1.85763846D-01 EMin= 2.30000000D-03
 Linear search not attempted -- first point.
 Maximum step size (   0.300) exceeded in Quadratic search.
    -- Step size scaled by   0.465
 Iteration  1 RMS(Cart)=  0.27640222 RMS(Int)=  0.01266259
 Iteration  2 RMS(Cart)=  0.14263168 RMS(Int)=  0.00255899
 Iteration  3 RMS(Cart)=  0.00735389 RMS(Int)=  0.00012312
 Iteration  4 RMS(Cart)=  0.00000256 RMS(Int)=  0.00012312
 Iteration  5 RMS(Cart)=  0.00000000 RMS(Int)=  0.00012312
 Variable       Old X    -DE/DX   Delta X   Delta X   Delta X     New X
                                 (Linear)    (Quad)   (Total)
    R1        2.64826  -0.01556   0.00000  -0.01150  -0.01151   2.63675
    R2        2.64826  -0.01522   0.00000  -0.01141  -0.01141   2.63685
    R3        2.77790   0.00334   0.00000   0.00286   0.00286   2.78076
    R4        2.64826  -0.00524   0.00000  -0.00366  -0.00366   2.64460
    R5        2.02201   0.01172   0.00000   0.00977   0.00977   2.03178
    R6        2.64826   0.00457   0.00000   0.00366   0.00366   2.65193
    R7        2.02201  -0.01899   0.00000  -0.01583  -0.01583   2.00617
    R8        2.64826  -0.00538   0.00000  -0.00373  -0.00372   2.64454
    R9        2.93342  -0.04654   0.00000  -0.04704  -0.04704   2.88638
   R10        2.64826  -0.00952   0.00000  -0.00708  -0.00707   2.64119
   R11        2.02201   0.01104   0.00000   0.00920   0.00920   2.03121
   R12        2.02201   0.01134   0.00000   0.00945   0.00945   2.03146
   R13        3.18558  -0.05005   0.00000  -0.06246  -0.06246   3.12312
   R14        2.64826  -0.00311   0.00000  -0.00219  -0.00219   2.64607
   R15        2.64826  -0.01240   0.00000  -0.00905  -0.00905   2.63922
   R16        2.64826  -0.00285   0.00000  -0.00198  -0.00198   2.64628
   R17        2.02201  -0.01973   0.00000  -0.01645  -0.01645   2.00556
   R18        2.64826  -0.00651   0.00000  -0.00484  -0.00484   2.64343
   R19        2.02201   0.01179   0.00000   0.00983   0.00983   2.03183
   R20        2.64826  -0.01363   0.00000  -0.00988  -0.00988   2.63838
   R21        2.02201   0.01125   0.00000   0.00938   0.00938   2.03139
   R22        2.64826  -0.00877   0.00000  -0.00645  -0.00645   2.64182
   R23        2.02201   0.01011   0.00000   0.00842   0.00842   2.03043
   R24        2.70231  -0.02807   0.00000  -0.02193  -0.02193   2.68038
   R25        2.26643   0.05173   0.00000   0.01945   0.01945   2.28588
   R26        2.26642   0.05182   0.00000   0.01949   0.01949   2.28590
   R27        2.70231   0.00907   0.00000   0.00708   0.00708   2.70939
   R28        2.02201   0.01905   0.00000   0.01589   0.01589   2.03789
   R29        2.02201   0.01621   0.00000   0.01352   0.01352   2.03552
   R30        2.02201   0.01885   0.00000   0.01571   0.01571   2.03772
    A1        2.09440   0.00374   0.00000   0.00309   0.00308   2.09747
    A2        2.09440  -0.00177   0.00000  -0.00144  -0.00144   2.09296
    A3        2.09440  -0.00196   0.00000  -0.00165  -0.00164   2.09275
    A4        2.09440  -0.00021   0.00000  -0.00042  -0.00044   2.09396
    A5        2.09440   0.00036   0.00000   0.00056   0.00057   2.09496
    A6        2.09440  -0.00016   0.00000  -0.00014  -0.00013   2.09426
    A7        2.09440   0.00333   0.00000   0.00446   0.00446   2.09886
    A8        2.09440  -0.01889   0.00000  -0.02541  -0.02541   2.06899
    A9        2.09440   0.01556   0.00000   0.02095   0.02095   2.11534
   A10        2.09440  -0.01395   0.00000  -0.01425  -0.01424   2.08016
   A11        2.09440   0.10216   0.00000   0.10876   0.10875   2.20315
   A12        2.09440  -0.08821   0.00000  -0.09451  -0.09452   1.99988
   A13        2.09440   0.00966   0.00000   0.01099   0.01100   2.10539
   A14        2.09440  -0.00542   0.00000  -0.00629  -0.00629   2.08810
   A15        2.09440  -0.00424   0.00000  -0.00470  -0.00470   2.08969
   A16        2.09440  -0.00257   0.00000  -0.00387  -0.00386   2.09053
   A17        2.09440   0.00234   0.00000   0.00336   0.00336   2.09775
   A18        2.09440   0.00023   0.00000   0.00051   0.00051   2.09490
   A19        2.23319   0.16557   0.00000   0.17678   0.17678   2.40998
   A20        2.01758   0.10533   0.00000   0.11338   0.11345   2.13103
   A21        2.16295  -0.09708   0.00000  -0.10393  -0.10404   2.05892
   A22        2.09440  -0.00768   0.00000  -0.00797  -0.00796   2.08643
   A23        2.09440   0.00201   0.00000   0.00236   0.00235   2.09675
   A24        2.09440   0.01412   0.00000   0.01917   0.01916   2.11356
   A25        2.09440  -0.01613   0.00000  -0.02153  -0.02154   2.07286
   A26        2.09440   0.00571   0.00000   0.00614   0.00614   2.10054
   A27        2.09440  -0.00305   0.00000  -0.00333  -0.00333   2.09107
   A28        2.09440  -0.00267   0.00000  -0.00281  -0.00281   2.09158
   A29        2.09440   0.00210   0.00000   0.00240   0.00240   2.09679
   A30        2.09440   0.00028   0.00000   0.00059   0.00059   2.09499
   A31        2.09440  -0.00238   0.00000  -0.00300  -0.00299   2.09140
   A32        2.09440   0.00096   0.00000   0.00062   0.00062   2.09501
   A33        2.09440  -0.00282   0.00000  -0.00346  -0.00346   2.09094
   A34        2.09440   0.00186   0.00000   0.00284   0.00284   2.09723
   A35        2.09440  -0.00310   0.00000  -0.00356  -0.00356   2.09083
   A36        2.09440  -0.00759   0.00000  -0.00797  -0.00797   2.08642
   A37        2.09440   0.01068   0.00000   0.01153   0.01153   2.10593
   A38        2.06635  -0.00951   0.00000  -0.01015  -0.01015   2.05620
   A39        2.06634  -0.00951   0.00000  -0.01016  -0.01016   2.05618
   A40        2.15049   0.01902   0.00000   0.02031   0.02031   2.17080
   A41        1.91114   0.02689   0.00000   0.02871   0.02871   1.93985
   A42        1.91063   0.00754   0.00000   0.01038   0.01036   1.92099
   A43        1.91063  -0.01053   0.00000  -0.01470  -0.01469   1.89594
   A44        1.91063   0.00545   0.00000   0.00763   0.00760   1.91823
   A45        1.91063  -0.00130   0.00000  -0.00234  -0.00232   1.90831
   A46        1.91063  -0.00140   0.00000  -0.00082  -0.00088   1.90976
   A47        1.91063   0.00025   0.00000  -0.00015  -0.00014   1.91049
    D1        0.00000  -0.00006   0.00000  -0.00014  -0.00014  -0.00014
    D2       -3.14159  -0.00010   0.00000  -0.00024  -0.00023   3.14136
    D3       -3.14159  -0.00002   0.00000  -0.00005  -0.00005   3.14154
    D4        0.00000  -0.00007   0.00000  -0.00015  -0.00014  -0.00014
    D5        0.00000   0.00001   0.00000   0.00002   0.00002   0.00001
    D6        3.14159   0.00006   0.00000   0.00013   0.00013  -3.14147
    D7        3.14159  -0.00003   0.00000  -0.00007  -0.00007   3.14152
    D8        0.00000   0.00002   0.00000   0.00004   0.00004   0.00003
    D9        1.57667   0.00000   0.00000  -0.00001  -0.00001   1.57666
   D10       -1.56492   0.00007   0.00000   0.00016   0.00016  -1.56476
   D11       -1.56492   0.00003   0.00000   0.00008   0.00008  -1.56484
   D12        1.57667   0.00010   0.00000   0.00025   0.00025   1.57692
   D13        0.00000   0.00002   0.00000   0.00004   0.00004   0.00004
   D14       -3.14159  -0.00034   0.00000  -0.00077  -0.00075   3.14084
   D15        3.14159   0.00006   0.00000   0.00013   0.00013  -3.14147
   D16        0.00000  -0.00030   0.00000  -0.00067  -0.00066  -0.00066
   D17        0.00000   0.00009   0.00000   0.00020   0.00019   0.00019
   D18        3.14159   0.00018   0.00000   0.00040   0.00041  -3.14119
   D19        3.14159   0.00044   0.00000   0.00100   0.00100  -3.14059
   D20        0.00000   0.00053   0.00000   0.00120   0.00122   0.00122
   D21        0.00000  -0.00014   0.00000  -0.00032  -0.00032  -0.00032
   D22       -3.14159  -0.00006   0.00000  -0.00013  -0.00013   3.14146
   D23       -3.14159  -0.00023   0.00000  -0.00053  -0.00051   3.14108
   D24        0.00000  -0.00015   0.00000  -0.00033  -0.00032  -0.00032
   D25       -0.09171   0.00123   0.00000   0.00305   0.00305  -0.08866
   D26        3.04988   0.00132   0.00000   0.00326   0.00326   3.05314
   D27        0.00000   0.00010   0.00000   0.00022   0.00022   0.00022
   D28       -3.14159   0.00005   0.00000   0.00011   0.00011  -3.14148
   D29       -3.14159   0.00001   0.00000   0.00002   0.00003  -3.14156
   D30        0.00000  -0.00004   0.00000  -0.00009  -0.00008  -0.00008
   D31        0.07603   0.01123   0.00000   0.02747   0.02716   0.10320
   D32       -2.92738   0.00569   0.00000   0.01438   0.01469  -2.91269
   D33       -3.00924   0.00344   0.00000  -0.00128  -0.00206  -3.01130
   D34        0.13235   0.00559   0.00000   0.00511   0.00453   0.13689
   D35        0.00000   0.00064   0.00000   0.00255   0.00266   0.00266
   D36       -3.14159   0.00280   0.00000   0.00895   0.00925  -3.13234
   D37        2.99766   0.01137   0.00000   0.01731   0.01670   3.01436
   D38       -0.14393   0.01064   0.00000   0.01729   0.01681  -0.12712
   D39        0.00000  -0.00237   0.00000  -0.00487  -0.00484  -0.00484
   D40        3.14159  -0.00310   0.00000  -0.00489  -0.00473   3.13686
   D41        0.00000   0.00120   0.00000   0.00099   0.00083   0.00083
   D42        3.14159   0.00046   0.00000   0.00095   0.00092  -3.14068
   D43        3.14159  -0.00096   0.00000  -0.00541  -0.00561   3.13598
   D44        0.00000  -0.00170   0.00000  -0.00545  -0.00553  -0.00553
   D45        0.00000   0.00226   0.00000   0.00364   0.00354   0.00354
   D46        3.14159   0.00115   0.00000   0.00269   0.00271  -3.13889
   D47        3.14159   0.00298   0.00000   0.00366   0.00343  -3.13816
   D48        0.00000   0.00188   0.00000   0.00271   0.00260   0.00260
   D49        0.00000  -0.00131   0.00000  -0.00222  -0.00215  -0.00215
   D50       -3.14159  -0.00194   0.00000  -0.00359  -0.00351   3.13809
   D51       -3.14159  -0.00057   0.00000  -0.00217  -0.00224   3.13936
   D52        0.00000  -0.00121   0.00000  -0.00354  -0.00359  -0.00359
   D53        0.00000  -0.00042   0.00000  -0.00010  -0.00002  -0.00002
   D54       -3.14159   0.00022   0.00000   0.00127   0.00135  -3.14024
   D55       -3.14159   0.00069   0.00000   0.00086   0.00081  -3.14078
   D56        0.00000   0.00132   0.00000   0.00223   0.00218   0.00218
   D57        2.12406  -0.00048   0.00000  -0.00118  -0.00118   2.12287
   D58       -1.01754  -0.00111   0.00000  -0.00255  -0.00255  -1.02008
   D59        1.33474   0.00265   0.00000   0.00385   0.00391   1.33865
   D60       -2.85405  -0.00077   0.00000  -0.00166  -0.00167  -2.85572
   D61       -0.75965  -0.00358   0.00000  -0.00618  -0.00623  -0.76588
         Item               Value     Threshold  Converged?
 Maximum Force            0.165572     0.000450     NO 
 RMS     Force            0.024733     0.000300     NO 
 Maximum Displacement     1.333070     0.001800     NO 
 RMS     Displacement     0.411123     0.001200     NO 
 Predicted change in Energy=-7.485611D-02
 GradGradGradGradGradGradGradGradGradGradGradGradGradGradGradGradGradGrad

                          Input orientation:                          
 ---------------------------------------------------------------------
 Center     Atomic      Atomic             Coordinates (Angstroms)
 Number     Number       Type             X           Y           Z
 ---------------------------------------------------------------------
      1          6           0       -4.734174   -0.327803   -0.115638
      2          6           0       -4.859844   -0.142390   -1.492852
      3          6           0       -4.641770    1.122343   -2.050871
      4          6           0       -4.296562    2.207237   -1.230386
      5          6           0       -4.173570    2.007410    0.149234
      6          6           0       -4.391180    0.744970    0.708103
      7          1           0       -5.124028   -0.970661   -2.125439
      8          1           0       -3.909366    2.833236    0.784492
      9          1           0       -4.294177    0.602386    1.769184
     10          8           0       -4.029498    3.638697   -1.691441
     11          6           0       -3.914272    4.471008   -3.114588
     12          6           0       -4.199373    3.876088   -4.349684
     13          6           0       -3.373063    5.757994   -3.078693
     14          6           0       -3.939853    4.567321   -5.539574
     15          6           0       -3.111146    6.448049   -4.266961
     16          1           0       -3.156574    6.220593   -2.132549
     17          6           0       -3.394863    5.852099   -5.499325
     18          1           0       -4.160135    4.109387   -6.486843
     19          1           0       -2.692368    7.436812   -4.229097
     20          1           0       -4.742823    1.237593   -3.101370
     21          1           0       -4.618646    2.902722   -4.405509
     22          7           0       -4.963825   -1.658182    0.469779
     23          8           0       -4.014434   -2.400495    0.573907
     24          8           0       -6.089427   -1.936407    0.814540
     25          8           0       -3.133090    6.539079   -6.712331
     26          6           0       -3.844507    7.782704   -6.766308
     27          1           0       -3.354167    8.516639   -6.146738
     28          1           0       -3.856829    8.128072   -7.786517
     29          1           0       -4.856763    7.641853   -6.422417
 ---------------------------------------------------------------------
                    Distance matrix (angstroms):
                    1          2          3          4          5
     1  C    0.000000
     2  C    1.395310   0.000000
     3  C    2.420040   1.399462   0.000000
     4  C    2.803675   2.430416   1.403338   0.000000
     5  C    2.416124   2.790889   2.417233   1.399431   0.000000
     6  C    1.395363   2.418938   2.795916   2.430004   1.397657
     7  H    2.145822   1.075170   2.149139   3.403653   3.866059
     8  H    3.388615   3.865755   3.391586   2.145118   1.074870
     9  H    2.147418   3.393458   3.870917   3.401907   2.147761
    10  O    4.325835   3.876279   2.614594   1.527408   2.463724
    11  C    5.717913   4.980721   3.588078   2.970021   4.097448
    12  C    5.990481   4.974523   3.614328   3.539002   4.871641
    13  C    6.904291   6.288079   4.914803   4.108158   5.012704
    14  C    7.349303   6.277238   4.952938   4.926087   6.242619
    15  C    8.110479   7.361217   5.967998   5.348877   6.352227
    16  H    7.031233   6.617998   5.310803   4.268548   4.898134
    17  C    8.304760   7.357439   5.984747   5.685238   6.877081
    18  H    7.785270   6.595995   5.369567   5.591702   6.961034
    19  H    9.021018   8.344417   6.958258   6.238122   7.130368
    20  H    3.371221   2.122587   1.061622   2.154052   3.388671
    21  H    5.371465   4.220718   2.952051   3.266320   4.663192
    22  N    1.471516   2.482007   3.766791   4.275191   3.763485
    23  O    2.299902   3.175728   4.437725   4.956436   4.431174
    24  O    2.299902   3.170872   4.434214   4.956397   4.434731
    25  O    9.655770   8.652553   7.303858   7.083096   8.288528
    26  C   10.526312   9.573263   8.199474   7.869983   9.015931
    27  H   10.793643   9.945074   8.550418   8.054016   9.092894
    28  H   11.450499  10.441111   9.088123   8.844914  10.026912
    29  H   10.163951   9.213852   7.852429   7.536980   8.683334
                    6          7          8          9         10
     6  C    0.000000
     7  H    3.392553   0.000000
     8  H    2.144490   4.940925   0.000000
     9  H    1.075003   4.281497   2.468682   0.000000
    10  O    3.776544   4.757366   2.606424   4.611417   0.000000
    11  C    5.359456   5.661598   4.229083   6.241938   1.652684
    12  C    5.951631   5.412322   5.247038   6.940221   2.674223
    13  C    6.364495   7.017789   4.875041   7.136572   2.616637
    14  C    7.338088   6.612702   6.557575   8.322511   3.959609
    15  C    7.675602   7.979666   6.262684   8.485658   3.920348
    16  H    6.290946   7.455539   4.533212   6.934112   2.760934
    17  C    8.099851   7.805330   6.990323   9.011076   4.449932
    18  H    7.946064   6.764453   7.386729   8.971009   4.820217
    19  H    8.487795   9.001331   6.914483   9.233339   4.759547
    20  H    3.857255   2.444206   4.282599   4.932248   2.874376
    21  H    5.554878   4.522967   5.238704   6.597247   2.873138
    22  N    2.481906   2.689518   4.624258   2.692034   5.796617
    23  O    3.170788   3.249937   5.239020   3.244109   6.450106
    24  O    3.175714   3.241626   5.244337   3.252651   6.450197
    25  O    9.498281   9.022173   8.398704  10.417704   5.867290
    26  C   10.280826   9.989807   9.028623  11.163055   6.554486
    27  H   10.414561  10.455243   8.980604  11.233024   6.640787
    28  H   11.267400  10.790761  10.074733  12.171222   7.571938
    29  H    9.931167   9.628647   8.715497  10.815402   6.252340
                   11         12         13         14         15
    11  C    0.000000
    12  C    1.400241   0.000000
    13  C    1.396613   2.416562   0.000000
    14  C    2.427033   1.400354   2.791932   0.000000
    15  C    2.425215   2.793933   1.398841   2.417320   0.000000
    16  H    2.144657   3.391139   1.075200   3.867125   2.146978
    17  C    2.804313   2.423537   2.422559   1.396170   1.397989
    18  H    3.400489   2.150213   3.866894   1.074963   3.390810
    19  H    3.395758   3.868379   2.145975   3.392278   1.074458
    20  H    3.337910   2.969054   4.723429   4.204365   5.582995
    21  H    2.149917   1.061295   3.385925   2.125500   3.855009
    22  N    7.177480   7.378330   8.373878   8.713077   9.569749
    23  O    7.799524   7.979439   8.961796   9.269879  10.126533
    24  O    7.824597   8.001664   9.041001   9.343121  10.246508
    25  O    4.222667   3.716259   3.724380   2.431883   2.447162
    26  C    4.930239   4.607348   4.233227   3.442769   2.926749
    27  H    5.086725   5.047621   4.125939   4.038414   2.805652
    28  H    5.933324   5.478003   5.292910   4.211246   3.970616
    29  H    4.678064   4.348490   4.114703   3.327595   3.019659
                   16         17         18         19         20
    16  H    0.000000
    17  C    3.395254   0.000000
    18  H    4.942085   2.144266   0.000000
    19  H    2.467831   2.149021   4.280597   0.000000
    20  H    5.318373   5.372230   4.477517   6.626195   0.000000
    21  H    4.279284   3.375338   2.449127   4.929466   2.118692
    22  N    8.491958   9.720914   9.072230  10.486080   4.602983
    23  O    9.076563  10.265151   9.604894  11.026755   5.222441
    24  O    9.155524  10.382023   9.673882  11.172982   5.217468
    25  O    4.590903   1.418397   2.647464   2.677053   6.613323
    26  C    4.938134   2.352586   3.697429   2.807936   7.554947
    27  H    4.628669   2.742365   4.493230   2.298118   8.011687
    28  H    6.008010   3.259556   4.234498   3.806447   8.379396
    29  H    4.828415   2.488467   3.601077   3.088251   7.215046
                   21         22         23         24         25
    21  H    0.000000
    22  N    6.685015   0.000000
    23  O    7.299573   1.209635   0.000000
    24  O    7.268376   1.209649   2.139832   0.000000
    25  O    4.555370  11.051216  11.566418  11.714418   0.000000
    26  C    5.476028  11.947559  12.554090  12.528769   1.433747
    27  H    6.012224  12.243213  12.836932  12.853295   2.068698
    28  H    6.270235  12.851561  13.445157  13.425960   2.050017
    29  H    5.155965  11.576030  12.268122  12.067977   2.066690
                   26         27         28         29
    26  C    0.000000
    27  H    1.078406   0.000000
    28  H    1.077152   1.758559   0.000000
    29  H    1.078315   1.760410   1.759842   0.000000
 Stoichiometry    C13H11NO4
 Framework group  C1[X(C13H11NO4)]
 Deg. of freedom    81
 Full point group                 C1      NOp   1
 Largest Abelian subgroup         C1      NOp   1
 Largest concise Abelian subgroup C1      NOp   1
                         Standard orientation:                         
 ---------------------------------------------------------------------
 Center     Atomic      Atomic             Coordinates (Angstroms)
 Number     Number       Type             X           Y           Z
 ---------------------------------------------------------------------
      1          6           0        3.886355   -0.090058    0.004030
      2          6           0        2.909540   -1.085374    0.049515
      3          6           0        1.555479   -0.734635    0.094182
      4          6           0        1.174514    0.616003    0.093403
      5          6           0        2.164345    1.604188    0.047250
      6          6           0        3.517092    1.255557    0.002761
      7          1           0        3.196661   -2.121497    0.050179
      8          1           0        1.880765    2.640975    0.046212
      9          1           0        4.269451    2.022598   -0.032391
     10          8           0       -0.255525    1.150659    0.139326
     11          6           0       -1.794755    0.549945    0.103591
     12          6           0       -2.057557   -0.825199    0.127860
     13          6           0       -2.843554    1.447893   -0.106736
     14          6           0       -3.363230   -1.294864   -0.060879
     15          6           0       -4.147642    0.979326   -0.297933
     16          1           0       -2.647288    2.504920   -0.121828
     17          6           0       -4.408149   -0.393985   -0.275009
[...]
 0000054,0.00000570,0.00000581,0.00001827,0.00001521,0.00000036,-0.0000
 0276,-0.00000300,0.00000568,-0.00000166,0.00000608,0.00000081,-0.00056
 621,-0.00004652,-0.00014186,0.00000120,0.00000214,-0.00000079,-0.08953
 869,-0.01228667,0.06888717,0.05292453,-0.00517741,-0.02191016,0.051007
 98,0.00294371,-0.00401930,-0.00571137,0.00007735,-0.00359333,0.0014898
 1,-0.00096362,0.00382448,0.00133044,-0.00053900,-0.00033996,0.00198916
 ,0.00048635,-0.00361493,0.00206211,-0.00004720,0.00025181,0.00029335,0
 .00003460,-0.00009645,-0.00010362,0.00038288,-0.00451494,0.00184535,0.
 00034726,-0.00403757,0.00156015,0.00028610,0.00086446,-0.00184571,-0.0
 0014687,-0.00017367,0.00016335,0.00011333,-0.00009833,0.00019944,-0.00
 008952,-0.00008639,0.00008388,0.00007755,-0.00007486,0.00016125,0.0000
 6561,0.00009319,-0.00001100,0.00002077,0.00034156,-0.00070286,0.000014
 04,-0.00002845,0.00005552,-0.00003635,-0.00003856,0.00004522,-0.000002
 16,-0.00071289,0.00007377,-0.00009337,0.00006187,-0.00005222,-0.013549
 11,-0.17639953,0.13217349,0.00909820,0.17339264,0.00390942,0.03967323,
 -0.02838209,-0.00038176,0.00041409,0.00517815,-0.00120681,0.00339959,0
 .00120005,0.00088035,-0.00467821,0.00022155,-0.00059407,0.00361037,-0.
 00107003,0.00374564,-0.01003029,-0.00572592,-0.00004955,-0.00104517,0.
 00133224,-0.00005660,0.00023504,-0.00000068,-0.00084161,0.00078338,0.0
 0274280,-0.00054588,0.00429308,-0.00102772,-0.00023472,-0.00084595,0.0
 0174743,0.00015398,0.00017881,-0.00019078,-0.00012116,0.00006750,-0.00
 023949,0.00003767,0.00007932,-0.00005925,-0.00004495,0.00009582,-0.000
 12967,-0.00004552,-0.00008718,0.00000094,0.00000063,-0.00029378,0.0005
 7480,-0.00000388,0.00001451,-0.00005367,0.00003000,0.00002671,-0.00004
 871,-0.00017665,0.00025376,-0.00008732,0.00008016,-0.00006470,0.000027
 43,0.06984595,0.12709631,-0.45264108,-0.10904890,-0.14803094,0.5789408
 3,0.01140256,0.01938060,0.00964900,0.00112702,-0.00166080,0.00332971,-
 0.00077707,0.00111645,-0.00018309,0.00038943,-0.00159806,0.00056427,-0
 .00093910,0.00086909,-0.00097795,0.00413083,0.00045833,-0.00094876,0.0
 0012319,0.00028174,-0.00087068,-0.00057623,0.00004580,-0.00017903,0.00
 043944,-0.00036884,-0.00012268,-0.00008861,0.00159229,-0.00078723,-0.0
 0007739,-0.00035611,0.00077181,0.00003397,0.00004778,-0.00009261,-0.00
 003316,0.00000836,-0.00010494,0.00002245,0.00002414,-0.00003115,0.0000
 0002,0.00002775,-0.00008194,-0.00002601,-0.00001293,0.00002144,-0.0000
 0160,-0.00010992,0.00023500,-0.00000761,0.00001356,-0.00001649,0.00001
 032,0.00003050,-0.00001707,-0.00005007,0.00005207,-0.00005278,0.000030
 49,-0.00001086,0.00002460,-0.11376567,0.08297770,0.09341900,0.01586431
 ,0.00670800,0.03466407,0.08276229,0.02204609,-0.05036684,-0.03674595,0
 .00145135,-0.00110493,-0.00375887,0.00067245,-0.00238290,-0.00141988,-
 0.00015947,0.00465589,-0.00254131,0.00044502,-0.00433728,0.00081462,-0
 .00108235,-0.00123466,0.00831663,0.00055141,-0.00441609,0.00114560,-0.
 00001172,-0.00082539,0.00020643,-0.00003724,0.00060606,-0.00005997,0.0
 0037245,-0.00538928,0.00249053,0.00038501,0.00122885,-0.00258888,-0.00
 018786,-0.00017351,0.00028588,0.00009048,-0.00009188,0.00032538,-0.000
 09380,-0.00010352,0.00013589,0.00006596,-0.00009578,0.00022098,0.00009
 510,0.00009011,-0.00003773,0.00002326,0.00040596,-0.00085501,0.0000229
 4,-0.00005160,0.00007173,-0.00004235,-0.00006420,0.00005665,-0.0000404
 9,-0.00006224,0.00015163,-0.00010061,0.00004659,-0.00009142,0.08428588
 ,-0.28807620,-0.17559109,0.00088798,0.04121496,-0.01539414,-0.10962355
 ,0.31090637,0.00760658,-0.02610934,0.00678501,0.00094258,0.00876751,-0
 .00883640,0.00012752,-0.00311875,0.00118814,-0.00048184,0.00305195,-0.
 00009894,-0.00063484,-0.00097304,0.00231807,0.00022354,0.00216635,0.00
 143176,-0.00104632,0.00221420,0.00259141,-0.00013495,-0.00002522,-0.00
 005281,-0.00037716,0.00127245,0.00087657,0.00011635,-0.00227738,0.0012
 6536,0.00017076,0.00051774,-0.00111253,-0.00007940,-0.00004648,0.00014
 838,0.00000624,-0.00001458,0.00016156,-0.00001458,-0.00000663,0.000081
 66,-0.00001220,-0.00001936,0.00009664,0.00004245,0.00000915,-0.0000318
 0,0.00000503,0.00011799,-0.00027655,0.00001528,-0.00004273,0.00002538,
 -0.00000981,-0.00004407,0.00001823,0.00001277,-0.00019811,0.00004439,-
 0.00001968,-0.00000899,-0.00005095,0.09241340,-0.17031597,-0.31597272,
 0.03910797,-0.03877786,-0.10174605,-0.13797133,0.22398928,0.41084652,0
 .00005079,-0.00043416,0.00011890,-0.00000158,0.00024630,-0.00011342,0.
 00014276,-0.00043559,-0.00016960,-0.00027034,0.00158388,-0.00033876,0.
 00001146,-0.00036673,0.00019156,-0.00004927,0.00018081,0.00009597,-0.0
 0002454,-0.00001094,0.00000174,-0.00001545,0.00001806,-0.00003140,0.00
 000008,-0.00001251,-0.00000224,0.00027895,-0.00144439,0.00175526,0.004
 55347,0.00176751,0.00047326,-0.00697372,-0.00147985,-0.00550494,-0.007
 24398,-0.00539200,0.00124330,-0.00153246,-0.02286017,0.04668057,0.0088
 4425,0.01258602,-0.02850767,0.00033420,0.00059829,-0.00110844,-0.10105
 303,-0.02552146,0.01093274,0.00133549,0.00133681,0.00049432,0.00072007
 ,0.00021898,0.00235840,-0.00009382,0.00014006,0.00005942,-0.00013271,-
 0.00081852,0.00153563,-0.00011668,0.00072304,-0.00012370,0.00000538,-0
 .00024296,0.00019646,0.00009530,-0.00029765,-0.00009598,0.35108735,0.0
 0010233,-0.00080371,0.00022027,-0.00002056,0.00042798,-0.00021655,0.00
 022365,-0.00083159,-0.00028027,-0.00036072,0.00270553,-0.00058915,0.00
 005964,-0.00071594,0.00035380,-0.00011892,0.00033342,0.00019178,-0.000
 00896,-0.00001470,0.00000770,-0.00000446,0.00004403,-0.00004501,0.0000
 0507,-0.00002920,-0.00000244,-0.00008515,-0.00340695,0.00335520,0.0027
 7258,0.00004164,-0.00074465,-0.00315481,0.00386619,-0.00198115,-0.0035
 7863,0.00431005,0.00235322,-0.01022787,-0.01031699,0.03022321,0.002283
 44,0.00427575,0.01051145,0.00001232,-0.00002381,0.00015307,-0.01079501
 ,-0.08550126,0.09378615,0.00156062,-0.00206228,-0.00126097,0.00078110,
 -0.00233971,-0.00047049,-0.00011189,0.00028037,0.00014676,-0.00025234,
 -0.00010795,0.00076913,-0.00018878,0.00131748,-0.00027239,-0.00000717,
 -0.00045298,0.00038907,0.00014741,-0.00053511,-0.00015566,0.12440493,0
 .18260743,-0.00019104,0.00156347,-0.00040510,0.00004067,-0.00081594,0.
 00042470,-0.00042005,0.00165962,0.00054882,0.00062433,-0.00571992,0.00
 116667,-0.00006613,0.00139158,-0.00071164,0.00020875,-0.00067615,-0.00
 034548,0.00000221,0.00004573,-0.00003654,-0.00000800,-0.00008629,0.000
 09949,-0.00001231,0.00005353,0.00000451,0.00076470,0.00606450,-0.00674
 582,-0.00191447,-0.00115525,0.00086968,-0.00144996,-0.00072969,0.00446
 082,-0.00285240,0.00085235,0.00222297,0.01767103,0.02050511,-0.0265921
 0,-0.00489454,0.01906851,-0.03939093,0.00019496,0.00062414,-0.00127165
 ,-0.02318983,0.08164156,-0.25001394,-0.00006692,-0.00149433,0.00013938
 ,0.00110839,-0.00100316,0.00022516,0.00018073,-0.00051093,-0.00030239,
 0.00025095,0.00031884,-0.00026639,0.00038344,-0.00251955,0.00042670,0.
 00000337,0.00084206,-0.00067592,-0.00029191,0.00104486,0.00035301,-0.0
 5911462,-0.16643386,0.40602752,-0.00006563,0.00063574,-0.00016979,0.00
 000069,-0.00034886,0.00016351,-0.00020904,0.00066310,0.00022199,0.0002
 5396,-0.00225319,0.00044201,-0.00003385,0.00055067,-0.00027818,0.00008
 058,-0.00026521,-0.00014234,0.00001957,0.00002004,-0.00000895,0.000009
 26,-0.00003204,0.00004161,0.00000120,0.00002155,0.00000337,-0.00001419
 ,0.00249606,-0.00251480,0.00040386,-0.00041360,0.00103401,-0.00037616,
 -0.00054308,-0.00039784,-0.00141625,-0.00064649,0.00010648,0.00279578,
 0.00171371,-0.00370488,0.00325742,0.00469928,-0.00705268,-0.00003085,0
 .00019896,-0.00046857,-0.00392750,-0.00657753,0.01659083,-0.00006191,0
 .00014808,0.00011419,-0.00068643,0.00032083,-0.00123784,0.00013151,-0.
 00021167,-0.00010282,0.00015386,0.00021706,-0.00020538,0.00017144,-0.0
 0103051,0.00017009,-0.00000810,0.00034345,-0.00027488,-0.00013556,0.00
 042639,0.00014327,-0.18884855,-0.06068530,0.03634681,0.48630483,-0.000
 03218,0.00029338,-0.00008356,0.00000618,-0.00016366,0.00007698,-0.0000
 9459,0.00027066,0.00013862,0.00010813,-0.00099637,0.00027910,-0.000027
 15,0.00023276,-0.00013677,0.00004259,-0.00011231,-0.00007014,0.0000011
 2,-0.00000852,0.00000523,0.00000432,-0.00001301,0.00001239,0.00000003,
 0.00000943,0.00000098,0.00017920,0.00077605,-0.00137021,-0.00022899,0.
 00030973,0.00053657,-0.00121299,0.00092191,0.00066719,-0.00107685,-0.0
 0005017,0.00001204,0.00164023,0.00276053,0.00093572,0.00106051,0.00046
 237,-0.00273083,0.00000893,0.00008283,-0.00028239,-0.01482362,-0.01677
 912,0.01376398,0.00000428,-0.00055808,-0.00025605,-0.00056918,-0.00051
 800,0.00042450,0.00003548,-0.00009145,-0.00003554,0.00015623,-0.000164
 68,-0.00004338,0.00006692,-0.00050999,0.00014797,0.00000469,0.00018786
 ,-0.00018118,-0.00004869,0.00019807,0.00003308,-0.04863238,-0.08771395
 ,0.02525186,-0.05034545,0.55693079,0.00002707,-0.00023817,0.00006804,-
 0.00000836,0.00013272,-0.00006823,0.00007177,-0.00023973,-0.00007684,-
 0.00011218,0.00076078,-0.00013392,0.00000904,-0.00019342,0.00010448,-0
 .00002890,0.00009789,0.00005127,-0.00000421,-0.00000304,0.00000264,0.0
 0000229,0.00001301,-0.00001449,0.00000119,-0.00000611,-0.00000098,0.00
 002532,-0.00094368,0.00072599,0.00041720,0.00037018,-0.00004824,0.0012
 5594,0.00121730,-0.00025454,0.00103726,0.00033492,0.00040493,-0.003627
 58,0.00100722,-0.00262551,0.00106126,0.00004926,-0.00048153,-0.0000140
 7,-0.00012314,0.00024018,0.03585032,0.02054022,-0.02421471,0.00044474,
 -0.00013422,0.00001216,0.00088718,0.00119452,-0.00215643,-0.00003386,0
 .00007966,0.00003508,-0.00004928,0.00003535,-0.00033095,-0.00006281,0.
 00040430,-0.00006644,0.00000007,-0.00013636,0.00010571,0.00005026,-0.0
 0016906,-0.00005515,0.00808221,0.01528187,-0.08888440,0.04521516,0.001
 05313,0.60947167,0.00001362,-0.00011313,0.00002834,0.00000058,0.000060
 44,-0.00002999,0.00003573,-0.00012929,-0.00003054,-0.00006405,0.000427
 25,-0.00008814,0.00000791,-0.00009917,0.00005202,-0.00001571,0.0000505
 3,0.00002077,-0.00000382,-0.00000757,0.00000464,-0.00000087,0.00000610
 ,-0.00000952,0.00000030,-0.00000370,-0.00000054,0.00000590,-0.00041720
 ,0.00047345,0.00038994,0.00016969,-0.00000383,0.00008715,-0.00000553,-
 0.00059861,0.00005833,-0.00010110,0.00024496,-0.00073819,-0.00114325,0
 .00101294,0.00029269,-0.00054840,0.00051410,0.00000732,-0.00003237,0.0
 0006997,0.00028000,0.00356767,-0.00620729,0.00013291,0.00026195,0.0000
 3293,0.00049933,0.00029297,0.00030111,-0.00002498,0.00003882,0.0000252
 2,-0.00004491,0.00001059,0.00005729,-0.00003244,0.00017712,-0.00001578
 ,0.00000281,-0.00005556,0.00003746,0.00002572,-0.00007604,-0.00003230,
 -0.03718392,0.00715682,0.00953834,-0.17745553,0.12507739,0.00164183,0.
 20798315,0.00000087,0.00000409,-0.00000037,-0.00000215,-0.00000005,0.0
 0000099,-0.00000659,0.00000891,-0.00000545,-0.00000466,-0.00000063,-0.
 00000299,0.00000096,0.00000662,0.00000060,0.00000036,-0.00000201,-0.00
 000322,0.00000210,0.00000171,0.00000024,0.00000155,-0.00000093,0.00000
 056,0.00000095,0.00000044,0.,-0.00009175,0.00007117,-0.00000668,0.0005
 2665,0.00000105,0.00010441,-0.00018738,-0.00005565,-0.00040231,-0.0005
 1198,-0.00056800,0.00016474,-0.00025154,-0.00066227,-0.00000347,0.0014
 7869,0.00039717,0.00014367,0.00000143,0.00003485,-0.00000564,-0.000550
 81,0.00202141,-0.00102534,-0.00002021,0.00007637,0.00004670,-0.0007079
 7,0.00010075,0.00051061,0.00000818,0.,-0.00000140,-0.00001404,0.000026
 05,0.00000463,0.00000443,-0.00000637,-0.00000563,-0.00000235,0.0000008
 8,0.00000265,-0.00000395,0.00000427,0.00000391,-0.01751557,0.01541863,
 0.00195637,0.12923686,-0.17812368,-0.00233741,-0.13555364,0.18273202,-
 0.00000066,-0.00003972,0.00001059,0.00000161,0.00002536,-0.00000920,0.
 00000300,-0.00003817,-0.00001518,-0.00000329,0.00011431,0.00000030,-0.
 00000388,-0.00003656,0.00001173,-0.00000064,0.00001609,0.00001132,0.00
 000219,0.00000084,0.00000168,0.00000074,0.00000180,-0.00000155,-0.0000
 0007,-0.00000112,-0.00000024,0.00001705,-0.00022764,0.00007108,-0.0007
 9678,-0.00006268,-0.00020234,0.00025161,-0.00015076,0.00079045,0.00007
 633,0.00070867,-0.00037803,0.00045856,0.00080719,-0.00064624,-0.000160
 23,-0.00034797,-0.00005628,0.00002951,-0.00003070,-0.00001301,0.001150
 01,-0.00251781,0.00254749,-0.00007451,-0.00009771,-0.00001459,0.000407
 35,-0.00054636,-0.00219420,-0.00000017,0.00001194,0.00000785,0.0000057
 3,-0.00002244,-0.00000314,-0.00001116,0.00006899,-0.00000898,0.0000001
 7,-0.00002294,0.00001658,0.00000738,-0.00002957,-0.00001087,0.01265255
 ,-0.00400101,-0.00113640,-0.00065342,-0.00061992,-0.05390582,-0.005848
 07,0.00091757,0.05144600,0.00000145,-0.00001178,0.00000282,0.00000041,
 0.00000561,-0.00000261,0.00000402,-0.00001567,-0.00000334,0.00000034,0
 .00005200,-0.00001650,-0.00000323,-0.00001122,0.00000465,-0.00000135,0
 .00000494,0.00000154,-0.00000120,-0.00000215,0.00000063,-0.00000048,0.
 00000094,-0.00000103,0.00000029,-0.00000075,0.00000007,0.00004475,-0.0
 0002615,0.00008058,0.00015917,0.00009857,-0.00007578,-0.00045789,-0.00
 003689,-0.00027463,0.00039151,-0.00004453,0.00027953,0.00018740,-0.000
 70149,0.00157203,-0.00110605,-0.00025265,-0.00059350,-0.00001420,-0.00
 003782,0.00005134,-0.00448465,-0.00187197,0.00023095,-0.00000715,0.000
 01155,-0.00004987,0.00071133,0.00044364,-0.00006242,-0.00000646,0.0000
 0549,0.00000307,-0.00001004,-0.00004462,0.00012962,-0.00000301,0.00001
 402,-0.00000113,0.,-0.00000427,0.00000304,0.00000257,-0.00000561,-0.00
 000289,-0.00302592,-0.01770500,0.03814943,-0.05952427,0.02432729,-0.06
 159954,-0.00219864,0.00618370,-0.02185831,0.06938486,0.00000436,-0.000
 04191,0.00001174,-0.00000252,0.00002443,-0.00000969,0.00000976,-0.0000
 4057,-0.00001725,-0.00001986,0.00013540,-0.00002488,0.00000096,-0.0000
 3341,0.00001636,-0.00000452,0.00001710,0.00000977,0.00000044,-0.000000
 33,0.00000144,-0.00000022,0.00000190,-0.00000241,0.00000022,-0.0000008
 7,-0.00000014,0.00002362,-0.00015794,0.00012232,0.00006097,0.00003803,
 -0.00012246,-0.00022701,-0.00005687,-0.00008849,0.00005921,0.00014008,
 0.00014854,0.00003908,-0.00011846,0.00086150,-0.00041636,0.00021742,-0
 .00011318,-0.00001144,0.00001184,0.00003776,-0.00230681,0.00007552,-0.
 00072153,-0.00001630,0.00001976,-0.00001106,0.00029629,-0.00027341,-0.
 00021793,-0.00000229,0.00001614,0.00000712,0.00000576,-0.00006475,0.00
 004837,-0.00001184,0.00007087,-0.00000719,0.00000060,-0.00002300,0.000
 01559,0.00000862,-0.00003091,-0.00001233,-0.00316512,-0.00836374,0.018
 07763,0.01921631,-0.08049110,0.07905472,0.00474994,-0.00601184,0.02083
 445,-0.01378148,0.08412579,-0.00001040,0.00008057,-0.00002397,0.000003
 43,-0.00004669,0.00002231,-0.00002371,0.00007816,0.00003182,0.00003846
 ,-0.00027376,0.00005250,-0.00000617,0.00006326,-0.00003732,0.00001147,
 -0.00003217,-0.00001585,0.00000015,-0.00000069,-0.00000040,-0.00000042
 ,-0.00000394,0.00000472,-0.00000047,0.00000179,0.00000034,0.00001718,0
 .00028222,-0.00025890,0.00001152,-0.00008777,0.00018181,0.00016426,0.0
 0005842,-0.00002755,0.00003571,0.00006811,0.00006372,-0.00013419,0.000
 27731,-0.00047620,-0.00018741,0.00003199,0.00010480,-0.00001166,0.0000
 1379,-0.00001531,0.00125701,-0.00035961,0.00243073,0.00001518,0.000011
 55,0.00000679,0.00027264,-0.00010215,-0.00001938,0.00000943,-0.0000241
 8,-0.00001140,0.00001413,0.00000711,-0.00005513,0.00001939,-0.00013872
 ,0.00002931,0.00000104,0.00004815,-0.00004121,-0.00001475,0.00005636,0
 .00001562,0.00444986,0.00630116,-0.01048616,-0.04976201,0.08319329,-0.
 28604327,-0.00060603,-0.00121551,0.00327803,0.04912324,-0.09458743,0.3
 0695455,0.00000968,-0.00009414,0.00002472,-0.00000316,0.00005283,-0.00
 002497,0.00002904,-0.00009499,-0.00003213,-0.00004377,0.00032555,-0.00
 005458,0.00000264,-0.00008637,0.00003865,-0.00001059,0.00003953,0.0000
 2258,-0.00000226,-0.00000239,0.00000165,0.00000008,0.00000462,-0.00000
 538,0.00000092,-0.00000331,-0.00000034,-0.00002412,-0.00040124,0.00034
 628,0.00041105,0.00014345,0.00001579,-0.00012193,0.00038158,-0.0003201
 4,-0.00023741,-0.00013868,0.00022720,-0.00093441,-0.00018703,0.0010591
 5,0.00074658,0.00036406,0.00077145,0.00001340,-0.00001714,0.00005243,0
 .00083547,0.00160657,-0.00577526,0.00019372,-0.00011247,-0.00010363,0.
 00018989,-0.00002250,-0.00008192,-0.00001618,0.00003265,0.00001692,-0.
 00001594,-0.00006080,0.00001124,-0.00002344,0.00015386,-0.00002731,-0.
 00000003,-0.00005180,0.00004213,0.00001818,-0.00006304,-0.00002047,-0.
 02089358,-0.03220433,-0.01099594,-0.06079016,-0.03563144,-0.03053936,0
 .00793968,0.01797786,0.01434741,-0.00004356,-0.00451040,-0.00468689,0.
 07277023,0.00000189,-0.00002424,0.00000722,-0.00000113,0.00001155,-0.0
 0000735,0.00001270,-0.00001723,-0.00001246,-0.00000781,0.00006182,-0.0
 0002817,0.00000166,-0.00002342,0.00000773,-0.00000316,0.00000856,0.000
 01151,-0.00000186,0.00000182,-0.00000273,-0.00000244,0.00000127,0.0000
 0024,-0.00000019,-0.00000176,-0.00000003,0.00004169,-0.00009196,0.0001
 6647,0.00047335,0.00006968,0.00007340,-0.00009251,0.00034328,-0.000540
 01,0.00015811,0.00006050,0.00041298,-0.00065374,-0.00052618,0.00108271
 ,-0.00051864,-0.00029878,0.00021917,-0.00001018,-0.00003298,0.00004104
 ,0.00004807,0.00145843,-0.00490129,0.00019040,-0.00001838,-0.00007768,
 0.00086127,-0.00091183,0.00073923,-0.00000484,0.00001046,-0.00000143,-
 0.00000601,-0.00003417,0.00001229,-0.00000385,0.00004355,-0.00002254,-
 0.00000091,-0.00001840,0.00002272,0.00000348,-0.00001483,0.00000293,-0
 .01517468,-0.01240865,0.00018335,-0.03755516,-0.19714225,-0.11710272,-
 0.00376134,-0.01547493,-0.01471410,0.00340631,0.01081481,0.00629939,0.
 05259952,0.21415424,0.00000266,-0.00004762,0.00001225,0.00000345,0.000
 02564,-0.00001048,0.00000701,-0.00004551,-0.00002923,0.00002869,0.0001
 8385,-0.00005171,-0.00000485,-0.00003771,0.00002179,-0.00000537,0.0000
 1871,0.00001087,0.00000025,0.00000128,-0.00000113,-0.00000047,0.000002
 25,-0.00000232,-0.00000042,-0.00000153,-0.00000035,-0.00004955,-0.0000
 7517,0.00027837,-0.00073560,-0.00029850,-0.00029588,0.00037928,-0.0002
 4808,0.00061673,0.00072337,-0.00003998,-0.00070941,0.00061115,-0.00008
 191,-0.00058476,-0.00113851,-0.00018699,0.00015825,-0.00001043,0.00003
 305,0.00004689,0.00002060,0.00117356,0.00259816,-0.00004680,0.00005090
 ,0.00001644,0.00005338,0.00186815,-0.00085072,-0.00000870,0.00001250,0
 .00000564,-0.00001027,0.00001176,0.00002942,-0.00001032,0.00007885,-0.
 00002747,-0.00000108,-0.00002962,0.00003109,0.00000784,-0.00002955,-0.
 00000294,0.00378862,0.01240977,0.01029545,-0.03361893,-0.12072265,-0.1
 5186068,-0.00058474,0.00115775,0.00040298,-0.00509100,-0.02331134,-0.0
 1566501,0.03569071,0.12812815,0.15556777\\0.00000059,0.00000455,-0.000
 00551,0.00000087,-0.00000780,0.00000882,-0.00000490,0.00000870,0.00000
 220,0.00000521,-0.00000379,-0.00000588,-0.00000024,-0.00000442,0.00000
 128,0.00000047,-0.00000114,0.00000083,0.00000041,0.00000113,-0.0000022
 0,0.00000039,-0.00000061,0.00000089,0.00000005,0.00000074,0.00000058,-
 0.00001437,-0.00000064,0.00000313,0.00002859,0.00001271,-0.00000467,-0
 .00000543,0.00000190,-0.00001148,-0.00001095,-0.00000798,0.00000931,-0
 .00001080,-0.00001023,0.00001022,-0.00000408,0.00000154,-0.00000838,0.
 00000188,0.00000203,-0.00000066,0.00000977,0.00000865,0.00000107,0.000
 00121,0.00000090,-0.00000255,0.00000011,-0.00000148,0.00000299,0.00000
 121,-0.00000091,-0.00000185,0.00000031,-0.00000232,0.00000265,-0.00000
 134,-0.00001167,0.00000067,0.00000133,0.00000456,-0.00000483,0.0000010
 4,0.00000589,0.00000239,0.00000205,-0.00000431,0.00000006,-0.00000600,
 0.00000494,0.00000050,0.00000118,-0.00000097,0.00000002,0.00000074,0.0
 0000090,0.00000053,0.00000071,-0.00000089,-0.00000015\\\@


 You can't act like a skunk without someone's getting wind of it.
 -- Lorene Workman
 Job cpu time:       0 days  3 hours  6 minutes 40.1 seconds.
 Elapsed time:       0 days  0 hours  6 minutes 13.4 seconds.
 File lengths (MBytes):  RWF=    405 Int=      0 D2E=      0 Chk=     14 Scr=      1
 Normal termination of Gaussian 16 at Sat Sep 16 14:54:37 2023.
