 Entering Gaussian System, Link 0=g16
 Input=/home/ubuntu/Downloads/molecule_123.gjf
 Output=/home/ubuntu/Downloads/molecule_123.log
 Initial command:
 /home/ubuntu/g16/l1.exe "/home/ubuntu/Scratch/Gau-371049.inp" -scrdir="/home/ubuntu/Scratch/"
 Entering Link 1 = /home/ubuntu/g16/l1.exe PID=    371053.
  
 Copyright (c) 1988-2017, Gaussian, Inc.  All Rights Reserved.
  
 This is part of the Gaussian(R) 16 program.  It is based on
 the Gaussian(R) 09 system (copyright 2009, Gaussian, Inc.),
 the Gaussian(R) 03 system (copyright 2003, Gaussian, Inc.),
 the Gaussian(R) 98 system (copyright 1998, Gaussian, Inc.),
 the Gaussian(R) 94 system (copyright 1995, Gaussian, Inc.),
 the Gaussian 92(TM) system (copyright 1992, Gaussian, Inc.),
 the Gaussian 90(TM) system (copyright 1990, Gaussian, Inc.),
 the Gaussian 88(TM) system (copyright 1988, Gaussian, Inc.),
 the Gaussian 86(TM) system (copyright 1986, Carnegie Mellon
 University), and the Gaussian 82(TM) system (copyright 1983,
 Carnegie Mellon University). Gaussian is a federally registered
 trademark of Gaussian, Inc.
  
 This software contains proprietary and confidential information,
 including trade secrets, belonging to Gaussian, Inc.
  
 This software is provided under written license and may be
 used, copied, transmitted, or stored only in accord with that
 written license.
  
 The following legend is applicable only to US Government
 contracts under FAR:
  
                    RESTRICTED RIGHTS LEGEND
  
 Use, reproduction and disclosure by the US Government is
 subject to restrictions as set forth in subparagraphs (a)
 and (c) of the Commercial Computer Software - Restricted
 Rights clause in FAR 52.227-19.
  
 Gaussian, Inc.
 340 Quinnipiac St., Bldg. 40, Wallingford CT 06492
  
  
 ---------------------------------------------------------------
 Warning -- This program may not be used in any manner that
 competes with the business of Gaussian, Inc. or will provide
 assistance to any competitor of Gaussian, Inc.  The licensee
 of this program is prohibited from giving any competitor of
 Gaussian, Inc. access to this program.  By using this program,
 the user acknowledges that Gaussian, Inc. is engaged in the
 business of creating and licensing software in the field of
 computational chemistry and represents and warrants to the
 licensee that it is not a competitor of Gaussian, Inc. and that
 it will not use this program in any manner prohibited above.
 ---------------------------------------------------------------
  

 Cite this work as:
 Gaussian 16, Revision B.01,
 M. J. Frisch, G. W. Trucks, H. B. Schlegel, G. E. Scuseria, 
 M. A. Robb, J. R. Cheeseman, G. Scalmani, V. Barone, 
 G. A. Petersson, H. Nakatsuji, X. Li, M. Caricato, A. V. Marenich, 
 J. Bloino, B. G. Janesko, R. Gomperts, B. Mennucci, H. P. Hratchian, 
 J. V. Ortiz, A. F. Izmaylov, J. L. Sonnenberg, D. Williams-Young, 
 F. Ding, F. Lipparini, F. Egidi, J. Goings, B. Peng, A. Petrone, 
 T. Henderson, D. Ranasinghe, V. G. Zakrzewski, J. Gao, N. Rega, 
 G. Zheng, W. Liang, M. Hada, M. Ehara, K. Toyota, R. Fukuda, 
 J. Hasegawa, M. Ishida, T. Nakajima, Y. Honda, O. Kitao, H. Nakai, 
 T. Vreven, K. Throssell, J. A. Montgomery, Jr., J. E. Peralta, 
 F. Ogliaro, M. J. Bearpark, J. J. Heyd, E. N. Brothers, K. N. Kudin, 
 V. N. Staroverov, T. A. Keith, R. Kobayashi, J. Normand, 
 K. Raghavachari, A. P. Rendell, J. C. Burant, S. S. Iyengar, 
 J. Tomasi, M. Cossi, J. M. Millam, M. Klene, C. Adamo, R. Cammi, 
 J. W. Ochterski, R. L. Martin, K. Morokuma, O. Farkas, 
 J. B. Foresman, and D. J. Fox, Gaussian, Inc., Wallingford CT, 2016.
 
 ******************************************
 Gaussian 16:  EM64L-G16RevB.01 20-Dec-2017
                23-Sep-2023 
 ******************************************
 %nprocshared=30
 Will use up to   30 processors via shared memory.
 %mem=30GB
 %chk=molecule_123.chk
 ---------------------------------------------------------
 # opt freq b3lyp/6-31+g(d) empiricaldispersion=gd3 volume
 ---------------------------------------------------------
 1/18=20,19=15,26=3,38=1/1,3;
 2/9=110,12=2,17=6,18=5,40=1/2;
 3/5=1,6=6,7=11,11=2,25=1,30=1,71=1,74=-5,124=31/1,2,3;
 4//1;
 5/5=2,38=5/2;
 6/7=2,8=2,9=2,10=2,28=1,44=1/1,4;
 7//1,2,3,16;
 1/18=20,19=15,26=3/3(2);
 2/9=110/2;
 99//99;
 2/9=110/2;
 3/5=1,6=6,7=11,11=2,25=1,30=1,71=1,74=-5,124=31/1,2,3;
 4/5=5,16=3,69=1/1;
 5/5=2,38=5/2;
 7//1,2,3,16;
 1/18=20,19=15,26=3/3(-5);
 2/9=110/2;
 6/7=2,8=2,9=2,10=2,19=2,28=1,44=1/1,4;
 99/9=1/99;
 --------------
 ML molecule123
 --------------
 Symbolic Z-matrix:
 Charge =  0 Multiplicity = 1
 O                     0.3957    1.28295  -0.75505 
 C                    -0.81212   0.72449  -0.43092 
 C                    -1.92858   1.26657  -1.08453 
 C                    -0.96565  -0.31711   0.49375 
 C                    -3.19613   0.76882  -0.81629 
 C                    -2.23996  -0.81319   0.75944 
 H                    -0.10141  -0.73278   0.9991 
 C                    -3.36543  -0.27915   0.11015 
 H                    -4.06233   1.18563  -1.32087 
 H                    -2.36549  -1.61968   1.4755 
 H                    -1.77852   2.07326  -1.79496 
 C                    -4.67252  -0.79515   0.38742 
 N                    -5.73539  -1.21461   0.61223 
 C                     1.56213   0.76609  -0.1906 
 C                     2.20078  -0.30426  -0.81359 
 C                     2.08646   1.36776   0.95074 
 C                     3.40181  -0.80501  -0.29278 
 H                     1.75364  -0.73887  -1.70382 
 C                     3.28297   0.87013   1.47392 
 H                     1.56257   2.20107   1.40855 
 C                     3.93068  -0.20554   0.86074 
 H                     3.70976   1.32307   2.36489 
 H                     4.8601   -0.58356   1.28035 
 C                     4.12398  -1.93953  -0.98253 
 H                     4.70882  -2.53306  -0.27144 
 H                     3.42427  -2.61105  -1.49199 
 H                     4.82005  -1.55488  -1.73992 
 

 GradGradGradGradGradGradGradGradGradGradGradGradGradGradGradGradGradGrad
 Berny optimization.
 Initialization pass.
                           ----------------------------
                           !    Initial Parameters    !
                           ! (Angstroms and Degrees)  !
 --------------------------                            --------------------------
 ! Name  Definition              Value          Derivative Info.                !
 --------------------------------------------------------------------------------
 ! R1    R(1,2)                  1.3696         estimate D2E/DX2                !
 ! R2    R(1,14)                 1.3951         estimate D2E/DX2                !
 ! R3    R(2,3)                  1.4027         estimate D2E/DX2                !
 ! R4    R(2,4)                  1.4013         estimate D2E/DX2                !
 ! R5    R(3,5)                  1.3879         estimate D2E/DX2                !
 ! R6    R(3,11)                 1.0853         estimate D2E/DX2                !
 ! R7    R(4,6)                  1.393          estimate D2E/DX2                !
 ! R8    R(4,7)                  1.084          estimate D2E/DX2                !
 ! R9    R(5,8)                  1.409          estimate D2E/DX2                !
 ! R10   R(5,9)                  1.0857         estimate D2E/DX2                !
 ! R11   R(6,8)                  1.4048         estimate D2E/DX2                !
 ! R12   R(6,10)                 1.0858         estimate D2E/DX2                !
 ! R13   R(8,12)                 1.4323         estimate D2E/DX2                !
 ! R14   R(12,13)                1.1645         estimate D2E/DX2                !
 ! R15   R(14,15)                1.3934         estimate D2E/DX2                !
 ! R16   R(14,16)                1.3927         estimate D2E/DX2                !
 ! R17   R(15,17)                1.4016         estimate D2E/DX2                !
 ! R18   R(15,18)                1.0869         estimate D2E/DX2                !
 ! R19   R(16,19)                1.3975         estimate D2E/DX2                !
 ! R20   R(16,20)                1.0856         estimate D2E/DX2                !
 ! R21   R(17,21)                1.4034         estimate D2E/DX2                !
 ! R22   R(17,24)                1.5114         estimate D2E/DX2                !
 ! R23   R(19,21)                1.3974         estimate D2E/DX2                !
 ! R24   R(19,22)                1.0868         estimate D2E/DX2                !
 ! R25   R(21,23)                1.0876         estimate D2E/DX2                !
 ! R26   R(24,25)                1.0954         estimate D2E/DX2                !
 ! R27   R(24,26)                1.0955         estimate D2E/DX2                !
 ! R28   R(24,27)                1.0982         estimate D2E/DX2                !
 ! A1    A(2,1,14)             119.3744         estimate D2E/DX2                !
 ! A2    A(1,2,3)              115.7259         estimate D2E/DX2                !
 ! A3    A(1,2,4)              123.7729         estimate D2E/DX2                !
 ! A4    A(3,2,4)              120.5003         estimate D2E/DX2                !
 ! A5    A(2,3,5)              119.8842         estimate D2E/DX2                !
 ! A6    A(2,3,11)             118.8291         estimate D2E/DX2                !
 ! A7    A(5,3,11)             121.2867         estimate D2E/DX2                !
 ! A8    A(2,4,6)              119.3932         estimate D2E/DX2                !
 ! A9    A(2,4,7)              120.3519         estimate D2E/DX2                !
 ! A10   A(6,4,7)              120.2548         estimate D2E/DX2                !
 ! A11   A(3,5,8)              120.2355         estimate D2E/DX2                !
 ! A12   A(3,5,9)              120.0757         estimate D2E/DX2                !
 ! A13   A(8,5,9)              119.6888         estimate D2E/DX2                !
 ! A14   A(4,6,8)              120.6203         estimate D2E/DX2                !
 ! A15   A(4,6,10)             119.7392         estimate D2E/DX2                !
 ! A16   A(8,6,10)             119.6405         estimate D2E/DX2                !
 ! A17   A(5,8,6)              119.3664         estimate D2E/DX2                !
 ! A18   A(5,8,12)             120.3234         estimate D2E/DX2                !
 ! A19   A(6,8,12)             120.3102         estimate D2E/DX2                !
 ! A20   A(1,14,15)            119.1366         estimate D2E/DX2                !
 ! A21   A(1,14,16)            119.0977         estimate D2E/DX2                !
 ! A22   A(15,14,16)           121.7153         estimate D2E/DX2                !
 ! A23   A(14,15,17)           120.0694         estimate D2E/DX2                !
 ! A24   A(14,15,18)           118.9993         estimate D2E/DX2                !
 ! A25   A(17,15,18)           120.9314         estimate D2E/DX2                !
 ! A26   A(14,16,19)           118.38           estimate D2E/DX2                !
 ! A27   A(14,16,20)           119.7057         estimate D2E/DX2                !
 ! A28   A(19,16,20)           121.9143         estimate D2E/DX2                !
 ! A29   A(15,17,21)           118.4059         estimate D2E/DX2                !
 ! A30   A(15,17,24)           120.5333         estimate D2E/DX2                !
 ! A31   A(21,17,24)           121.0412         estimate D2E/DX2                !
 ! A32   A(16,19,21)           120.4436         estimate D2E/DX2                !
 ! A33   A(16,19,22)           119.653          estimate D2E/DX2                !
 ! A34   A(21,19,22)           119.9033         estimate D2E/DX2                !
 ! A35   A(17,21,19)           120.9848         estimate D2E/DX2                !
 ! A36   A(17,21,23)           119.386          estimate D2E/DX2                !
 ! A37   A(19,21,23)           119.629          estimate D2E/DX2                !
 ! A38   A(17,24,25)           111.4428         estimate D2E/DX2                !
 ! A39   A(17,24,26)           111.5413         estimate D2E/DX2                !
 ! A40   A(17,24,27)           110.7717         estimate D2E/DX2                !
 ! A41   A(25,24,26)           108.1057         estimate D2E/DX2                !
 ! A42   A(25,24,27)           107.4014         estimate D2E/DX2                !
 ! A43   A(26,24,27)           107.3857         estimate D2E/DX2                !
 ! A44   L(8,12,13,9,-1)       179.9755         estimate D2E/DX2                !
 ! A45   L(8,12,13,9,-2)       179.9759         estimate D2E/DX2                !
 ! D1    D(14,1,2,3)          -177.4289         estimate D2E/DX2                !
 ! D2    D(14,1,2,4)             2.906          estimate D2E/DX2                !
 ! D3    D(2,1,14,15)           86.8335         estimate D2E/DX2                !
 ! D4    D(2,1,14,16)          -95.7045         estimate D2E/DX2                !
 ! D5    D(1,2,3,5)           -179.7313         estimate D2E/DX2                !
 ! D6    D(1,2,3,11)             0.2692         estimate D2E/DX2                !
 ! D7    D(4,2,3,5)             -0.0543         estimate D2E/DX2                !
 ! D8    D(4,2,3,11)           179.9462         estimate D2E/DX2                !
 ! D9    D(1,2,4,6)            179.7057         estimate D2E/DX2                !
 ! D10   D(1,2,4,7)             -0.2151         estimate D2E/DX2                !
 ! D11   D(3,2,4,6)              0.0558         estimate D2E/DX2                !
 ! D12   D(3,2,4,7)           -179.865          estimate D2E/DX2                !
 ! D13   D(2,3,5,8)             -0.0061         estimate D2E/DX2                !
 ! D14   D(2,3,5,9)           -179.9603         estimate D2E/DX2                !
 ! D15   D(11,3,5,8)           179.9934         estimate D2E/DX2                !
 ! D16   D(11,3,5,9)             0.0392         estimate D2E/DX2                !
 ! D17   D(2,4,6,8)              0.003          estimate D2E/DX2                !
 ! D18   D(2,4,6,10)          -179.952          estimate D2E/DX2                !
 ! D19   D(7,4,6,8)            179.9239         estimate D2E/DX2                !
 ! D20   D(7,4,6,10)            -0.031          estimate D2E/DX2                !
 ! D21   D(3,5,8,6)              0.0638         estimate D2E/DX2                !
 ! D22   D(3,5,8,12)          -179.9382         estimate D2E/DX2                !
 ! D23   D(9,5,8,6)           -179.9818         estimate D2E/DX2                !
 ! D24   D(9,5,8,12)             0.0162         estimate D2E/DX2                !
 ! D25   D(4,6,8,5)             -0.0623         estimate D2E/DX2                !
 ! D26   D(4,6,8,12)           179.9397         estimate D2E/DX2                !
 ! D27   D(10,6,8,5)           179.8926         estimate D2E/DX2                !
 ! D28   D(10,6,8,12)           -0.1053         estimate D2E/DX2                !
 ! D29   D(1,14,15,17)         177.5056         estimate D2E/DX2                !
 ! D30   D(1,14,15,18)          -2.4502         estimate D2E/DX2                !
 ! D31   D(16,14,15,17)          0.1126         estimate D2E/DX2                !
 ! D32   D(16,14,15,18)       -179.8432         estimate D2E/DX2                !
 ! D33   D(1,14,16,19)        -177.5837         estimate D2E/DX2                !
 ! D34   D(1,14,16,20)           2.491          estimate D2E/DX2                !
 ! D35   D(15,14,16,19)         -0.1898         estimate D2E/DX2                !
 ! D36   D(15,14,16,20)        179.8849         estimate D2E/DX2                !
 ! D37   D(14,15,17,21)          0.1719         estimate D2E/DX2                !
 ! D38   D(14,15,17,24)       -178.2364         estimate D2E/DX2                !
 ! D39   D(18,15,17,21)       -179.8732         estimate D2E/DX2                !
 ! D40   D(18,15,17,24)          1.7186         estimate D2E/DX2                !
 ! D41   D(14,16,19,21)         -0.0193         estimate D2E/DX2                !
 ! D42   D(14,16,19,22)       -179.8995         estimate D2E/DX2                !
 ! D43   D(20,16,19,21)        179.9042         estimate D2E/DX2                !
 ! D44   D(20,16,19,22)          0.024          estimate D2E/DX2                !
 ! D45   D(15,17,21,19)         -0.3802         estimate D2E/DX2                !
 ! D46   D(15,17,21,23)        179.7973         estimate D2E/DX2                !
 ! D47   D(24,17,21,19)        178.0197         estimate D2E/DX2                !
 ! D48   D(24,17,21,23)         -1.8029         estimate D2E/DX2                !
 ! D49   D(15,17,24,25)       -151.8007         estimate D2E/DX2                !
 ! D50   D(15,17,24,26)        -30.8706         estimate D2E/DX2                !
 ! D51   D(15,17,24,27)         88.6869         estimate D2E/DX2                !
 ! D52   D(21,17,24,25)         29.8334         estimate D2E/DX2                !
 ! D53   D(21,17,24,26)        150.7634         estimate D2E/DX2                !
 ! D54   D(21,17,24,27)        -89.679          estimate D2E/DX2                !
 ! D55   D(16,19,21,17)          0.3074         estimate D2E/DX2                !
 ! D56   D(16,19,21,23)       -179.8705         estimate D2E/DX2                !
 ! D57   D(22,19,21,17)       -179.8127         estimate D2E/DX2                !
 ! D58   D(22,19,21,23)          0.0095         estimate D2E/DX2                !
 --------------------------------------------------------------------------------
 Trust Radius=3.00D-01 FncErr=1.00D-07 GrdErr=1.00D-06 EigMax=2.50D+02 EigMin=1.00D-04
 Number of steps in this run=    141 maximum allowed number of steps=    162.
 GradGradGradGradGradGradGradGradGradGradGradGradGradGradGradGradGradGrad

                          Input orientation:                          
 ---------------------------------------------------------------------
 Center     Atomic      Atomic             Coordinates (Angstroms)
 Number     Number       Type             X           Y           Z
 ---------------------------------------------------------------------
      1          8           0        0.395696    1.282950   -0.755054
      2          6           0       -0.812115    0.724488   -0.430919
      3          6           0       -1.928577    1.266569   -1.084532
      4          6           0       -0.965648   -0.317113    0.493746
      5          6           0       -3.196125    0.768820   -0.816288
      6          6           0       -2.239956   -0.813189    0.759440
      7          1           0       -0.101408   -0.732777    0.999100
      8          6           0       -3.365426   -0.279151    0.110145
      9          1           0       -4.062327    1.185634   -1.320865
     10          1           0       -2.365485   -1.619682    1.475499
     11          1           0       -1.778519    2.073264   -1.794961
     12          6           0       -4.672520   -0.795148    0.387415
     13          7           0       -5.735386   -1.214609    0.612232
     14          6           0        1.562134    0.766093   -0.190601
     15          6           0        2.200778   -0.304257   -0.813588
     16          6           0        2.086463    1.367757    0.950736
     17          6           0        3.401813   -0.805007   -0.292782
     18          1           0        1.753641   -0.738866   -1.703824
     19          6           0        3.282967    0.870132    1.473922
     20          1           0        1.562565    2.201069    1.408548
     21          6           0        3.930677   -0.205542    0.860735
     22          1           0        3.709762    1.323066    2.364886
     23          1           0        4.860096   -0.583558    1.280346
     24          6           0        4.123980   -1.939534   -0.982525
     25          1           0        4.708822   -2.533059   -0.271444
     26          1           0        3.424268   -2.611050   -1.491990
     27          1           0        4.820046   -1.554875   -1.739915
 ---------------------------------------------------------------------
                    Distance matrix (angstroms):
                    1          2          3          4          5
     1  O    0.000000
     2  C    1.369580   0.000000
     3  C    2.347567   1.402694   0.000000
     4  C    2.443964   1.401253   2.434387   0.000000
     5  C    3.628947   2.415363   1.387943   2.805435   0.000000
     6  C    3.692445   2.412496   2.796888   1.393035   2.428977
     7  H    2.717963   2.161870   3.417229   1.084006   3.889434
     8  C    4.163504   2.796326   2.425085   2.430540   1.408966
     9  H    4.494839   3.401255   2.148323   3.891077   1.085651
    10  H    4.585276   3.397429   3.882666   2.149434   3.412798
    11  H    2.536378   2.147963   1.085350   3.407762   2.160783
    12  C    5.595582   4.228675   3.734505   3.739081   2.464678
    13  N    6.759988   5.393223   4.850469   4.854888   3.524558
    14  C    1.395108   2.386743   3.637946   2.833963   4.799221
    15  C    2.404365   3.206599   4.426339   3.425718   5.502551
    16  C    2.403249   3.274831   4.502566   3.516107   5.602395
    17  C    3.689173   4.485045   5.773331   4.464458   6.803218
    18  H    2.613794   3.216333   4.238398   3.521608   5.249859
    19  C    3.670843   4.518775   5.819196   4.518963   6.872697
    20  H    2.624062   3.347094   4.390536   3.683743   5.444847
    21  C    4.162028   5.002739   6.346813   4.911326   7.386007
    22  H    4.551776   5.349971   6.610034   5.296302   7.623538
    23  H    5.249531   6.067404   7.423052   5.884643   8.433712
    24  C    4.933178   5.636161   6.850033   5.542196   7.806840
    25  H    5.779175   6.412316   7.691122   6.139670   8.584139
    26  H    4.987841   5.495328   6.622303   5.336352   7.463893
    27  H    5.347717   6.215320   7.343976   6.324204   8.397121
                    6          7          8          9         10
     6  C    0.000000
     7  H    2.153437   0.000000
     8  C    1.404800   3.413185   0.000000
     9  H    3.412330   4.975080   2.163113   0.000000
    10  H    1.085785   2.477822   2.158957   4.309144   0.000000
    11  H    3.881945   4.300389   3.417830   2.495683   4.967725
    12  C    2.460914   4.612279   1.432350   2.685899   2.680708
    13  N    3.521483   5.667763   2.596899   3.506730   3.502220
    14  C    4.225233   2.535621   5.046170   5.752223   4.888149
    15  C    4.738517   2.961339   5.642388   6.457832   5.274563
    16  C    4.848816   3.033375   5.756908   6.557512   5.387022
    17  C    5.739059   3.734533   6.799588   7.793138   6.087055
    18  H    4.692761   3.278268   5.450382   6.138065   5.277417
    19  C    5.817794   3.774754   6.883449   7.865349   6.172859
    20  H    4.895535   3.397632   5.667666   6.334052   5.480164
    21  C    6.201307   4.068763   7.334979   8.401361   6.482236
    22  H    6.522284   4.540581   7.596660   8.602849   6.808774
    23  H    7.122837   4.971709   8.313919   9.460760   7.302100
    24  C    6.693488   4.820478   7.748677   8.769080   6.946751
    25  H    7.232302   5.290899   8.391614   9.584520   7.343833
    26  H    6.354894   4.707848   7.355578   8.396023   6.581036
    27  H    7.525988   5.691991   8.488354   9.304974   7.872417
                   11         12         13         14         15
    11  H    0.000000
    12  C    4.622315   0.000000
    13  N    5.679919   1.164549   0.000000
    14  C    3.929711   6.453099   7.604046   0.000000
    15  C    4.738196   6.994684   8.114456   1.393423   0.000000
    16  C    4.793191   7.118942   8.244060   1.392685   2.433421
    17  C    6.113659   8.102939   9.191041   2.421408   1.401597
    18  H    4.515809   6.758106   7.853405   2.142760   1.086893
    19  C    6.144246   8.200209   9.296201   2.396399   2.789807
    20  H    4.630513   6.992590   8.096979   2.148589   3.409085
    21  C    6.696312   8.636357   9.721766   2.767558   2.409492
    22  H    6.927363   8.869040   9.935915   3.384234   3.876585
    23  H    7.783792   9.576683  10.635264   3.855100   3.396254
    24  C    7.183460   8.975788  10.013784   3.809280   2.530094
    25  H    8.100920   9.563682  10.564122   4.559889   3.398788
    26  H    7.007395   8.508093   9.501424   4.070166   2.697860
    27  H    7.530437   9.757639  10.819682   4.289669   3.046751
                   16         17         18         19         20
    16  C    0.000000
    17  C    2.827965   0.000000
    18  H    3.405190   2.170688   0.000000
    19  C    1.397489   2.437511   3.876310   0.000000
    20  H    1.085574   3.913291   4.285626   2.176109   0.000000
    21  C    2.425798   1.403445   3.406007   1.397355   3.420501
    22  H    2.153350   3.418585   4.963101   1.086793   2.509169
    23  H    3.407244   2.156469   4.310389   2.153607   4.317904
    24  C    4.339026   1.511430   2.753250   3.825658   5.424267
    25  H    4.856630   2.166770   3.742183   4.081798   5.927333
    26  H    4.856700   2.168040   2.518123   4.575503   5.919083
    27  H    4.822225   2.160528   3.173328   4.309527   5.884821
                   21         22         23         24         25
    21  C    0.000000
    22  H    2.155903   0.000000
    23  H    1.087561   2.476835   0.000000
    24  C    2.538051   4.692685   2.738818   0.000000
    25  H    2.702716   4.776825   2.496295   1.095422   0.000000
    26  H    3.402680   5.516726   3.722657   1.095484   1.773667
    27  H    3.061872   5.134653   3.172859   1.098230   1.767943
                   26         27
    26  H    0.000000
    27  H    1.767815   0.000000
 Stoichiometry    C14H11NO
 Framework group  C1[X(C14H11NO)]
 Deg. of freedom    75
 Full point group                 C1      NOp   1
 Largest Abelian subgroup         C1      NOp   1
 Largest concise Abelian subgroup C1      NOp   1
                         Standard orientation:                         
 ---------------------------------------------------------------------
 Center     Atomic      Atomic             Coordinates (Angstroms)
 Number     Number       Type             X           Y           Z
 ---------------------------------------------------------------------
      1          8           0       -0.395696   -1.282950   -0.755054
      2          6           0        0.812115   -0.724488   -0.430919
      3          6           0        1.928577   -1.266569   -1.084532
      4          6           0        0.965648    0.317113    0.493746
      5          6           0        3.196125   -0.768820   -0.816288
      6          6           0        2.239956    0.813189    0.759440
      7          1           0        0.101408    0.732777    0.999100
      8          6           0        3.365426    0.279151    0.110145
      9          1           0        4.062327   -1.185634   -1.320865
     10          1           0        2.365485    1.619682    1.475499
     11          1           0        1.778519   -2.073264   -1.794961
     12          6           0        4.672520    0.795148    0.387415
     13          7           0        5.735386    1.214609    0.612232
     14          6           0       -1.562134   -0.766093   -0.190601
     15          6           0       -2.200778    0.304257   -0.813588
     16          6           0       -2.086463   -1.367757    0.950736
     17          6           0       -3.401813    0.805007   -0.292782
     18          1           0       -1.753641    0.738866   -1.703824
     19          6           0       -3.282967   -0.870132    1.473922
     20          1           0       -1.562565   -2.201069    1.408548
     21          6           0       -3.930677    0.205542    0.860735
     22          1           0       -3.709762   -1.323066    2.364886
     23          1           0       -4.860096    0.583558    1.280346
     24          6           0       -4.123980    1.939534   -0.982525
     25          1           0       -4.708822    2.533059   -0.271444
     26          1           0       -3.424268    2.611050   -1.491990
     27          1           0       -4.820046    1.554875   -1.739915
 ---------------------------------------------------------------------
 Rotational constants (GHZ):           1.3838195           0.2325667           0.2243261
 Standard basis: 6-31+G(d) (6D, 7F)
 There are   326 symmetry adapted cartesian basis functions of A   symmetry.
 There are   326 symmetry adapted basis functions of A   symmetry.
   326 basis functions,   556 primitive gaussians,   326 cartesian basis functions
    55 alpha electrons       55 beta electrons
       nuclear repulsion energy       938.0129823390 Hartrees.
 NAtoms=   27 NActive=   27 NUniq=   27 SFac= 1.00D+00 NAtFMM=   60 NAOKFM=F Big=F
 Integral buffers will be    131072 words long.
 Raffenetti 2 integral format.
 Two-electron integral symmetry is turned on.
 Nuclear repulsion after empirical dispersion term =      937.9916020057 Hartrees.
 One-electron integrals computed using PRISM.
 NBasis=   326 RedAO= T EigKep=  1.77D-06  NBF=   326
 NBsUse=   326 1.00D-06 EigRej= -1.00D+00 NBFU=   326
 ExpMin= 4.38D-02 ExpMax= 5.48D+03 ExpMxC= 8.25D+02 IAcc=3 IRadAn=         5 AccDes= 0.00D+00
 Harris functional with IExCor=  402 and IRadAn=       5 diagonalized for initial guess.
 HarFok:  IExCor=  402 AccDes= 0.00D+00 IRadAn=         5 IDoV= 1 UseB2=F ITyADJ=14
 ICtDFT=  3500011 ScaDFX=  1.000000  1.000000  1.000000  1.000000
 FoFCou: FMM=F IPFlag=           0 FMFlag=      100000 FMFlg1=           0
         NFxFlg=           0 DoJE=T BraDBF=F KetDBF=T FulRan=T
         wScrn=  0.000000 ICntrl=       500 IOpCl=  0 I1Cent=   200000004 NGrid=           0
         NMat0=    1 NMatS0=      1 NMatT0=    0 NMatD0=    1 NMtDS0=    0 NMtDT0=    0
 Petite list used in FoFCou.
 Requested convergence on RMS density matrix=1.00D-08 within 128 cycles.
 Requested convergence on MAX density matrix=1.00D-06.
 Requested convergence on             energy=1.00D-06.
 No special actions if energy rises.
 SCF Done:  E(RB3LYP) =  -670.120135649     A.U. after   15 cycles
            NFock= 15  Conv=0.85D-08     -V/T= 2.0097

 **********************************************************************

            Population analysis using the SCF Density.

 **********************************************************************

 Orbital symmetries:
       Occupied  (A) (A) (A) (A) (A) (A) (A) (A) (A) (A) (A) (A)
                 (A) (A) (A) (A) (A) (A) (A) (A) (A) (A) (A) (A)
                 (A) (A) (A) (A) (A) (A) (A) (A) (A) (A) (A) (A)
                 (A) (A) (A) (A) (A) (A) (A) (A) (A) (A) (A) (A)
                 (A) (A) (A) (A) (A) (A) (A)
       Virtual   (A) (A) (A) (A) (A) (A) (A) (A) (A) (A) (A) (A)
                 (A) (A) (A) (A) (A) (A) (A) (A) (A) (A) (A) (A)
                 (A) (A) (A) (A) (A) (A) (A) (A) (A) (A) (A) (A)
                 (A) (A) (A) (A) (A) (A) (A) (A) (A) (A) (A) (A)
                 (A) (A) (A) (A) (A) (A) (A) (A) (A) (A) (A) (A)
                 (A) (A) (A) (A) (A) (A) (A) (A) (A) (A) (A) (A)
                 (A) (A) (A) (A) (A) (A) (A) (A) (A) (A) (A) (A)
                 (A) (A) (A) (A) (A) (A) (A) (A) (A) (A) (A) (A)
                 (A) (A) (A) (A) (A) (A) (A) (A) (A) (A) (A) (A)
                 (A) (A) (A) (A) (A) (A) (A) (A) (A) (A) (A) (A)
                 (A) (A) (A) (A) (A) (A) (A) (A) (A) (A) (A) (A)
                 (A) (A) (A) (A) (A) (A) (A) (A) (A) (A) (A) (A)
                 (A) (A) (A) (A) (A) (A) (A) (A) (A) (A) (A) (A)
                 (A) (A) (A) (A) (A) (A) (A) (A) (A) (A) (A) (A)
                 (A) (A) (A) (A) (A) (A) (A) (A) (A) (A) (A) (A)
                 (A) (A) (A) (A) (A) (A) (A) (A) (A) (A) (A) (A)
                 (A) (A) (A) (A) (A) (A) (A) (A) (A) (A) (A) (A)
                 (A) (A) (A) (A) (A) (A) (A) (A) (A) (A) (A) (A)
                 (A) (A) (A) (A) (A) (A) (A) (A) (A) (A) (A) (A)
                 (A) (A) (A) (A) (A) (A) (A) (A) (A) (A) (A) (A)
                 (A) (A) (A) (A) (A) (A) (A) (A) (A) (A) (A) (A)
                 (A) (A) (A) (A) (A) (A) (A) (A) (A) (A) (A) (A)
                 (A) (A) (A) (A) (A) (A) (A)
 The electronic state is 1-A.
 Alpha  occ. eigenvalues --  -19.21634 -14.34161 -10.28575 -10.27061 -10.24259
 Alpha  occ. eigenvalues --  -10.23439 -10.22996 -10.22903 -10.22498 -10.21906
 Alpha  occ. eigenvalues --  -10.21760 -10.21649 -10.21275 -10.21208 -10.20996
 Alpha  occ. eigenvalues --  -10.20289  -1.10486  -0.91234  -0.88818  -0.87596
 Alpha  occ. eigenvalues --   -0.80315  -0.78801  -0.78151  -0.75921  -0.70941
 Alpha  occ. eigenvalues --   -0.67367  -0.64780  -0.62529  -0.60596  -0.57311
 Alpha  occ. eigenvalues --   -0.55617  -0.51974  -0.51005  -0.50008  -0.47365
 Alpha  occ. eigenvalues --   -0.46144  -0.45439  -0.43986  -0.43583  -0.43232
 Alpha  occ. eigenvalues --   -0.43042  -0.41982  -0.40805  -0.38964  -0.38557
 Alpha  occ. eigenvalues --   -0.37731  -0.36559  -0.36403  -0.35900  -0.33543
 Alpha  occ. eigenvalues --   -0.33100  -0.28546  -0.27172  -0.26320  -0.24933
 Alpha virt. eigenvalues --   -0.05259  -0.04192  -0.03002  -0.02650  -0.00746
 Alpha virt. eigenvalues --    0.00468   0.01023   0.01632   0.02199   0.02511
 Alpha virt. eigenvalues --    0.02982   0.03178   0.03714   0.03992   0.05041
 Alpha virt. eigenvalues --    0.05226   0.05878   0.06127   0.06733   0.06867
 Alpha virt. eigenvalues --    0.07525   0.07865   0.08557   0.08709   0.09612
 Alpha virt. eigenvalues --    0.10132   0.10437   0.10824   0.11259   0.12007
 Alpha virt. eigenvalues --    0.12242   0.12455   0.12838   0.13768   0.13920
 Alpha virt. eigenvalues --    0.14432   0.14577   0.14717   0.15215   0.15558
 Alpha virt. eigenvalues --    0.16152   0.16567   0.17223   0.17625   0.17936
 Alpha virt. eigenvalues --    0.18460   0.18852   0.19432   0.19758   0.19973
 Alpha virt. eigenvalues --    0.20353   0.20989   0.21229   0.21758   0.21799
 Alpha virt. eigenvalues --    0.22051   0.22320   0.23185   0.23238   0.23469
 Alpha virt. eigenvalues --    0.23924   0.24264   0.25067   0.25505   0.26126
 Alpha virt. eigenvalues --    0.26403   0.26724   0.27040   0.27226   0.27676
 Alpha virt. eigenvalues --    0.27731   0.28408   0.28663   0.29117   0.29467
 Alpha virt. eigenvalues --    0.29538   0.30518   0.30867   0.31513   0.32203
 Alpha virt. eigenvalues --    0.32593   0.33541   0.34372   0.34606   0.35665
 Alpha virt. eigenvalues --    0.36486   0.37507   0.38248   0.38900   0.39877
 Alpha virt. eigenvalues --    0.41374   0.41908   0.43466   0.46784   0.48169
 Alpha virt. eigenvalues --    0.55395   0.56069   0.59287   0.59684   0.63735
 Alpha virt. eigenvalues --    0.64632   0.66364   0.67098   0.67472   0.68080
 Alpha virt. eigenvalues --    0.69364   0.70221   0.70833   0.70918   0.71403
 Alpha virt. eigenvalues --    0.71955   0.72674   0.73621   0.74095   0.75478
 Alpha virt. eigenvalues --    0.75686   0.76135   0.77051   0.77847   0.78217
 Alpha virt. eigenvalues --    0.78616   0.79939   0.81745   0.82980   0.83545
 Alpha virt. eigenvalues --    0.85212   0.87091   0.88512   0.88824   0.89837
 Alpha virt. eigenvalues --    0.90019   0.90900   0.92366   0.94253   0.95739
 Alpha virt. eigenvalues --    0.96212   0.97636   0.99379   1.00505   1.01094
 Alpha virt. eigenvalues --    1.01940   1.01987   1.03061   1.04299   1.06126
 Alpha virt. eigenvalues --    1.07473   1.08415   1.09586   1.11407   1.12993
 Alpha virt. eigenvalues --    1.14049   1.14813   1.17485   1.18001   1.19268
 Alpha virt. eigenvalues --    1.19761   1.22319   1.23544   1.24572   1.25946
 Alpha virt. eigenvalues --    1.26505   1.27059   1.29537   1.31798   1.31814
 Alpha virt. eigenvalues --    1.32993   1.34576   1.36627   1.38444   1.39481
 Alpha virt. eigenvalues --    1.41267   1.41416   1.42781   1.43986   1.45951
 Alpha virt. eigenvalues --    1.46064   1.47542   1.48358   1.50375   1.51225
 Alpha virt. eigenvalues --    1.51916   1.52530   1.54100   1.56474   1.66839
 Alpha virt. eigenvalues --    1.73791   1.76505   1.79250   1.79750   1.81433
 Alpha virt. eigenvalues --    1.82557   1.82859   1.85834   1.87258   1.88961
 Alpha virt. eigenvalues --    1.89072   1.91128   1.91544   1.93909   1.94977
 Alpha virt. eigenvalues --    1.95726   1.95939   1.97054   1.97525   1.98074
 Alpha virt. eigenvalues --    2.00476   2.03271   2.08862   2.10244   2.11091
 Alpha virt. eigenvalues --    2.12411   2.13227   2.15214   2.16749   2.17977
 Alpha virt. eigenvalues --    2.19345   2.19960   2.22083   2.23190   2.26048
 Alpha virt. eigenvalues --    2.27310   2.28986   2.29184   2.31305   2.35971
 Alpha virt. eigenvalues --    2.36266   2.38157   2.44522   2.47876   2.50524
 Alpha virt. eigenvalues --    2.54131   2.55290   2.61412   2.61810   2.62696
 Alpha virt. eigenvalues --    2.64779   2.69722   2.69808   2.73558   2.75689
 Alpha virt. eigenvalues --    2.77050   2.78162   2.80534   2.80585   2.85968
 Alpha virt. eigenvalues --    2.88826   2.97774   3.03947   3.09458   3.10826
 Alpha virt. eigenvalues --    3.11075   3.21831   3.26717   3.40569   3.46718
 Alpha virt. eigenvalues --    4.23078   4.23684   4.24168   4.25692   4.26264
 Alpha virt. eigenvalues --    4.33799   4.35238   4.37330   4.38449   4.40669
 Alpha virt. eigenvalues --    4.43694   4.50565   4.61559   4.71805   4.78887
 Alpha virt. eigenvalues --    4.96384
          Condensed to atoms (all electrons):
               1          2          3          4          5          6
     1  O    8.331940   0.394690  -0.272723  -0.106286   0.024727  -0.009842
     2  C    0.394690  11.619059  -3.306957  -0.177765   0.714416  -0.489778
     3  C   -0.272723  -3.306957  14.759360  -3.754412  -2.120543  -1.251178
     4  C   -0.106286  -0.177765  -3.754412  15.886448   0.556011  -7.219064
     5  C    0.024727   0.714416  -2.120543   0.556011   9.851242  -1.950085
     6  C   -0.009842  -0.489778  -1.251178  -7.219064  -1.950085  18.209775
     7  H   -0.014344   0.147349   0.066228   0.243924  -0.018559  -0.142658
     8  C   -0.022156  -1.528383   1.214501   1.381901   0.056980  -2.305958
     9  H   -0.000395   0.018740  -0.074335  -0.025673   0.275396   0.067065
    10  H   -0.000771  -0.002121  -0.027701  -0.031813   0.068911   0.226383
    11  H   -0.009274   0.092118   0.267674   0.068629  -0.077213  -0.027131
    12  C   -0.009824  -0.796577   0.702064  -1.414380  -1.162512   1.842101
    13  N   -0.000015   0.031265  -0.042876   0.026796   0.034918  -0.105249
    14  C    0.374304   0.404460   0.467220  -1.223576   0.105296  -0.180565
    15  C   -0.255044   0.126223  -0.375135   0.524751  -0.005661   0.181115
    16  C   -0.147990  -0.190849  -0.477686   0.574681   0.024518   0.049201
    17  C    0.025625  -0.392999   0.437106  -0.420336   0.017649  -0.077368
    18  H    0.004861  -0.046349  -0.035513   0.084171  -0.001932   0.003084
    19  C    0.002097  -0.062517   0.134378  -0.247427   0.016194   0.039987
    20  H    0.001765  -0.026720  -0.014122   0.038107  -0.001069   0.005835
    21  C    0.006927  -0.195147  -0.157495   0.294176  -0.001024   0.034784
    22  H   -0.000523   0.000745   0.000086   0.000837  -0.000035   0.000143
    23  H   -0.000041   0.002399   0.000090  -0.002035   0.000005  -0.000247
    24  C    0.003807  -0.051341   0.024040   0.010347  -0.000630   0.011534
    25  H    0.000045   0.000080   0.000008   0.000322  -0.000003  -0.000010
    26  H    0.000067  -0.002259  -0.000059   0.001940  -0.000018   0.000074
    27  H    0.000023  -0.000968  -0.000243   0.000461   0.000003   0.000096
               7          8          9         10         11         12
     1  O   -0.014344  -0.022156  -0.000395  -0.000771  -0.009274  -0.009824
     2  C    0.147349  -1.528383   0.018740  -0.002121   0.092118  -0.796577
     3  C    0.066228   1.214501  -0.074335  -0.027701   0.267674   0.702064
     4  C    0.243924   1.381901  -0.025673  -0.031813   0.068629  -1.414380
     5  C   -0.018559   0.056980   0.275396   0.068911  -0.077213  -1.162512
     6  C   -0.142658  -2.305958   0.067065   0.226383  -0.027131   1.842101
     7  H    0.505264  -0.036478   0.000015  -0.004522  -0.000148  -0.003450
     8  C   -0.036478  10.040421   0.090408   0.103643  -0.011180  -4.092957
     9  H    0.000015   0.090408   0.508089  -0.000145  -0.004271  -0.066293
    10  H   -0.004522   0.103643  -0.000145   0.508890   0.000014  -0.050273
    11  H   -0.000148  -0.011180  -0.004271   0.000014   0.508418   0.001899
    12  C   -0.003450  -4.092957  -0.066293  -0.050273   0.001899  11.732182
    13  N    0.000013   0.662814   0.001361   0.001519   0.000005  -0.425233
    14  C   -0.007175  -0.070279   0.002461   0.004762  -0.006232  -0.023813
    15  C    0.045362  -0.014353  -0.000249  -0.001770  -0.002703  -0.015053
    16  C    0.024991  -0.039876   0.000054  -0.001370  -0.003330  -0.041041
    17  C   -0.020355   0.003100  -0.000033  -0.000670  -0.000297  -0.000730
    18  H   -0.000303   0.002364   0.000000   0.000000   0.000007  -0.000050
    19  C   -0.010073  -0.004947  -0.000008   0.000057   0.000069   0.000261
    20  H   -0.000169   0.001007   0.000000   0.000000   0.000006  -0.000010
    21  C    0.009776   0.002937   0.000004   0.000001   0.000002  -0.001044
    22  H   -0.000009   0.000068   0.000000   0.000000   0.000000   0.000005
    23  H    0.000000  -0.000008   0.000000   0.000000   0.000000   0.000001
    24  C   -0.000892  -0.001710  -0.000001  -0.000092  -0.000044  -0.001490
    25  H    0.000000   0.000007   0.000000   0.000000   0.000000   0.000000
    26  H   -0.000003   0.000043   0.000000   0.000000   0.000000   0.000002
    27  H    0.000000  -0.000016   0.000000   0.000000   0.000000  -0.000001
              13         14         15         16         17         18
     1  O   -0.000015   0.374304  -0.255044  -0.147990   0.025625   0.004861
     2  C    0.031265   0.404460   0.126223  -0.190849  -0.392999  -0.046349
     3  C   -0.042876   0.467220  -0.375135  -0.477686   0.437106  -0.035513
     4  C    0.026796  -1.223576   0.524751   0.574681  -0.420336   0.084171
     5  C    0.034918   0.105296  -0.005661   0.024518   0.017649  -0.001932
     6  C   -0.105249  -0.180565   0.181115   0.049201  -0.077368   0.003084
     7  H    0.000013  -0.007175   0.045362   0.024991  -0.020355  -0.000303
     8  C    0.662814  -0.070279  -0.014353  -0.039876   0.003100   0.002364
     9  H    0.001361   0.002461  -0.000249   0.000054  -0.000033   0.000000
    10  H    0.001519   0.004762  -0.001770  -0.001370  -0.000670   0.000000
    11  H    0.000005  -0.006232  -0.002703  -0.003330  -0.000297   0.000007
    12  C   -0.425233  -0.023813  -0.015053  -0.041041  -0.000730  -0.000050
    13  N    7.354283   0.000507   0.000081   0.000206  -0.000012   0.000000
    14  C    0.000507  11.870944  -3.975357  -2.785446   1.395860   0.016146
    15  C    0.000081  -3.975357  16.266177  -0.479491  -4.341581   0.195632
    16  C    0.000206  -2.785446  -0.479491  10.375231  -1.071254   0.052572
    17  C   -0.000012   1.395860  -4.341581  -1.071254  10.220913  -0.016725
    18  H    0.000000   0.016146   0.195632   0.052572  -0.016725   0.537128
    19  C   -0.000005   0.246701  -0.465642  -0.624600   0.574302  -0.021151
    20  H    0.000000  -0.060370   0.059016   0.320974   0.000037  -0.000142
    21  C   -0.000011  -0.147781  -1.818690   0.252645   0.300405   0.036379
    22  H    0.000000   0.033474  -0.028220  -0.004028   0.001939   0.000016
    23  H    0.000000  -0.000340   0.056971   0.005293   0.010894  -0.000138
    24  C    0.000008  -0.588153   0.566990   0.255188  -0.913506  -0.000111
    25  H    0.000000  -0.017519   0.030410   0.005840  -0.153179   0.000083
    26  H    0.000000  -0.004185   0.003347   0.005706  -0.128406   0.002753
    27  H    0.000000  -0.001472   0.017512   0.006306  -0.069380   0.000302
              19         20         21         22         23         24
     1  O    0.002097   0.001765   0.006927  -0.000523  -0.000041   0.003807
     2  C   -0.062517  -0.026720  -0.195147   0.000745   0.002399  -0.051341
     3  C    0.134378  -0.014122  -0.157495   0.000086   0.000090   0.024040
     4  C   -0.247427   0.038107   0.294176   0.000837  -0.002035   0.010347
     5  C    0.016194  -0.001069  -0.001024  -0.000035   0.000005  -0.000630
     6  C    0.039987   0.005835   0.034784   0.000143  -0.000247   0.011534
     7  H   -0.010073  -0.000169   0.009776  -0.000009   0.000000  -0.000892
     8  C   -0.004947   0.001007   0.002937   0.000068  -0.000008  -0.001710
     9  H   -0.000008   0.000000   0.000004   0.000000   0.000000  -0.000001
    10  H    0.000057   0.000000   0.000001   0.000000   0.000000  -0.000092
    11  H    0.000069   0.000006   0.000002   0.000000   0.000000  -0.000044
    12  C    0.000261  -0.000010  -0.001044   0.000005   0.000001  -0.001490
    13  N   -0.000005   0.000000  -0.000011   0.000000   0.000000   0.000008
    14  C    0.246701  -0.060370  -0.147781   0.033474  -0.000340  -0.588153
    15  C   -0.465642   0.059016  -1.818690  -0.028220   0.056971   0.566990
    16  C   -0.624600   0.320974   0.252645  -0.004028   0.005293   0.255188
    17  C    0.574302   0.000037   0.300405   0.001939   0.010894  -0.913506
    18  H   -0.021151  -0.000142   0.036379   0.000016  -0.000138  -0.000111
    19  C    6.450514  -0.039751  -0.178314   0.291652  -0.005690  -0.072746
    20  H   -0.039751   0.521803   0.000219  -0.004318  -0.000138   0.002787
    21  C   -0.178314   0.000219   8.161668   0.002942   0.235645  -0.335018
    22  H    0.291652  -0.004318   0.002942   0.525954  -0.004458  -0.003034
    23  H   -0.005690  -0.000138   0.235645  -0.004458   0.540424  -0.021718
    24  C   -0.072746   0.002787  -0.335018  -0.003034  -0.021718   6.623141
    25  H   -0.001846   0.000000   0.009384  -0.000002   0.002803   0.464954
    26  H   -0.006082   0.000000   0.012821   0.000002   0.000083   0.454401
    27  H   -0.009371   0.000000  -0.017102   0.000002   0.000286   0.406284
              25         26         27
     1  O    0.000045   0.000067   0.000023
     2  C    0.000080  -0.002259  -0.000968
     3  C    0.000008  -0.000059  -0.000243
     4  C    0.000322   0.001940   0.000461
     5  C   -0.000003  -0.000018   0.000003
     6  C   -0.000010   0.000074   0.000096
     7  H    0.000000  -0.000003   0.000000
     8  C    0.000007   0.000043  -0.000016
     9  H    0.000000   0.000000   0.000000
    10  H    0.000000   0.000000   0.000000
    11  H    0.000000   0.000000   0.000000
    12  C    0.000000   0.000002  -0.000001
    13  N    0.000000   0.000000   0.000000
    14  C   -0.017519  -0.004185  -0.001472
    15  C    0.030410   0.003347   0.017512
    16  C    0.005840   0.005706   0.006306
    17  C   -0.153179  -0.128406  -0.069380
    18  H    0.000083   0.002753   0.000302
    19  C   -0.001846  -0.006082  -0.009371
    20  H    0.000000   0.000000   0.000000
    21  C    0.009384   0.012821  -0.017102
    22  H   -0.000002   0.000002   0.000002
    23  H    0.002803   0.000083   0.000286
    24  C    0.464954   0.454401   0.406284
    25  H    0.500550  -0.025419  -0.028232
    26  H   -0.025419   0.500935  -0.028855
    27  H   -0.028232  -0.028855   0.491986
 Mulliken charges:
               1
     1  O   -0.321649
     2  C   -0.280811
     3  C   -0.161775
     4  C    0.929264
     5  C   -0.406983
     6  C   -0.912043
     7  H    0.216215
     8  C    0.568106
     9  H    0.207808
    10  H    0.207067
    11  H    0.202982
    12  C   -0.173785
    13  N   -0.540372
    14  C    0.170124
    15  C   -0.294639
    16  C   -0.086443
    17  C    0.619001
    18  H    0.186914
    19  C   -0.006042
    20  H    0.195253
    21  C   -0.509092
    22  H    0.186763
    23  H    0.179918
    24  C   -0.832995
    25  H    0.211724
    26  H    0.213110
    27  H    0.232380
 Sum of Mulliken charges =   0.00000
 Mulliken charges with hydrogens summed into heavy atoms:
               1
     1  O   -0.321649
     2  C   -0.280811
     3  C    0.041207
     4  C    1.145479
     5  C   -0.199175
     6  C   -0.704975
     8  C    0.568106
    12  C   -0.173785
    13  N   -0.540372
    14  C    0.170124
    15  C   -0.107725
    16  C    0.108810
    17  C    0.619001
    19  C    0.180722
    21  C   -0.329175
    24  C   -0.175781
 Electronic spatial extent (au):  <R**2>=           4829.2051
 Charge=              0.0000 electrons
 Dipole moment (field-independent basis, Debye):
    X=             -6.1261    Y=             -0.6375    Z=             -0.3742  Tot=              6.1705
 Quadrupole moment (field-independent basis, Debye-Ang):
   XX=           -120.1955   YY=            -92.9208   ZZ=            -90.3225
   XY=            -14.5636   XZ=             -8.5905   YZ=             -1.4923
 Traceless Quadrupole moment (field-independent basis, Debye-Ang):
   XX=            -19.0492   YY=              8.2254   ZZ=             10.8238
   XY=            -14.5636   XZ=             -8.5905   YZ=             -1.4923
 Octapole moment (field-independent basis, Debye-Ang**2):
  XXX=           -291.4234  YYY=             -6.5923  ZZZ=             -3.6794  XYY=            -16.0366
  XXY=            -54.1884  XXZ=            -32.8488  XZZ=            -11.2546  YZZ=             -5.2677
  YYZ=             -0.4566  XYZ=             11.8811
 Hexadecapole moment (field-independent basis, Debye-Ang**3):
 XXXX=          -7071.5523 YYYY=           -728.0960 ZZZZ=           -513.5240 XXXY=           -513.0128
 XXXZ=           -289.5565 YYYX=            -39.2249 YYYZ=              1.0456 ZZZX=            -15.9233
 ZZZY=             -1.6757 XXYY=          -1124.9370 XXZZ=           -996.7614 YYZZ=           -188.6260
 XXYZ=            -36.0099 YYXZ=            -21.1811 ZZXY=             -5.0280
 N-N= 9.379916020057D+02 E-N=-3.429317910622D+03  KE= 6.636646559978D+02
 Evaluate density.
 Using the total density.
 Monte-Carlo method of calculating molar volume:
 based on  0.001 e/bohr**3 density envelope.
 Number of points per bohr**3 =   20 CutOff= 1.00D-04
 Using the SCF density.
 There are       438 points.  Will hold       438 in memory.
 LenV=  4026280698 MDV=  4026531840.
 Box volume =10543.930 fraction occupied=0.144
 Integrated density= 5.8153092255737313D+01 error=-5.1846907744262687D+01
 Molar volume = 1516.593 bohr**3/mol (135.339 cm**3/mol)
 Recommended a0 for SCRF calculation =  4.65 angstrom (  8.79 bohr)
 Calling FoFJK, ICntrl=      2127 FMM=F ISym2X=0 I1Cent= 0 IOpClX= 0 NMat=1 NMatS=1 NMatT=0.
 ***** Axes restored to original set *****
 -------------------------------------------------------------------
 Center     Atomic                   Forces (Hartrees/Bohr)
 Number     Number              X              Y              Z
 -------------------------------------------------------------------
      1        8          -0.000002332    0.000001656   -0.000002074
      2        6           0.000003528   -0.000001297    0.000002363
      3        6          -0.000004879   -0.000001110   -0.000000078
      4        6           0.000000728    0.000001494   -0.000000527
      5        6           0.000001432    0.000003277   -0.000002919
      6        6          -0.000003205    0.000001264   -0.000002002
      7        1          -0.000000433    0.000000070   -0.000000522
      8        6           0.000001338   -0.000001888    0.000002464
      9        1           0.000000192   -0.000000304   -0.000000043
     10        1           0.000000162    0.000000248    0.000000474
     11        1           0.000001440    0.000000283   -0.000000826
     12        6           0.000000490    0.000000505    0.000000363
     13        7          -0.000000499    0.000001244   -0.000000552
     14        6           0.000001981   -0.000001637    0.000001670
     15        6           0.000001104   -0.000000354    0.000000550
     16        6           0.000000553    0.000000131    0.000000443
     17        6          -0.000000362   -0.000002353    0.000000964
     18        1          -0.000000443    0.000000364   -0.000000437
     19        6          -0.000000070    0.000000072   -0.000000380
     20        1           0.000000131    0.000000345   -0.000000397
     21        6          -0.000000396    0.000000021   -0.000000127
     22        1          -0.000000005   -0.000000125   -0.000000429
     23        1          -0.000000147    0.000000049    0.000000389
     24        6           0.000000325    0.000000023   -0.000000050
     25        1          -0.000000583   -0.000000322    0.000000860
     26        1          -0.000000185   -0.000000475    0.000000679
     27        1           0.000000133   -0.000001180    0.000000142
 -------------------------------------------------------------------
 Cartesian Forces:  Max     0.000004879 RMS     0.000001308

 GradGradGradGradGradGradGradGradGradGradGradGradGradGradGradGradGradGrad
 Berny optimization.
 FormGI is forming the generalized inverse of G from B-inverse, IUseBI=4.
 Internal  Forces:  Max     0.000003070 RMS     0.000000624
 Search for a local minimum.
 Step number   1 out of a maximum of  141
 All quantities printed in internal units (Hartrees-Bohrs-Radians)
 Mixed Optimization -- En-DIIS/RFO-DIIS
 Second derivative matrix not updated -- first step.
 ITU=  0
     Eigenvalues ---    0.00615   0.01471   0.01756   0.01996   0.02024
     Eigenvalues ---    0.02065   0.02067   0.02084   0.02087   0.02093
     Eigenvalues ---    0.02094   0.02102   0.02118   0.02121   0.02123
     Eigenvalues ---    0.02124   0.02130   0.02143   0.02153   0.02173
     Eigenvalues ---    0.02174   0.04806   0.04806   0.07033   0.07164
     Eigenvalues ---    0.16000   0.16000   0.16000   0.16000   0.16000
     Eigenvalues ---    0.16000   0.16000   0.16000   0.16000   0.16000
     Eigenvalues ---    0.16000   0.22000   0.22000   0.22973   0.23470
     Eigenvalues ---    0.23495   0.24000   0.24975   0.24990   0.25000
     Eigenvalues ---    0.25000   0.25000   0.31207   0.33879   0.34187
     Eigenvalues ---    0.34194   0.35096   0.35174   0.35186   0.35304
     Eigenvalues ---    0.35320   0.35329   0.35356   0.35515   0.40654
     Eigenvalues ---    0.41154   0.41802   0.41854   0.41938   0.44796
     Eigenvalues ---    0.45007   0.45439   0.45781   0.45941   0.46356
     Eigenvalues ---    0.46441   0.46654   0.47328   0.51057   1.24862
 RFO step:  Lambda= 0.00000000D+00 EMin= 6.14744190D-03
 Linear search not attempted -- first point.
 Iteration  1 RMS(Cart)=  0.00002590 RMS(Int)=  0.00000000
 Iteration  2 RMS(Cart)=  0.00000000 RMS(Int)=  0.00000000
 Variable       Old X    -DE/DX   Delta X   Delta X   Delta X     New X
                                 (Linear)    (Quad)   (Total)
    R1        2.58813   0.00000   0.00000   0.00000   0.00000   2.58813
    R2        2.63637   0.00000   0.00000   0.00001   0.00001   2.63638
    R3        2.65071   0.00000   0.00000   0.00001   0.00001   2.65071
    R4        2.64798   0.00000   0.00000   0.00000   0.00000   2.64798
    R5        2.62283   0.00000   0.00000   0.00000   0.00000   2.62283
    R6        2.05101   0.00000   0.00000   0.00000   0.00000   2.05102
    R7        2.63245   0.00000   0.00000   0.00000   0.00000   2.63246
    R8        2.04848   0.00000   0.00000   0.00000   0.00000   2.04847
    R9        2.66256   0.00000   0.00000   0.00000   0.00000   2.66256
   R10        2.05158   0.00000   0.00000   0.00000   0.00000   2.05158
   R11        2.65469   0.00000   0.00000   0.00000   0.00000   2.65468
   R12        2.05184   0.00000   0.00000   0.00000   0.00000   2.05184
   R13        2.70675   0.00000   0.00000   0.00000   0.00000   2.70675
   R14        2.20068   0.00000   0.00000   0.00000   0.00000   2.20068
   R15        2.63319   0.00000   0.00000   0.00000   0.00000   2.63319
   R16        2.63179   0.00000   0.00000   0.00000   0.00000   2.63179
   R17        2.64863   0.00000   0.00000   0.00000   0.00000   2.64864
   R18        2.05393   0.00000   0.00000   0.00000   0.00000   2.05393
   R19        2.64087   0.00000   0.00000   0.00000   0.00000   2.64087
   R20        2.05144   0.00000   0.00000   0.00000   0.00000   2.05144
   R21        2.65213   0.00000   0.00000   0.00000   0.00000   2.65213
   R22        2.85619   0.00000   0.00000   0.00000   0.00000   2.85619
   R23        2.64062   0.00000   0.00000   0.00000   0.00000   2.64062
   R24        2.05374   0.00000   0.00000   0.00000   0.00000   2.05374
   R25        2.05519   0.00000   0.00000   0.00000   0.00000   2.05519
   R26        2.07005   0.00000   0.00000   0.00000   0.00000   2.07005
   R27        2.07016   0.00000   0.00000   0.00000   0.00000   2.07016
   R28        2.07535   0.00000   0.00000   0.00000   0.00000   2.07536
    A1        2.08348   0.00000   0.00000   0.00000   0.00000   2.08348
    A2        2.01980   0.00000   0.00000   0.00000   0.00000   2.01980
    A3        2.16025   0.00000   0.00000   0.00000   0.00000   2.16025
    A4        2.10313   0.00000   0.00000   0.00000   0.00000   2.10312
    A5        2.09237   0.00000   0.00000   0.00000   0.00000   2.09238
    A6        2.07396   0.00000   0.00000  -0.00001  -0.00001   2.07395
    A7        2.11685   0.00000   0.00000   0.00000   0.00000   2.11686
    A8        2.08380   0.00000   0.00000   0.00000   0.00000   2.08381
    A9        2.10054   0.00000   0.00000   0.00000   0.00000   2.10054
   A10        2.09884   0.00000   0.00000   0.00000   0.00000   2.09884
   A11        2.09850   0.00000   0.00000   0.00000   0.00000   2.09850
   A12        2.09572   0.00000   0.00000   0.00001   0.00001   2.09572
   A13        2.08896   0.00000   0.00000   0.00000   0.00000   2.08896
   A14        2.10522   0.00000   0.00000   0.00000   0.00000   2.10522
   A15        2.08984   0.00000   0.00000   0.00000   0.00000   2.08984
   A16        2.08812   0.00000   0.00000   0.00000   0.00000   2.08812
   A17        2.08334   0.00000   0.00000   0.00000   0.00000   2.08334
   A18        2.10004   0.00000   0.00000   0.00000   0.00000   2.10004
   A19        2.09981   0.00000   0.00000   0.00000   0.00000   2.09981
   A20        2.07933   0.00000   0.00000   0.00000   0.00000   2.07933
   A21        2.07865   0.00000   0.00000   0.00000   0.00000   2.07865
   A22        2.12433   0.00000   0.00000   0.00000   0.00000   2.12433
   A23        2.09561   0.00000   0.00000   0.00000   0.00000   2.09561
   A24        2.07693   0.00000   0.00000  -0.00001  -0.00001   2.07692
   A25        2.11065   0.00000   0.00000   0.00000   0.00000   2.11065
   A26        2.06612   0.00000   0.00000   0.00000   0.00000   2.06612
   A27        2.08926   0.00000   0.00000   0.00000   0.00000   2.08926
   A28        2.12781   0.00000   0.00000   0.00000   0.00000   2.12781
   A29        2.06657   0.00000   0.00000   0.00000   0.00000   2.06657
   A30        2.10370   0.00000   0.00000   0.00000   0.00000   2.10371
   A31        2.11257   0.00000   0.00000   0.00000   0.00000   2.11257
   A32        2.10214   0.00000   0.00000   0.00000   0.00000   2.10214
   A33        2.08834   0.00000   0.00000   0.00000   0.00000   2.08834
   A34        2.09271   0.00000   0.00000   0.00000   0.00000   2.09271
   A35        2.11158   0.00000   0.00000   0.00000   0.00000   2.11158
   A36        2.08368   0.00000   0.00000   0.00000   0.00000   2.08368
   A37        2.08792   0.00000   0.00000   0.00000   0.00000   2.08792
   A38        1.94504   0.00000   0.00000  -0.00001  -0.00001   1.94504
   A39        1.94676   0.00000   0.00000   0.00000   0.00000   1.94676
   A40        1.93333   0.00000   0.00000   0.00001   0.00001   1.93334
   A41        1.88680   0.00000   0.00000   0.00000   0.00000   1.88680
   A42        1.87451   0.00000   0.00000   0.00000   0.00000   1.87451
   A43        1.87423   0.00000   0.00000   0.00000   0.00000   1.87423
   A44        3.14116   0.00000   0.00000  -0.00003  -0.00003   3.14113
   A45        3.14117   0.00000   0.00000   0.00000   0.00000   3.14117
    D1       -3.09672   0.00000   0.00000  -0.00001  -0.00001  -3.09673
    D2        0.05072   0.00000   0.00000  -0.00002  -0.00002   0.05070
    D3        1.51553   0.00000   0.00000  -0.00001  -0.00001   1.51552
    D4       -1.67036   0.00000   0.00000  -0.00002  -0.00002  -1.67038
    D5       -3.13690   0.00000   0.00000   0.00000   0.00000  -3.13690
    D6        0.00470   0.00000   0.00000   0.00000   0.00000   0.00470
    D7       -0.00095   0.00000   0.00000   0.00001   0.00001  -0.00094
    D8        3.14065   0.00000   0.00000   0.00001   0.00001   3.14067
    D9        3.13646   0.00000   0.00000   0.00000   0.00000   3.13646
   D10       -0.00375   0.00000   0.00000  -0.00001  -0.00001  -0.00376
   D11        0.00097   0.00000   0.00000  -0.00001  -0.00001   0.00096
   D12       -3.13924   0.00000   0.00000  -0.00002  -0.00002  -3.13926
   D13       -0.00011   0.00000   0.00000   0.00000   0.00000  -0.00011
   D14       -3.14090   0.00000   0.00000   0.00000   0.00000  -3.14090
   D15        3.14148   0.00000   0.00000   0.00000   0.00000   3.14147
   D16        0.00068   0.00000   0.00000   0.00000   0.00000   0.00068
   D17        0.00005   0.00000   0.00000   0.00000   0.00000   0.00005
   D18       -3.14075   0.00000   0.00000   0.00000   0.00000  -3.14075
   D19        3.14026   0.00000   0.00000   0.00001   0.00001   3.14027
   D20       -0.00054   0.00000   0.00000   0.00001   0.00001  -0.00053
   D21        0.00111   0.00000   0.00000  -0.00001  -0.00001   0.00110
   D22       -3.14051   0.00000   0.00000  -0.00001  -0.00001  -3.14052
   D23       -3.14127   0.00000   0.00000  -0.00001  -0.00001  -3.14129
   D24        0.00028   0.00000   0.00000  -0.00001  -0.00001   0.00028
   D25       -0.00109   0.00000   0.00000   0.00001   0.00001  -0.00107
   D26        3.14054   0.00000   0.00000   0.00001   0.00001   3.14055
   D27        3.13972   0.00000   0.00000   0.00001   0.00001   3.13973
   D28       -0.00184   0.00000   0.00000   0.00000   0.00000  -0.00183
   D29        3.09806   0.00000   0.00000   0.00000   0.00000   3.09806
   D30       -0.04276   0.00000   0.00000   0.00001   0.00001  -0.04276
   D31        0.00197   0.00000   0.00000   0.00002   0.00002   0.00198
   D32       -3.13886   0.00000   0.00000   0.00002   0.00002  -3.13884
   D33       -3.09942   0.00000   0.00000   0.00001   0.00001  -3.09941
   D34        0.04348   0.00000   0.00000   0.00000   0.00000   0.04348
   D35       -0.00331   0.00000   0.00000   0.00000   0.00000  -0.00331
   D36        3.13958   0.00000   0.00000  -0.00001  -0.00001   3.13957
   D37        0.00300   0.00000   0.00000  -0.00002  -0.00002   0.00298
   D38       -3.11081   0.00000   0.00000   0.00000   0.00000  -3.11081
   D39       -3.13938   0.00000   0.00000  -0.00002  -0.00002  -3.13940
   D40        0.02999   0.00000   0.00000   0.00000   0.00000   0.02999
   D41       -0.00034   0.00000   0.00000  -0.00001  -0.00001  -0.00035
   D42       -3.13984   0.00000   0.00000  -0.00001  -0.00001  -3.13985
   D43        3.13992   0.00000   0.00000   0.00000   0.00000   3.13992
   D44        0.00042   0.00000   0.00000   0.00000   0.00000   0.00042
   D45       -0.00664   0.00000   0.00000   0.00001   0.00001  -0.00663
   D46        3.13805   0.00000   0.00000   0.00002   0.00002   3.13807
   D47        3.10703   0.00000   0.00000  -0.00001  -0.00001   3.10702
   D48       -0.03147   0.00000   0.00000   0.00000   0.00000  -0.03147
   D49       -2.64942   0.00000   0.00000  -0.00001  -0.00001  -2.64943
   D50       -0.53879   0.00000   0.00000  -0.00001  -0.00001  -0.53881
   D51        1.54788   0.00000   0.00000  -0.00001  -0.00001   1.54787
   D52        0.52069   0.00000   0.00000   0.00001   0.00001   0.52070
   D53        2.63132   0.00000   0.00000   0.00001   0.00001   2.63133
   D54       -1.56519   0.00000   0.00000   0.00001   0.00001  -1.56518
   D55        0.00536   0.00000   0.00000   0.00000   0.00000   0.00537
   D56       -3.13933   0.00000   0.00000   0.00000   0.00000  -3.13933
   D57       -3.13832   0.00000   0.00000   0.00000   0.00000  -3.13832
   D58        0.00017   0.00000   0.00000   0.00000   0.00000   0.00016
         Item               Value     Threshold  Converged?
 Maximum Force            0.000003     0.000450     YES
 RMS     Force            0.000001     0.000300     YES
 Maximum Displacement     0.000085     0.001800     YES
 RMS     Displacement     0.000026     0.001200     YES
 Predicted change in Energy=-1.517541D-10
 Optimization completed.
    -- Stationary point found.
                           ----------------------------
                           !   Optimized Parameters   !
                           ! (Angstroms and Degrees)  !
 --------------------------                            --------------------------
 ! Name  Definition              Value          Derivative Info.                !
 --------------------------------------------------------------------------------
 ! R1    R(1,2)                  1.3696         -DE/DX =    0.0                 !
 ! R2    R(1,14)                 1.3951         -DE/DX =    0.0                 !
 ! R3    R(2,3)                  1.4027         -DE/DX =    0.0                 !
 ! R4    R(2,4)                  1.4013         -DE/DX =    0.0                 !
 ! R5    R(3,5)                  1.3879         -DE/DX =    0.0                 !
 ! R6    R(3,11)                 1.0853         -DE/DX =    0.0                 !
 ! R7    R(4,6)                  1.393          -DE/DX =    0.0                 !
 ! R8    R(4,7)                  1.084          -DE/DX =    0.0                 !
 ! R9    R(5,8)                  1.409          -DE/DX =    0.0                 !
 ! R10   R(5,9)                  1.0857         -DE/DX =    0.0                 !
 ! R11   R(6,8)                  1.4048         -DE/DX =    0.0                 !
 ! R12   R(6,10)                 1.0858         -DE/DX =    0.0                 !
 ! R13   R(8,12)                 1.4323         -DE/DX =    0.0                 !
 ! R14   R(12,13)                1.1645         -DE/DX =    0.0                 !
 ! R15   R(14,15)                1.3934         -DE/DX =    0.0                 !
 ! R16   R(14,16)                1.3927         -DE/DX =    0.0                 !
 ! R17   R(15,17)                1.4016         -DE/DX =    0.0                 !
 ! R18   R(15,18)                1.0869         -DE/DX =    0.0                 !
 ! R19   R(16,19)                1.3975         -DE/DX =    0.0                 !
 ! R20   R(16,20)                1.0856         -DE/DX =    0.0                 !
 ! R21   R(17,21)                1.4034         -DE/DX =    0.0                 !
 ! R22   R(17,24)                1.5114         -DE/DX =    0.0                 !
 ! R23   R(19,21)                1.3974         -DE/DX =    0.0                 !
 ! R24   R(19,22)                1.0868         -DE/DX =    0.0                 !
 ! R25   R(21,23)                1.0876         -DE/DX =    0.0                 !
 ! R26   R(24,25)                1.0954         -DE/DX =    0.0                 !
 ! R27   R(24,26)                1.0955         -DE/DX =    0.0                 !
 ! R28   R(24,27)                1.0982         -DE/DX =    0.0                 !
 ! A1    A(2,1,14)             119.3744         -DE/DX =    0.0                 !
 ! A2    A(1,2,3)              115.7259         -DE/DX =    0.0                 !
 ! A3    A(1,2,4)              123.7729         -DE/DX =    0.0                 !
 ! A4    A(3,2,4)              120.5003         -DE/DX =    0.0                 !
 ! A5    A(2,3,5)              119.8842         -DE/DX =    0.0                 !
 ! A6    A(2,3,11)             118.8291         -DE/DX =    0.0                 !
 ! A7    A(5,3,11)             121.2867         -DE/DX =    0.0                 !
 ! A8    A(2,4,6)              119.3932         -DE/DX =    0.0                 !
 ! A9    A(2,4,7)              120.3519         -DE/DX =    0.0                 !
 ! A10   A(6,4,7)              120.2548         -DE/DX =    0.0                 !
 ! A11   A(3,5,8)              120.2355         -DE/DX =    0.0                 !
 ! A12   A(3,5,9)              120.0757         -DE/DX =    0.0                 !
 ! A13   A(8,5,9)              119.6888         -DE/DX =    0.0                 !
 ! A14   A(4,6,8)              120.6203         -DE/DX =    0.0                 !
 ! A15   A(4,6,10)             119.7392         -DE/DX =    0.0                 !
 ! A16   A(8,6,10)             119.6405         -DE/DX =    0.0                 !
 ! A17   A(5,8,6)              119.3664         -DE/DX =    0.0                 !
 ! A18   A(5,8,12)             120.3234         -DE/DX =    0.0                 !
 ! A19   A(6,8,12)             120.3102         -DE/DX =    0.0                 !
 ! A20   A(1,14,15)            119.1366         -DE/DX =    0.0                 !
 ! A21   A(1,14,16)            119.0977         -DE/DX =    0.0                 !
 ! A22   A(15,14,16)           121.7153         -DE/DX =    0.0                 !
 ! A23   A(14,15,17)           120.0694         -DE/DX =    0.0                 !
 ! A24   A(14,15,18)           118.9993         -DE/DX =    0.0                 !
 ! A25   A(17,15,18)           120.9314         -DE/DX =    0.0                 !
 ! A26   A(14,16,19)           118.38           -DE/DX =    0.0                 !
 ! A27   A(14,16,20)           119.7057         -DE/DX =    0.0                 !
 ! A28   A(19,16,20)           121.9143         -DE/DX =    0.0                 !
 ! A29   A(15,17,21)           118.4059         -DE/DX =    0.0                 !
 ! A30   A(15,17,24)           120.5333         -DE/DX =    0.0                 !
 ! A31   A(21,17,24)           121.0412         -DE/DX =    0.0                 !
 ! A32   A(16,19,21)           120.4436         -DE/DX =    0.0                 !
 ! A33   A(16,19,22)           119.653          -DE/DX =    0.0                 !
 ! A34   A(21,19,22)           119.9033         -DE/DX =    0.0                 !
 ! A35   A(17,21,19)           120.9848         -DE/DX =    0.0                 !
 ! A36   A(17,21,23)           119.386          -DE/DX =    0.0                 !
 ! A37   A(19,21,23)           119.629          -DE/DX =    0.0                 !
 ! A38   A(17,24,25)           111.4428         -DE/DX =    0.0                 !
 ! A39   A(17,24,26)           111.5413         -DE/DX =    0.0                 !
 ! A40   A(17,24,27)           110.7717         -DE/DX =    0.0                 !
 ! A41   A(25,24,26)           108.1057         -DE/DX =    0.0                 !
 ! A42   A(25,24,27)           107.4014         -DE/DX =    0.0                 !
 ! A43   A(26,24,27)           107.3857         -DE/DX =    0.0                 !
 ! A44   L(8,12,13,9,-1)       179.9755         -DE/DX =    0.0                 !
 ! A45   L(8,12,13,9,-2)       179.9759         -DE/DX =    0.0                 !
 ! D1    D(14,1,2,3)          -177.4289         -DE/DX =    0.0                 !
 ! D2    D(14,1,2,4)             2.906          -DE/DX =    0.0                 !
 ! D3    D(2,1,14,15)           86.8335         -DE/DX =    0.0                 !
 ! D4    D(2,1,14,16)          -95.7045         -DE/DX =    0.0                 !
 ! D5    D(1,2,3,5)           -179.7313         -DE/DX =    0.0                 !
 ! D6    D(1,2,3,11)             0.2692         -DE/DX =    0.0                 !
 ! D7    D(4,2,3,5)             -0.0543         -DE/DX =    0.0                 !
 ! D8    D(4,2,3,11)           179.9462         -DE/DX =    0.0                 !
 ! D9    D(1,2,4,6)            179.7057         -DE/DX =    0.0                 !
 ! D10   D(1,2,4,7)             -0.2151         -DE/DX =    0.0                 !
 ! D11   D(3,2,4,6)              0.0558         -DE/DX =    0.0                 !
 ! D12   D(3,2,4,7)           -179.865          -DE/DX =    0.0                 !
 ! D13   D(2,3,5,8)             -0.0061         -DE/DX =    0.0                 !
 ! D14   D(2,3,5,9)           -179.9603         -DE/DX =    0.0                 !
 ! D15   D(11,3,5,8)           179.9934         -DE/DX =    0.0                 !
 ! D16   D(11,3,5,9)             0.0392         -DE/DX =    0.0                 !
 ! D17   D(2,4,6,8)              0.003          -DE/DX =    0.0                 !
 ! D18   D(2,4,6,10)          -179.952          -DE/DX =    0.0                 !
 ! D19   D(7,4,6,8)            179.9239         -DE/DX =    0.0                 !
 ! D20   D(7,4,6,10)            -0.031          -DE/DX =    0.0                 !
 ! D21   D(3,5,8,6)              0.0638         -DE/DX =    0.0                 !
 ! D22   D(3,5,8,12)          -179.9382         -DE/DX =    0.0                 !
 ! D23   D(9,5,8,6)           -179.9818         -DE/DX =    0.0                 !
 ! D24   D(9,5,8,12)             0.0162         -DE/DX =    0.0                 !
 ! D25   D(4,6,8,5)             -0.0623         -DE/DX =    0.0                 !
 ! D26   D(4,6,8,12)           179.9397         -DE/DX =    0.0                 !
 ! D27   D(10,6,8,5)           179.8926         -DE/DX =    0.0                 !
 ! D28   D(10,6,8,12)           -0.1053         -DE/DX =    0.0                 !
 ! D29   D(1,14,15,17)         177.5056         -DE/DX =    0.0                 !
 ! D30   D(1,14,15,18)          -2.4502         -DE/DX =    0.0                 !
 ! D31   D(16,14,15,17)          0.1126         -DE/DX =    0.0                 !
 ! D32   D(16,14,15,18)       -179.8432         -DE/DX =    0.0                 !
 ! D33   D(1,14,16,19)        -177.5837         -DE/DX =    0.0                 !
 ! D34   D(1,14,16,20)           2.491          -DE/DX =    0.0                 !
 ! D35   D(15,14,16,19)         -0.1898         -DE/DX =    0.0                 !
 ! D36   D(15,14,16,20)        179.8849         -DE/DX =    0.0                 !
 ! D37   D(14,15,17,21)          0.1719         -DE/DX =    0.0                 !
 ! D38   D(14,15,17,24)       -178.2364         -DE/DX =    0.0                 !
 ! D39   D(18,15,17,21)       -179.8732         -DE/DX =    0.0                 !
 ! D40   D(18,15,17,24)          1.7186         -DE/DX =    0.0                 !
 ! D41   D(14,16,19,21)         -0.0193         -DE/DX =    0.0                 !
 ! D42   D(14,16,19,22)       -179.8995         -DE/DX =    0.0                 !
 ! D43   D(20,16,19,21)        179.9042         -DE/DX =    0.0                 !
 ! D44   D(20,16,19,22)          0.024          -DE/DX =    0.0                 !
 ! D45   D(15,17,21,19)         -0.3802         -DE/DX =    0.0                 !
 ! D46   D(15,17,21,23)        179.7973         -DE/DX =    0.0                 !
 ! D47   D(24,17,21,19)        178.0197         -DE/DX =    0.0                 !
 ! D48   D(24,17,21,23)         -1.8029         -DE/DX =    0.0                 !
 ! D49   D(15,17,24,25)       -151.8007         -DE/DX =    0.0                 !
 ! D50   D(15,17,24,26)        -30.8706         -DE/DX =    0.0                 !
 ! D51   D(15,17,24,27)         88.6869         -DE/DX =    0.0                 !
 ! D52   D(21,17,24,25)         29.8334         -DE/DX =    0.0                 !
 ! D53   D(21,17,24,26)        150.7634         -DE/DX =    0.0                 !
 ! D54   D(21,17,24,27)        -89.679          -DE/DX =    0.0                 !
 ! D55   D(16,19,21,17)          0.3074         -DE/DX =    0.0                 !
 ! D56   D(16,19,21,23)       -179.8705         -DE/DX =    0.0                 !
 ! D57   D(22,19,21,17)       -179.8127         -DE/DX =    0.0                 !
 ! D58   D(22,19,21,23)          0.0095         -DE/DX =    0.0                 !
 --------------------------------------------------------------------------------
 GradGradGradGradGradGradGradGradGradGradGradGradGradGradGradGradGradGrad

                          Input orientation:                          
 ---------------------------------------------------------------------
 Center     Atomic      Atomic             Coordinates (Angstroms)
 Number     Number       Type             X           Y           Z
 ---------------------------------------------------------------------
      1          8           0        0.395696    1.282950   -0.755054
      2          6           0       -0.812115    0.724488   -0.430919
      3          6           0       -1.928577    1.266569   -1.084532
      4          6           0       -0.965648   -0.317113    0.493746
      5          6           0       -3.196125    0.768820   -0.816288
      6          6           0       -2.239956   -0.813189    0.759440
      7          1           0       -0.101408   -0.732777    0.999100
      8          6           0       -3.365426   -0.279151    0.110145
      9          1           0       -4.062327    1.185634   -1.320865
     10          1           0       -2.365485   -1.619682    1.475499
     11          1           0       -1.778519    2.073264   -1.794961
     12          6           0       -4.672520   -0.795148    0.387415
     13          7           0       -5.735386   -1.214609    0.612232
     14          6           0        1.562134    0.766093   -0.190601
     15          6           0        2.200778   -0.304257   -0.813588
     16          6           0        2.086463    1.367757    0.950736
     17          6           0        3.401813   -0.805007   -0.292782
     18          1           0        1.753641   -0.738866   -1.703824
     19          6           0        3.282967    0.870132    1.473922
     20          1           0        1.562565    2.201069    1.408548
     21          6           0        3.930677   -0.205542    0.860735
     22          1           0        3.709762    1.323066    2.364886
     23          1           0        4.860096   -0.583558    1.280346
     24          6           0        4.123980   -1.939534   -0.982525
     25          1           0        4.708822   -2.533059   -0.271444
     26          1           0        3.424268   -2.611050   -1.491990
     27          1           0        4.820046   -1.554875   -1.739915
 ---------------------------------------------------------------------
                    Distance matrix (angstroms):
                    1          2          3          4          5
     1  O    0.000000
     2  C    1.369580   0.000000
     3  C    2.347567   1.402694   0.000000
     4  C    2.443964   1.401253   2.434387   0.000000
     5  C    3.628947   2.415363   1.387943   2.805435   0.000000
     6  C    3.692445   2.412496   2.796888   1.393035   2.428977
     7  H    2.717963   2.161870   3.417229   1.084006   3.889434
     8  C    4.163504   2.796326   2.425085   2.430540   1.408966
     9  H    4.494839   3.401255   2.148323   3.891077   1.085651
    10  H    4.585276   3.397429   3.882666   2.149434   3.412798
    11  H    2.536378   2.147963   1.085350   3.407762   2.160783
    12  C    5.595582   4.228675   3.734505   3.739081   2.464678
    13  N    6.759988   5.393223   4.850469   4.854888   3.524558
    14  C    1.395108   2.386743   3.637946   2.833963   4.799221
    15  C    2.404365   3.206599   4.426339   3.425718   5.502551
    16  C    2.403249   3.274831   4.502566   3.516107   5.602395
    17  C    3.689173   4.485045   5.773331   4.464458   6.803218
    18  H    2.613794   3.216333   4.238398   3.521608   5.249859
    19  C    3.670843   4.518775   5.819196   4.518963   6.872697
    20  H    2.624062   3.347094   4.390536   3.683743   5.444847
    21  C    4.162028   5.002739   6.346813   4.911326   7.386007
    22  H    4.551776   5.349971   6.610034   5.296302   7.623538
    23  H    5.249531   6.067404   7.423052   5.884643   8.433712
    24  C    4.933178   5.636161   6.850033   5.542196   7.806840
    25  H    5.779175   6.412316   7.691122   6.139670   8.584139
    26  H    4.987841   5.495328   6.622303   5.336352   7.463893
    27  H    5.347717   6.215320   7.343976   6.324204   8.397121
                    6          7          8          9         10
     6  C    0.000000
     7  H    2.153437   0.000000
     8  C    1.404800   3.413185   0.000000
[...]
 00002325,-0.00000272,0.00988994,-0.00710604,-0.00399288,-0.00032305,0.
 00232512,-0.00347653,0.11159726,-0.21677196,-0.10354032,-0.00060506,-0
 .00007343,0.00035478,0.00051048,-0.00023668,-0.00037486,0.00278019,-0.
 00395965,-0.00445147,-0.12326506,0.22447745,0.00266146,0.00292480,0.00
 059571,-0.00055029,-0.00047640,0.00021242,0.00021026,0.00000500,-0.000
 00424,0.00018240,-0.00001093,0.00001578,-0.00008015,-0.00005683,0.0000
 4374,-0.00003951,0.00002769,-0.00005724,-0.00005748,0.00004366,-0.0000
 3112,0.00006312,0.00005572,-0.00003277,0.00000749,0.00000535,0.0000023
 5,0.00001822,0.00001022,-0.00000648,-0.00002089,-0.00000567,-0.0000301
 2,-0.00007285,-0.00001761,0.00000922,0.00004519,0.00001943,-0.00001292
 ,0.01374364,-0.02106604,-0.00672570,-0.00442163,-0.00299278,-0.0019286
 8,0.04997554,-0.10206158,-0.10274121,-0.00057234,0.00066507,-0.0007486
 9,0.00057315,-0.00110986,-0.00027729,-0.00588943,0.01105196,0.00932918
 ,-0.05311757,0.11221477,0.10134769,-0.00287366,0.00023773,-0.00085719,
 0.00167648,0.00043566,-0.00006328,-0.00032708,-0.00005089,0.00003026,-
 0.00018317,-0.00012184,0.00003672,0.00010825,0.00010696,-0.00009379,0.
 00004104,-0.00003957,0.00005419,-0.00008161,0.00002718,-0.00001742,-0.
 00010122,-0.00008817,0.00007660,-0.00002873,-0.00001001,0.00000460,-0.
 00003940,-0.00001977,0.00000999,0.00004639,-0.00000417,0.00000892,0.00
 011879,0.00003855,-0.00001815,-0.00008751,-0.00003589,0.00001770,-0.00
 099930,0.00087919,0.00375604,-0.01507710,-0.00825535,-0.02876130,-0.02
 181664,0.02714584,0.00503684,-0.13855572,-0.02940260,-0.09887736,-0.00
 242987,0.00440050,-0.00317398,-0.15622038,0.11570207,0.04251800,-0.001
 88025,0.00318283,-0.00426440,0.57446382,0.00094326,-0.00013650,0.00183
 443,-0.00118240,0.00017447,0.00035766,0.00017349,0.00011406,0.00006227
 ,0.00024928,0.00021511,0.00000379,-0.00005631,-0.00008790,0.00002267,-
 0.00008088,0.00002430,0.00006339,0.00005824,-0.00022289,0.00001533,0.0
 0011993,0.00004276,-0.00005571,0.00001421,-0.00002037,-0.00002103,0.00
 003111,0.00004844,0.00002309,-0.00001783,0.00001094,-0.00000960,-0.000
 11021,-0.00007083,0.00001034,0.00008253,0.00004708,-0.00001558,0.00048
 363,-0.03545445,-0.03577678,-0.03233704,0.03943168,0.00610681,0.053091
 35,-0.00945554,0.03074181,0.00839875,-0.13330730,-0.06977215,0.0047160
 3,0.00209601,-0.00075151,0.07877558,-0.22471872,-0.11185383,0.00278604
 ,0.00357556,-0.00141707,-0.20537949,0.46032177,-0.00053725,0.00148190,
 -0.00003586,0.00027547,0.00035751,0.00063246,0.00001134,0.00002363,0.0
 0006003,-0.00029681,0.00005025,0.00010325,0.00000668,-0.00002833,0.000
 00443,0.00003478,0.00005818,0.00005277,-0.00015165,-0.00006199,-0.0001
 9049,-0.00005443,-0.00003566,-0.00004036,0.00000569,-0.00001867,-0.000
 02170,-0.00002762,0.00002453,0.00004128,0.00000315,-0.00000443,0.00001
 018,0.00001651,-0.00001183,-0.00003149,-0.00000612,0.00000311,0.000015
 86,0.00294892,-0.03410068,-0.03899619,-0.05474042,0.02850697,-0.012677
 42,0.03295272,0.00672391,0.04407724,-0.05770021,-0.10316309,-0.2349069
 1,-0.00269220,-0.00100625,0.00283845,0.00225238,-0.07982623,-0.1465331
 7,-0.00484517,-0.00077818,0.00156604,0.17326284,0.18461701,0.49569036,
 -0.00184222,-0.00058173,-0.00118707,0.00077908,0.00038245,-0.00049102,
 -0.00025063,-0.00005049,0.00001739,-0.00014771,-0.00012198,0.00012219,
 0.00004765,0.00007798,-0.00001123,0.00006577,0.00004161,0.00002489,0.0
 0001086,-0.00000423,-0.00003743,-0.00011085,-0.00005327,0.00001746,-0.
 00001392,-0.00000573,-0.00000042,-0.00001436,-0.00001266,0.00000290,0.
 00001710,-0.00001764,-0.00000393,0.00008400,0.00002448,-0.00002626,-0.
 00005849,-0.00002110,0.00001920,-0.00095770,0.00481868,-0.00203986,-0.
 00078792,0.00040020,0.00039198,-0.00649841,-0.01269052,-0.02304051,0.0
 0072574,0.00444793,-0.00049055,-0.00013378,-0.00033816,0.00021503,-0.0
 9670273,-0.03813078,-0.09711932,-0.00047299,-0.00134426,0.00168496,0.0
 0986475,0.00648899,0.01318504,0.09660711,0.00050163,0.00041797,0.00068
 693,-0.00004147,-0.00011843,0.00009061,0.00008981,-0.00001456,-0.00003
 920,-0.00008930,0.00001748,0.00001338,-0.00001200,-0.00003806,0.000028
 67,0.00004779,0.00001142,0.00000186,0.00001414,0.00000098,-0.00001352,
 -0.00002630,0.00001799,-0.00003090,0.00000382,0.00000627,0.00000608,-0
 .00000408,-0.00000342,-0.00000307,0.00000055,0.00000053,0.00000235,0.0
 0000274,0.00000235,-0.00000184,-0.00000035,-0.00000170,0.00000395,0.00
 418071,0.00245596,-0.00147133,0.00061992,-0.00072970,0.00054061,0.0050
 3297,0.00850935,0.01024824,0.00518788,-0.00041866,-0.00367812,-0.00034
 162,-0.00028962,0.00026493,-0.03814244,-0.09917983,-0.10411145,-0.0018
 0804,-0.00119935,0.00154354,-0.01123561,-0.00552479,-0.01999383,0.0380
 2210,0.09770456,-0.00074819,-0.00039164,-0.00053303,0.00044435,0.00026
 051,-0.00017343,-0.00016612,-0.00001676,0.00003308,0.00001567,-0.00007
 330,0.00002825,0.00003390,0.00006006,-0.00004012,-0.00000286,0.0000114
 6,0.00000117,0.00001237,0.00001336,-0.00002600,-0.00003102,-0.00003818
 ,0.00003277,-0.00001057,-0.00000650,-0.00000458,-0.00000473,-0.0000064
 1,0.00000086,0.00000978,-0.00000569,-0.00000184,0.00005198,0.00001912,
 -0.00001092,-0.00004111,-0.00001408,0.00000850,-0.00298724,-0.00098794
 ,0.00346322,0.00038110,0.00050311,0.00022665,-0.00311447,-0.00563048,-
 0.00566222,0.00026490,-0.00390486,0.00269655,0.00020282,0.00026750,-0.
 00031219,-0.09706393,-0.10404856,-0.24046639,0.00120111,0.00192560,-0.
 00083083,-0.00672744,-0.00409670,-0.00726287,0.10686863,0.11488505,0.2
 5015963,-0.00072157,-0.00031974,0.00030068,0.00025371,0.00016362,-0.00
 011598,-0.00010208,-0.00003396,0.00000278,-0.00008009,-0.00006176,0.00
 003768,0.00002080,0.00002786,-0.00001794,0.00005181,0.00001865,-0.0000
 0774,0.00003725,0.00003870,-0.00003153,-0.00006002,-0.00002034,0.00000
 723,-0.00000805,-0.00000143,0.00000043,-0.00001139,-0.00000562,0.00000
 358,0.00000955,-0.00000132,0.00000329,0.00005972,0.00002499,-0.0000136
 2,-0.00004395,-0.00002028,0.00001191,0.00078633,-0.00047848,0.00037354
 ,0.00215320,0.00043635,-0.00332744,0.00213881,0.00404983,0.00010384,-0
 .00752584,0.00537909,-0.00356461,-0.00034559,0.00029180,-0.00015361,-0
 .00882753,0.00302691,-0.00653966,-0.00038530,0.00019115,-0.00046288,-0
 .25475224,0.08985521,-0.09868060,-0.00051874,-0.00132417,0.00170321,0.
 26775775,-0.00010698,-0.00019211,0.00059951,-0.00027529,-0.00008018,0.
 00000758,0.00002308,-0.00001063,0.00000572,-0.00000075,0.00004376,-0.0
 0003233,-0.00000961,-0.00000171,0.00000606,-0.00002107,-0.00000422,0.0
 0001084,0.00001923,-0.00001478,-0.00001106,0.00002485,0.00000068,-0.00
 000645,0.00000175,-0.00000085,0.00000069,-0.00000271,0.00000076,-0.000
 00049,-0.00000046,-0.00000020,-0.00000487,-0.00002480,-0.00001124,0.00
 000560,0.00002126,0.00000782,-0.00000330,-0.00027264,-0.00079610,-0.00
 085771,0.00065549,0.00165668,-0.00459158,0.00341382,-0.00043108,-0.005
 16534,-0.01129161,0.00706043,-0.00566088,-0.00059267,0.00050861,-0.000
 28486,0.02126749,-0.00474687,0.01095368,0.00111382,-0.00017949,0.00047
 944,0.08991459,-0.08299415,0.02873209,-0.00170462,-0.00125967,0.001516
 17,-0.09989462,0.08227281,0.00010598,0.00050160,-0.00012497,0.00023387
 ,0.00006770,-0.00000516,-0.00001278,0.00000866,-0.00000756,-0.00000480
 ,-0.00003174,0.00003363,0.00000683,0.00000225,0.00000083,0.00002195,0.
 00001688,0.00000273,-0.00001365,-0.00001152,-0.00001848,-0.00002319,-0
 .00000856,-0.00000627,-0.00000124,0.00000052,-0.00000113,0.00000190,0.
 00000075,0.00000229,0.00000180,-0.00000445,-0.00000112,0.00002297,0.00
 000993,-0.00000711,-0.00001969,-0.00000706,0.00000372,0.00040837,-0.00
 089182,-0.00089220,-0.00268883,-0.00492210,-0.00182904,-0.00048484,-0.
 00457706,0.00139163,-0.02278581,0.01016565,-0.00603588,-0.00123156,0.0
 0050380,-0.00028886,0.01348591,-0.00521375,0.00873394,0.00056075,-0.00
 036583,0.00042350,-0.09865875,0.02828799,-0.09314640,0.00124994,0.0018
 7282,-0.00076987,0.10852569,-0.02673904,0.09346642,-0.00130471,0.00062
 424,0.00039051,0.00058032,0.00045833,-0.00012923,-0.00015855,-0.000021
 55,0.00000343,-0.00010630,-0.00012021,0.00006400,0.00003497,0.00000638
 ,-0.00004222,0.00007155,-0.00001011,-0.00002522,0.00001292,0.00003628,
 0.00001401,-0.00009645,-0.00002310,0.00001040,-0.00000937,-0.00000019,
 0.00000150,-0.00000826,-0.00000102,0.00001363,0.00001018,0.00000651,0.
 00001619,0.00006333,0.00003329,-0.00000302,-0.00004424,-0.00002528,0.0
 0000399,-0.00004369,0.00072766,-0.00447291,-0.01454392,0.02475241,0.01
 329229,-0.00094854,0.00058198,0.00059007,-0.11165614,0.04833869,0.0203
 9784,-0.00024353,-0.00052309,0.00161009,0.00125037,0.00041111,-0.00588
 112,-0.00011469,-0.00029281,0.00030285,0.01032600,-0.00621437,-0.00345
 959,0.00042994,-0.00090963,-0.00044426,-0.00072811,-0.00254834,0.00091
 987,0.54746234,-0.00047599,-0.00009823,-0.00030707,0.00025418,0.000154
 27,0.00000821,-0.00003327,0.00000321,0.00001042,-0.00012803,-0.0001326
 9,0.00001821,-0.00001411,-0.00001724,0.00000899,0.00011483,0.00003181,
 -0.00001060,0.00003900,0.00002860,-0.00000183,-0.00010361,0.00000712,-
 0.00003565,-0.00000617,-0.00000204,-0.00000269,-0.00000552,-0.00000193
 ,0.00001117,0.00000535,0.00000690,0.00000728,0.00005781,0.00003403,-0.
 00000820,-0.00004598,-0.00002542,0.00000619,0.00247349,0.00361134,-0.0
 0090093,0.01161806,-0.00985043,-0.00638130,-0.00031180,-0.00068161,0.0
 0015312,0.05104967,-0.15256484,-0.04968445,-0.00246906,-0.00052303,0.0
 0054427,0.00041627,0.00301374,-0.00259166,-0.00007552,-0.00017611,0.00
 013605,0.00785279,-0.01153083,-0.01204002,0.00023442,-0.00007179,-0.00
 003246,-0.00023700,-0.00044084,0.00250664,0.02117760,0.52131195,-0.001
 27177,0.00114161,0.00038907,0.00043650,0.00029670,-0.00019891,-0.00018
 962,-0.00006325,-0.00003924,0.00005777,-0.00003431,0.00004812,0.000060
 55,0.00006219,-0.00007120,-0.00007609,-0.00003099,-0.00001461,-0.00001
 635,0.00002235,0.00002725,0.00000626,-0.00005352,0.00007251,-0.0000096
 6,0.00000456,0.00000927,-0.00000970,-0.00000103,0.00000803,0.00000669,
 -0.00000253,0.00000779,0.00001064,0.00000266,0.00000078,-0.00000617,-0
 .00000473,-0.00000151,-0.00548878,-0.00181434,0.00185039,-0.00385152,0
 .00652835,0.00981187,0.00047315,-0.00041192,-0.00085288,0.02036155,-0.
 04684525,-0.10800280,0.00101669,0.00259555,-0.00103408,-0.00425348,-0.
 00154625,-0.00064787,0.00026682,0.00028609,-0.00010711,0.01341643,-0.0
 2348265,-0.01193441,0.00049073,-0.00069759,-0.00032546,0.00155480,0.00
 058806,-0.00054464,0.03981221,-0.01864339,0.54608937,-0.00064238,0.000
 17130,0.00015383,0.00033471,0.00019850,-0.00010431,-0.00010272,-0.0000
 2518,0.00000163,-0.00005758,-0.00005201,0.00004316,0.00003010,0.000025
 08,-0.00002483,0.00003307,0.00001270,-0.00000802,0.00000626,0.00002430
 ,-0.00001898,-0.00004538,-0.00002393,0.00001593,-0.00000587,-0.0000009
 3,0.00000135,-0.00001188,-0.00000287,0.00000493,0.00000792,-0.00000357
 ,0.00000440,0.00004515,0.00001814,-0.00000997,-0.00003152,-0.00001637,
 0.00000909,-0.00045849,-0.00019603,-0.00008961,-0.00012874,0.00291526,
 0.00159331,0.00008594,-0.00008326,-0.00005243,-0.01096872,0.00872018,-
 0.00972717,0.00038868,-0.00000114,0.00009493,-0.00041906,-0.00014953,0
 .00053199,0.00008846,0.00010020,-0.00001214,0.00049216,-0.00167304,-0.
 00089520,0.00000418,0.00003000,0.00000680,0.00075253,0.00032464,0.0000
 2112,-0.12096709,0.07411480,-0.09305641,0.12966034,0.00058096,-0.00028
 407,-0.00017495,-0.00033906,-0.00018978,0.00009973,0.00009468,0.000024
 19,0.00001041,0.00003216,0.00005772,-0.00005852,-0.00002017,-0.0000221
 8,0.00002343,-0.00002994,-0.00000996,0.00000916,-0.00000873,-0.0000253
 7,0.00001298,0.00004574,0.00002186,-0.00000996,0.00000700,-0.00000095,
 -0.00000154,0.00000456,0.00000199,-0.00000496,-0.00000627,-0.00000073,
 -0.00000525,-0.00004561,-0.00002059,0.00000961,0.00003550,0.00001529,-
 0.00000678,0.00063356,0.00114656,0.00056344,0.00101661,-0.00331999,-0.
 00294192,-0.00023565,-0.00022507,-0.00029707,0.01273940,-0.01248042,0.
 01632502,-0.00006943,-0.00013321,0.00024142,0.00020068,-0.00001885,-0.
 00008656,-0.00005497,0.00001838,-0.00005011,0.00098150,0.00117833,0.00
 101830,-0.00003126,-0.00000464,0.00000953,-0.00080137,-0.00054134,-0.0
 0088659,0.07415856,-0.12543570,0.09144454,-0.08494402,0.13408372,0.000
 14291,-0.00009686,-0.00009195,0.00003593,-0.00005020,-0.00000299,0.000
 00693,0.00001781,0.00001226,-0.00002008,0.00000186,0.00002149,0.000001
 48,-0.00000222,0.00000415,0.00001946,0.00000422,-0.00000562,0.00000192
 ,-0.00000274,-0.00001288,-0.00001366,0.00000394,-0.00000367,0.00000032
 ,-0.00000105,-0.00000260,0.00000083,-0.00000087,0.00000015,0.00000282,
 -0.00000486,-0.00000329,0.00001792,0.00000711,-0.00000574,-0.00001490,
 -0.00000615,0.00000490,0.00076633,-0.00024989,-0.00009354,0.00066479,-
 0.00182172,-0.00122340,0.00025342,-0.00005582,0.00022574,0.00991167,-0
 .01025956,0.01149462,0.00018161,-0.00015172,0.00012524,-0.00023914,0.0
 0022315,0.00048843,0.00003951,0.00007475,-0.00004154,0.00090019,-0.000
 81556,0.00029600,-0.00002857,0.00007078,0.00001102,-0.00006438,0.00004
 900,-0.00020939,-0.09475504,0.09365268,-0.16336109,0.10070305,-0.09963
 059,0.17680953,0.00021922,-0.00008952,0.00003222,-0.00012809,-0.000066
 77,0.00000830,0.00003199,0.00001010,0.00000692,0.00002427,0.00002470,-
 0.00002627,-0.00000356,-0.00000743,0.00000644,-0.00002608,-0.00001254,
 0.00000083,-0.00000251,0.00000024,0.00001575,0.00002608,0.00000623,0.0
 0000262,0.00000384,-0.00000086,-0.00000046,-0.00000025,0.00000111,-0.0
 0000093,-0.00000188,-0.00000250,-0.00000239,-0.00002699,-0.00001289,0.
 00000628,0.00002184,0.00001052,-0.00000308,0.00036094,-0.00015450,-0.0
 0030394,0.00038228,0.00082682,0.00090668,0.00028147,0.00009257,0.00024
 628,0.01181178,0.01207463,0.00896847,-0.00021772,-0.00006957,-0.000075
 42,-0.00007222,0.00030737,0.00085231,-0.00003694,-0.00007320,0.0000439
 7,-0.00144561,0.00183327,0.00056929,-0.00011725,0.00012152,0.00013006,
 0.00015889,0.00014331,0.00020005,-0.16009510,-0.10443935,-0.08143712,-
 0.01079551,-0.01034219,-0.00595353,0.17315701,0.00018297,0.00004190,0.
 00012624,-0.00012626,-0.00005682,0.00002526,0.00002505,0.00000951,0.00
 000579,0.00001537,0.00005895,0.00000082,0.00000472,-0.00000084,0.00000
 563,-0.00001630,-0.00000436,0.00000378,-0.00002350,-0.00003884,-0.0000
 1435,0.00002590,0.00000070,0.00000066,0.00000419,-0.00000192,-0.000002
 56,0.00000256,-0.00000123,-0.00000569,-0.00000128,-0.00000802,-0.00000
 652,-0.00001314,-0.00000903,0.00000162,0.00001117,0.00000727,0.0000012
 8,0.00002775,-0.00013078,-0.00055203,-0.00108362,0.00134593,-0.0008211
 2,0.00037325,-0.00007984,0.00040895,-0.01592026,-0.01413479,-0.0111604
 7,0.00084710,-0.00050591,0.00077407,-0.00071688,0.00080534,-0.00101976
 ,0.00002631,-0.00000732,0.00007836,0.00314425,-0.00321566,-0.00075992,
 0.00014379,-0.00027150,-0.00013326,-0.00022759,-0.00009939,0.00009190,
 -0.10215524,-0.14673890,-0.07310251,0.01213479,0.01297402,0.00785884,0
 .11150176,0.15766684,0.00028217,-0.00000260,0.00004159,-0.00020469,-0.
 00010842,0.00005576,0.00005278,0.00001175,-0.00000068,0.00003608,0.000
 05122,0.00000361,-0.00002153,-0.00001568,0.00001114,-0.00000175,0.0000
 0650,0.00001111,-0.00001050,-0.00004645,-0.00002289,0.00002251,0.00001
 282,-0.00001711,0.00000167,0.00000116,-0.00000137,0.00001357,-0.000001
 95,-0.00001152,-0.00000698,0.00000361,-0.00000399,-0.00001328,-0.00000
 599,0.00000051,0.00000662,0.00000922,-0.00000194,0.00028875,0.00022183
 ,-0.00054639,-0.00085933,0.00151780,0.00049427,-0.00005687,0.00013139,
 0.00011226,-0.00937353,-0.00965498,-0.00961611,0.00000636,-0.00026809,
 0.00069602,-0.00010576,-0.00013503,-0.00082916,-0.00001035,-0.00009497
 ,0.00009335,0.00167470,-0.00265837,0.00001029,0.00015180,-0.00017770,-
 0.00015370,0.00012549,0.00000859,0.00039829,-0.07982125,-0.07286334,-0
 .10276956,-0.01337706,-0.01393926,-0.00955360,0.08591418,0.08365761,0.
 10952266,-0.00035752,-0.00001313,-0.00003718,0.00014294,0.00012044,0.0
 0000306,-0.00003570,-0.00001981,-0.00000423,-0.00003374,-0.00006102,0.
 00002405,-0.00000461,0.00000222,-0.00000477,0.00004856,0.00002518,-0.0
 0000103,0.00001819,0.00000947,-0.00002312,-0.00004418,-0.00000306,-0.0
 0001155,-0.00000616,0.00000023,0.00000031,0.00000173,-0.00000091,0.000
 00116,-0.00000087,0.00000733,0.00000435,0.00003666,0.00001820,-0.00000
 965,-0.00003034,-0.00001208,0.00000402,0.00073712,0.00030591,-0.000913
 22,0.00030012,0.00152087,0.00059309,0.00049286,-0.00004173,0.00064754,
 -0.01009429,-0.00220959,0.01101180,-0.00056670,-0.00041804,0.00028409,
 -0.00073958,0.00117618,-0.00001357,-0.00004215,-0.00004095,0.00004931,
 -0.00023817,-0.00104933,-0.00143754,-0.00000846,0.00007942,0.00001525,
 -0.00006983,-0.00017716,0.00015816,-0.14917323,-0.06106284,0.11169589,
 0.01270545,0.00639777,-0.01256179,-0.01350989,-0.00818685,0.01528619,0
 .16047180,0.00032833,0.00008952,0.00000966,-0.00018416,-0.00012965,0.0
 0004120,0.00003889,0.00000611,-0.00000991,0.00005807,0.00007005,-0.000
 02586,-0.00000186,0.00000210,0.00000404,-0.00005227,-0.00001687,0.0000
 1396,-0.00003086,-0.00003384,0.00000678,0.00005393,0.00000074,0.000006
 87,0.00000400,0.00000129,-0.00000012,0.00000672,-0.00000002,-0.0000070
 5,-0.00000189,-0.00000212,-0.00000431,-0.00003339,-0.00001792,0.000007
 08,0.00002452,0.00001456,-0.00000531,-0.00088576,-0.00078174,0.0004137
 2,-0.00026140,-0.00035493,-0.00050091,0.00035048,-0.00024850,-0.000220
 17,0.01829533,0.00889522,-0.01981825,0.00036156,0.00028988,0.00001644,
 -0.00047278,-0.00059591,0.00066987,-0.00000484,0.00001712,0.00000382,0
 .00059372,-0.00054056,0.00023169,0.00002581,-0.00001915,-0.00008465,-0
 .00007648,0.00025329,-0.00037755,-0.05846809,-0.07991135,0.06376162,-0
 .01161802,-0.00680923,0.01118568,-0.01168285,-0.00760531,0.01433932,0.
 06363330,0.08742724,0.00028120,-0.00002565,0.00003521,-0.00019766,-0.0
 0007050,0.00007280,0.00004902,0.00000403,-0.00001043,0.00004055,0.0000
 4369,-0.00003613,-0.00000642,-0.00000594,0.00001123,-0.00004267,-0.000
 00623,0.00001500,-0.00001763,-0.00002275,0.00000539,0.00004440,0.00000
 074,-0.00000360,0.00000522,-0.00000013,0.00000016,0.00000089,0.0000029
 0,-0.00000245,-0.00000380,0.00000057,-0.00000118,-0.00004048,-0.000019
 14,0.00000914,0.00003298,0.00001386,-0.00000603,-0.00018851,-0.0012876
 5,-0.00079363,-0.00148214,0.00096609,-0.00014622,0.00065059,0.00016168
 ,0.00053711,0.00969368,0.00178400,-0.01010783,0.00016154,0.00020315,-0
 .00011414,-0.00092632,-0.00038453,0.00048312,0.00006321,0.00006158,-0.
 00006304,0.00070904,-0.00142004,0.00037863,0.00003403,-0.00004123,-0.0
 0008825,0.00022583,0.00039488,-0.00056891,0.11159095,0.06644038,-0.168
 40906,0.01419062,0.00832650,-0.01488222,-0.01010749,-0.00546261,0.0120
 7716,-0.12476064,-0.06965765,0.18160814\\0.00000235,-0.00000166,0.0000
 0207,-0.00000352,0.00000130,-0.00000237,0.00000489,0.00000111,0.000000
 08,-0.00000075,-0.00000150,0.00000053,-0.00000143,-0.00000329,0.000002
 93,0.00000319,-0.00000125,0.00000199,0.00000044,-0.00000007,0.00000052
 ,-0.00000133,0.00000189,-0.00000247,-0.00000019,0.00000031,0.00000004,
 -0.00000016,-0.00000025,-0.00000047,-0.00000144,-0.00000028,0.00000082
 ,-0.00000048,-0.00000050,-0.00000037,0.00000048,-0.00000125,0.00000055
 ,-0.00000197,0.00000163,-0.00000164,-0.00000112,0.00000038,-0.00000056
 ,-0.00000054,-0.00000014,-0.00000046,0.00000034,0.00000232,-0.00000098
 ,0.00000044,-0.00000037,0.00000043,0.00000003,-0.00000005,0.00000038,-
 0.00000013,-0.00000035,0.00000040,0.00000042,-0.00000002,0.00000014,0.
 00000001,0.00000012,0.00000043,0.00000016,-0.00000006,-0.00000039,-0.0
 0000033,-0.00000001,0.00000006,0.00000059,0.00000032,-0.00000086,0.000
 00018,0.00000047,-0.00000068,-0.00000013,0.00000118,-0.00000015\\\@


 THE MEEK SHALL INHERIT THE EARTH.
 (THE REST OF US WILL ESCAPE TO THE STARS)
 Job cpu time:       0 days  2 hours 23 minutes 39.0 seconds.
 Elapsed time:       0 days  0 hours  4 minutes 47.3 seconds.
 File lengths (MBytes):  RWF=    300 Int=      0 D2E=      0 Chk=     10 Scr=      1
 Normal termination of Gaussian 16 at Sat Sep 23 00:57:29 2023.
