 Entering Gaussian System, Link 0=/home/ubuntu/g16/g16
 Input=/home/ubuntu/products/molecule_13.gjf
 Output=/home/ubuntu/products/molecule_13.log
 Initial command:
 /home/ubuntu/g16/l1.exe "/home/ubuntu/Scratch/Gau-43672.inp" -scrdir="/home/ubuntu/Scratch/"
 Entering Link 1 = /home/ubuntu/g16/l1.exe PID=     43674.
  
 Copyright (c) 1988-2017, Gaussian, Inc.  All Rights Reserved.
  
 This is part of the Gaussian(R) 16 program.  It is based on
 the Gaussian(R) 09 system (copyright 2009, Gaussian, Inc.),
 the Gaussian(R) 03 system (copyright 2003, Gaussian, Inc.),
 the Gaussian(R) 98 system (copyright 1998, Gaussian, Inc.),
 the Gaussian(R) 94 system (copyright 1995, Gaussian, Inc.),
 the Gaussian 92(TM) system (copyright 1992, Gaussian, Inc.),
 the Gaussian 90(TM) system (copyright 1990, Gaussian, Inc.),
 the Gaussian 88(TM) system (copyright 1988, Gaussian, Inc.),
 the Gaussian 86(TM) system (copyright 1986, Carnegie Mellon
 University), and the Gaussian 82(TM) system (copyright 1983,
 Carnegie Mellon University). Gaussian is a federally registered
 trademark of Gaussian, Inc.
  
 This software contains proprietary and confidential information,
 including trade secrets, belonging to Gaussian, Inc.
  
 This software is provided under written license and may be
 used, copied, transmitted, or stored only in accord with that
 written license.
  
 The following legend is applicable only to US Government
 contracts under FAR:
  
                    RESTRICTED RIGHTS LEGEND
  
 Use, reproduction and disclosure by the US Government is
 subject to restrictions as set forth in subparagraphs (a)
 and (c) of the Commercial Computer Software - Restricted
 Rights clause in FAR 52.227-19.
  
 Gaussian, Inc.
 340 Quinnipiac St., Bldg. 40, Wallingford CT 06492
  
  
 ---------------------------------------------------------------
 Warning -- This program may not be used in any manner that
 competes with the business of Gaussian, Inc. or will provide
 assistance to any competitor of Gaussian, Inc.  The licensee
 of this program is prohibited from giving any competitor of
 Gaussian, Inc. access to this program.  By using this program,
 the user acknowledges that Gaussian, Inc. is engaged in the
 business of creating and licensing software in the field of
 computational chemistry and represents and warrants to the
 licensee that it is not a competitor of Gaussian, Inc. and that
 it will not use this program in any manner prohibited above.
 ---------------------------------------------------------------
  

 Cite this work as:
 Gaussian 16, Revision B.01,
 M. J. Frisch, G. W. Trucks, H. B. Schlegel, G. E. Scuseria, 
 M. A. Robb, J. R. Cheeseman, G. Scalmani, V. Barone, 
 G. A. Petersson, H. Nakatsuji, X. Li, M. Caricato, A. V. Marenich, 
 J. Bloino, B. G. Janesko, R. Gomperts, B. Mennucci, H. P. Hratchian, 
 J. V. Ortiz, A. F. Izmaylov, J. L. Sonnenberg, D. Williams-Young, 
 F. Ding, F. Lipparini, F. Egidi, J. Goings, B. Peng, A. Petrone, 
 T. Henderson, D. Ranasinghe, V. G. Zakrzewski, J. Gao, N. Rega, 
 G. Zheng, W. Liang, M. Hada, M. Ehara, K. Toyota, R. Fukuda, 
 J. Hasegawa, M. Ishida, T. Nakajima, Y. Honda, O. Kitao, H. Nakai, 
 T. Vreven, K. Throssell, J. A. Montgomery, Jr., J. E. Peralta, 
 F. Ogliaro, M. J. Bearpark, J. J. Heyd, E. N. Brothers, K. N. Kudin, 
 V. N. Staroverov, T. A. Keith, R. Kobayashi, J. Normand, 
 K. Raghavachari, A. P. Rendell, J. C. Burant, S. S. Iyengar, 
 J. Tomasi, M. Cossi, J. M. Millam, M. Klene, C. Adamo, R. Cammi, 
 J. W. Ochterski, R. L. Martin, K. Morokuma, O. Farkas, 
 J. B. Foresman, and D. J. Fox, Gaussian, Inc., Wallingford CT, 2016.
 
 ******************************************
 Gaussian 16:  EM64L-G16RevB.01 20-Dec-2017
                17-Sep-2023 
 ******************************************
 %nprocshared=30
 Will use up to   30 processors via shared memory.
 %mem=30GB
 %chk=molecule_13.chk
 ---------------------------------------------------------
 # opt freq b3lyp/6-31+g(d) empiricaldispersion=gd3 volume
 ---------------------------------------------------------
 1/18=20,19=15,26=3,38=1/1,3;
 2/9=110,12=2,17=6,18=5,40=1/2;
 3/5=1,6=6,7=11,11=2,25=1,30=1,71=1,74=-5,124=31/1,2,3;
 4//1;
 5/5=2,38=5/2;
 6/7=2,8=2,9=2,10=2,28=1,44=1/1,4;
 7//1,2,3,16;
 1/18=20,19=15,26=3/3(2);
 2/9=110/2;
 99//99;
 2/9=110/2;
 3/5=1,6=6,7=11,11=2,25=1,30=1,71=1,74=-5,124=31/1,2,3;
 4/5=5,16=3,69=1/1;
 5/5=2,38=5/2;
 7//1,2,3,16;
 1/18=20,19=15,26=3/3(-5);
 2/9=110/2;
 6/7=2,8=2,9=2,10=2,19=2,28=1,44=1/1,4;
 99/9=1/99;
 -------------------
 Title Card Required
 -------------------
 Symbolic Z-matrix:
 Charge =  0 Multiplicity = 1
 C                    -2.25379  -1.22109  -0.0015 
 C                    -1.52554  -0.01313   0.03035 
 C                    -2.24332   1.19977   0.04277 
 C                    -3.63413   1.20308   0.0059 
 C                    -4.35365  -0.00303  -0.01476 
 H                    -1.71595  -2.16443   0.0067 
 H                    -1.6985    2.13918   0.06391 
 H                    -4.17323   2.14808  -0.00713 
 C                    -0.10335  -0.01915   0.07547 
 C                     1.11674   0.00215   0.09974 
 C                     2.5391    0.00415   0.04116 
 C                     3.25805  -1.20967   0.03516 
 C                     3.25609   1.21762  -0.01062 
 C                     4.64989  -1.20573  -0.01943 
 H                     2.71277  -2.14826   0.07156 
 C                     4.64795   1.21391  -0.06468 
 H                     2.70975   2.15626  -0.00508 
 C                     5.35107   0.00406  -0.06987 
 H                     5.19187  -2.14788  -0.02399 
 H                     5.18883   2.15599  -0.10061 
 H                     6.43751   0.00402  -0.11241 
 C                    -3.64409  -1.21246  -0.00842 
 H                    -4.20202  -2.14502   0.00829 
 N                    -5.78117  -0.04859  -0.01615 
 H                    -6.18386   0.83089   0.30194 
 H                    -6.16511  -0.25152  -0.93774 
 

 GradGradGradGradGradGradGradGradGradGradGradGradGradGradGradGradGradGrad
 Berny optimization.
 Initialization pass.
                           ----------------------------
                           !    Initial Parameters    !
                           ! (Angstroms and Degrees)  !
 --------------------------                            --------------------------
 ! Name  Definition              Value          Derivative Info.                !
 --------------------------------------------------------------------------------
 ! R1    R(1,2)                  1.4109         estimate D2E/DX2                !
 ! R2    R(1,6)                  1.0859         estimate D2E/DX2                !
 ! R3    R(1,22)                 1.3903         estimate D2E/DX2                !
 ! R4    R(2,3)                  1.4094         estimate D2E/DX2                !
 ! R5    R(2,9)                  1.4229         estimate D2E/DX2                !
 ! R6    R(3,4)                  1.3913         estimate D2E/DX2                !
 ! R7    R(3,7)                  1.0862         estimate D2E/DX2                !
 ! R8    R(4,5)                  1.4046         estimate D2E/DX2                !
 ! R9    R(4,8)                  1.088          estimate D2E/DX2                !
 ! R10   R(5,22)                 1.4022         estimate D2E/DX2                !
 ! R11   R(5,24)                 1.4282         estimate D2E/DX2                !
 ! R12   R(9,10)                 1.2205         estimate D2E/DX2                !
 ! R13   R(10,11)                1.4236         estimate D2E/DX2                !
 ! R14   R(11,12)                1.4108         estimate D2E/DX2                !
 ! R15   R(11,13)                1.4104         estimate D2E/DX2                !
 ! R16   R(12,14)                1.3929         estimate D2E/DX2                !
 ! R17   R(12,15)                1.0861         estimate D2E/DX2                !
 ! R18   R(13,16)                1.3929         estimate D2E/DX2                !
 ! R19   R(13,17)                1.0861         estimate D2E/DX2                !
 ! R20   R(14,18)                1.3992         estimate D2E/DX2                !
 ! R21   R(14,19)                1.0869         estimate D2E/DX2                !
 ! R22   R(16,18)                1.3993         estimate D2E/DX2                !
 ! R23   R(16,20)                1.0869         estimate D2E/DX2                !
 ! R24   R(18,21)                1.0873         estimate D2E/DX2                !
 ! R25   R(22,23)                1.0868         estimate D2E/DX2                !
 ! R26   R(24,25)                1.0183         estimate D2E/DX2                !
 ! R27   R(24,26)                1.0188         estimate D2E/DX2                !
 ! A1    A(2,1,6)              119.2063         estimate D2E/DX2                !
 ! A2    A(2,1,22)             120.7274         estimate D2E/DX2                !
 ! A3    A(6,1,22)             120.0455         estimate D2E/DX2                !
 ! A4    A(1,2,3)              118.303          estimate D2E/DX2                !
 ! A5    A(1,2,9)              120.8639         estimate D2E/DX2                !
 ! A6    A(3,2,9)              120.8216         estimate D2E/DX2                !
 ! A7    A(2,3,4)              120.724          estimate D2E/DX2                !
 ! A8    A(2,3,7)              119.2754         estimate D2E/DX2                !
 ! A9    A(4,3,7)              119.9919         estimate D2E/DX2                !
 ! A10   A(3,4,5)              120.6928         estimate D2E/DX2                !
 ! A11   A(3,4,8)              119.8472         estimate D2E/DX2                !
 ! A12   A(5,4,8)              119.4599         estimate D2E/DX2                !
 ! A13   A(4,5,22)             118.7731         estimate D2E/DX2                !
 ! A14   A(4,5,24)             122.6436         estimate D2E/DX2                !
 ! A15   A(22,5,24)            118.5721         estimate D2E/DX2                !
 ! A16   A(10,11,12)           120.5401         estimate D2E/DX2                !
 ! A17   A(10,11,13)           120.707          estimate D2E/DX2                !
 ! A18   A(12,11,13)           118.7529         estimate D2E/DX2                !
 ! A19   A(11,12,14)           120.461          estimate D2E/DX2                !
 ! A20   A(11,12,15)           119.1792         estimate D2E/DX2                !
 ! A21   A(14,12,15)           120.3597         estimate D2E/DX2                !
 ! A22   A(11,13,16)           120.4708         estimate D2E/DX2                !
 ! A23   A(11,13,17)           119.1871         estimate D2E/DX2                !
 ! A24   A(16,13,17)           120.3419         estimate D2E/DX2                !
 ! A25   A(12,14,18)           120.3046         estimate D2E/DX2                !
 ! A26   A(12,14,19)           119.7336         estimate D2E/DX2                !
 ! A27   A(18,14,19)           119.9618         estimate D2E/DX2                !
 ! A28   A(13,16,18)           120.3005         estimate D2E/DX2                !
 ! A29   A(13,16,20)           119.7508         estimate D2E/DX2                !
 ! A30   A(18,16,20)           119.9486         estimate D2E/DX2                !
 ! A31   A(14,18,16)           119.7102         estimate D2E/DX2                !
 ! A32   A(14,18,21)           120.1407         estimate D2E/DX2                !
 ! A33   A(16,18,21)           120.1491         estimate D2E/DX2                !
 ! A34   A(1,22,5)             120.7561         estimate D2E/DX2                !
 ! A35   A(1,22,23)            120.5266         estimate D2E/DX2                !
 ! A36   A(5,22,23)            118.709          estimate D2E/DX2                !
 ! A37   A(5,24,25)            111.5569         estimate D2E/DX2                !
 ! A38   A(5,24,26)            112.5764         estimate D2E/DX2                !
 ! A39   A(25,24,26)           107.7935         estimate D2E/DX2                !
 ! A40   L(2,9,10,7,-1)        178.7676         estimate D2E/DX2                !
 ! A41   L(9,10,11,15,-1)      179.0635         estimate D2E/DX2                !
 ! A42   L(2,9,10,7,-2)        180.8589         estimate D2E/DX2                !
 ! A43   L(9,10,11,15,-2)      175.6798         estimate D2E/DX2                !
 ! D1    D(6,1,2,3)           -178.9039         estimate D2E/DX2                !
 ! D2    D(6,1,2,9)             -0.1255         estimate D2E/DX2                !
 ! D3    D(22,1,2,3)            -0.5591         estimate D2E/DX2                !
 ! D4    D(22,1,2,9)           178.2192         estimate D2E/DX2                !
 ! D5    D(2,1,22,5)             1.466          estimate D2E/DX2                !
 ! D6    D(2,1,22,23)         -177.474          estimate D2E/DX2                !
 ! D7    D(6,1,22,5)           179.7969         estimate D2E/DX2                !
 ! D8    D(6,1,22,23)            0.8569         estimate D2E/DX2                !
 ! D9    D(1,2,3,4)             -0.8705         estimate D2E/DX2                !
 ! D10   D(1,2,3,7)           -179.7981         estimate D2E/DX2                !
 ! D11   D(9,2,3,4)           -179.6494         estimate D2E/DX2                !
 ! D12   D(9,2,3,7)              1.4231         estimate D2E/DX2                !
 ! D13   D(1,2,11,12)           -1.0495         estimate D2E/DX2                !
 ! D14   D(1,2,11,13)          176.0387         estimate D2E/DX2                !
 ! D15   D(3,2,11,12)          179.6967         estimate D2E/DX2                !
 ! D16   D(3,2,11,13)           -3.2151         estimate D2E/DX2                !
 ! D17   D(2,3,4,5)              1.4121         estimate D2E/DX2                !
 ! D18   D(2,3,4,8)           -178.5895         estimate D2E/DX2                !
 ! D19   D(7,3,4,5)           -179.668          estimate D2E/DX2                !
 ! D20   D(7,3,4,8)              0.3304         estimate D2E/DX2                !
 ! D21   D(3,4,5,22)            -0.5075         estimate D2E/DX2                !
 ! D22   D(3,4,5,24)           178.2606         estimate D2E/DX2                !
 ! D23   D(8,4,5,22)           179.4941         estimate D2E/DX2                !
 ! D24   D(8,4,5,24)            -1.7378         estimate D2E/DX2                !
 ! D25   D(4,5,22,1)            -0.9256         estimate D2E/DX2                !
 ! D26   D(4,5,22,23)          178.0334         estimate D2E/DX2                !
 ! D27   D(24,5,22,1)         -179.7445         estimate D2E/DX2                !
 ! D28   D(24,5,22,23)          -0.7855         estimate D2E/DX2                !
 ! D29   D(4,5,24,25)          -18.6848         estimate D2E/DX2                !
 ! D30   D(4,5,24,26)          102.6538         estimate D2E/DX2                !
 ! D31   D(22,5,24,25)         160.0857         estimate D2E/DX2                !
 ! D32   D(22,5,24,26)         -78.5757         estimate D2E/DX2                !
 ! D33   D(10,11,12,14)       -179.8676         estimate D2E/DX2                !
 ! D34   D(10,11,12,15)          0.2591         estimate D2E/DX2                !
 ! D35   D(13,11,12,14)          0.071          estimate D2E/DX2                !
 ! D36   D(13,11,12,15)       -179.8023         estimate D2E/DX2                !
 ! D37   D(10,11,13,16)        179.8493         estimate D2E/DX2                !
 ! D38   D(10,11,13,17)          0.0168         estimate D2E/DX2                !
 ! D39   D(12,11,13,16)         -0.0892         estimate D2E/DX2                !
 ! D40   D(12,11,13,17)       -179.9217         estimate D2E/DX2                !
 ! D41   D(11,12,14,18)         -0.0419         estimate D2E/DX2                !
 ! D42   D(11,12,14,19)       -179.9672         estimate D2E/DX2                !
 ! D43   D(15,12,14,18)        179.8299         estimate D2E/DX2                !
 ! D44   D(15,12,14,19)         -0.0954         estimate D2E/DX2                !
 ! D45   D(11,13,16,18)          0.0785         estimate D2E/DX2                !
 ! D46   D(11,13,16,20)       -179.7777         estimate D2E/DX2                !
 ! D47   D(17,13,16,18)        179.909          estimate D2E/DX2                !
 ! D48   D(17,13,16,20)          0.0528         estimate D2E/DX2                !
 ! D49   D(12,14,18,16)          0.0294         estimate D2E/DX2                !
 ! D50   D(12,14,18,21)        179.9994         estimate D2E/DX2                !
 ! D51   D(19,14,18,16)        179.9546         estimate D2E/DX2                !
 ! D52   D(19,14,18,21)         -0.0755         estimate D2E/DX2                !
 ! D53   D(13,16,18,14)         -0.0477         estimate D2E/DX2                !
 ! D54   D(13,16,18,21)        179.9824         estimate D2E/DX2                !
 ! D55   D(20,16,18,14)        179.8082         estimate D2E/DX2                !
 ! D56   D(20,16,18,21)         -0.1617         estimate D2E/DX2                !
 --------------------------------------------------------------------------------
 Trust Radius=3.00D-01 FncErr=1.00D-07 GrdErr=1.00D-06 EigMax=2.50D+02 EigMin=1.00D-04
 Number of steps in this run=    136 maximum allowed number of steps=    156.
 GradGradGradGradGradGradGradGradGradGradGradGradGradGradGradGradGradGrad

                          Input orientation:                          
 ---------------------------------------------------------------------
 Center     Atomic      Atomic             Coordinates (Angstroms)
 Number     Number       Type             X           Y           Z
 ---------------------------------------------------------------------
      1          6           0       -2.253785   -1.221089   -0.001495
      2          6           0       -1.525543   -0.013128    0.030346
      3          6           0       -2.243318    1.199769    0.042774
      4          6           0       -3.634126    1.203080    0.005901
      5          6           0       -4.353653   -0.003034   -0.014760
      6          1           0       -1.715953   -2.164432    0.006701
      7          1           0       -1.698496    2.139179    0.063906
      8          1           0       -4.173225    2.148077   -0.007127
      9          6           0       -0.103346   -0.019145    0.075466
     10          6           0        1.116737    0.002145    0.099742
     11          6           0        2.539099    0.004154    0.041157
     12          6           0        3.258052   -1.209674    0.035163
     13          6           0        3.256088    1.217623   -0.010621
     14          6           0        4.649888   -1.205733   -0.019426
     15          1           0        2.712770   -2.148262    0.071563
     16          6           0        4.647947    1.213908   -0.064684
     17          1           0        2.709753    2.156263   -0.005076
     18          6           0        5.351065    0.004056   -0.069868
     19          1           0        5.191874   -2.147880   -0.023990
     20          1           0        5.188825    2.155986   -0.100605
     21          1           0        6.437510    0.004023   -0.112410
     22          6           0       -3.644087   -1.212464   -0.008424
     23          1           0       -4.202025   -2.145021    0.008289
     24          7           0       -5.781166   -0.048588   -0.016154
     25          1           0       -6.183865    0.830894    0.301941
     26          1           0       -6.165114   -0.251519   -0.937738
 ---------------------------------------------------------------------
                    Distance matrix (angstroms):
                    1          2          3          4          5
     1  C    0.000000
     2  C    1.410858   0.000000
     3  C    2.421285   1.409423   0.000000
     4  C    2.789622   2.434313   1.391301   0.000000
     5  C    2.427608   2.828488   2.429724   1.404584   0.000000
     6  H    1.085922   2.159844   3.405476   3.875503   3.410215
     7  H    3.406468   2.159506   1.086172   2.150886   3.412495
     8  H    3.877572   3.417957   2.150888   1.088033   2.158678
     9  C    2.464748   1.422925   2.462986   3.736988   4.251295
    10  C    3.587056   2.643235   3.567565   4.901199   5.471591
    11  C    4.947199   4.064693   4.929605   6.288670   6.892983
    12  C    5.511971   4.930976   6.005876   7.302353   7.706914
    13  C    6.025454   4.937653   5.499694   6.890249   7.707021
    14  C    6.903713   6.289732   7.301137   8.627161   9.083516
    15  H    5.052886   4.745924   5.981049   7.177666   7.385377
    16  C    7.318955   6.294968   6.892117   8.282381   9.083625
    17  H    6.003601   4.758702   5.044808   6.415098   7.386092
    18  C    7.703207   6.877360   7.688763   9.065156   9.704877
    19  H    7.503152   7.048674   8.154342   9.440768   9.783534
    20  H    8.173549   7.057262   7.494775   8.874899   9.784049
    21  H    8.777916   7.964351   8.764169  10.143450  10.791607
    22  C    1.390346   2.434777   2.789918   2.415607   1.402229
    23  H    2.156243   3.421843   3.876254   3.395923   2.147471
    24  N    3.717175   4.256025   3.752098   2.485345   1.428240
    25  H    4.443899   4.741951   3.966251   2.593710   2.036028
    26  H    4.137041   4.745486   4.295128   3.067933   2.048176
                    6          7          8          9         10
     6  H    0.000000
     7  H    4.304027   0.000000
     8  H    4.963478   2.475764   0.000000
     9  C    2.684676   2.683840   4.611680   0.000000
    10  C    3.567470   3.534648   5.709654   1.220510   0.000000
    11  C    4.775921   4.745109   7.046562   2.642770   1.423569
    12  C    5.064889   5.981890   8.154763   3.566228   2.461281
    13  C    6.013301   5.040111   7.487353   3.580894   2.463004
    14  C    6.437680   7.176166   9.439042   4.900023   3.735817
    15  H    4.429227   6.151543   8.116751   3.530391   2.678127
    16  C    7.205380   6.414827   8.870685   4.910687   3.736957
    17  H    6.185096   4.408822   6.882983   3.557023   2.681214
    18  C    7.392628   7.367018   9.762831   5.456396   4.237724
    19  H    6.907915   8.115652  10.303427   5.707956   4.609193
    20  H    8.145765   6.889306   9.362520   5.724445   4.610973
    21  H    8.437733   8.413357  10.825699   6.543595   5.325001
    22  C    2.150389   3.876089   3.401944   3.737365   4.914511
    23  H    2.486148   4.962370   4.293222   4.617687   5.736542
    24  N    4.582933   4.632594   2.722296   5.678635   6.899063
    25  H    5.387150   4.678334   2.423462   6.143824   7.350272
    26  H    4.934190   5.164243   3.254492   6.150253   7.359760
                   11         12         13         14         15
    11  C    0.000000
    12  C    1.410783   0.000000
    13  C    1.410412   2.427730   0.000000
    14  C    2.433706   1.392912   2.795606   0.000000
    15  H    2.159625   1.086096   3.410444   2.156169   0.000000
    16  C    2.433505   2.795626   1.392914   2.420065   3.881708
    17  H    2.159359   3.410540   1.086074   3.881668   4.305208
    18  C    2.814157   2.421750   2.421814   1.399208   3.407796
    19  H    3.416535   2.150209   3.882532   1.086927   2.480945
    20  H    3.416361   3.882523   2.150371   3.405613   4.968606
    21  H    3.901435   3.406434   3.406557   2.160497   4.305794
    22  C    6.301937   6.902277   7.315582   8.293985   6.425865
    23  H    7.075506   7.518533   8.181148   8.901651   6.915085
    24  N    8.320630   9.113628   9.125529  10.495041   8.750044
    25  H    8.765935   9.663586   9.453040  11.028206   9.385018
    26  H    8.762815   9.521589   9.580030  10.895783   9.134175
                   16         17         18         19         20
    16  C    0.000000
    17  H    2.155964   0.000000
    18  C    1.399337   3.407744   0.000000
    19  H    3.405750   4.968594   2.158304   0.000000
    20  H    1.086899   2.480912   2.158256   4.304549   0.000000
    21  H    2.160702   4.305790   1.087278   2.487994   2.488031
    22  C    8.639923   7.191635   9.077249   8.885350   9.453850
    23  H    9.466242   8.140878   9.792148   9.393955  10.329501
    24  N   10.505363   8.772525  11.132485  11.172050  11.189637
    25  H   10.844781   8.997072  11.570502  11.763790  11.456701
    26  H   10.946780   9.242864  11.551662  11.550424  11.636529
                   21         22         23         24         25
    21  H    0.000000
    22  C   10.155257   0.000000
    23  H   10.855075   1.086847   0.000000
    24  N   12.219168   2.433469   2.624750   0.000000
    25  H   12.655217   3.274463   3.587477   1.018253   0.000000
    26  H   12.632205   2.853527   2.886873   1.018781   1.645835
                   26
    26  H    0.000000
 Stoichiometry    C14H11N
 Framework group  C1[X(C14H11N)]
 Deg. of freedom    72
 Full point group                 C1      NOp   1
 Largest Abelian subgroup         C1      NOp   1
 Largest concise Abelian subgroup C1      NOp   1
                         Standard orientation:                         
 ---------------------------------------------------------------------
 Center     Atomic      Atomic             Coordinates (Angstroms)
 Number     Number       Type             X           Y           Z
 ---------------------------------------------------------------------
      1          6           0        2.253785   -1.221089    0.001495
      2          6           0        1.525543   -0.013128   -0.030346
      3          6           0        2.243318    1.199769   -0.042774
      4          6           0        3.634126    1.203080   -0.005901
      5          6           0        4.353653   -0.003034    0.014760
      6          1           0        1.715953   -2.164432   -0.006701
      7          1           0        1.698496    2.139179   -0.063906
      8          1           0        4.173225    2.148077    0.007127
      9          6           0        0.103346   -0.019145   -0.075466
     10          6           0       -1.116737    0.002145   -0.099742
     11          6           0       -2.539099    0.004154   -0.041157
     12          6           0       -3.258052   -1.209674   -0.035163
     13          6           0       -3.256088    1.217623    0.010621
     14          6           0       -4.649888   -1.205733    0.019426
     15          1           0       -2.712770   -2.148262   -0.071563
     16          6           0       -4.647947    1.213908    0.064684
     17          1           0       -2.709753    2.156263    0.005076
     18          6           0       -5.351065    0.004056    0.069868
     19          1           0       -5.191874   -2.147880    0.023990
     20          1           0       -5.188825    2.155986    0.100605
     21          1           0       -6.437510    0.004023    0.112410
     22          6           0        3.644087   -1.212464    0.008424
     23          1           0        4.202025   -2.145021   -0.008289
     24          7           0        5.781166   -0.048588    0.016154
     25          1           0        6.183865    0.830894   -0.301941
     26          1           0        6.165114   -0.251519    0.937738
 ---------------------------------------------------------------------
 Rotational constants (GHZ):           2.8057255           0.1942078           0.1818162
 Standard basis: 6-31+G(d) (6D, 7F)
 There are   307 symmetry adapted cartesian basis functions of A   symmetry.
 There are   307 symmetry adapted basis functions of A   symmetry.
   307 basis functions,   524 primitive gaussians,   307 cartesian basis functions
    51 alpha electrons       51 beta electrons
       nuclear repulsion energy       784.4722902410 Hartrees.
 NAtoms=   26 NActive=   26 NUniq=   26 SFac= 1.00D+00 NAtFMM=   60 NAOKFM=F Big=F
 Integral buffers will be    131072 words long.
 Raffenetti 2 integral format.
 Two-electron integral symmetry is turned on.
 Nuclear repulsion after empirical dispersion term =      784.4557670963 Hartrees.
 One-electron integrals computed using PRISM.
 NBasis=   307 RedAO= T EigKep=  1.48D-06  NBF=   307
 NBsUse=   304 1.00D-06 EigRej=  6.46D-07 NBFU=   304
 ExpMin= 4.38D-02 ExpMax= 4.17D+03 ExpMxC= 6.27D+02 IAcc=3 IRadAn=         5 AccDes= 0.00D+00
 Harris functional with IExCor=  402 and IRadAn=       5 diagonalized for initial guess.
 HarFok:  IExCor=  402 AccDes= 0.00D+00 IRadAn=         5 IDoV= 1 UseB2=F ITyADJ=14
 ICtDFT=  3500011 ScaDFX=  1.000000  1.000000  1.000000  1.000000
 FoFCou: FMM=F IPFlag=           0 FMFlag=      100000 FMFlg1=           0
         NFxFlg=           0 DoJE=T BraDBF=F KetDBF=T FulRan=T
         wScrn=  0.000000 ICntrl=       500 IOpCl=  0 I1Cent=   200000004 NGrid=           0
         NMat0=    1 NMatS0=      1 NMatT0=    0 NMatD0=    1 NMtDS0=    0 NMtDT0=    0
 Petite list used in FoFCou.
 Requested convergence on RMS density matrix=1.00D-08 within 128 cycles.
 Requested convergence on MAX density matrix=1.00D-06.
 Requested convergence on             energy=1.00D-06.
 No special actions if energy rises.
 SCF Done:  E(RB3LYP) =  -594.851985492     A.U. after   16 cycles
            NFock= 16  Conv=0.22D-08     -V/T= 2.0100

 **********************************************************************

            Population analysis using the SCF Density.

 **********************************************************************

 Orbital symmetries:
       Occupied  (A) (A) (A) (A) (A) (A) (A) (A) (A) (A) (A) (A)
                 (A) (A) (A) (A) (A) (A) (A) (A) (A) (A) (A) (A)
                 (A) (A) (A) (A) (A) (A) (A) (A) (A) (A) (A) (A)
                 (A) (A) (A) (A) (A) (A) (A) (A) (A) (A) (A) (A)
                 (A) (A) (A)
       Virtual   (A) (A) (A) (A) (A) (A) (A) (A) (A) (A) (A) (A)
                 (A) (A) (A) (A) (A) (A) (A) (A) (A) (A) (A) (A)
                 (A) (A) (A) (A) (A) (A) (A) (A) (A) (A) (A) (A)
                 (A) (A) (A) (A) (A) (A) (A) (A) (A) (A) (A) (A)
                 (A) (A) (A) (A) (A) (A) (A) (A) (A) (A) (A) (A)
                 (A) (A) (A) (A) (A) (A) (A) (A) (A) (A) (A) (A)
                 (A) (A) (A) (A) (A) (A) (A) (A) (A) (A) (A) (A)
                 (A) (A) (A) (A) (A) (A) (A) (A) (A) (A) (A) (A)
                 (A) (A) (A) (A) (A) (A) (A) (A) (A) (A) (A) (A)
                 (A) (A) (A) (A) (A) (A) (A) (A) (A) (A) (A) (A)
                 (A) (A) (A) (A) (A) (A) (A) (A) (A) (A) (A) (A)
                 (A) (A) (A) (A) (A) (A) (A) (A) (A) (A) (A) (A)
                 (A) (A) (A) (A) (A) (A) (A) (A) (A) (A) (A) (A)
                 (A) (A) (A) (A) (A) (A) (A) (A) (A) (A) (A) (A)
                 (A) (A) (A) (A) (A) (A) (A) (A) (A) (A) (A) (A)
                 (A) (A) (A) (A) (A) (A) (A) (A) (A) (A) (A) (A)
                 (A) (A) (A) (A) (A) (A) (A) (A) (A) (A) (A) (A)
                 (A) (A) (A) (A) (A) (A) (A) (A) (A) (A) (A) (A)
                 (A) (A) (A) (A) (A) (A) (A) (A) (A) (A) (A) (A)
                 (A) (A) (A) (A) (A) (A) (A) (A) (A) (A) (A) (A)
                 (A) (A) (A) (A) (A) (A) (A) (A) (A) (A) (A) (A)
                 (A)
 The electronic state is 1-A.
 Alpha  occ. eigenvalues --  -14.34857 -10.23821 -10.22251 -10.21958 -10.20562
 Alpha  occ. eigenvalues --  -10.20433 -10.20266 -10.20259 -10.20175 -10.20167
 Alpha  occ. eigenvalues --  -10.20130 -10.20099 -10.19737 -10.19564 -10.19311
 Alpha  occ. eigenvalues --   -0.92072  -0.86754  -0.85675  -0.79026  -0.76295
 Alpha  occ. eigenvalues --   -0.75794  -0.75519  -0.71327  -0.63601  -0.62261
 Alpha  occ. eigenvalues --   -0.61380  -0.60901  -0.55085  -0.53429  -0.51026
 Alpha  occ. eigenvalues --   -0.50416  -0.48491  -0.46272  -0.45906  -0.44654
 Alpha  occ. eigenvalues --   -0.44007  -0.43143  -0.43019  -0.39146  -0.38824
 Alpha  occ. eigenvalues --   -0.37936  -0.36549  -0.36134  -0.35542  -0.32689
 Alpha  occ. eigenvalues --   -0.29484  -0.27233  -0.26420  -0.26185  -0.25592
 Alpha  occ. eigenvalues --   -0.20911
 Alpha virt. eigenvalues --   -0.05451  -0.02005  -0.01647  -0.00607  -0.00253
 Alpha virt. eigenvalues --    0.00435   0.01688   0.02040   0.02708   0.03491
 Alpha virt. eigenvalues --    0.04300   0.04454   0.05047   0.05573   0.05750
 Alpha virt. eigenvalues --    0.06589   0.06828   0.07239   0.07809   0.08456
 Alpha virt. eigenvalues --    0.08600   0.09302   0.09458   0.09650   0.09821
 Alpha virt. eigenvalues --    0.10767   0.12299   0.12689   0.12863   0.13433
 Alpha virt. eigenvalues --    0.13492   0.14698   0.14857   0.15075   0.15458
 Alpha virt. eigenvalues --    0.15652   0.15737   0.16040   0.16369   0.16589
 Alpha virt. eigenvalues --    0.17629   0.17762   0.17870   0.18371   0.19654
 Alpha virt. eigenvalues --    0.19969   0.20219   0.20272   0.20766   0.21594
 Alpha virt. eigenvalues --    0.21968   0.22242   0.22875   0.23173   0.23443
 Alpha virt. eigenvalues --    0.23795   0.24455   0.24600   0.24849   0.25072
 Alpha virt. eigenvalues --    0.25398   0.25555   0.26669   0.27441   0.27708
 Alpha virt. eigenvalues --    0.27854   0.28630   0.29420   0.29732   0.30257
 Alpha virt. eigenvalues --    0.31088   0.32186   0.32610   0.33192   0.33640
 Alpha virt. eigenvalues --    0.34018   0.34535   0.35404   0.36300   0.37661
 Alpha virt. eigenvalues --    0.38149   0.39214   0.40139   0.40768   0.41891
 Alpha virt. eigenvalues --    0.43468   0.47476   0.56078   0.57734   0.59932
 Alpha virt. eigenvalues --    0.61003   0.64096   0.66009   0.66744   0.67578
 Alpha virt. eigenvalues --    0.68920   0.69203   0.70017   0.71313   0.71480
 Alpha virt. eigenvalues --    0.71731   0.72379   0.72809   0.73406   0.74117
 Alpha virt. eigenvalues --    0.74895   0.75521   0.75675   0.76002   0.76732
 Alpha virt. eigenvalues --    0.77947   0.79250   0.79785   0.80635   0.81340
 Alpha virt. eigenvalues --    0.83187   0.83245   0.84369   0.86302   0.87723
 Alpha virt. eigenvalues --    0.88022   0.89851   0.91664   0.92520   0.92890
 Alpha virt. eigenvalues --    0.93914   0.95197   0.95900   0.97703   0.98401
 Alpha virt. eigenvalues --    0.98521   0.99582   1.01177   1.02744   1.02835
 Alpha virt. eigenvalues --    1.05593   1.06187   1.08279   1.09784   1.10171
 Alpha virt. eigenvalues --    1.11956   1.13805   1.14612   1.15637   1.16441
 Alpha virt. eigenvalues --    1.17764   1.20052   1.22243   1.23233   1.24090
 Alpha virt. eigenvalues --    1.24552   1.24793   1.28012   1.28185   1.30030
 Alpha virt. eigenvalues --    1.32674   1.34089   1.37310   1.39103   1.42354
 Alpha virt. eigenvalues --    1.43291   1.43866   1.44542   1.45071   1.45908
 Alpha virt. eigenvalues --    1.46580   1.48179   1.49088   1.50003   1.50147
 Alpha virt. eigenvalues --    1.56686   1.57248   1.58475   1.61277   1.71358
 Alpha virt. eigenvalues --    1.76513   1.82870   1.83907   1.85472   1.86944
 Alpha virt. eigenvalues --    1.87213   1.90528   1.91050   1.91239   1.92801
 Alpha virt. eigenvalues --    1.93338   1.95128   1.95316   1.98902   1.99323
 Alpha virt. eigenvalues --    1.99569   2.06799   2.08925   2.09116   2.11252
 Alpha virt. eigenvalues --    2.11892   2.14051   2.14558   2.14699   2.15889
 Alpha virt. eigenvalues --    2.16470   2.20246   2.23261   2.24403   2.26560
 Alpha virt. eigenvalues --    2.29140   2.30406   2.30624   2.30736   2.34801
 Alpha virt. eigenvalues --    2.39200   2.46679   2.48475   2.49068   2.51472
 Alpha virt. eigenvalues --    2.56144   2.61200   2.61445   2.62189   2.63605
 Alpha virt. eigenvalues --    2.64176   2.66059   2.70487   2.74638   2.74731
 Alpha virt. eigenvalues --    2.75837   2.79073   2.81869   2.84463   2.91802
 Alpha virt. eigenvalues --    2.93639   2.94859   3.01164   3.07773   3.28710
 Alpha virt. eigenvalues --    3.33930   3.41115   3.59721   3.97651   4.22738
 Alpha virt. eigenvalues --    4.23808   4.23931   4.25579   4.26241   4.28014
 Alpha virt. eigenvalues --    4.33865   4.39565   4.40616   4.40798   4.55513
 Alpha virt. eigenvalues --    4.63830   4.77760   4.99057
          Condensed to atoms (all electrons):
               1          2          3          4          5          6
     1  C   29.339873  -3.780389 -15.483477   4.446054   0.012482   0.274863
     2  C   -3.780389  13.391528  -3.371255   1.254070  -1.037698   0.020530
     3  C  -15.483477  -3.371255  25.917048  -7.319047   0.626167   0.033393
     4  C    4.446054   1.254070  -7.319047  11.791897  -0.904932  -0.008148
     5  C    0.012482  -1.037698   0.626167  -0.904932   7.758163  -0.031224
     6  H    0.274863   0.020530   0.033393  -0.008148  -0.031224   0.528113
     7  H    0.009599  -0.019367   0.302722  -0.044813  -0.010079  -0.000158
     8  H    0.008494   0.038724  -0.097700   0.302102   0.019516   0.000017
     9  C    1.799584  -3.198698   0.911024  -0.231319  -0.123440   0.032405
    10  C   -0.840336   1.138538  -0.331090   0.012701  -0.113614   0.007826
    11  C    0.195113  -0.751694   0.091933   0.066414  -0.003059   0.002340
    12  C   -0.446987   0.041567   0.376007   0.009811  -0.007514   0.002782
    13  C    0.353688   0.125264  -0.438958  -0.033197  -0.003575  -0.000163
    14  C   -0.041560   0.125886   0.019179  -0.017310   0.002829  -0.000261
    15  H    0.001773  -0.000528   0.000122   0.000020   0.000029   0.000002
    16  C   -0.001220   0.063289  -0.009780   0.022797   0.000659  -0.000096
    17  H    0.000093   0.000131   0.001727  -0.000308   0.000037   0.000000
    18  C    0.000877  -0.014492  -0.002735   0.000724  -0.000462   0.000073
    19  H    0.000093  -0.000055  -0.000030  -0.000002   0.000000   0.000000
    20  H   -0.000029  -0.000053   0.000081   0.000008   0.000000   0.000000
    21  H   -0.000001  -0.000009  -0.000002   0.000000   0.000000   0.000000
    22  C   -8.937907   1.286109   5.520560  -3.860974  -0.019979  -0.051131
    23  H   -0.144704   0.026188  -0.007264   0.044025   0.013491  -0.004437
    24  N   -0.009777   0.022202   0.086612   0.310480  -0.134398  -0.000556
    25  H   -0.024468   0.000186   0.045395  -0.142439  -0.069581   0.000003
    26  H   -0.015734   0.006485  -0.019246   0.100006   0.041205   0.000000
               7          8          9         10         11         12
     1  C    0.009599   0.008494   1.799584  -0.840336   0.195113  -0.446987
     2  C   -0.019367   0.038724  -3.198698   1.138538  -0.751694   0.041567
     3  C    0.302722  -0.097700   0.911024  -0.331090   0.091933   0.376007
     4  C   -0.044813   0.302102  -0.231319   0.012701   0.066414   0.009811
     5  C   -0.010079   0.019516  -0.123440  -0.113614  -0.003059  -0.007514
     6  H   -0.000158   0.000017   0.032405   0.007826   0.002340   0.002782
     7  H    0.527099  -0.004396   0.034312   0.007149   0.002756   0.000332
     8  H   -0.004396   0.547979  -0.004657   0.000877  -0.000018  -0.000034
     9  C    0.034312  -0.004657   8.588777  -1.237610   1.010843  -0.265526
    10  C    0.007149   0.000877  -1.237610   7.641782  -2.006521   0.693223
    11  C    0.002756  -0.000018   1.010843  -2.006521  10.615107  -2.389630
    12  C    0.000332  -0.000034  -0.265526   0.693223  -2.389630  21.087256
    13  C    0.001820   0.000079  -0.340214   0.782984  -2.222301 -11.199513
    14  C   -0.000007  -0.000002  -0.150144   0.050975   0.562581  -4.769163
    15  H    0.000000   0.000000   0.011118   0.008253  -0.001500   0.275595
    16  C   -0.000309   0.000004  -0.064057   0.011639   0.526632   2.874388
    17  H    0.000002   0.000000   0.009190   0.012635  -0.006138   0.029427
    18  C    0.000054   0.000000  -0.005532  -0.130691   0.031106  -0.016057
    19  H    0.000000   0.000000  -0.001161  -0.002563   0.000753  -0.001441
    20  H    0.000000   0.000000  -0.001189  -0.002461   0.000416  -0.005566
    21  H    0.000000   0.000000   0.000149  -0.000024   0.001360   0.008834
    22  C    0.000546   0.029278  -0.587942   0.215162   0.002022   0.027590
    23  H    0.000016  -0.000164  -0.003162   0.000858   0.000044   0.000039
    24  N   -0.001165  -0.018126  -0.008288   0.004612   0.000141  -0.000179
    25  H   -0.000004   0.004342   0.001265   0.000095   0.000004   0.000002
    26  H    0.000003   0.000080  -0.000190   0.000058   0.000002   0.000000
              13         14         15         16         17         18
     1  C    0.353688  -0.041560   0.001773  -0.001220   0.000093   0.000877
     2  C    0.125264   0.125886  -0.000528   0.063289   0.000131  -0.014492
     3  C   -0.438958   0.019179   0.000122  -0.009780   0.001727  -0.002735
     4  C   -0.033197  -0.017310   0.000020   0.022797  -0.000308   0.000724
     5  C   -0.003575   0.002829   0.000029   0.000659   0.000037  -0.000462
     6  H   -0.000163  -0.000261   0.000002  -0.000096   0.000000   0.000073
     7  H    0.001820  -0.000007   0.000000  -0.000309   0.000002   0.000054
     8  H    0.000079  -0.000002   0.000000   0.000004   0.000000   0.000000
     9  C   -0.340214  -0.150144   0.011118  -0.064057   0.009190  -0.005532
    10  C    0.782984   0.050975   0.008253   0.011639   0.012635  -0.130691
    11  C   -2.222301   0.562581  -0.001500   0.526632  -0.006138   0.031106
    12  C  -11.199513  -4.769163   0.275595   2.874388   0.029427  -0.016057
    13  C   20.150227   3.045909   0.031795  -4.011324   0.279460  -0.129970
    14  C    3.045909   7.756245  -0.043334  -1.054541  -0.007031   0.385414
    15  H    0.031795  -0.043334   0.531039  -0.008198  -0.000147   0.007216
    16  C   -4.011324  -1.054541  -0.008198   7.133887  -0.044203   0.423536
    17  H    0.279460  -0.007031  -0.000147  -0.044203   0.532151   0.006573
    18  C   -0.129970   0.385414   0.007216   0.423536   0.006573   5.352388
    19  H   -0.005659   0.282637  -0.004681   0.005119   0.000016   0.015192
    20  H    0.002863   0.004750   0.000016   0.279182  -0.004694   0.014985
    21  H    0.006624  -0.001332  -0.000144  -0.001111  -0.000145   0.277577
    22  C   -0.017119   0.008576  -0.000292  -0.011315  -0.000001   0.001621
    23  H   -0.000017   0.000003   0.000000  -0.000002   0.000000   0.000000
    24  N    0.000182  -0.000044   0.000000  -0.000002   0.000000   0.000004
    25  H   -0.000001   0.000000   0.000000   0.000000   0.000000   0.000000
    26  H    0.000000   0.000000   0.000000   0.000000   0.000000   0.000000
              19         20         21         22         23         24
     1  C    0.000093  -0.000029  -0.000001  -8.937907  -0.144704  -0.009777
     2  C   -0.000055  -0.000053  -0.000009   1.286109   0.026188   0.022202
     3  C   -0.000030   0.000081  -0.000002   5.520560  -0.007264   0.086612
     4  C   -0.000002   0.000008   0.000000  -3.860974   0.044025   0.310480
     5  C    0.000000   0.000000   0.000000  -0.019979   0.013491  -0.134398
     6  H    0.000000   0.000000   0.000000  -0.051131  -0.004437  -0.000556
     7  H    0.000000   0.000000   0.000000   0.000546   0.000016  -0.001165
     8  H    0.000000   0.000000   0.000000   0.029278  -0.000164  -0.018126
     9  C   -0.001161  -0.001189   0.000149  -0.587942  -0.003162  -0.008288
    10  C   -0.002563  -0.002461  -0.000024   0.215162   0.000858   0.004612
    11  C    0.000753   0.000416   0.001360   0.002022   0.000044   0.000141
    12  C   -0.001441  -0.005566   0.008834   0.027590   0.000039  -0.000179
    13  C   -0.005659   0.002863   0.006624  -0.017119  -0.000017   0.000182
    14  C    0.282637   0.004750  -0.001332   0.008576   0.000003  -0.000044
    15  H   -0.004681   0.000016  -0.000144  -0.000292   0.000000   0.000000
    16  C    0.005119   0.279182  -0.001111  -0.011315  -0.000002  -0.000002
    17  H    0.000016  -0.004694  -0.000145  -0.000001   0.000000   0.000000
    18  C    0.015192   0.014985   0.277577   0.001621   0.000000   0.000004
    19  H    0.535292  -0.000163  -0.004782   0.000009   0.000000   0.000000
    20  H   -0.000163   0.535471  -0.004774  -0.000002   0.000000   0.000000
    21  H   -0.004782  -0.004774   0.537952   0.000000   0.000000   0.000000
    22  C    0.000009  -0.000002   0.000000  12.137761   0.363741  -0.347820
    23  H    0.000000   0.000000   0.000000   0.363741   0.523241  -0.002631
    24  N    0.000000   0.000000   0.000000  -0.347820  -0.002631   7.353661
    25  H    0.000000   0.000000   0.000000   0.162086  -0.000055   0.307830
    26  H    0.000000   0.000000   0.000000  -0.133526   0.000724   0.301853
              25         26
     1  C   -0.024468  -0.015734
     2  C    0.000186   0.006485
     3  C    0.045395  -0.019246
     4  C   -0.142439   0.100006
     5  C   -0.069581   0.041205
     6  H    0.000003   0.000000
     7  H   -0.000004   0.000003
     8  H    0.004342   0.000080
     9  C    0.001265  -0.000190
    10  C    0.000095   0.000058
    11  C    0.000004   0.000002
    12  C    0.000002   0.000000
    13  C   -0.000001   0.000000
    14  C    0.000000   0.000000
    15  H    0.000000   0.000000
    16  C    0.000000   0.000000
    17  H    0.000000   0.000000
    18  C    0.000000   0.000000
    19  H    0.000000   0.000000
    20  H    0.000000   0.000000
    21  H    0.000000   0.000000
    22  C    0.162086  -0.133526
    23  H   -0.000055   0.000724
    24  N    0.307830   0.301853
    25  H    0.380822  -0.037208
    26  H   -0.037208   0.359489
 Mulliken charges:
               1
     1  C   -0.715996
     2  C    0.633540
     3  C   -0.851389
     4  C    0.201380
     5  C   -0.015023
     6  H    0.193827
     7  H    0.193890
     8  H    0.173605
     9  C   -0.175539
    10  C    0.075543
    11  C    0.271294
    12  C   -0.325242
    13  C   -0.378882
    14  C   -0.160256
    15  H    0.191846
    16  C   -0.134974
    17  H    0.191224
    18  C   -0.217403
    19  H    0.181425
    20  H    0.181159
    21  H    0.179828
    22  C    0.212946
    23  H    0.190064
    24  N   -0.864592
    25  H    0.371728
    26  H    0.395999
 Sum of Mulliken charges =   0.00000
 Mulliken charges with hydrogens summed into heavy atoms:
               1
     1  C   -0.522169
     2  C    0.633540
     3  C   -0.657500
     4  C    0.374985
     5  C   -0.015023
     9  C   -0.175539
    10  C    0.075543
    11  C    0.271294
    12  C   -0.133396
    13  C   -0.187659
    14  C    0.021169
    16  C    0.046186
    18  C   -0.037575
    22  C    0.403010
    24  N   -0.096865
 Electronic spatial extent (au):  <R**2>=           5615.2647
 Charge=              0.0000 electrons
 Dipole moment (field-independent basis, Debye):
    X=              0.8890    Y=              0.9279    Z=              0.9993  Tot=              1.6278
 Quadrupole moment (field-independent basis, Debye-Ang):
   XX=            -67.5378   YY=            -78.4884   ZZ=            -94.3681
   XY=              6.3548   XZ=              5.8768   YZ=             -1.0755
 Traceless Quadrupole moment (field-independent basis, Debye-Ang):
   XX=             12.5936   YY=              1.6431   ZZ=            -14.2366
   XY=              6.3548   XZ=              5.8768   YZ=             -1.0755
 Octapole moment (field-independent basis, Debye-Ang**2):
  XXX=             28.1021  YYY=              0.7698  ZZZ=              2.1064  XYY=              1.6964
  XXY=             41.9751  XXZ=             43.0001  XZZ=             16.3914  YZZ=             -0.1202
  YYZ=             -0.1314  XYZ=             -8.0734
 Hexadecapole moment (field-independent basis, Debye-Ang**3):
 XXXX=          -6226.3384 YYYY=           -573.6792 ZZZZ=           -121.0463 XXXY=            277.2473
 XXXZ=            245.9503 YYYX=              6.7496 YYYZ=             -0.1128 ZZZX=             13.3552
 ZZZY=             -1.3484 XXYY=          -1170.5604 XXZZ=          -1287.8160 YYZZ=           -138.4062
 XXYZ=            -44.2858 YYXZ=             -1.4793 ZZXY=             -0.3047
 N-N= 7.844557670963D+02 E-N=-2.945989079855D+03  KE= 5.889483307522D+02
 Evaluate density.
 Using the total density.
 Monte-Carlo method of calculating molar volume:
 based on  0.001 e/bohr**3 density envelope.
 Number of points per bohr**3 =   20 CutOff= 1.00D-04
 Using the SCF density.
 There are       396 points.  Will hold       396 in memory.
 LenV=  4026314128 MDV=  4026531840.
 Box volume = 7774.075 fraction occupied=0.215
 Integrated density= 7.4068670808073364D+01 error=-2.7931329191926636D+01
 Molar volume = 1668.678 bohr**3/mol (148.911 cm**3/mol)
 Recommended a0 for SCRF calculation =  4.79 angstrom (  9.04 bohr)
 Calling FoFJK, ICntrl=      2127 FMM=F ISym2X=0 I1Cent= 0 IOpClX= 0 NMat=1 NMatS=1 NMatT=0.
 ***** Axes restored to original set *****
 -------------------------------------------------------------------
 Center     Atomic                   Forces (Hartrees/Bohr)
 Number     Number              X              Y              Z
 -------------------------------------------------------------------
      1        6           0.000156800   -0.000154743    0.000506222
      2        6          -0.000263728   -0.000654618    0.002203509
      3        6           0.000704228    0.000762791   -0.000380392
      4        6          -0.001492557   -0.000914979    0.002017357
      5        6          -0.002738982   -0.000229230   -0.001229943
      6        1           0.000124996   -0.000150280   -0.000095254
      7        1           0.000137260   -0.000006806    0.000196683
      8        1           0.000245112    0.000253565   -0.000009806
      9        6           0.005961226    0.001315184   -0.000297171
     10        6          -0.006313180   -0.000807271   -0.003841138
     11        6           0.001048329   -0.000137900    0.002154265
     12        6          -0.000660012   -0.000705245    0.000051466
     13        6          -0.000744616    0.000848996    0.000454376
     14        6           0.000960180    0.000481421   -0.000375871
     15        1          -0.000171906   -0.000003161    0.000214592
     16        6           0.001145634   -0.000654465   -0.000093593
     17        1          -0.000196941    0.000050074    0.000015845
     18        6           0.000511994    0.000117407    0.000072414
     19        1          -0.000145357   -0.000196469    0.000005680
     20        1          -0.000165504    0.000219894   -0.000167192
     21        1          -0.000265688    0.000014987    0.000051083
     22        6          -0.000044834   -0.000909110   -0.001900834
     23        1           0.000282216   -0.000028966   -0.000213392
     24        7           0.001400312    0.005308634    0.000713290
     25        1           0.000142286   -0.000482367   -0.001680321
     26        1           0.000382735   -0.003337344    0.001628127
 -------------------------------------------------------------------
 Cartesian Forces:  Max     0.006313180 RMS     0.001519173

 GradGradGradGradGradGradGradGradGradGradGradGradGradGradGradGradGradGrad
 Berny optimization.
 FormGI is forming the generalized inverse of G from B-inverse, IUseBI=4.
 Internal  Forces:  Max     0.005035619 RMS     0.000830667
 Search for a local minimum.
 Step number   1 out of a maximum of  136
 All quantities printed in internal units (Hartrees-Bohrs-Radians)
 Mixed Optimization -- En-DIIS/RFO-DIIS
 Second derivative matrix not updated -- first step.
 ITU=  0
     Eigenvalues ---    0.00230   0.01019   0.01318   0.01397   0.01777
     Eigenvalues ---    0.01821   0.01880   0.01975   0.01983   0.02052
     Eigenvalues ---    0.02059   0.02067   0.02072   0.02098   0.02100
     Eigenvalues ---    0.02113   0.02115   0.02124   0.02140   0.02144
     Eigenvalues ---    0.02148   0.02151   0.03737   0.04463   0.05258
     Eigenvalues ---    0.15993   0.15997   0.15998   0.16000   0.16000
     Eigenvalues ---    0.16000   0.16000   0.16000   0.16000   0.16000
     Eigenvalues ---    0.16000   0.22000   0.22000   0.22000   0.22955
     Eigenvalues ---    0.23461   0.23996   0.24993   0.24994   0.24996
     Eigenvalues ---    0.35041   0.35129   0.35170   0.35173   0.35180
     Eigenvalues ---    0.35259   0.35267   0.35270   0.35288   0.40852
     Eigenvalues ---    0.40909   0.41243   0.41530   0.41532   0.41923
     Eigenvalues ---    0.42022   0.44383   0.44533   0.44612   0.44618
     Eigenvalues ---    0.44688   0.44996   0.45860   0.46033   0.46816
     Eigenvalues ---    0.47178   0.95157
 RFO step:  Lambda=-2.52555141D-03 EMin= 2.30000000D-03
 Linear search not attempted -- first point.
 Iteration  1 RMS(Cart)=  0.11100973 RMS(Int)=  0.00384146
 Iteration  2 RMS(Cart)=  0.01399067 RMS(Int)=  0.00018918
 Iteration  3 RMS(Cart)=  0.00004540 RMS(Int)=  0.00018831
 Iteration  4 RMS(Cart)=  0.00000002 RMS(Int)=  0.00018831
 Variable       Old X    -DE/DX   Delta X   Delta X   Delta X     New X
                                 (Linear)    (Quad)   (Total)
    R1        2.66614   0.00044   0.00000   0.00098   0.00101   2.66714
    R2        2.05210   0.00019   0.00000   0.00054   0.00054   2.05263
    R3        2.62737   0.00070   0.00000   0.00150   0.00150   2.62887
    R4        2.66342   0.00046   0.00000   0.00100   0.00102   2.66444
    R5        2.68894   0.00091   0.00000   0.00215   0.00215   2.69109
    R6        2.62918   0.00113   0.00000   0.00236   0.00236   2.63154
    R7        2.05257   0.00006   0.00000   0.00018   0.00018   2.05275
    R8        2.65428  -0.00027   0.00000  -0.00058  -0.00060   2.65368
    R9        2.05609   0.00010   0.00000   0.00028   0.00028   2.05637
   R10        2.64983   0.00132   0.00000   0.00292   0.00290   2.65273
   R11        2.69898  -0.00197   0.00000  -0.00475  -0.00475   2.69423
   R12        2.30643  -0.00504   0.00000  -0.00528  -0.00528   2.30115
   R13        2.69016   0.00124   0.00000   0.00296   0.00294   2.69310
   R14        2.66599   0.00038   0.00000   0.00088   0.00090   2.66689
   R15        2.66529   0.00049   0.00000   0.00115   0.00116   2.66645
   R16        2.63222   0.00100   0.00000   0.00213   0.00213   2.63435
   R17        2.05242   0.00006   0.00000   0.00016   0.00017   2.05260
   R18        2.63223   0.00106   0.00000   0.00225   0.00225   2.63448
   R19        2.05238   0.00014   0.00000   0.00040   0.00040   2.05278
   R20        2.64412   0.00015   0.00000   0.00030   0.00029   2.64441
   R21        2.05399   0.00010   0.00000   0.00028   0.00028   2.05427
   R22        2.64436  -0.00001   0.00000  -0.00006  -0.00007   2.64429
   R23        2.05394   0.00011   0.00000   0.00032   0.00032   2.05426
   R24        2.05466  -0.00027   0.00000  -0.00076  -0.00076   2.05390
   R25        2.05384  -0.00012   0.00000  -0.00035  -0.00035   2.05350
   R26        1.92422  -0.00100   0.00000  -0.00222  -0.00222   1.92200
   R27        1.92522  -0.00095   0.00000  -0.00213  -0.00213   1.92309
    A1        2.08054  -0.00011   0.00000  -0.00044  -0.00048   2.08006
    A2        2.10709   0.00015   0.00000   0.00068   0.00072   2.10781
    A3        2.09519  -0.00003   0.00000   0.00003  -0.00002   2.09517
    A4        2.06478  -0.00016   0.00000  -0.00057  -0.00066   2.06412
    A5        2.10947   0.00022   0.00000   0.00108   0.00092   2.11039
    A6        2.10874  -0.00004   0.00000   0.00007  -0.00010   2.10864
    A7        2.10703  -0.00003   0.00000  -0.00028  -0.00024   2.10679
    A8        2.08175  -0.00011   0.00000  -0.00060  -0.00063   2.08112
    A9        2.09425   0.00014   0.00000   0.00090   0.00088   2.09513
   A10        2.10649   0.00035   0.00000   0.00149   0.00149   2.10798
   A11        2.09173  -0.00052   0.00000  -0.00289  -0.00289   2.08884
   A12        2.08497   0.00017   0.00000   0.00139   0.00139   2.08636
   A13        2.07298  -0.00032   0.00000  -0.00128  -0.00131   2.07168
   A14        2.14054  -0.00044   0.00000  -0.00181  -0.00181   2.13872
   A15        2.06947   0.00076   0.00000   0.00296   0.00296   2.07244
   A16        2.10382   0.00022   0.00000   0.00082   0.00076   2.10458
   A17        2.10673  -0.00025   0.00000  -0.00114  -0.00114   2.10559
   A18        2.07263   0.00003   0.00000   0.00033   0.00028   2.07291
   A19        2.10244  -0.00017   0.00000  -0.00072  -0.00069   2.10175
   A20        2.08007  -0.00006   0.00000  -0.00049  -0.00051   2.07956
   A21        2.10067   0.00023   0.00000   0.00121   0.00120   2.10188
   A22        2.10261  -0.00017   0.00000  -0.00071  -0.00069   2.10192
   A23        2.08021  -0.00006   0.00000  -0.00056  -0.00058   2.07963
   A24        2.10036   0.00024   0.00000   0.00128   0.00126   2.10163
   A25        2.09971   0.00022   0.00000   0.00091   0.00091   2.10062
   A26        2.08975  -0.00034   0.00000  -0.00187  -0.00187   2.08787
   A27        2.09373   0.00012   0.00000   0.00096   0.00096   2.09469
   A28        2.09964   0.00021   0.00000   0.00088   0.00088   2.10052
   A29        2.09005  -0.00036   0.00000  -0.00201  -0.00201   2.08803
   A30        2.09350   0.00015   0.00000   0.00114   0.00114   2.09463
   A31        2.08934  -0.00012   0.00000  -0.00069  -0.00070   2.08864
   A32        2.09685   0.00008   0.00000   0.00043   0.00044   2.09729
   A33        2.09700   0.00005   0.00000   0.00025   0.00026   2.09725
   A34        2.10759   0.00001   0.00000   0.00009   0.00010   2.10769
   A35        2.10359  -0.00027   0.00000  -0.00164  -0.00165   2.10194
   A36        2.07186   0.00026   0.00000   0.00161   0.00161   2.07347
   A37        1.94704   0.00078   0.00000   0.00977   0.00966   1.95670
   A38        1.96483   0.00046   0.00000   0.00771   0.00761   1.97244
   A39        1.88135   0.00050   0.00000   0.01195   0.01176   1.89312
   A40        3.12008   0.00115   0.00000   0.02427   0.02424   3.14433
   A41        3.12525   0.00051   0.00000   0.02691   0.02682   3.15206
   A42        3.15658  -0.00099   0.00000  -0.03510  -0.03588   3.12070
   A43        3.06619   0.00330   0.00000   0.20184   0.20280   3.26899
    D1       -3.12246  -0.00036   0.00000  -0.01134  -0.01124  -3.13370
    D2       -0.00219   0.00056   0.00000   0.01935   0.01920   0.01701
    D3       -0.00976  -0.00012   0.00000  -0.00049  -0.00036  -0.01012
    D4        3.11051   0.00080   0.00000   0.03021   0.03007   3.14059
    D5        0.02559   0.00000   0.00000  -0.00198  -0.00203   0.02356
    D6       -3.09751  -0.00011   0.00000  -0.00579  -0.00582  -3.10333
    D7        3.13805   0.00024   0.00000   0.00897   0.00893  -3.13620
    D8        0.01496   0.00013   0.00000   0.00515   0.00514   0.02009
    D9       -0.01519   0.00021   0.00000   0.00432   0.00419  -0.01101
   D10       -3.13807   0.00018   0.00000   0.00341   0.00330  -3.13477
   D11       -3.13547  -0.00071   0.00000  -0.02638  -0.02623   3.12148
   D12        0.02484  -0.00074   0.00000  -0.02729  -0.02712  -0.00228
   D13       -0.01832  -0.00037   0.00000  -0.02767  -0.02735  -0.04567
   D14        3.07245   0.00121   0.00000   0.09345   0.09253  -3.11820
   D15        3.13630  -0.00117   0.00000  -0.08720  -0.08628   3.05002
   D16       -0.05611   0.00041   0.00000   0.03392   0.03360  -0.02251
   D17        0.02465  -0.00017   0.00000  -0.00570  -0.00564   0.01900
   D18       -3.11697  -0.00009   0.00000  -0.00291  -0.00288  -3.11985
   D19       -3.13580  -0.00014   0.00000  -0.00480  -0.00476  -3.14056
   D20        0.00577  -0.00006   0.00000  -0.00201  -0.00200   0.00377
   D21       -0.00886   0.00005   0.00000   0.00316   0.00318  -0.00568
   D22        3.11124  -0.00008   0.00000  -0.00423  -0.00422   3.10701
   D23        3.13276  -0.00003   0.00000   0.00038   0.00041   3.13318
   D24       -0.03033  -0.00016   0.00000  -0.00700  -0.00698  -0.03731
   D25       -0.01615   0.00004   0.00000   0.00067   0.00065  -0.01550
   D26        3.10727   0.00014   0.00000   0.00439   0.00435   3.11162
   D27       -3.13713   0.00018   0.00000   0.00781   0.00782  -3.12931
   D28       -0.01371   0.00027   0.00000   0.01153   0.01152  -0.00219
   D29       -0.32611   0.00153   0.00000   0.13215   0.13209  -0.19402
   D30        1.79165   0.00308   0.00000   0.16028   0.16036   1.95201
   D31        2.79402   0.00139   0.00000   0.12473   0.12464   2.91867
   D32       -1.37140   0.00294   0.00000   0.15286   0.15291  -1.21849
   D33       -3.13928  -0.00062   0.00000  -0.01699  -0.01670   3.12721
   D34        0.00452  -0.00064   0.00000  -0.01706  -0.01673  -0.01221
   D35        0.00124   0.00021   0.00000   0.00015  -0.00011   0.00113
   D36       -3.13814   0.00019   0.00000   0.00008  -0.00014  -3.13828
   D37        3.13896   0.00062   0.00000   0.01735   0.01705  -3.12718
   D38        0.00029   0.00052   0.00000   0.01179   0.01146   0.01175
   D39       -0.00156  -0.00021   0.00000   0.00018   0.00044  -0.00111
   D40       -3.14023  -0.00031   0.00000  -0.00538  -0.00515   3.13781
   D41       -0.00073  -0.00006   0.00000   0.00089   0.00099   0.00026
   D42       -3.14102  -0.00006   0.00000  -0.00009  -0.00002  -3.14104
   D43        3.13862  -0.00004   0.00000   0.00096   0.00102   3.13964
   D44       -0.00167  -0.00003   0.00000  -0.00002   0.00002  -0.00165
   D45        0.00137   0.00005   0.00000  -0.00156  -0.00167  -0.00030
   D46       -3.13771  -0.00005   0.00000  -0.00461  -0.00468   3.14079
   D47        3.14000   0.00015   0.00000   0.00406   0.00399  -3.13919
   D48        0.00092   0.00005   0.00000   0.00101   0.00098   0.00190
   D49        0.00051  -0.00010   0.00000  -0.00225  -0.00220  -0.00168
   D50        3.14158   0.00001   0.00000  -0.00009  -0.00010   3.14148
   D51        3.14080  -0.00010   0.00000  -0.00128  -0.00119   3.13961
   D52       -0.00132   0.00001   0.00000   0.00089   0.00090  -0.00041
   D53       -0.00083   0.00010   0.00000   0.00259   0.00253   0.00170
   D54        3.14129   0.00000   0.00000   0.00042   0.00044  -3.14146
   D55        3.13825   0.00020   0.00000   0.00564   0.00555  -3.13939
   D56       -0.00282   0.00010   0.00000   0.00348   0.00346   0.00064
         Item               Value     Threshold  Converged?
 Maximum Force            0.005036     0.000450     NO 
 RMS     Force            0.000831     0.000300     NO 
 Maximum Displacement     0.533829     0.001800     NO 
 RMS     Displacement     0.111367     0.001200     NO 
 Predicted change in Energy=-1.447430D-03
 GradGradGradGradGradGradGradGradGradGradGradGradGradGradGradGradGradGrad

                          Input orientation:                          
 ---------------------------------------------------------------------
 Center     Atomic      Atomic             Coordinates (Angstroms)
 Number     Number       Type             X           Y           Z
 ---------------------------------------------------------------------
      1          6           0       -2.253845   -1.211913   -0.063696
      2          6           0       -1.522304   -0.004927   -0.071026
      3          6           0       -2.236960    1.209314   -0.017329
      4          6           0       -3.628758    1.213947    0.028165
      5          6           0       -4.351211    0.009889    0.044523
      6          1           0       -1.717978   -2.156145   -0.097120
      7          1           0       -1.690081    2.147809   -0.028578
      8          1           0       -4.164070    2.161131    0.048760
      9          6           0       -0.100034   -0.011804   -0.142184
     10          6           0        1.116970   -0.021459   -0.182748
     11          6           0        2.538766   -0.010593   -0.085976
     12          6           0        3.263836   -1.219993   -0.028776
     13          6           0        3.248836    1.208564   -0.064730
     14          6           0        4.655651   -1.205599    0.048597
     15          1           0        2.723646   -2.162137   -0.047874
     16          6           0        4.640776    1.213763    0.012760
     17          1           0        2.697192    2.143160   -0.112050
     18          6           0        5.350201    0.009026    0.070758
     19          1           0        5.201223   -2.144874    0.091518
     20          1           0        5.174788    2.160511    0.027533
     21          1           0        6.435368    0.016626    0.131242
     22          6           0       -3.643145   -1.201638    0.007104
     23          1           0       -4.199092   -2.134414    0.048191
     24          7           0       -5.773675   -0.029806    0.132327
     25          1           0       -6.168642    0.879192    0.360730
     26          1           0       -6.215552   -0.368442   -0.719550
 ---------------------------------------------------------------------
                    Distance matrix (angstroms):
                    1          2          3          4          5
     1  C    0.000000
     2  C    1.411390   0.000000
     3  C    2.421729   1.409963   0.000000
     4  C    2.789914   2.435702   1.392550   0.000000
     5  C    2.429702   2.831304   2.431564   1.404265   0.000000
     6  H    1.086207   2.160257   3.406174   3.876120   3.412578
     7  H    3.406875   2.159682   1.086267   2.152624   3.414331
     8  H    3.878019   3.418345   2.150367   1.088182   2.159370
     9  C    2.466845   1.424066   2.464380   3.739436   4.255330
    10  C    3.576835   2.641689   3.576452   4.908427   5.472991
    11  C    4.940929   4.061101   4.929547   6.288949   6.891242
    12  C    5.517797   4.938147   6.013352   7.309935   7.714072
    13  C    6.011507   4.923046   5.486001   6.878224   7.694769
    14  C    6.910411   6.294684   7.303713   8.630530   9.088508
    15  H    5.067405   4.762581   5.997935   7.194218   7.401340
    16  C    7.309278   6.282975   6.877802   8.269548   9.072273
    17  H    5.980938   4.734988   5.022638   6.395369   7.365823
    18  C    7.702616   6.873981   7.682021   9.059545   9.701447
    19  H    7.514822   7.057733   8.160207   9.447447   9.792558
    20  H    8.158809   7.039167   7.472670   8.854288   9.765763
    21  H    8.777797   7.960271   8.755218  10.135622  10.786929
    22  C    1.391140   2.436429   2.791172   2.415720   1.403765
    23  H    2.155809   3.422590   3.877470   3.396646   2.149696
    24  N    3.718199   4.256305   3.750490   2.481621   1.425725
    25  H    4.458530   4.749372   3.963589   2.583345   2.039297
    26  H    4.103255   4.751768   4.337237   3.123225   2.050051
                    6          7          8          9         10
     6  H    0.000000
     7  H    4.304591   0.000000
     8  H    4.964224   2.475234   0.000000
     9  C    2.686629   2.684229   4.612428   0.000000
    10  C    3.549809   3.550920   5.718976   1.217718   0.000000
    11  C    4.766905   4.748172   7.047166   2.639398   1.425126
    12  C    5.069469   5.990274   8.161605   3.576059   2.463579
    13  C    5.999297   5.027563   7.474720   3.565141   2.464090
    14  C    6.445767   7.177716   9.440463   4.906942   3.738712
    15  H    4.441901   6.169035   8.132688   3.550492   2.679944
    16  C    7.197367   6.399523   8.855739   4.899112   3.739144
    17  H    6.162627   4.388070   6.863170   3.531183   2.680984
    18  C    7.394275   7.358657   9.754660   5.454433   4.240924
    19  H    6.921780   8.119828  10.307871   5.719084   4.611424
    20  H    8.133836   6.865110   9.338883   5.707145   4.612060
    21  H    8.440979   8.401809  10.814517   6.541180   5.327794
    22  C    2.151329   3.877439   3.403133   3.740538   4.907908
    23  H    2.485461   4.963715   4.295688   4.619956   5.725244
    24  N    4.585046   4.630728   2.719930   5.680307   6.897850
    25  H    5.406599   4.671023   2.399792   6.154251   7.361161
    26  H    4.879700   5.223873   3.346284   6.153056   7.360328
                   11         12         13         14         15
    11  C    0.000000
    12  C    1.411257   0.000000
    13  C    1.411027   2.428870   0.000000
    14  C    2.434615   1.394038   2.796454   0.000000
    15  H    2.159808   1.086188   3.411413   2.157988   0.000000
    16  C    2.434593   2.796579   1.394104   2.419673   3.882751
    17  H    2.159729   3.411571   1.086287   3.882725   4.305856
    18  C    2.815869   2.423492   2.423424   1.399359   3.409811
    19  H    3.416919   2.150196   3.883526   1.087073   2.481555
    20  H    3.416898   3.883647   2.150350   3.405971   4.969815
    21  H    3.902747   3.407851   3.407800   2.160569   4.307664
    22  C    6.296290   6.907098   7.301619   8.298900   6.439068
    23  H    7.065928   7.519134   8.164551   8.903323   6.923460
    24  N    8.315329   9.116968   9.109232  10.495730   8.762635
    25  H    8.764143   9.671087   9.432836  11.027651   9.406882
    26  H    8.784506   9.542593   9.617192  10.930413   9.142086
                   16         17         18         19         20
    16  C    0.000000
    17  H    2.157979   0.000000
    18  C    1.399299   3.409751   0.000000
    19  H    3.405986   4.969793   2.159146   0.000000
    20  H    1.087069   2.481586   2.159056   4.305941   0.000000
    21  H    2.160494   4.307585   1.086878   2.489332   2.489188
    22  C    8.628877   7.169501   9.074691   8.894923   9.437182
    23  H    9.452767   8.116776   9.786922   9.400420  10.310986
    24  N   10.489116   8.748548  11.124114  11.176921  11.165900
    25  H   10.820191   8.967951  11.555302  11.768231  11.420429
    26  H   10.995430   9.279774  11.598866  11.582585  11.691603
                   21         22         23         24         25
    21  H    0.000000
    22  C   10.152634   0.000000
    23  H   10.850143   1.086663   0.000000
    24  N   12.209131   2.434755   2.629785   0.000000
    25  H   12.635574   3.291359   3.613673   1.017076   0.000000
    26  H   12.685341   2.799914   2.788224   1.017656   1.650999
                   26
    26  H    0.000000
 Stoichiometry    C14H11N
 Framework group  C1[X(C14H11N)]
 Deg. of freedom    72
 Full point group                 C1      NOp   1
 Largest Abelian subgroup         C1      NOp   1
 Largest concise Abelian subgroup C1      NOp   1
                         Standard orientation:                         
 ---------------------------------------------------------------------
 Center     Atomic      Atomic             Coordinates (Angstroms)
 Number     Number       Type             X           Y           Z
 ---------------------------------------------------------------------
      1          6           0        2.252913   -1.217995    0.042910
      2          6           0        1.523499   -0.009751    0.053959
      3          6           0        2.240408    1.203433    0.006807
      4          6           0        3.632298    1.205781   -0.035977
      5          6           0        4.352646    0.000519   -0.056058
      6          1           0        1.715309   -2.161406    0.071283
      7          1           0        1.695173    2.142844    0.020989
      8          1           0        4.169327    2.152089   -0.051509
      9          6           0        0.101083   -0.014398    0.122337
     10          6           0       -1.116012   -0.022059    0.160508
     11          6           0       -2.537596   -0.008250    0.061035
     12          6           0       -3.264696   -1.216103   -0.002709
     13          6           0       -3.245462    1.212249    0.043600
     14          6           0       -4.656330   -1.198902   -0.082710
     15          1           0       -2.726215   -2.159280    0.013427
     16          6           0       -4.637237    1.220255   -0.036557
     17          1           0       -2.692256    2.145651    0.095960
     18          6           0       -5.348682    0.017041   -0.101049
     19          1           0       -5.203482   -2.137014   -0.130679
     20          1           0       -5.169542    2.168006   -0.048336
     21          1           0       -6.433715    0.026830   -0.163597
     22          6           0        3.642363   -1.209894   -0.025160
     23          1           0        4.196735   -2.143475   -0.069138
     24          7           0        5.775206   -0.041335   -0.141281
     25          1           0        6.172225    0.867921   -0.365053
     26          1           0        6.214828   -0.384374    0.710001
 ---------------------------------------------------------------------
 Rotational constants (GHZ):           2.7947962           0.1943671           0.1819748
 Standard basis: 6-31+G(d) (6D, 7F)
 There are   307 symmetry adapted cartesian basis functions of A   symmetry.
 There are   307 symmetry adapted basis functions of A   symmetry.
   307 basis functions,   524 primitive gaussians,   307 cartesian basis functions
    51 alpha electrons       51 beta electrons
       nuclear repulsion energy       784.4230024163 Hartrees.
 NAtoms=   26 NActive=   26 NUniq=   26 SFac= 1.00D+00 NAtFMM=   60 NAOKFM=F Big=F
 Integral buffers will be    131072 words long.
 Raffenetti 2 integral format.
 Two-electron integral symmetry is turned on.
 Nuclear repulsion after empirical dispersion term =      784.4064814469 Hartrees.
 One-electron integrals computed using PRISM.
 NBasis=   307 RedAO= T EigKep=  2.05D-06  NBF=   307
 NBsUse=   304 1.00D-06 EigRej=  6.81D-07 NBFU=   304
 Initial guess from the checkpoint file:  "molecule_13.chk"
 B after Tr=     0.000000    0.000000    0.000000
         Rot=    0.999999   -0.001228   -0.000039    0.000225 Ang=  -0.14 deg.
 ExpMin= 4.38D-02 ExpMax= 4.17D+03 ExpMxC= 6.27D+02 IAcc=3 IRadAn=         5 AccDes= 0.00D+00
 Harris functional with IExCor=  402 and IRadAn=       5 diagonalized for initial guess.
 HarFok:  IExCor=  402 AccDes= 0.00D+00 IRadAn=         5 IDoV= 1 UseB2=F ITyADJ=14
 ICtDFT=  3500011 ScaDFX=  1.000000  1.000000  1.000000  1.000000
 FoFCou: FMM=F IPFlag=           0 FMFlag=      100000 FMFlg1=           0
         NFxFlg=           0 DoJE=T BraDBF=F KetDBF=T FulRan=T
         wScrn=  0.000000 ICntrl=       500 IOpCl=  0 I1Cent=   200000004 NGrid=           0
         NMat0=    1 NMatS0=      1 NMatT0=    0 NMatD0=    1 NMtDS0=    0 NMtDT0=    0
 Petite list used in FoFCou.
 Requested convergence on RMS density matrix=1.00D-08 within 128 cycles.
 Requested convergence on MAX density matrix=1.00D-06.
 Requested convergence on             energy=1.00D-06.
 No special actions if energy rises.
 SCF Done:  E(RB3LYP) =  -594.853081785     A.U. after   14 cycles
            NFock= 14  Conv=0.82D-08     -V/T= 2.0101
 Calling FoFJK, ICntrl=      2127 FMM=F ISym2X=0 I1Cent= 0 IOpClX= 0 NMat=1 NMatS=1 NMatT=0.
 ***** Axes restored to original set *****
 -------------------------------------------------------------------
 Center     Atomic                   Forces (Hartrees/Bohr)
 Number     Number              X              Y              Z
 -------------------------------------------------------------------
      1        6          -0.000911170    0.000052770    0.000047934
      2        6           0.000214436    0.000335003   -0.002638672
      3        6          -0.000114090   -0.000558523    0.000090755
      4        6          -0.000509931    0.000094501    0.002415432
      5        6          -0.004336855   -0.001032758   -0.000668374
      6        1          -0.000070589   -0.000005908    0.000007361
      7        1          -0.000131605   -0.000000903   -0.000016275
      8        1           0.000145325    0.000137262   -0.000038259
      9        6          -0.000815833   -0.000324552    0.000362001
     10        6           0.000149253    0.000915424    0.005756867
     11        6           0.000978872   -0.000733620   -0.004196009
     12        6          -0.000079828    0.000129797   -0.000206791
     13        6          -0.000171683    0.000173635   -0.000184335
     14        6           0.000132628    0.000179945    0.000425028
     15        1          -0.000002203   -0.000009363   -0.000080138
     16        6           0.000062681   -0.000226847    0.000423257
     17        1           0.000004915   -0.000053336   -0.000071744
     18        6          -0.000061968   -0.000036136   -0.000126087
     19        1          -0.000053388   -0.000048594    0.000066937
     20        1          -0.000078210    0.000063607    0.000067499
     21        1          -0.000010034   -0.000005198   -0.000060367
     22        6           0.001038128   -0.000490604   -0.001480442
     23        1           0.000253564   -0.000335361   -0.000022933
     24        7           0.004103091    0.005083200   -0.000132053
     25        1          -0.000019856   -0.000320186   -0.001603160
     26        1           0.000284350   -0.002983254    0.001862569
 -------------------------------------------------------------------
 Cartesian Forces:  Max     0.005756867 RMS     0.001391252

 GradGradGradGradGradGradGradGradGradGradGradGradGradGradGradGradGradGrad
 Berny optimization.
 Using GEDIIS/GDIIS optimizer.
 FormGI is forming the generalized inverse of G from B-inverse, IUseBI=4.
 Internal  Forces:  Max     0.004942821 RMS     0.000851313
 Search for a local minimum.
 Step number   2 out of a maximum of  136
 All quantities printed in internal units (Hartrees-Bohrs-Radians)
 Mixed Optimization -- En-DIIS/RFO-DIIS
 Swapping is turned off.
 Update second derivatives using D2CorX and points    1    2
 DE= -1.10D-03 DEPred=-1.45D-03 R= 7.57D-01
 TightC=F SS=  1.41D+00  RLast= 3.85D-01 DXNew= 5.0454D-01 1.1564D+00
 Trust test= 7.57D-01 RLast= 3.85D-01 DXMaxT set to 5.05D-01
 ITU=  1  0
     Eigenvalues ---    0.00230   0.00515   0.01243   0.01410   0.01780
     Eigenvalues ---    0.01821   0.01975   0.01983   0.02052   0.02059
     Eigenvalues ---    0.02065   0.02071   0.02098   0.02099   0.02113
     Eigenvalues ---    0.02115   0.02124   0.02140   0.02143   0.02148
     Eigenvalues ---    0.02150   0.03503   0.04413   0.04895   0.05615
     Eigenvalues ---    0.15965   0.15997   0.15998   0.15999   0.16000
     Eigenvalues ---    0.16000   0.16000   0.16000   0.16000   0.16000
     Eigenvalues ---    0.16015   0.21996   0.22000   0.22002   0.22973
     Eigenvalues ---    0.23452   0.23981   0.24968   0.24987   0.25008
     Eigenvalues ---    0.35041   0.35128   0.35170   0.35173   0.35182
     Eigenvalues ---    0.35259   0.35266   0.35271   0.35288   0.40830
     Eigenvalues ---    0.40912   0.41200   0.41529   0.41531   0.41912
     Eigenvalues ---    0.42059   0.44383   0.44472   0.44590   0.44612
     Eigenvalues ---    0.44677   0.45005   0.45818   0.46034   0.46812
     Eigenvalues ---    0.47276   0.95284
 En-DIIS/RFO-DIIS/Sim-DIIS IScMMF=       -3 using points:     2    1
 RFO step:  Lambda=-2.70057521D-03.
 DidBck=F Rises=F RFO-DIIS coefs:    1.88829   -0.88829
 Iteration  1 RMS(Cart)=  0.05592407 RMS(Int)=  0.01692251
 Iteration  2 RMS(Cart)=  0.02019810 RMS(Int)=  0.00102461
 Iteration  3 RMS(Cart)=  0.00098713 RMS(Int)=  0.00021444
 Iteration  4 RMS(Cart)=  0.00000176 RMS(Int)=  0.00021444
 Iteration  5 RMS(Cart)=  0.00000000 RMS(Int)=  0.00021444
 Variable       Old X    -DE/DX   Delta X   Delta X   Delta X     New X
                                 (Linear)    (Quad)   (Total)
    R1        2.66714   0.00014   0.00089   0.00051   0.00142   2.66856
    R2        2.05263  -0.00003   0.00048   0.00008   0.00056   2.05319
    R3        2.62887  -0.00078   0.00133  -0.00104   0.00030   2.62917
    R4        2.66444  -0.00022   0.00091  -0.00022   0.00069   2.66514
    R5        2.69109  -0.00005   0.00191   0.00051   0.00243   2.69352
    R6        2.63154  -0.00016   0.00210   0.00035   0.00245   2.63398
    R7        2.05275  -0.00007   0.00016  -0.00014   0.00003   2.05277
    R8        2.65368  -0.00031  -0.00054  -0.00074  -0.00129   2.65239
    R9        2.05637   0.00005   0.00025   0.00020   0.00045   2.05681
   R10        2.65273   0.00093   0.00258   0.00271   0.00528   2.65801
   R11        2.69423  -0.00440  -0.00422  -0.01082  -0.01504   2.67918
   R12        2.30115   0.00081  -0.00469  -0.00073  -0.00542   2.29573
   R13        2.69310   0.00052   0.00261   0.00197   0.00456   2.69766
   R14        2.66689  -0.00014   0.00080  -0.00006   0.00075   2.66764
   R15        2.66645  -0.00006   0.00103   0.00018   0.00123   2.66768
   R16        2.63435   0.00005   0.00189   0.00069   0.00258   2.63693
   R17        2.05260  -0.00007   0.00015  -0.00019  -0.00002   2.05258
   R18        2.63448  -0.00001   0.00200   0.00062   0.00262   2.63709
[...]
 0,0.00001267,0.00000540,0.,0.00001467,-0.00001105,-0.00000032,-0.00001
 389,0.00000628,0.00000009,-0.00035473,-0.00002603,-0.00000019,-0.00034
 933,0.00135691,0.00002818,-0.00508268,-0.00149788,-0.00000094,-0.01092
 737,0.02951841,0.00060787,-0.00076388,-0.00083911,-0.00001618,-0.12692
 734,0.11877337,0.00252423,0.00060664,-0.00039328,-0.00001841,-0.001204
 37,-0.00312749,-0.00004406,0.00010635,0.00009894,-0.00000085,0.0122396
 7,-0.01535975,-0.00032077,0.13149943,-0.00002062,-0.00003756,-0.000001
 02,0.00000480,-0.00000765,-0.00000088,-0.00001618,0.00002913,0.0000006
 6,0.00004801,0.00004277,0.00000300,-0.00011158,0.00000106,0.00001096,-
 0.00000798,-0.00000181,-0.00000010,-0.00000750,0.00000377,0.00000003,0
 .00000787,-0.00000579,-0.00000009,-0.00012194,-0.00003571,0.00000311,0
 .00009669,0.00006192,-0.00000603,-0.00095757,0.00186172,-0.00010338,-0
 .00177080,0.00359672,0.00001452,-0.00081059,0.00026493,0.00001923,0.11
 883606,-0.27092912,-0.00484805,0.00035396,0.00087005,0.00009697,-0.004
 30731,-0.00296246,-0.00018220,0.00010468,-0.00000483,0.00002185,0.0160
 2211,-0.01872460,-0.00046278,-0.12789576,0.28635711,-0.00000015,-0.000
 00075,-0.00000197,-0.00000040,0.00000045,-0.00001286,-0.00000014,0.000
 00088,-0.00001360,0.00000097,0.00000090,-0.00000378,-0.00000323,0.0000
 0006,-0.00000025,-0.00000018,-0.00000013,0.00000463,-0.00000017,0.0000
 0003,0.00000334,0.00000019,-0.00000013,0.00000209,-0.00000156,0.000002
 05,-0.00014023,0.00000349,-0.00000919,0.00037881,0.00001026,-0.0001040
 0,0.00728721,-0.00000264,-0.00005654,0.00307781,-0.00001509,0.00001975
 ,-0.00063033,0.00252348,-0.00484195,-0.03658504,-0.00000440,0.00009820
 ,-0.00414867,-0.00006684,-0.00018566,0.00684819,-0.00000091,0.00002225
 ,-0.00113526,0.00029301,-0.00039566,0.00311953,-0.00273636,0.00538446,
 0.02558724,-0.00001870,0.00003898,0.00000100,0.00010252,0.00010054,0.0
 0000200,-0.00005511,-0.00006571,-0.00000135,-0.00005158,-0.00001435,-0
 .00000197,0.00011328,-0.00000278,-0.00001150,0.00001490,0.00001090,0.0
 0000015,0.00001270,-0.00000559,-0.00000024,-0.00002069,0.00000743,0.00
 000014,-0.00035280,0.00002997,0.00000075,-0.00036797,-0.00135136,-0.00
 002517,-0.00505002,0.00158581,0.00005948,-0.00074241,0.00085211,0.0000
 1702,-0.01128286,-0.02932750,-0.00054726,-0.00110878,0.00310284,0.0000
 7816,0.00010370,-0.00010021,-0.00000477,-0.13001569,-0.12059922,-0.002
 17260,0.00060721,0.00039708,-0.00000284,0.01222587,0.01496152,0.000275
 11,0.00046564,0.00083814,0.00001574,0.13482430,0.00001681,0.00002841,0
 .00000101,-0.00000621,-0.00000894,0.00000101,0.00002081,-0.00003699,-0
 .00000048,-0.00005029,-0.00003969,-0.00000316,0.00011018,0.00000005,-0
 .00001079,0.00000736,0.00000353,0.,0.00000779,-0.00000184,-0.00000016,
 -0.00000906,0.00000623,0.00000004,0.00012600,-0.00003760,0.00000117,-0
 .00009116,0.00008048,-0.00000615,0.00104549,0.00182914,-0.00011081,0.0
 0082360,0.00024362,0.00001550,0.00196152,0.00394964,0.00001234,0.00428
 266,-0.00305730,-0.00020518,-0.00010595,-0.00000220,0.00002264,-0.1206
 6164,-0.26786067,-0.00430045,-0.00035011,0.00086944,0.00010031,-0.0164
 2045,-0.01871133,-0.00039489,-0.00085790,-0.00106880,-0.00002337,0.129
 85960,0.28305439,0.00000046,0.00000076,-0.00001358,-0.00000039,-0.0000
 0029,-0.00001283,0.00000062,-0.00000055,-0.00000195,-0.00000085,-0.000
 00070,0.00000664,0.00000111,-0.00000001,-0.00000067,0.00000012,-0.0000
 0003,0.00000334,0.00000012,-0.00000014,0.00000463,-0.00000018,0.000000
 12,0.00000168,0.00000301,0.00000210,-0.00014028,0.00000014,-0.00000295
 ,0.00037900,0.00004917,-0.00011013,0.00728663,0.00001701,0.00001492,-0
 .00063052,0.00007165,0.00008345,0.00308014,0.00010196,-0.00020173,0.00
 684762,-0.00000506,0.00002224,-0.00113516,-0.00217613,-0.00430609,-0.0
 3656480,-0.00001812,0.00009899,-0.00414843,-0.00034425,-0.00046248,0.0
 0311973,-0.00001761,-0.00002738,0.00022293,0.00232096,0.00479809,0.025
 56547,0.00000163,0.00002042,0.00000051,0.00004775,-0.00000042,0.000000
 52,0.00000132,-0.00002058,-0.00000037,-0.00004207,-0.00003514,-0.00000
 259,0.00010952,-0.00000054,-0.00000980,0.00001123,0.00000710,0.0000001
 0,0.00001110,-0.00000719,-0.00000021,-0.00001011,0.00000676,0.00000009
 ,-0.00004340,0.00000062,-0.00000006,0.00006733,0.00000088,-0.00000248,
 0.00074773,-0.00001267,-0.00000388,0.00067486,-0.00322323,-0.00004973,
 0.00074191,0.00315197,0.00007541,-0.01159177,0.00275175,0.00008553,-0.
 00066903,0.00021429,0.00000611,-0.01125552,-0.00254211,-0.00001928,-0.
 00065316,-0.00020460,-0.00000214,-0.33890399,0.00178198,0.00070875,0.0
 0077426,-0.00045934,-0.00001909,0.00077580,0.00045910,-0.00000104,0.35
 936672,0.00000163,-0.00001043,0.00000010,-0.00000040,-0.00001421,-0.00
 000105,-0.00000177,-0.00001014,-0.00000041,-0.00000237,0.00000481,0.00
 000017,-0.00000070,-0.00000127,0.,0.00000294,0.00000391,0.00000007,-0.
 00000303,0.00000404,0.00000007,-0.00000049,-0.00000002,0.00000002,0.00
 000063,0.00005349,-0.00000023,0.00000088,0.00019577,0.00002451,-0.0000
 1271,-0.00123502,-0.00000769,-0.00204728,-0.00473987,-0.00022463,0.001
 97597,-0.00480629,-0.00023465,-0.02865991,0.00510147,0.00010680,-0.001
 43772,0.00010331,0.00000108,0.02886986,0.00476693,-0.00002829,0.001447
 40,0.00008749,-0.00000566,0.00178165,-0.06016544,-0.00049431,0.0003440
 5,0.00072465,0.00008923,-0.00034420,0.00072312,0.00009127,-0.00191872,
 0.05920838,-0.00000009,-0.00000010,-0.00000267,0.00000025,-0.00000109,
 0.00004125,-0.00000019,-0.00000018,-0.00000268,0.00000015,0.00000039,0
 .00000007,-0.00000049,-0.00000009,0.00000262,0.00000003,0.00000001,0.0
 0000113,-0.00000009,0.00000010,0.00000113,0.00000002,0.,0.00000081,-0.
 00000029,-0.00000011,0.00005924,-0.00000204,0.00002451,-0.00104834,-0.
 00000416,-0.00000777,-0.00083801,-0.00002548,-0.00022101,0.00691000,0.
 00005312,-0.00023823,0.00690971,-0.00053003,0.00003709,0.00292639,-0.0
 0002631,-0.00000260,0.00021223,0.00060001,0.00004132,0.00292419,0.0000
 3035,-0.00000198,0.00021210,0.00070397,-0.00049424,-0.03522634,-0.0000
 0326,0.00009078,-0.00386749,-0.00001684,0.00008970,-0.00386766,-0.0007
 7899,0.00068368,0.02465213,-0.35890335,0.03031288,0.00114345,-0.033769
 67,-0.06723278,-0.00142526,-0.04303112,0.02586994,0.00051805,0.0549970
 7,0.01650316,0.00062625,-0.15955258,0.03527533,0.00064481,-0.01060801,
 -0.00215525,-0.00011872,-0.00054800,0.00078762,0.00004961,-0.00131441,
 -0.00432227,-0.00005506,0.00857469,-0.00164557,-0.00007170,-0.00476190
 ,0.00065915,0.00004526,0.00227749,0.00000105,-0.00001099,-0.00075042,0
 .00028990,0.00001592,-0.00061123,-0.00032925,-0.00000714,0.00035323,-0
 .00001498,-0.00000697,0.00003672,0.00000447,-0.00000003,0.00026461,0.0
 0006145,0.00000191,0.00004310,0.00001589,0.,-0.00046729,-0.00004072,0.
 00000181,-0.00005075,0.00005044,0.00000109,-0.00004632,-0.00004688,-0.
 00000086,-0.00004160,0.00000295,0.00000023,0.71679130,-0.02925231,-0.1
 2703600,-0.00176081,-0.02397227,0.03001846,0.00062405,0.02184969,-0.01
 623798,-0.00027304,-0.01783195,-0.04662756,-0.00104261,0.10145291,-0.2
 6928489,-0.00282646,0.02832294,0.00394394,0.00003757,0.00060466,0.0003
 3091,-0.00003269,-0.00303722,-0.00281735,-0.00018554,-0.00556191,-0.00
 458812,-0.00021823,0.00147928,0.00005427,-0.00001490,-0.00132975,0.000
 30870,0.00001347,0.00023041,-0.00025210,0.00001037,0.00035926,0.000121
 48,-0.00000096,-0.00019942,0.00015043,-0.00000562,-0.00002671,0.000010
 86,0.00000097,-0.00015419,-0.00010268,0.00000163,0.00000106,0.00002852
 ,0.00000006,0.00039622,0.00002317,0.00000082,0.00001458,-0.00004063,-0
 .00000114,0.00003029,0.00004311,0.00000092,0.00003584,0.00000434,-0.00
 000020,0.03490723,0.69374821,0.00094473,-0.00119061,-0.05436747,-0.000
 61131,-0.00034495,0.00654021,-0.00008678,-0.00001125,-0.00349307,-0.00
 008904,-0.00119062,0.00694710,0.00112599,-0.00405827,-0.06551829,0.000
 69416,0.00003720,0.00344077,0.00001240,0.00002162,-0.00060985,-0.00001
 076,-0.00015022,0.00506147,0.00006810,-0.00023514,0.00635635,-0.000067
 51,0.00007203,-0.00020961,0.00002697,-0.00000277,-0.00043096,-0.000025
 20,-0.00000751,-0.00011443,-0.00001595,0.00000793,0.00003483,-0.000005
 09,0.00000548,0.00016885,0.00000438,-0.00000155,-0.00004959,0.00000429
 ,-0.00000297,-0.00004563,0.00000325,0.00000236,0.00001143,0.00000212,-
 0.00000324,-0.00002593,-0.00000132,0.00000126,0.00000672,-0.00000116,-
 0.00000101,-0.00000387,-0.00000114,0.,0.00000005,-0.00200952,0.0106724
 7,0.12005031,-0.01177893,-0.02974641,-0.00038763,-0.00475495,0.0018779
 7,0.00007148,-0.00079588,0.00074568,0.00002867,-0.00121946,0.00301424,
 0.00011488,0.00974676,0.01414183,0.00026782,0.00056905,0.00032174,-0.0
 0003028,0.00007151,-0.00010461,-0.00001579,0.00059429,0.00078404,0.000
 03607,-0.00036354,-0.00139225,-0.00002749,-0.00043087,0.00004219,-0.00
 000461,0.00020686,0.00009254,0.00000356,-0.00012085,-0.00003959,-0.000
 00107,-0.00007596,0.00001774,0.00000131,0.00000581,0.00001520,0.000000
 50,0.00001423,-0.00000636,-0.00000013,0.00000704,-0.00000113,-0.000000
 82,0.00001587,0.00001169,0.00000010,-0.00004506,0.00000019,0.00000026,
 -0.00002066,0.00000941,0.00000017,-0.00001407,-0.00000776,-0.00000012,
 -0.00001019,0.00000062,0.00000004,-0.12640673,-0.11755084,-0.00182856,
 0.13315828,0.00153410,0.00373559,0.00003475,0.00097981,0.00208073,-0.0
 0004065,0.00106560,0.00007148,-0.00000070,0.00429987,-0.00291156,-0.00
 018035,-0.01767222,-0.01970095,-0.00036095,-0.00024282,0.00096669,0.00
 006240,-0.00010130,-0.00001195,0.00002282,-0.00080710,-0.00112755,-0.0
 0002689,0.00000659,0.00007452,0.00000912,-0.00000559,-0.00004194,0.000
 00081,0.00009120,-0.00000896,-0.00000124,-0.00003281,-0.00000802,-0.00
 000053,-0.00003573,0.00000285,-0.00000107,0.00000302,-0.00000674,0.000
 00026,0.00000714,-0.00000216,-0.00000017,0.00000563,0.00000828,0.00000
 094,0.00000671,0.00000349,-0.00000005,-0.00003135,0.00000123,-0.000000
 35,-0.00000708,0.00000621,0.00000005,-0.00000617,-0.00000561,-0.000000
 18,-0.00000663,0.00000006,-0.00000002,-0.11743665,-0.26673296,-0.00320
 591,0.12721929,0.28244394,-0.00005319,-0.00006308,0.00207234,-0.000028
 48,-0.00011872,0.00701501,-0.00002894,0.00005734,-0.00045623,0.0001244
 2,-0.00014471,0.00506408,-0.00024623,-0.00074377,0.00389720,-0.0000127
 3,0.00010421,-0.00435977,-0.00000438,0.00001522,-0.00088283,0.00000304
 ,-0.00002272,0.00005988,-0.00000751,-0.00003819,0.00076177,-0.00000625
 ,0.00000869,-0.00017393,0.00000228,0.00000116,-0.00003989,-0.00000179,
 0.00000007,-0.00000483,-0.00000130,0.00000078,-0.00001271,0.00000021,-
 0.00000027,0.00002056,0.00000026,-0.00000016,0.00000002,-0.00000008,-0
 .00000005,-0.00001279,0.00000013,-0.00000016,0.00000615,-0.00000095,-0
 .00000005,-0.00000287,-0.00000018,0.00000015,0.00000168,-0.00000017,-0
 .00000022,0.00000208,-0.00000019,-0.00000004,0.00000081,-0.00129471,-0
 .00277648,-0.03268853,0.00190209,0.00336127,0.02283926,0.00721186,-0.0
 0008926,-0.00052291,-0.00824695,0.00010223,-0.00021983,0.00728729,-0.0
 0010428,-0.00051193,-0.03968014,-0.01370252,0.00117039,-0.30289777,0.0
 0079831,0.01834915,-0.00027342,0.00011660,0.00012022,-0.00029594,-0.00
 011722,0.00011541,0.00199147,0.00071412,0.00034171,0.00431048,-0.00002
 723,0.00014517,-0.00370761,0.00002366,-0.00001779,0.00279004,-0.000017
 83,-0.00001156,-0.00092539,0.00006122,0.00000481,-0.00092596,-0.000049
 62,0.00000256,0.00028861,-0.00025250,-0.00000840,0.00010213,-0.0000242
 9,0.00000118,0.00029187,0.00024904,0.00000056,0.00010246,0.00002296,0.
 00000241,-0.00089015,0.00000564,0.00000351,-0.00012862,0.00012684,0.00
 000385,-0.00013021,-0.00012522,-0.00000110,-0.00012353,0.00000078,0.00
 000108,-0.03889486,0.01418107,0.00173095,0.00199379,-0.00073479,0.0003
 2170,0.64166007,-0.00592029,-0.00914810,-0.00106197,0.00003916,0.00665
 964,0.00017011,0.00580721,-0.00921540,0.00048795,-0.04584439,0.0023183
 5,0.00133685,0.00173928,-0.12258806,-0.00187832,0.00162259,0.00004224,
 -0.00000044,-0.00160726,0.00006215,-0.00000468,-0.00089083,0.00145746,
 -0.00068609,0.00000623,0.00056219,0.00001894,-0.00000250,-0.00006665,-
 0.00000161,0.00000139,-0.00001954,-0.00000085,-0.00000313,-0.00001630,
 0.00000991,0.00000185,-0.00001625,-0.00001061,-0.00001121,0.00000437,-
 0.00000349,-0.00000246,0.00000663,-0.00000137,0.00001169,0.00000444,0.
 00000299,0.00000257,0.00000647,0.00000214,-0.00000057,0.00000670,0.000
 00024,-0.00000341,0.00000022,0.00000032,0.00000332,0.00000006,-0.00000
 012,-0.00000004,0.00000118,0.00000009,0.04629367,0.00177432,-0.0015690
 2,0.00087291,0.00143742,0.00085945,-0.00230479,0.78392321,-0.00257513,
 0.00073910,0.00480157,0.00282298,0.00015122,-0.00146598,-0.00234297,-0
 .00128873,0.00478926,0.00123582,0.00407884,0.00727894,-0.02689432,-0.0
 0158085,-0.03790226,-0.00023162,-0.00006398,0.00013367,-0.00029792,0.0
 0006397,0.00013623,0.00020213,0.00041964,-0.00283865,-0.00148586,0.000
 02954,-0.00040095,0.00127583,-0.00001010,0.00003050,-0.00095864,0.0000
 0521,0.00002573,0.00031843,-0.00002705,-0.00000596,0.00031877,0.000022
 50,-0.00000542,-0.00010123,0.00008836,0.00002293,-0.00003280,0.0000062
 9,-0.00001315,-0.00010183,-0.00008774,0.00001995,-0.00003278,-0.000005
 08,-0.00001342,0.00031227,-0.00000167,-0.00000820,0.00004280,-0.000043
 23,-0.00000615,0.00004349,0.00004289,-0.00000447,0.00004132,-0.0000001
 7,-0.00000368,0.00309899,-0.00432229,0.00704548,0.00023455,-0.00024410
 ,-0.00282175,0.15682416,0.01253510,0.13013226,0.00010917,0.00196371,0.
 00049403,0.00051800,-0.00052034,-0.00013891,-0.00069336,0.00010824,0.0
 0059274,0.00216104,0.00178692,0.00092571,-0.01600585,0.03510820,-0.011
 51716,-0.00049620,-0.00007420,0.00004125,0.00007378,0.00001459,-0.0000
 3596,-0.00050881,-0.00174157,-0.00063507,-0.00024255,-0.00011744,-0.00
 005521,0.00020246,-0.00001119,0.00000560,-0.00013643,0.00001131,0.0000
 0106,0.00004421,-0.00000359,-0.00000656,0.00004364,0.00001176,0.000009
 14,-0.00000956,0.00000165,0.00000701,-0.00000479,0.00000190,-0.0000016
 0,-0.00001630,-0.00000583,-0.00000514,-0.00000653,-0.00000497,-0.00000
 121,0.00003204,-0.00000037,0.00000023,0.00000586,-0.00000596,-0.000000
 56,0.00000524,0.00000571,-0.00000029,0.00000657,-0.00000045,-0.0000005
 0,-0.00576364,-0.00311800,-0.00072087,0.00014136,0.00013620,-0.0000966
 8,-0.13372090,0.13026907,-0.06249968,0.14387755,0.00026919,-0.00006686
 ,-0.00014864,-0.00070794,0.00022199,-0.00008651,0.00089164,-0.00049202
 ,-0.00080483,-0.00344621,0.00160013,-0.00045576,0.00142438,0.00314750,
 -0.00070714,0.00001498,0.00003122,-0.00000448,-0.00004352,-0.00001200,
 0.00005013,0.00015535,-0.00056634,0.00062298,0.00045295,-0.00002626,0.
 00017509,-0.00031197,-0.00000994,0.00001970,0.00020664,0.00000058,-0.0
 0002548,-0.00006414,0.00001607,-0.00000177,-0.00006577,-0.00000811,-0.
 00000024,0.00002924,-0.00001867,0.00000127,0.00000415,-0.00000070,0.00
 000117,0.00002875,0.00001691,0.00000390,0.00000462,-0.00000152,-0.0000
 0100,-0.00006506,0.00000028,-0.00000113,-0.00000630,0.00000694,0.00000
 053,-0.00000832,-0.00000761,0.00000023,-0.00000633,-0.00000008,0.00000
 036,-0.00128444,0.00163327,0.00063086,-0.00017715,0.00030601,0.0001538
 0,0.13395669,-0.33515710,0.09493468,-0.14716165,0.34931279,0.00161622,
 -0.00020544,0.00160735,-0.00086102,-0.00066992,0.00006080,0.00005487,0
 .00017344,-0.00063885,-0.00097666,-0.00071986,-0.00037694,0.01175619,-
 0.00570164,-0.00472757,0.00011617,0.00001177,-0.00021006,-0.00000109,-
 0.00001425,0.00003574,-0.00037565,-0.00048464,0.00035301,0.00049387,-0
 .00003123,-0.00005424,-0.00041255,0.00002056,-0.00004718,0.00031443,-0
 .00000498,0.00001359,-0.00010348,0.00001069,0.00000846,-0.00010436,-0.
 00000674,-0.00000052,0.00003165,-0.00002838,-0.00001524,0.00001080,-0.
 00000299,0.00000486,0.00003361,0.00002870,-0.00000047,0.00001103,0.000
 00166,0.00000470,-0.00010122,-0.00000041,0.00000137,-0.00001353,0.0000
 1401,0.00000245,-0.00001469,-0.00001441,0.00000244,-0.00001380,0.00000
 003,0.00000152,-0.00032282,0.00128668,0.00221860,0.00001050,0.00012014
 ,-0.00063033,-0.08528616,0.12741473,-0.04963472,0.06556902,-0.10728124
 ,0.05066696,-0.00070673,-0.00013052,0.00059855,0.00053440,0.00052145,-
 0.00011607,0.00007949,-0.00198500,0.00041292,-0.00570509,0.00324145,-0
 .00059680,-0.01647871,-0.03434479,-0.01294570,0.00007416,-0.00001416,-
 0.00003722,-0.00049540,0.00007926,0.00004454,0.00014201,-0.00012986,-0
 .00010382,-0.00024700,0.00012249,-0.00005258,0.00020675,0.00000819,0.0
 0000597,-0.00013933,-0.00000956,0.00000087,0.00004438,-0.00001278,0.00
 000859,0.00004511,0.00000348,-0.00000639,-0.00001661,0.00000647,-0.000
 00492,-0.00000653,0.00000508,-0.00000100,-0.00000997,-0.00000205,0.000
 00697,-0.00000487,-0.00000178,-0.00000170,0.00003292,-0.00000006,0.000
 00024,0.00000528,-0.00000587,-0.00000052,0.00000602,0.00000599,-0.0000
 0034,0.00000666,0.00000039,-0.00000049,0.00218368,-0.00183087,0.000856
 88,-0.00048771,0.00176509,-0.00057038,-0.13718862,-0.13008006,-0.06921
 677,0.01038400,0.01591022,0.00856868,0.14774171,-0.00089005,-0.0005049
 9,0.00080199,0.00073837,0.00017363,0.00009331,-0.00033807,-0.00004803,
 0.00007337,0.00139295,0.00165400,-0.00064439,-0.00165536,0.00334468,0.
 00119246,0.00004241,-0.00001081,-0.00005152,-0.00001287,0.00003034,0.0
 0001397,0.00017876,0.00031546,-0.00011316,-0.00047001,-0.00001592,-0.0
 0017272,0.00032591,-0.00001255,-0.00001866,-0.00021763,0.00000229,0.00
 002513,0.00006937,-0.00000913,-0.00000014,0.00006798,0.00001548,0.0000
 0217,-0.00002968,0.00001851,-0.00000322,-0.00000501,-0.00000148,0.0000
 0079,-0.00003064,-0.00001937,-0.00000146,-0.00000455,-0.00000069,-0.00
 000140,0.00006875,-0.00000066,0.00000108,0.00000875,-0.00000822,-0.000
 00064,0.00000688,0.00000736,-0.00000033,0.00000681,-0.00000016,-0.0000
 0042,0.00347363,0.00152628,0.00052385,-0.00014118,-0.00058009,-0.00065
 353,-0.13280961,-0.32203964,-0.10544232,-0.01665371,-0.01992647,-0.013
 91628,0.14687781,0.33609015,0.00001579,-0.00016862,-0.00061257,-0.0008
 2205,0.00068562,0.00009266,0.00160512,0.00011487,0.00161851,-0.0002835
 5,-0.00130405,0.00213848,0.01176628,0.00587206,-0.00444752,0.00000084,
 0.00001234,0.00003420,0.00011545,-0.00000325,-0.00021004,0.00001670,-0
 .00008098,-0.00064007,0.00047500,0.00002647,-0.00005998,-0.00039942,-0
 .00001386,-0.00004909,0.00030557,0.00000049,0.00001497,-0.00010148,0.0
 0000771,-0.00000024,-0.00010085,-0.00000904,0.00000819,0.00003203,-0.0
 0002832,-0.00000164,0.00001081,-0.00000205,0.00000463,0.00003076,0.000
 02776,-0.00001435,0.00001065,0.00000264,0.00000495,-0.00009839,0.00000
 162,0.00000147,-0.00001416,0.00001416,0.00000299,-0.00001343,-0.000013
 62,0.00000189,-0.00001353,0.00000008,0.00000151,-0.00082360,0.00081195
 ,-0.00032496,-0.00037550,0.00045062,0.00034561,-0.09255913,-0.13762022
 ,-0.05929177,0.00806961,0.01292354,0.00135428,0.07315050,0.11829208,0.
 06002790\\0.00002498,0.00001636,-0.00000148,0.00000176,-0.00003297,-0.
 00000167,-0.00003414,0.00001824,0.00000315,0.00003277,0.00001994,0.000
 00110,0.00000318,-0.00003920,-0.00000777,-0.00000138,-0.00000124,0.000
 00079,0.00000437,-0.00000236,-0.00000030,-0.00000517,-0.00000183,-0.00
 000030,0.00000150,0.00000132,-0.00000029,0.00000244,-0.00000303,0.0000
 0009,-0.00000920,0.00001135,0.00000192,0.00000776,-0.00000527,-0.00000
 058,0.00000471,-0.00000241,-0.00000153,-0.00000484,-0.00000126,-0.0000
 0017,-0.00000139,0.00000043,0.00000028,-0.00000272,-0.00000060,0.00000
 007,-0.00000108,0.00000029,-0.00000014,0.00000306,0.00000083,0.0000004
 8,0.00000046,-0.00000006,0.00000011,0.00000072,-0.00000011,0.00000007,
 -0.00000081,0.00000058,-0.00000007,-0.00002933,0.00001725,0.00000161,0
 .00000456,-0.00000213,-0.00000016,-0.00000248,0.00000329,0.00001312,0.
 00000093,0.00000232,-0.00000461,-0.00000066,0.00000027,-0.00000372\\\@


 LENDING MONEY TO FRIENDS CAUSES THEM TO LOSE THEIR MEMORIES.

    --  PETER'S THEORY OF RECIPROCAL INHIBITION OF FISCAL RECALL
 Job cpu time:       0 days  1 hours 43 minutes  1.0 seconds.
 Elapsed time:       0 days  0 hours  3 minutes 26.1 seconds.
 File lengths (MBytes):  RWF=    254 Int=      0 D2E=      0 Chk=      9 Scr=      1
 Normal termination of Gaussian 16 at Sun Sep 17 16:31:14 2023.
