 Entering Gaussian System, Link 0=/home/ubuntu/g16/g16
 Input=/home/ubuntu/ml products/molecule_77.gjf
 Output=/home/ubuntu/ml products/molecule_77.log
 Initial command:
 /home/ubuntu/g16/l1.exe "/home/ubuntu/Scratch/Gau-145543.inp" -scrdir="/home/ubuntu/Scratch/"
 Entering Link 1 = /home/ubuntu/g16/l1.exe PID=    145545.
  
 Copyright (c) 1988-2017, Gaussian, Inc.  All Rights Reserved.
  
 This is part of the Gaussian(R) 16 program.  It is based on
 the Gaussian(R) 09 system (copyright 2009, Gaussian, Inc.),
 the Gaussian(R) 03 system (copyright 2003, Gaussian, Inc.),
 the Gaussian(R) 98 system (copyright 1998, Gaussian, Inc.),
 the Gaussian(R) 94 system (copyright 1995, Gaussian, Inc.),
 the Gaussian 92(TM) system (copyright 1992, Gaussian, Inc.),
 the Gaussian 90(TM) system (copyright 1990, Gaussian, Inc.),
 the Gaussian 88(TM) system (copyright 1988, Gaussian, Inc.),
 the Gaussian 86(TM) system (copyright 1986, Carnegie Mellon
 University), and the Gaussian 82(TM) system (copyright 1983,
 Carnegie Mellon University). Gaussian is a federally registered
 trademark of Gaussian, Inc.
  
 This software contains proprietary and confidential information,
 including trade secrets, belonging to Gaussian, Inc.
  
 This software is provided under written license and may be
 used, copied, transmitted, or stored only in accord with that
 written license.
  
 The following legend is applicable only to US Government
 contracts under FAR:
  
                    RESTRICTED RIGHTS LEGEND
  
 Use, reproduction and disclosure by the US Government is
 subject to restrictions as set forth in subparagraphs (a)
 and (c) of the Commercial Computer Software - Restricted
 Rights clause in FAR 52.227-19.
  
 Gaussian, Inc.
 340 Quinnipiac St., Bldg. 40, Wallingford CT 06492
  
  
 ---------------------------------------------------------------
 Warning -- This program may not be used in any manner that
 competes with the business of Gaussian, Inc. or will provide
 assistance to any competitor of Gaussian, Inc.  The licensee
 of this program is prohibited from giving any competitor of
 Gaussian, Inc. access to this program.  By using this program,
 the user acknowledges that Gaussian, Inc. is engaged in the
 business of creating and licensing software in the field of
 computational chemistry and represents and warrants to the
 licensee that it is not a competitor of Gaussian, Inc. and that
 it will not use this program in any manner prohibited above.
 ---------------------------------------------------------------
  

 Cite this work as:
 Gaussian 16, Revision B.01,
 M. J. Frisch, G. W. Trucks, H. B. Schlegel, G. E. Scuseria, 
 M. A. Robb, J. R. Cheeseman, G. Scalmani, V. Barone, 
 G. A. Petersson, H. Nakatsuji, X. Li, M. Caricato, A. V. Marenich, 
 J. Bloino, B. G. Janesko, R. Gomperts, B. Mennucci, H. P. Hratchian, 
 J. V. Ortiz, A. F. Izmaylov, J. L. Sonnenberg, D. Williams-Young, 
 F. Ding, F. Lipparini, F. Egidi, J. Goings, B. Peng, A. Petrone, 
 T. Henderson, D. Ranasinghe, V. G. Zakrzewski, J. Gao, N. Rega, 
 G. Zheng, W. Liang, M. Hada, M. Ehara, K. Toyota, R. Fukuda, 
 J. Hasegawa, M. Ishida, T. Nakajima, Y. Honda, O. Kitao, H. Nakai, 
 T. Vreven, K. Throssell, J. A. Montgomery, Jr., J. E. Peralta, 
 F. Ogliaro, M. J. Bearpark, J. J. Heyd, E. N. Brothers, K. N. Kudin, 
 V. N. Staroverov, T. A. Keith, R. Kobayashi, J. Normand, 
 K. Raghavachari, A. P. Rendell, J. C. Burant, S. S. Iyengar, 
 J. Tomasi, M. Cossi, J. M. Millam, M. Klene, C. Adamo, R. Cammi, 
 J. W. Ochterski, R. L. Martin, K. Morokuma, O. Farkas, 
 J. B. Foresman, and D. J. Fox, Gaussian, Inc., Wallingford CT, 2016.
 
 ******************************************
 Gaussian 16:  EM64L-G16RevB.01 20-Dec-2017
                16-Sep-2023 
 ******************************************
 %nprocshared=30
 Will use up to   30 processors via shared memory.
 %mem=30GB
 %chk=molecule_77.chk
 ---------------------------------------------------------
 # opt freq b3lyp/6-31+g(d) empiricaldispersion=gd3 volume
 ---------------------------------------------------------
 1/18=20,19=15,26=3,38=1/1,3;
 2/9=110,12=2,17=6,18=5,40=1/2;
 3/5=1,6=6,7=11,11=2,25=1,30=1,71=1,74=-5,124=31/1,2,3;
 4//1;
 5/5=2,38=5/2;
 6/7=2,8=2,9=2,10=2,28=1,44=1/1,4;
 7//1,2,3,16;
 1/18=20,19=15,26=3/3(2);
 2/9=110/2;
 99//99;
 2/9=110/2;
 3/5=1,6=6,7=11,11=2,25=1,30=1,71=1,74=-5,124=31/1,2,3;
 4/5=5,16=3,69=1/1;
 5/5=2,38=5/2;
 7//1,2,3,16;
 1/18=20,19=15,26=3/3(-5);
 2/9=110/2;
 6/7=2,8=2,9=2,10=2,19=2,28=1,44=1/1,4;
 99/9=1/99;
 -------------
 ML molecule77
 -------------
 Symbolic Z-matrix:
 Charge =  0 Multiplicity = 1
 C                    -4.16942  -0.43006  -3.00147 
 C                    -4.57309   0.25534  -1.8477 
 C                    -4.10926   1.55562  -1.60677 
 C                    -3.24176   2.17051  -2.51962 
 C                    -2.83809   1.48511  -3.67339 
 C                    -3.30192   0.18482  -3.91432 
 H                    -5.23544  -0.21414  -1.15072 
 H                    -2.17574   1.95458  -4.37037 
 H                    -2.99371  -0.3385   -4.79525 
 H                    -4.41746   2.07894  -0.72584 
 N                    -4.65595  -1.79399  -3.2542 
 O                    -5.66966  -1.93104  -3.88032 
 O                    -4.01976  -2.71526  -2.82416 
 C                    -1.6528    5.06599  -0.82146 
 C                    -1.62225   4.03073  -1.78709 
 C                    -0.74258   6.09292  -0.876 
 C                    -0.68271   4.04248  -2.78795 
 C                     0.24118   6.1302   -1.90173 
 H                    -0.75815   6.90191  -0.13052 
 C                     0.27205   5.09313  -2.86957 
 H                    -0.65141   3.24235  -3.54263 
 C                     1.19643   7.18047  -1.98402 
 C                     1.25602   5.13062  -3.89553 
 C                     2.13586   7.19241  -2.98506 
 H                     1.16545   7.98077  -1.22949 
 C                     2.16615   6.15706  -3.95088 
 H                     1.27172   4.32153  -4.64105 
 H                     2.87533   8.0041   -3.05043 
 H                     2.92857   6.18913  -4.74308 
 H                    -2.38898   5.04807  -0.04518 
 O                    -2.58382   2.9757   -1.70228 
 

 GradGradGradGradGradGradGradGradGradGradGradGradGradGradGradGradGradGrad
 Berny optimization.
 Initialization pass.
                           ----------------------------
                           !    Initial Parameters    !
                           ! (Angstroms and Degrees)  !
 --------------------------                            --------------------------
 ! Name  Definition              Value          Derivative Info.                !
 --------------------------------------------------------------------------------
 ! R1    R(1,2)                  1.4014         estimate D2E/DX2                !
 ! R2    R(1,6)                  1.4014         estimate D2E/DX2                !
 ! R3    R(1,11)                 1.47           estimate D2E/DX2                !
 ! R4    R(2,3)                  1.4014         estimate D2E/DX2                !
 ! R5    R(2,7)                  1.07           estimate D2E/DX2                !
 ! R6    R(3,4)                  1.4014         estimate D2E/DX2                !
 ! R7    R(3,10)                 1.07           estimate D2E/DX2                !
 ! R8    R(4,5)                  1.4014         estimate D2E/DX2                !
 ! R9    R(4,31)                 1.3226         estimate D2E/DX2                !
 ! R10   R(5,6)                  1.4014         estimate D2E/DX2                !
 ! R11   R(5,8)                  1.07           estimate D2E/DX2                !
 ! R12   R(6,9)                  1.07           estimate D2E/DX2                !
 ! R13   R(11,12)                1.1993         estimate D2E/DX2                !
 ! R14   R(11,13)                1.1993         estimate D2E/DX2                !
 ! R15   R(14,15)                1.416          estimate D2E/DX2                !
 ! R16   R(14,16)                1.3733         estimate D2E/DX2                !
 ! R17   R(14,30)                1.07           estimate D2E/DX2                !
 ! R18   R(15,17)                1.3728         estimate D2E/DX2                !
 ! R19   R(15,31)                1.43           estimate D2E/DX2                !
 ! R20   R(16,18)                1.4217         estimate D2E/DX2                !
 ! R21   R(16,19)                1.1002         estimate D2E/DX2                !
 ! R22   R(17,20)                1.422          estimate D2E/DX2                !
 ! R23   R(17,21)                1.1003         estimate D2E/DX2                !
 ! R24   R(18,20)                1.4189         estimate D2E/DX2                !
 ! R25   R(18,22)                1.4221         estimate D2E/DX2                !
 ! R26   R(20,23)                1.422          estimate D2E/DX2                !
 ! R27   R(22,24)                1.3729         estimate D2E/DX2                !
 ! R28   R(22,25)                1.1003         estimate D2E/DX2                !
 ! R29   R(23,26)                1.3729         estimate D2E/DX2                !
 ! R30   R(23,27)                1.1003         estimate D2E/DX2                !
 ! R31   R(24,26)                1.4162         estimate D2E/DX2                !
 ! R32   R(24,28)                1.1            estimate D2E/DX2                !
 ! R33   R(26,29)                1.0999         estimate D2E/DX2                !
 ! A1    A(2,1,6)              120.0            estimate D2E/DX2                !
 ! A2    A(2,1,11)             120.0            estimate D2E/DX2                !
 ! A3    A(6,1,11)             120.0            estimate D2E/DX2                !
 ! A4    A(1,2,3)              120.0            estimate D2E/DX2                !
 ! A5    A(1,2,7)              120.0            estimate D2E/DX2                !
 ! A6    A(3,2,7)              120.0            estimate D2E/DX2                !
 ! A7    A(2,3,4)              120.0            estimate D2E/DX2                !
 ! A8    A(2,3,10)             120.0            estimate D2E/DX2                !
 ! A9    A(4,3,10)             120.0            estimate D2E/DX2                !
 ! A10   A(3,4,5)              120.0            estimate D2E/DX2                !
 ! A11   A(3,4,31)              99.934          estimate D2E/DX2                !
 ! A12   A(5,4,31)             131.5476         estimate D2E/DX2                !
 ! A13   A(4,5,6)              120.0            estimate D2E/DX2                !
 ! A14   A(4,5,8)              120.0            estimate D2E/DX2                !
 ! A15   A(6,5,8)              120.0            estimate D2E/DX2                !
 ! A16   A(1,6,5)              120.0            estimate D2E/DX2                !
 ! A17   A(1,6,9)              120.0            estimate D2E/DX2                !
 ! A18   A(5,6,9)              120.0            estimate D2E/DX2                !
 ! A19   A(1,11,12)            118.3934         estimate D2E/DX2                !
 ! A20   A(1,11,13)            118.3927         estimate D2E/DX2                !
 ! A21   A(12,11,13)           123.2139         estimate D2E/DX2                !
 ! A22   A(15,14,16)           120.3516         estimate D2E/DX2                !
 ! A23   A(15,14,30)           119.8242         estimate D2E/DX2                !
 ! A24   A(16,14,30)           119.8242         estimate D2E/DX2                !
 ! A25   A(14,15,17)           120.3763         estimate D2E/DX2                !
 ! A26   A(14,15,31)           118.976          estimate D2E/DX2                !
 ! A27   A(17,15,31)           120.6477         estimate D2E/DX2                !
 ! A28   A(14,16,18)           120.4559         estimate D2E/DX2                !
 ! A29   A(14,16,19)           120.8999         estimate D2E/DX2                !
 ! A30   A(18,16,19)           118.6441         estimate D2E/DX2                !
 ! A31   A(15,17,20)           120.5099         estimate D2E/DX2                !
 ! A32   A(15,17,21)           120.8832         estimate D2E/DX2                !
 ! A33   A(20,17,21)           118.6069         estimate D2E/DX2                !
 ! A34   A(16,18,20)           119.2103         estimate D2E/DX2                !
 ! A35   A(16,18,22)           121.73           estimate D2E/DX2                !
 ! A36   A(20,18,22)           119.0596         estimate D2E/DX2                !
 ! A37   A(17,20,18)           119.0959         estimate D2E/DX2                !
 ! A38   A(17,20,23)           121.7004         estimate D2E/DX2                !
 ! A39   A(18,20,23)           119.2037         estimate D2E/DX2                !
 ! A40   A(18,22,24)           120.5491         estimate D2E/DX2                !
 ! A41   A(18,22,25)           118.5913         estimate D2E/DX2                !
 ! A42   A(24,22,25)           120.8596         estimate D2E/DX2                !
 ! A43   A(20,23,26)           120.4968         estimate D2E/DX2                !
 ! A44   A(20,23,27)           118.6409         estimate D2E/DX2                !
 ! A45   A(26,23,27)           120.8623         estimate D2E/DX2                !
 ! A46   A(22,24,26)           120.3669         estimate D2E/DX2                !
 ! A47   A(22,24,28)           120.6492         estimate D2E/DX2                !
 ! A48   A(26,24,28)           118.9839         estimate D2E/DX2                !
 ! A49   A(23,26,24)           120.3239         estimate D2E/DX2                !
 ! A50   A(23,26,29)           120.685          estimate D2E/DX2                !
 ! A51   A(24,26,29)           118.991          estimate D2E/DX2                !
 ! A52   A(4,31,15)            138.3322         estimate D2E/DX2                !
 ! D1    D(6,1,2,3)              0.0001         estimate D2E/DX2                !
 ! D2    D(6,1,2,7)           -179.9998         estimate D2E/DX2                !
 ! D3    D(11,1,2,3)          -179.9999         estimate D2E/DX2                !
 ! D4    D(11,1,2,7)             0.0002         estimate D2E/DX2                !
 ! D5    D(2,1,6,5)             -0.0001         estimate D2E/DX2                !
 ! D6    D(2,1,6,9)            179.9998         estimate D2E/DX2                !
 ! D7    D(11,1,6,5)           179.9999         estimate D2E/DX2                !
 ! D8    D(11,1,6,9)            -0.0002         estimate D2E/DX2                !
 ! D9    D(2,1,11,12)           90.3367         estimate D2E/DX2                !
 ! D10   D(2,1,11,13)          -89.6634         estimate D2E/DX2                !
 ! D11   D(6,1,11,12)          -89.6633         estimate D2E/DX2                !
 ! D12   D(6,1,11,13)           90.3367         estimate D2E/DX2                !
 ! D13   D(1,2,3,4)              0.0001         estimate D2E/DX2                !
 ! D14   D(1,2,3,10)          -179.9999         estimate D2E/DX2                !
 ! D15   D(7,2,3,4)            179.9999         estimate D2E/DX2                !
 ! D16   D(7,2,3,10)            -0.0001         estimate D2E/DX2                !
 ! D17   D(2,3,4,5)             -0.0002         estimate D2E/DX2                !
 ! D18   D(2,3,4,31)          -151.4765         estimate D2E/DX2                !
 ! D19   D(10,3,4,5)           179.9998         estimate D2E/DX2                !
 ! D20   D(10,3,4,31)           28.5235         estimate D2E/DX2                !
 ! D21   D(3,4,5,6)              0.0001         estimate D2E/DX2                !
 ! D22   D(3,4,5,8)           -180.0            estimate D2E/DX2                !
 ! D23   D(31,4,5,6)           141.0616         estimate D2E/DX2                !
 ! D24   D(31,4,5,8)           -38.9385         estimate D2E/DX2                !
 ! D25   D(3,4,31,15)         -172.8299         estimate D2E/DX2                !
 ! D26   D(5,4,31,15)           40.7136         estimate D2E/DX2                !
 ! D27   D(4,5,6,1)              0.0            estimate D2E/DX2                !
 ! D28   D(4,5,6,9)           -179.9999         estimate D2E/DX2                !
 ! D29   D(8,5,6,1)           -179.9999         estimate D2E/DX2                !
 ! D30   D(8,5,6,9)              0.0002         estimate D2E/DX2                !
 ! D31   D(16,14,15,17)         -0.0029         estimate D2E/DX2                !
 ! D32   D(16,14,15,31)        179.991          estimate D2E/DX2                !
 ! D33   D(30,14,15,17)        179.9971         estimate D2E/DX2                !
 ! D34   D(30,14,15,31)         -0.009          estimate D2E/DX2                !
 ! D35   D(15,14,16,18)          0.0104         estimate D2E/DX2                !
 ! D36   D(15,14,16,19)        179.9938         estimate D2E/DX2                !
 ! D37   D(30,14,16,18)       -179.9896         estimate D2E/DX2                !
 ! D38   D(30,14,16,19)         -0.0062         estimate D2E/DX2                !
 ! D39   D(14,15,17,20)         -0.011          estimate D2E/DX2                !
 ! D40   D(14,15,17,21)       -179.9971         estimate D2E/DX2                !
 ! D41   D(31,15,17,20)        179.9952         estimate D2E/DX2                !
 ! D42   D(31,15,17,21)          0.009          estimate D2E/DX2                !
 ! D43   D(14,15,31,4)         148.1253         estimate D2E/DX2                !
 ! D44   D(17,15,31,4)         -31.8808         estimate D2E/DX2                !
 ! D45   D(14,16,18,20)         -0.004          estimate D2E/DX2                !
 ! D46   D(14,16,18,22)        179.9916         estimate D2E/DX2                !
 ! D47   D(19,16,18,20)       -179.9878         estimate D2E/DX2                !
 ! D48   D(19,16,18,22)          0.0078         estimate D2E/DX2                !
 ! D49   D(15,17,20,18)          0.0171         estimate D2E/DX2                !
 ! D50   D(15,17,20,23)       -179.9875         estimate D2E/DX2                !
 ! D51   D(21,17,20,18)       -179.9964         estimate D2E/DX2                !
 ! D52   D(21,17,20,23)         -0.0011         estimate D2E/DX2                !
 ! D53   D(16,18,20,17)         -0.0096         estimate D2E/DX2                !
 ! D54   D(16,18,20,23)        179.995          estimate D2E/DX2                !
 ! D55   D(22,18,20,17)        179.9947         estimate D2E/DX2                !
 ! D56   D(22,18,20,23)         -0.0008         estimate D2E/DX2                !
 ! D57   D(16,18,22,24)       -179.9942         estimate D2E/DX2                !
 ! D58   D(16,18,22,25)          0.0027         estimate D2E/DX2                !
 ! D59   D(20,18,22,24)          0.0014         estimate D2E/DX2                !
 ! D60   D(20,18,22,25)        179.9984         estimate D2E/DX2                !
 ! D61   D(17,20,23,26)       -179.9995         estimate D2E/DX2                !
 ! D62   D(17,20,23,27)         -0.0135         estimate D2E/DX2                !
 ! D63   D(18,20,23,26)         -0.0042         estimate D2E/DX2                !
 ! D64   D(18,20,23,27)        179.9818         estimate D2E/DX2                !
 ! D65   D(18,22,24,26)          0.0027         estimate D2E/DX2                !
 ! D66   D(18,22,24,28)        179.9839         estimate D2E/DX2                !
 ! D67   D(25,22,24,26)       -179.9941         estimate D2E/DX2                !
 ! D68   D(25,22,24,28)         -0.013          estimate D2E/DX2                !
 ! D69   D(20,23,26,24)          0.0084         estimate D2E/DX2                !
 ! D70   D(20,23,26,29)        179.9987         estimate D2E/DX2                !
 ! D71   D(27,23,26,24)       -179.9773         estimate D2E/DX2                !
 ! D72   D(27,23,26,29)          0.013          estimate D2E/DX2                !
 ! D73   D(22,24,26,23)         -0.0078         estimate D2E/DX2                !
 ! D74   D(22,24,26,29)       -179.9982         estimate D2E/DX2                !
 ! D75   D(28,24,26,23)       -179.9892         estimate D2E/DX2                !
 ! D76   D(28,24,26,29)          0.0203         estimate D2E/DX2                !
 --------------------------------------------------------------------------------
 Trust Radius=3.00D-01 FncErr=1.00D-07 GrdErr=1.00D-06 EigMax=2.50D+02 EigMin=1.00D-04
 Number of steps in this run=    171 maximum allowed number of steps=    186.
 GradGradGradGradGradGradGradGradGradGradGradGradGradGradGradGradGradGrad

                          Input orientation:                          
 ---------------------------------------------------------------------
 Center     Atomic      Atomic             Coordinates (Angstroms)
 Number     Number       Type             X           Y           Z
 ---------------------------------------------------------------------
      1          6           0       -4.169419   -0.430061   -3.001474
      2          6           0       -4.573086    0.255341   -1.847698
      3          6           0       -4.109257    1.555625   -1.606770
      4          6           0       -3.241762    2.170508   -2.519619
      5          6           0       -2.838094    1.485105   -3.673395
      6          6           0       -3.301922    0.184821   -3.914322
      7          1           0       -5.235437   -0.214137   -1.150717
      8          1           0       -2.175742    1.954582   -4.370375
      9          1           0       -2.993710   -0.338500   -4.795254
     10          1           0       -4.417465    2.078944   -0.725836
     11          7           0       -4.655954   -1.793995   -3.254196
     12          8           0       -5.669660   -1.931041   -3.880325
     13          8           0       -4.019761   -2.715264   -2.824161
     14          6           0       -1.652800    5.065990   -0.821463
     15          6           0       -1.622251    4.030732   -1.787093
     16          6           0       -0.742575    6.092917   -0.876005
     17          6           0       -0.682713    4.042479   -2.787949
     18          6           0        0.241184    6.130202   -1.901731
     19          1           0       -0.758154    6.901912   -0.130523
     20          6           0        0.272055    5.093133   -2.869573
     21          1           0       -0.651405    3.242350   -3.542630
     22          6           0        1.196430    7.180466   -1.984024
     23          6           0        1.256022    5.130622   -3.895528
     24          6           0        2.135864    7.192414   -2.985058
     25          1           0        1.165453    7.980767   -1.229487
     26          6           0        2.166151    6.157058   -3.950880
     27          1           0        1.271717    4.321531   -4.641046
     28          1           0        2.875333    8.004098   -3.050427
     29          1           0        2.928568    6.189125   -4.743075
     30          1           0       -2.388977    5.048070   -0.045175
     31          8           0       -2.583815    2.975696   -1.702277
 ---------------------------------------------------------------------
                    Distance matrix (angstroms):
                    1          2          3          4          5
     1  C    0.000000
     2  C    1.401400   0.000000
     3  C    2.427296   1.401400   0.000000
     4  C    2.802800   2.427296   1.401400   0.000000
     5  C    2.427296   2.802800   2.427296   1.401400   0.000000
     6  C    1.401400   2.427296   2.802800   2.427296   1.401400
     7  H    2.146700   1.070000   2.146700   3.396345   3.872800
     8  H    3.396345   3.872800   3.396345   2.146700   1.070000
     9  H    2.146700   3.396345   3.872800   3.396345   2.146700
    10  H    3.396345   2.146700   1.070000   2.146700   3.396345
    11  N    1.470000   2.486942   3.772644   4.272800   3.772644
    12  O    2.296964   3.180300   4.445306   4.956703   4.441919
    13  O    2.296952   3.175553   4.441907   4.956691   4.445293
    14  C    6.425916   5.720452   4.355864   3.713806   4.728760
    15  C    5.278396   4.792148   3.513385   2.572906   3.393615
    16  C    7.668775   7.049418   5.696980   4.932818   5.783469
    17  C    5.675062   5.510126   4.395547   3.181982   3.459746
    18  C    7.981222   7.595664   6.319818   5.309603   5.847877
    19  H    8.581196   7.853618   6.480122   5.853399   6.798521
    20  C    7.088706   6.922705   5.771007   4.583788   4.830840
    21  H    5.114281   5.212926   4.306894   2.984183   2.808312
    22  C    9.367372   9.014613   7.741542   6.714469   7.181120
    23  C    7.820226   7.870228   6.841436   5.557470   5.486431
    24  C    9.892370   9.717334   8.524941   7.372587   7.601805
    25  H   10.116463   9.643403   8.321500   7.405883   8.012159
    26  C    9.188631   9.201682   8.127040   6.869251   6.851759
    27  H    7.407548   7.648425   6.768452   5.431284   5.086472
    28  H   10.989357  10.815209   9.615168   8.469438   8.690719
    29  H    9.860437   9.993389   8.990924   7.691945   7.518405
    30  H    6.474534   5.566837   4.194653   3.889792   5.104939
    31  O    3.975076   3.373230   2.086312   1.322600   2.484315
                    6          7          8          9         10
     6  C    0.000000
     7  H    3.396345   0.000000
     8  H    2.146700   4.942800   0.000000
     9  H    1.070000   4.280590   2.471400   0.000000
    10  H    3.872800   2.471400   4.280590   4.942800   0.000000
    11  N    2.486942   2.693766   4.631321   2.693766   4.631321
    12  O    3.175565   3.253778   5.248398   3.245611   5.253453
    13  O    3.180288   3.245600   5.253441   3.253766   5.248386
    14  C    6.009258   6.389321   4.748589   6.840874   4.071236
    15  C    4.705043   5.610614   3.360074   5.479062   3.570569
    16  C    7.119496   7.748561   5.602714   7.860740   5.444203
    17  C    4.796926   6.444114   3.015381   5.344433   4.696398
    18  C    7.207751   8.414751   5.419551   7.789809   6.284778
    19  H    8.118325   8.469062   6.667981   8.898370   6.083254
    20  C    6.160871   7.839262   4.253776   6.623903   5.972649
    21  H    4.063481   6.219477   2.160350   4.458469   4.844693
    22  C    8.538165   9.835825   6.661537   9.055116   7.689238
    23  C    6.725783   8.845308   4.699970   6.984342   7.179704
    24  C    8.918487  10.609330   6.924156   9.289995   8.613814
    25  H    9.377769  10.398752   7.572560   9.961101   8.139666
    26  C    8.097454  10.159553   6.057129   8.338429   8.389036
    27  H    6.209562   8.665894   4.190546   6.319298   7.261188
    28  H   10.002294  11.701832   7.990761  10.348383   9.679673
    29  H    8.692382  10.979881   6.642608   8.813966   9.327165
    30  H    6.281318   6.084026   5.321888   7.207224   3.659751
    31  O    3.632878   4.184537   2.885818   4.551748   2.262714
                   11         12         13         14         15
    11  N    0.000000
    12  O    1.199341   0.000000
    13  O    1.199337   2.110132   0.000000
    14  C    7.873786   8.628455   8.376229   0.000000
    15  C    6.729278   7.503724   7.234087   1.416027   0.000000
    16  C    9.119962   9.883623   9.597880   1.373340   2.420024
    17  C    7.075907   7.857854   7.536862   2.419857   1.372801
    18  C    9.412971  10.190022   9.861480   2.426253   2.809503
    19  H   10.028408  10.779841  10.506371   2.156015   3.425575
    20  C    8.477365   9.255517   8.910263   2.810793   2.426696
    21  H    6.440836   7.215323   6.881510   3.425376   2.155458
    22  C   10.789100  11.565409  11.217840   3.733721   4.231379
    23  C    9.127600   9.891026   9.515232   4.232647   3.733593
    24  C   11.267510  12.040147  11.665320   4.853535   5.055174
    25  H   11.555700  12.328408  11.993102   4.074919   4.866723
    26  C   10.499796  11.261538  10.874423   5.056488   4.853373
    27  H    8.629037   9.373156   8.989843   4.867877   4.074882
    28  H   12.359791  13.130598  12.747479   5.839927   6.132855
    29  H   11.111793  11.857949  11.456424   6.134282   5.840073
    30  H    7.889921   8.612737   8.405449   1.070000   2.158036
    31  O    5.426985   6.192124   5.975582   2.451928   1.430000
                   16         17         18         19         20
    16  C    0.000000
    17  C    2.804177   0.000000
    18  C    1.421719   2.448990   0.000000
    19  H    1.100209   3.904351   2.175176   0.000000
    20  C    2.450175   1.422011   1.418868   3.440263   0.000000
    21  H    3.904476   1.100332   3.439325   5.004624   2.175127
    22  C    2.483991   3.744921   1.422083   2.708036   2.448597
    23  C    3.746722   2.483844   2.450364   4.622730   1.422034
    24  C    3.733954   4.231468   2.427284   4.075304   2.809645
    25  H    2.707305   4.621107   2.175035   2.464125   3.438965
    26  C    4.233162   3.733614   2.811625   4.868418   2.426677
    27  H    4.622847   2.707699   3.440514   5.578849   2.175502
    28  H    4.633571   5.331323   3.430704   4.789872   3.909410
    29  H    5.332991   4.633785   3.911361   5.947741   3.430492
    30  H    2.119580   3.383099   3.396403   2.470546   3.880766
    31  O    3.713483   2.435344   4.239258   4.606368   3.741939
                   21         22         23         24         25
    21  H    0.000000
    22  C    4.620877   0.000000
    23  C    2.707100   2.803436   0.000000
    24  C    4.866494   1.372861   2.419517   0.000000
    25  H    5.577114   1.100349   3.903755   2.155279   0.000000
    26  C    4.074409   2.419968   1.372941   1.416225   3.425389
    27  H    2.463645   3.903709   1.100306   3.425058   5.004002
    28  H    5.945956   2.152742   3.404883   1.099963   2.498010
    29  H    4.789652   3.405205   2.153178   2.173843   4.320169
    30  H    4.302554   4.600151   5.302645   5.806488   4.757865
    31  O    2.681830   5.661247   4.919188   6.457678   6.271465
                   26         27         28         29         30
    26  C    0.000000
    27  H    2.155342   0.000000
    28  H    2.173779   4.320065   0.000000
    29  H    1.099946   2.498695   2.482342   0.000000
    30  H    6.101932   5.920352   6.744078   7.186693   0.000000
    31  O    6.143244   5.031178   7.543516   7.068165   2.660579
                   31
    31  O    0.000000
 Stoichiometry    C16H11NO3
 Framework group  C1[X(C16H11NO3)]
 Deg. of freedom    87
 Full point group                 C1      NOp   1
 Largest Abelian subgroup         C1      NOp   1
 Largest concise Abelian subgroup C1      NOp   1
                         Standard orientation:                         
 ---------------------------------------------------------------------
 Center     Atomic      Atomic             Coordinates (Angstroms)
 Number     Number       Type             X           Y           Z
 ---------------------------------------------------------------------
      1          6           0       -3.979974   -0.180931   -0.026786
      2          6           0       -3.605110    1.166630    0.059691
      3          6           0       -2.272799    1.539075   -0.164263
      4          6           0       -1.315354    0.563959   -0.474697
      5          6           0       -1.690218   -0.783602   -0.561173
      6          6           0       -3.022528   -1.156047   -0.337218
      7          1           0       -4.336141    1.911152    0.296715
      8          1           0       -0.959187   -1.528125   -0.798196
      9          1           0       -3.308745   -2.184940   -0.403242
     10          1           0       -1.986582    2.567967   -0.098235
     11          7           0       -5.377503   -0.571607    0.208129
     12          8           0       -6.125399   -0.605563   -0.728843
     13          8           0       -5.713988   -0.840789    1.327383
     14          6           0        2.047574    2.044528    0.064726
     15          6           0        1.180878    0.925158    0.033443
     16          6           0        3.409341    1.867519    0.082696
     17          6           0        1.692408   -0.348717    0.020684
     18          6           0        3.966242    0.559473    0.069918
     19          1           0        4.091032    2.730750    0.106923
     20          6           0        3.098159   -0.562412    0.038438
     21          1           0        1.026660   -1.224456   -0.003649
     22          6           0        5.371927    0.344875    0.087771
     23          6           0        3.655335   -1.870682    0.025551
     24          6           0        5.883546   -0.929026    0.074740
     25          1           0        6.038001    1.220386    0.112138
     26          6           0        5.016603   -2.048450    0.043228
     27          1           0        2.973633   -2.734032    0.001424
     28          1           0        6.970537   -1.096909    0.088247
     29          1           0        5.450903   -3.058979    0.033354
     30          1           0        1.639326    3.033538    0.074415
     31          8           0       -0.232249    1.143452    0.015548
 ---------------------------------------------------------------------
 Rotational constants (GHZ):           1.1678616           0.1233957           0.1139616
 Standard basis: 6-31+G(d) (6D, 7F)
 There are   402 symmetry adapted cartesian basis functions of A   symmetry.
 There are   402 symmetry adapted basis functions of A   symmetry.
   402 basis functions,   684 primitive gaussians,   402 cartesian basis functions
    69 alpha electrons       69 beta electrons
       nuclear repulsion energy      1339.4778093885 Hartrees.
 NAtoms=   31 NActive=   31 NUniq=   31 SFac= 1.00D+00 NAtFMM=   60 NAOKFM=F Big=F
 Integral buffers will be    131072 words long.
 Raffenetti 2 integral format.
 Two-electron integral symmetry is turned on.
 Nuclear repulsion after empirical dispersion term =     1339.4521313713 Hartrees.
 One-electron integrals computed using PRISM.
 NBasis=   402 RedAO= T EigKep=  1.11D-06  NBF=   402
 NBsUse=   400 1.00D-06 EigRej=  6.01D-07 NBFU=   400
 ExpMin= 4.38D-02 ExpMax= 5.48D+03 ExpMxC= 8.25D+02 IAcc=3 IRadAn=         5 AccDes= 0.00D+00
 Harris functional with IExCor=  402 and IRadAn=       5 diagonalized for initial guess.
 HarFok:  IExCor=  402 AccDes= 0.00D+00 IRadAn=         5 IDoV= 1 UseB2=F ITyADJ=14
 ICtDFT=  3500011 ScaDFX=  1.000000  1.000000  1.000000  1.000000
 FoFCou: FMM=F IPFlag=           0 FMFlag=      100000 FMFlg1=           0
         NFxFlg=           0 DoJE=T BraDBF=F KetDBF=T FulRan=T
         wScrn=  0.000000 ICntrl=       500 IOpCl=  0 I1Cent=   200000004 NGrid=           0
         NMat0=    1 NMatS0=      1 NMatT0=    0 NMatD0=    1 NMtDS0=    0 NMtDT0=    0
 Petite list used in FoFCou.
 Requested convergence on RMS density matrix=1.00D-08 within 128 cycles.
 Requested convergence on MAX density matrix=1.00D-06.
 Requested convergence on             energy=1.00D-06.
 No special actions if energy rises.
 SCF Done:  E(RB3LYP) =  -896.653754700     A.U. after   16 cycles
            NFock= 16  Conv=0.75D-08     -V/T= 2.0091

 **********************************************************************

            Population analysis using the SCF Density.

 **********************************************************************

 Orbital symmetries:
       Occupied  (A) (A) (A) (A) (A) (A) (A) (A) (A) (A) (A) (A)
                 (A) (A) (A) (A) (A) (A) (A) (A) (A) (A) (A) (A)
                 (A) (A) (A) (A) (A) (A) (A) (A) (A) (A) (A) (A)
                 (A) (A) (A) (A) (A) (A) (A) (A) (A) (A) (A) (A)
                 (A) (A) (A) (A) (A) (A) (A) (A) (A) (A) (A) (A)
                 (A) (A) (A) (A) (A) (A) (A) (A) (A)
       Virtual   (A) (A) (A) (A) (A) (A) (A) (A) (A) (A) (A) (A)
                 (A) (A) (A) (A) (A) (A) (A) (A) (A) (A) (A) (A)
                 (A) (A) (A) (A) (A) (A) (A) (A) (A) (A) (A) (A)
                 (A) (A) (A) (A) (A) (A) (A) (A) (A) (A) (A) (A)
                 (A) (A) (A) (A) (A) (A) (A) (A) (A) (A) (A) (A)
                 (A) (A) (A) (A) (A) (A) (A) (A) (A) (A) (A) (A)
                 (A) (A) (A) (A) (A) (A) (A) (A) (A) (A) (A) (A)
                 (A) (A) (A) (A) (A) (A) (A) (A) (A) (A) (A) (A)
                 (A) (A) (A) (A) (A) (A) (A) (A) (A) (A) (A) (A)
                 (A) (A) (A) (A) (A) (A) (A) (A) (A) (A) (A) (A)
                 (A) (A) (A) (A) (A) (A) (A) (A) (A) (A) (A) (A)
                 (A) (A) (A) (A) (A) (A) (A) (A) (A) (A) (A) (A)
                 (A) (A) (A) (A) (A) (A) (A) (A) (A) (A) (A) (A)
                 (A) (A) (A) (A) (A) (A) (A) (A) (A) (A) (A) (A)
                 (A) (A) (A) (A) (A) (A) (A) (A) (A) (A) (A) (A)
                 (A) (A) (A) (A) (A) (A) (A) (A) (A) (A) (A) (A)
                 (A) (A) (A) (A) (A) (A) (A) (A) (A) (A) (A) (A)
                 (A) (A) (A) (A) (A) (A) (A) (A) (A) (A) (A) (A)
                 (A) (A) (A) (A) (A) (A) (A) (A) (A) (A) (A) (A)
                 (A) (A) (A) (A) (A) (A) (A) (A) (A) (A) (A) (A)
                 (A) (A) (A) (A) (A) (A) (A) (A) (A) (A) (A) (A)
                 (A) (A) (A) (A) (A) (A) (A) (A) (A) (A) (A) (A)
                 (A) (A) (A) (A) (A) (A) (A) (A) (A) (A) (A) (A)
                 (A) (A) (A) (A) (A) (A) (A) (A) (A) (A) (A) (A)
                 (A) (A) (A) (A) (A) (A) (A) (A) (A) (A) (A) (A)
                 (A) (A) (A) (A) (A) (A) (A) (A) (A) (A) (A) (A)
                 (A) (A) (A) (A) (A) (A) (A) (A) (A) (A) (A) (A)
                 (A) (A) (A) (A) (A) (A) (A)
 The electronic state is 1-A.
 Alpha  occ. eigenvalues --  -19.21526 -19.20056 -19.20028 -14.58850 -10.28602
 Alpha  occ. eigenvalues --  -10.28239 -10.26199 -10.23387 -10.22719 -10.22575
 Alpha  occ. eigenvalues --  -10.22293 -10.22039 -10.21884 -10.21784 -10.21655
 Alpha  occ. eigenvalues --  -10.21475 -10.21280 -10.21246 -10.21214 -10.21075
 Alpha  occ. eigenvalues --   -1.27000  -1.10865  -1.08588  -0.90333  -0.89333
 Alpha  occ. eigenvalues --   -0.85134  -0.81762  -0.79616  -0.78506  -0.76641
 Alpha  occ. eigenvalues --   -0.74496  -0.71141  -0.66699  -0.65195  -0.63385
 Alpha  occ. eigenvalues --   -0.61957  -0.60590  -0.57854  -0.57070  -0.55876
 Alpha  occ. eigenvalues --   -0.53591  -0.52881  -0.52817  -0.49672  -0.48741
 Alpha  occ. eigenvalues --   -0.48275  -0.47141  -0.46435  -0.45990  -0.45668
 Alpha  occ. eigenvalues --   -0.44718  -0.43793  -0.43163  -0.41096  -0.40406
 Alpha  occ. eigenvalues --   -0.39471  -0.38210  -0.37227  -0.35570  -0.34592
 Alpha  occ. eigenvalues --   -0.34097  -0.33012  -0.32259  -0.31333  -0.30552
 Alpha  occ. eigenvalues --   -0.28247  -0.27171  -0.24697  -0.22859
 Alpha virt. eigenvalues --   -0.07793  -0.06555  -0.04904  -0.04133  -0.02526
 Alpha virt. eigenvalues --   -0.00869  -0.00639   0.00068   0.00397   0.01695
 Alpha virt. eigenvalues --    0.01959   0.02831   0.03522   0.03609   0.04034
 Alpha virt. eigenvalues --    0.05060   0.05164   0.05397   0.05881   0.06123
 Alpha virt. eigenvalues --    0.06879   0.07044   0.07488   0.07985   0.08240
 Alpha virt. eigenvalues --    0.08960   0.09509   0.10068   0.10222   0.10609
 Alpha virt. eigenvalues --    0.11224   0.11520   0.11588   0.12407   0.12677
 Alpha virt. eigenvalues --    0.12879   0.13388   0.13766   0.13980   0.14604
 Alpha virt. eigenvalues --    0.14731   0.14972   0.15385   0.15665   0.15924
 Alpha virt. eigenvalues --    0.16679   0.16907   0.17417   0.17765   0.18149
 Alpha virt. eigenvalues --    0.18270   0.18926   0.19182   0.19307   0.19755
 Alpha virt. eigenvalues --    0.19924   0.20265   0.20640   0.20895   0.21353
 Alpha virt. eigenvalues --    0.21722   0.22076   0.22359   0.22643   0.22798
 Alpha virt. eigenvalues --    0.23253   0.23583   0.23745   0.24347   0.24696
 Alpha virt. eigenvalues --    0.25122   0.25185   0.25609   0.25702   0.25979
 Alpha virt. eigenvalues --    0.26539   0.26723   0.27172   0.28134   0.28193
 Alpha virt. eigenvalues --    0.28667   0.28874   0.29279   0.29804   0.30002
 Alpha virt. eigenvalues --    0.30672   0.31324   0.31445   0.31750   0.32372
 Alpha virt. eigenvalues --    0.32653   0.32797   0.33192   0.33375   0.34166
 Alpha virt. eigenvalues --    0.34802   0.35443   0.35982   0.36654   0.37006
 Alpha virt. eigenvalues --    0.37986   0.38790   0.39481   0.40410   0.40935
 Alpha virt. eigenvalues --    0.41584   0.42121   0.43390   0.43517   0.44432
 Alpha virt. eigenvalues --    0.45625   0.46271   0.46975   0.50005   0.51830
 Alpha virt. eigenvalues --    0.53307   0.55868   0.58625   0.60263   0.63148
 Alpha virt. eigenvalues --    0.64997   0.65143   0.65955   0.67407   0.67887
 Alpha virt. eigenvalues --    0.67981   0.69614   0.69885   0.70718   0.71135
 Alpha virt. eigenvalues --    0.71946   0.72234   0.72892   0.73386   0.73983
 Alpha virt. eigenvalues --    0.74117   0.74843   0.75419   0.75840   0.76203
 Alpha virt. eigenvalues --    0.76924   0.77027   0.77950   0.78617   0.79688
 Alpha virt. eigenvalues --    0.80033   0.81705   0.83395   0.83989   0.86623
 Alpha virt. eigenvalues --    0.87076   0.87351   0.88322   0.88665   0.91252
 Alpha virt. eigenvalues --    0.91494   0.91848   0.92685   0.93737   0.95246
 Alpha virt. eigenvalues --    0.96253   0.97169   0.97656   0.98520   0.99109
 Alpha virt. eigenvalues --    1.00902   1.01022   1.02224   1.04429   1.05449
 Alpha virt. eigenvalues --    1.07959   1.08551   1.09647   1.11318   1.12212
 Alpha virt. eigenvalues --    1.13106   1.14624   1.15898   1.16618   1.17551
 Alpha virt. eigenvalues --    1.18163   1.19021   1.19701   1.20296   1.20997
 Alpha virt. eigenvalues --    1.21461   1.21834   1.23289   1.24396   1.25423
 Alpha virt. eigenvalues --    1.26052   1.27031   1.28846   1.29172   1.30697
 Alpha virt. eigenvalues --    1.31590   1.33412   1.33847   1.36192   1.37035
 Alpha virt. eigenvalues --    1.37428   1.38646   1.39512   1.40719   1.42681
 Alpha virt. eigenvalues --    1.43290   1.44470   1.45184   1.45607   1.46222
 Alpha virt. eigenvalues --    1.46669   1.47294   1.47763   1.48258   1.48428
 Alpha virt. eigenvalues --    1.50234   1.55076   1.56155   1.58678   1.64966
 Alpha virt. eigenvalues --    1.66243   1.70005   1.72492   1.72797   1.78278
 Alpha virt. eigenvalues --    1.79055   1.80057   1.80326   1.80716   1.81299
 Alpha virt. eigenvalues --    1.81805   1.83024   1.83715   1.85755   1.86684
 Alpha virt. eigenvalues --    1.89053   1.89185   1.89913   1.91986   1.93660
 Alpha virt. eigenvalues --    1.94151   1.94535   1.96369   1.97335   1.98773
 Alpha virt. eigenvalues --    2.00170   2.00485   2.01272   2.03511   2.05054
 Alpha virt. eigenvalues --    2.06396   2.08053   2.08684   2.10381   2.11573
 Alpha virt. eigenvalues --    2.13102   2.15792   2.16532   2.18150   2.18531
 Alpha virt. eigenvalues --    2.19185   2.19760   2.20724   2.22213   2.25140
 Alpha virt. eigenvalues --    2.26621   2.27734   2.30606   2.30951   2.31907
 Alpha virt. eigenvalues --    2.32564   2.34691   2.35366   2.35859   2.42703
 Alpha virt. eigenvalues --    2.44606   2.45957   2.47268   2.53352   2.57817
 Alpha virt. eigenvalues --    2.59419   2.60801   2.62313   2.63884   2.64642
 Alpha virt. eigenvalues --    2.65820   2.66814   2.67103   2.71798   2.72795
 Alpha virt. eigenvalues --    2.75188   2.75479   2.78349   2.79688   2.81636
 Alpha virt. eigenvalues --    2.83335   2.87314   2.87378   2.88756   2.89002
 Alpha virt. eigenvalues --    2.92982   2.99342   3.00441   3.03492   3.08307
 Alpha virt. eigenvalues --    3.11913   3.17822   3.28208   3.35572   3.40771
 Alpha virt. eigenvalues --    3.48509   4.12820   4.21348   4.23420   4.26162
 Alpha virt. eigenvalues --    4.28546   4.29225   4.30902   4.35688   4.36104
 Alpha virt. eigenvalues --    4.36856   4.37571   4.43825   4.44126   4.46043
 Alpha virt. eigenvalues --    4.53250   4.55260   4.60260   4.61859   4.75095
 Alpha virt. eigenvalues --    4.82830
          Condensed to atoms (all electrons):
               1          2          3          4          5          6
     1  C   11.896922  -1.882311   0.227237  -2.161632   0.037171  -2.412750
     2  C   -1.882311  16.494562  -3.223199   1.333150  -2.713532  -3.839922
     3  C    0.227237  -3.223199  12.542537  -1.956238   1.226257  -2.917250
     4  C   -2.161632   1.333150  -1.956238  11.022787  -2.493561   1.519907
     5  C    0.037171  -2.713532   1.226257  -2.493561  14.547958  -5.216823
     6  C   -2.412750  -3.839922  -2.917250   1.519907  -5.216823  18.961949
     7  H   -0.041960   0.366612  -0.079318   0.051893  -0.013560   0.009052
     8  H    0.007744  -0.001923   0.000061   0.004952   0.249271   0.011761
     9  H    0.017258   0.031320  -0.029979   0.014646  -0.098049   0.359830
    10  H    0.018505  -0.019755   0.315663  -0.002874   0.014018  -0.012732
    11  N    0.014502  -0.306038   0.134084  -0.133863   0.150585  -0.154976
    12  O    0.266771  -0.101594  -0.030108   0.019054  -0.058136  -0.078376
    13  O    0.211758  -0.113030   0.031402  -0.018813   0.068079  -0.184268
    14  C    0.065927  -0.130988   0.021298  -0.318716   0.334375  -0.121496
    15  C   -0.289948   0.717074  -0.615912  -1.769365  -0.234941   0.972718
    16  C    0.006424  -0.041718   0.094086   0.028429   0.004010  -0.010666
    17  C    0.096845  -0.229876   0.037445   1.089303  -0.119798  -0.372812
    18  C   -0.000172   0.012462   0.065830  -0.421728   0.182035  -0.019507
    19  H   -0.000022   0.000074  -0.000437   0.000221   0.000034   0.000087
    20  C    0.022505  -0.056420  -0.062395   0.078981   0.174355  -0.141334
    21  H   -0.002241   0.002860  -0.003852  -0.013359  -0.011917   0.031361
    22  C    0.002217  -0.001701   0.034496  -0.132687   0.023748  -0.004545
    23  C    0.018089  -0.011121  -0.045708   0.249428  -0.134719   0.009948
    24  C   -0.000297  -0.000001   0.000477   0.016247  -0.006392   0.000618
    25  H    0.000000   0.000001   0.000018   0.000002  -0.000018  -0.000001
    26  C    0.004035  -0.000653  -0.011145  -0.061941   0.045487   0.002121
    27  H   -0.000033   0.000026   0.000178  -0.001272   0.001224   0.000113
    28  H    0.000000   0.000000   0.000000   0.000006  -0.000005   0.000000
    29  H    0.000000   0.000000   0.000004   0.000002  -0.000003  -0.000006
    30  H    0.000139  -0.001282  -0.006190   0.000522   0.002872  -0.000547
    31  O    0.000694   0.069842   0.047230  -0.015434  -0.162286  -0.053543
               7          8          9         10         11         12
     1  C   -0.041960   0.007744   0.017258   0.018505   0.014502   0.266771
     2  C    0.366612  -0.001923   0.031320  -0.019755  -0.306038  -0.101594
     3  C   -0.079318   0.000061  -0.029979   0.315663   0.134084  -0.030108
     4  C    0.051893   0.004952   0.014646  -0.002874  -0.133863   0.019054
     5  C   -0.013560   0.249271  -0.098049   0.014018   0.150585  -0.058136
     6  C    0.009052   0.011761   0.359830  -0.012732  -0.154976  -0.078376
     7  H    0.514666   0.000014  -0.000149  -0.004805  -0.000895  -0.000393
     8  H    0.000014   0.530679  -0.005620  -0.000167   0.000797  -0.000105
     9  H   -0.000149  -0.005620   0.511100   0.000011  -0.000372  -0.000349
    10  H   -0.004805  -0.000167   0.000011   0.504702   0.000820  -0.000083
    11  N   -0.000895   0.000797  -0.000372   0.000820   6.911784   0.296622
    12  O   -0.000393  -0.000105  -0.000349  -0.000083   0.296622   7.827869
    13  O    0.000857  -0.000031   0.000236  -0.000050   0.308902  -0.105658
    14  C    0.000678   0.011869  -0.000285  -0.014873  -0.000026   0.000154
    15  C   -0.001147  -0.000174  -0.004429   0.002445   0.000908  -0.000017
    16  C    0.000030  -0.002884   0.000043   0.001053   0.000228   0.000005
    17  C    0.000175   0.000732   0.004002   0.012186  -0.000566  -0.001280
    18  C   -0.000009  -0.006089  -0.000133  -0.001839   0.000138   0.000010
    19  H    0.000000   0.000000   0.000000   0.000000   0.000000   0.000000
    20  C   -0.000065   0.003274  -0.000037   0.002409  -0.000622  -0.000041
    21  H    0.000000   0.002627   0.000001  -0.000001   0.000004   0.000000
    22  C   -0.000001  -0.000458  -0.000008   0.000002   0.000009   0.000000
    23  C    0.000005   0.008100   0.000394   0.000285  -0.000161  -0.000030
    24  C    0.000000   0.000149   0.000002   0.000005  -0.000001   0.000000
    25  H    0.000000   0.000000   0.000000   0.000000   0.000000   0.000000
    26  C    0.000000   0.001411   0.000008  -0.000011   0.000006  -0.000001
    27  H    0.000000  -0.000005   0.000000   0.000000   0.000000   0.000000
    28  H    0.000000   0.000000   0.000000   0.000000   0.000000   0.000000
    29  H    0.000000   0.000000   0.000000   0.000000   0.000000   0.000000
    30  H    0.000000   0.000000   0.000000   0.000043   0.000000   0.000000
    31  O    0.000313  -0.002357  -0.000403  -0.016630   0.000438  -0.000446
              13         14         15         16         17         18
     1  C    0.211758   0.065927  -0.289948   0.006424   0.096845  -0.000172
     2  C   -0.113030  -0.130988   0.717074  -0.041718  -0.229876   0.012462
     3  C    0.031402   0.021298  -0.615912   0.094086   0.037445   0.065830
     4  C   -0.018813  -0.318716  -1.769365   0.028429   1.089303  -0.421728
     5  C    0.068079   0.334375  -0.234941   0.004010  -0.119798   0.182035
     6  C   -0.184268  -0.121496   0.972718  -0.010666  -0.372812  -0.019507
     7  H    0.000857   0.000678  -0.001147   0.000030   0.000175  -0.000009
     8  H   -0.000031   0.011869  -0.000174  -0.002884   0.000732  -0.006089
     9  H    0.000236  -0.000285  -0.004429   0.000043   0.004002  -0.000133
    10  H   -0.000050  -0.014873   0.002445   0.001053   0.012186  -0.001839
    11  N    0.308902  -0.000026   0.000908   0.000228  -0.000566   0.000138
    12  O   -0.105658   0.000154  -0.000017   0.000005  -0.001280   0.000010
    13  O    7.823112   0.000119   0.000948   0.000009   0.000953   0.000007
    14  C    0.000119  13.421258  -0.845505  -2.720869  -4.430844   0.917814
    15  C    0.000948  -0.845505  13.921748  -0.620821  -3.495730   2.356099
    16  C    0.000009  -2.720869  -0.620821  13.004915   2.533881  -5.318800
    17  C    0.000953  -4.430844  -3.495730   2.533881  13.236912  -3.731585
    18  C    0.000007   0.917814   2.356099  -5.318800  -3.731585  22.393415
    19  H    0.000000   0.092705   0.015211   0.186831   0.000637   0.001393
    20  C    0.000056   0.864421  -0.720079  -4.757000  -0.311144  -0.979571
    21  H    0.000000   0.054124   0.021166  -0.048765   0.210099  -0.013789
    22  C    0.000001   0.434930   0.611142   1.662097  -0.999146  -5.241828
    23  C    0.000021  -0.992018  -4.119663   2.704204   3.006802  -5.249799
    24  C    0.000000  -0.634739  -0.162772  -0.457395   0.337432   0.325837
    25  H    0.000000   0.007220   0.003564  -0.077038  -0.000889  -0.014701
    26  C    0.000000   0.409544  -0.201905  -0.367564  -0.694370   0.379289
    27  H    0.000000   0.006263   0.012638   0.003397  -0.006274   0.070108
    28  H    0.000000   0.000666   0.000085  -0.012993  -0.001824   0.019575
    29  H    0.000000  -0.000049   0.001453   0.003921  -0.003298   0.013466
    30  H    0.000000   0.192455   0.013231   0.022384   0.083947  -0.045815
    31  O    0.000319  -0.455713   0.575219   0.096780  -0.183305  -0.004434
              19         20         21         22         23         24
     1  C   -0.000022   0.022505  -0.002241   0.002217   0.018089  -0.000297
     2  C    0.000074  -0.056420   0.002860  -0.001701  -0.011121  -0.000001
     3  C   -0.000437  -0.062395  -0.003852   0.034496  -0.045708   0.000477
     4  C    0.000221   0.078981  -0.013359  -0.132687   0.249428   0.016247
     5  C    0.000034   0.174355  -0.011917   0.023748  -0.134719  -0.006392
     6  C    0.000087  -0.141334   0.031361  -0.004545   0.009948   0.000618
     7  H    0.000000  -0.000065   0.000000  -0.000001   0.000005   0.000000
     8  H    0.000000   0.003274   0.002627  -0.000458   0.008100   0.000149
     9  H    0.000000  -0.000037   0.000001  -0.000008   0.000394   0.000002
    10  H    0.000000   0.002409  -0.000001   0.000002   0.000285   0.000005
    11  N    0.000000  -0.000622   0.000004   0.000009  -0.000161  -0.000001
    12  O    0.000000  -0.000041   0.000000   0.000000  -0.000030   0.000000
    13  O    0.000000   0.000056   0.000000   0.000001   0.000021   0.000000
    14  C    0.092705   0.864421   0.054124   0.434930  -0.992018  -0.634739
    15  C    0.015211  -0.720079   0.021166   0.611142  -4.119663  -0.162772
    16  C    0.186831  -4.757000  -0.048765   1.662097   2.704204  -0.457395
    17  C    0.000637  -0.311144   0.210099  -0.999146   3.006802   0.337432
    18  C    0.001393  -0.979571  -0.013789  -5.241828  -5.249799   0.325837
    19  H    0.521453   0.112753   0.000016  -0.134653   0.020589  -0.010745
    20  C    0.112753  18.564443   0.017624  -2.005119  -5.560467   0.727339
    21  H    0.000016   0.017624   0.550352   0.007704   0.007973  -0.000986
    22  C   -0.134653  -2.005119   0.007704  13.041851  -0.227771  -1.204007
    23  C    0.020589  -5.560467   0.007973  -0.227771  17.244081  -0.277606
    24  C   -0.010745   0.727339  -0.000986  -1.204007  -0.277606   6.827919
    25  H    0.004266   0.085859   0.000002   0.277471  -0.038192   0.018690
    26  C   -0.000714   0.173168   0.016210  -0.052701  -0.575604   0.508344
    27  H    0.000002  -0.056498   0.004297  -0.022399   0.241611   0.004615
    28  H   -0.000009   0.027948   0.000000   0.009033   0.007132   0.271487
    29  H    0.000000   0.010329  -0.000010   0.026208  -0.008199  -0.027036
    30  H   -0.004486   0.034619  -0.000155  -0.008887   0.011305   0.001354
    31  O   -0.000309  -0.073469  -0.008502   0.016741  -0.026811  -0.001111
              25         26         27         28         29         30
     1  C    0.000000   0.004035  -0.000033   0.000000   0.000000   0.000139
     2  C    0.000001  -0.000653   0.000026   0.000000   0.000000  -0.001282
     3  C    0.000018  -0.011145   0.000178   0.000000   0.000004  -0.006190
     4  C    0.000002  -0.061941  -0.001272   0.000006   0.000002   0.000522
     5  C   -0.000018   0.045487   0.001224  -0.000005  -0.000003   0.002872
     6  C   -0.000001   0.002121   0.000113   0.000000  -0.000006  -0.000547
     7  H    0.000000   0.000000   0.000000   0.000000   0.000000   0.000000
     8  H    0.000000   0.001411  -0.000005   0.000000   0.000000   0.000000
     9  H    0.000000   0.000008   0.000000   0.000000   0.000000   0.000000
    10  H    0.000000  -0.000011   0.000000   0.000000   0.000000   0.000043
    11  N    0.000000   0.000006   0.000000   0.000000   0.000000   0.000000
    12  O    0.000000  -0.000001   0.000000   0.000000   0.000000   0.000000
    13  O    0.000000   0.000000   0.000000   0.000000   0.000000   0.000000
    14  C    0.007220   0.409544   0.006263   0.000666  -0.000049   0.192455
    15  C    0.003564  -0.201905   0.012638   0.000085   0.001453   0.013231
    16  C   -0.077038  -0.367564   0.003397  -0.012993   0.003921   0.022384
    17  C   -0.000889  -0.694370  -0.006274  -0.001824  -0.003298   0.083947
    18  C   -0.014701   0.379289   0.070108   0.019575   0.013466  -0.045815
    19  H    0.004266  -0.000714   0.000002  -0.000009   0.000000  -0.004486
    20  C    0.085859   0.173168  -0.056498   0.027948   0.010329   0.034619
    21  H    0.000002   0.016210   0.004297   0.000000  -0.000010  -0.000155
    22  C    0.277471  -0.052701  -0.022399   0.009033   0.026208  -0.008887
    23  C   -0.038192  -0.575604   0.241611   0.007132  -0.008199   0.011305
    24  C    0.018690   0.508344   0.004615   0.271487  -0.027036   0.001354
    25  H    0.535534   0.015308   0.000017  -0.004250  -0.000156  -0.000010
    26  C    0.015308   6.460180   0.022871  -0.024418   0.279670  -0.000516
    27  H    0.000017   0.022871   0.538499  -0.000157  -0.004242   0.000000
    28  H   -0.004250  -0.024418  -0.000157   0.527519  -0.004115   0.000000
    29  H   -0.000156   0.279670  -0.004242  -0.004115   0.527166   0.000000
    30  H   -0.000010  -0.000516   0.000000   0.000000   0.000000   0.518933
    31  O    0.000002  -0.005349   0.000008   0.000000   0.000000  -0.006724
              31
     1  C    0.000694
     2  C    0.069842
     3  C    0.047230
     4  C   -0.015434
     5  C   -0.162286
     6  C   -0.053543
     7  H    0.000313
     8  H   -0.002357
     9  H   -0.000403
    10  H   -0.016630
    11  N    0.000438
    12  O   -0.000446
    13  O    0.000319
    14  C   -0.455713
    15  C    0.575219
    16  C    0.096780
    17  C   -0.183305
    18  C   -0.004434
    19  H   -0.000309
    20  C   -0.073469
    21  H   -0.008502
    22  C    0.016741
    23  C   -0.026811
    24  C   -0.001111
    25  H    0.000002
    26  C   -0.005349
    27  H    0.000008
    28  H    0.000000
    29  H    0.000000
    30  H   -0.006724
    31  O    8.571905
 Mulliken charges:
               1
     1  C   -0.123378
     2  C   -0.352919
     3  C    0.203429
     4  C    0.071954
     5  C    0.202261
     6  C   -0.337911
     7  H    0.198006
     8  H    0.186375
     9  H    0.200963
    10  H    0.201674
    11  N   -0.222307
    12  O   -0.033867
    13  O   -0.024929
    14  C   -0.169698
    15  C   -0.143242
    16  C    0.083787
    17  C   -0.068609
    18  C    0.312324
    19  H    0.195106
    20  C   -0.175822
    21  H    0.177159
    22  C   -0.111739
    23  C   -0.262098
    24  C   -0.257430
    25  H    0.187302
    26  C   -0.320760
    27  H    0.185013
    28  H    0.184319
    29  H    0.184894
    30  H    0.192810
    31  O   -0.362666
 Sum of Mulliken charges =   0.00000
 Mulliken charges with hydrogens summed into heavy atoms:
               1
     1  C   -0.123378
     2  C   -0.154913
     3  C    0.405103
     4  C    0.071954
     5  C    0.388636
     6  C   -0.136948
    11  N   -0.222307
    12  O   -0.033867
    13  O   -0.024929
    14  C    0.023113
    15  C   -0.143242
    16  C    0.278892
    17  C    0.108550
    18  C    0.312324
    20  C   -0.175822
    22  C    0.075562
    23  C   -0.077085
    24  C   -0.073111
    26  C   -0.135866
    31  O   -0.362666
 Electronic spatial extent (au):  <R**2>=           8690.4237
 Charge=              0.0000 electrons
 Dipole moment (field-independent basis, Debye):
    X=              5.9554    Y=              0.8077    Z=             -0.6422  Tot=              6.0441
 Quadrupole moment (field-independent basis, Debye-Ang):
   XX=           -137.8912   YY=           -100.3015   ZZ=           -125.3452
   XY=             -6.4818   XZ=              1.7805   YZ=              2.2627
 Traceless Quadrupole moment (field-independent basis, Debye-Ang):
   XX=            -16.7119   YY=             20.8778   ZZ=             -4.1659
   XY=             -6.4818   XZ=              1.7805   YZ=              2.2627
 Octapole moment (field-independent basis, Debye-Ang**2):
  XXX=            293.2569  YYY=              2.1191  ZZZ=              1.9792  XYY=             -7.4505
  XXY=             49.5221  XXZ=             -2.0775  XZZ=            -12.6112  YZZ=              2.2451
  YYZ=             -0.2842  XYZ=             -8.0225
 Hexadecapole moment (field-independent basis, Debye-Ang**3):
 XXXX=         -11422.9574 YYYY=          -1071.4839 ZZZZ=           -255.1907 XXXY=           -313.1377
 XXXZ=             27.5157 YYYX=             24.6611 YYYZ=              7.4312 ZZZX=             -9.3720
 ZZZY=              0.0466 XXYY=          -1731.1443 XXZZ=          -1996.2229 YYZZ=           -262.3755
 XXYZ=             45.6301 YYXZ=              1.3246 ZZXY=              6.7216
 N-N= 1.339452131371D+03 E-N=-4.762923947543D+03  KE= 8.885824072385D+02
 Evaluate density.
 Using the total density.
 Monte-Carlo method of calculating molar volume:
 based on  0.001 e/bohr**3 density envelope.
 Number of points per bohr**3 =   20 CutOff= 1.00D-04
 Using the SCF density.
 There are       440 points.  Will hold       440 in memory.
 LenV=  4026191194 MDV=  4026531840.
 Box volume =10679.945 fraction occupied=0.189
 Integrated density= 1.1210301728975638D+02 error=-2.5896982710243620D+01
 Molar volume = 2014.626 bohr**3/mol (179.783 cm**3/mol)
 Recommended a0 for SCRF calculation =  5.06 angstrom (  9.57 bohr)
 Calling FoFJK, ICntrl=      2127 FMM=F ISym2X=0 I1Cent= 0 IOpClX= 0 NMat=1 NMatS=1 NMatT=0.
 ***** Axes restored to original set *****
 -------------------------------------------------------------------
 Center     Atomic                   Forces (Hartrees/Bohr)
 Number     Number              X              Y              Z
 -------------------------------------------------------------------
      1        6           0.011082154    0.020907310   -0.000551254
      2        6           0.000141360    0.010739974   -0.006840461
      3        6          -0.038301528   -0.046738609   -0.027212554
      4        6           0.002788955   -0.048237256    0.022331565
      5        6          -0.004382892    0.005458432   -0.001939153
      6        6          -0.015183355    0.003452177    0.009596528
      7        1          -0.006961990   -0.006018154    0.007882348
      8        1           0.009215195    0.001371726   -0.006345045
      9        1           0.003691251   -0.004978671   -0.009655808
     10        1           0.001449050    0.003942359    0.009033836
     11        7           0.009591828    0.023044819    0.004536427
     12        8          -0.044919222    0.006238240   -0.028104503
     13        8           0.035573648   -0.032828224    0.023528216
     14        6          -0.003717419   -0.004991284    0.001260729
     15        6          -0.015445815   -0.021282062   -0.026140186
     16        6           0.003516005    0.002923482    0.000823591
     17        6           0.004461609   -0.007212798   -0.011742800
     18        6           0.002196166    0.009848327    0.006447209
     19        1          -0.001434378   -0.007316613   -0.005187164
     20        6          -0.001307484   -0.008208178   -0.004525118
     21        1          -0.000539170    0.007462249    0.007856168
     22        6          -0.002715812    0.005869870    0.007955463
     23        6          -0.001865799   -0.008888039   -0.006014217
     24        6           0.009770555    0.008886364   -0.002523324
     25        1           0.000688557   -0.005706908   -0.005872286
     26        6           0.008857774    0.002162405   -0.007655202
     27        1           0.000331215    0.006219674    0.005345887
     28        1          -0.006158110   -0.005856947    0.001389452
     29        1          -0.006356452   -0.001264296    0.005709704
     30        1          -0.009299583   -0.002367209    0.007233977
     31        8           0.055233688    0.093367838    0.029377977
 -------------------------------------------------------------------
 Cartesian Forces:  Max     0.093367838 RMS     0.018231536

 GradGradGradGradGradGradGradGradGradGradGradGradGradGradGradGradGradGrad
 Berny optimization.
 FormGI is forming the generalized inverse of G from B-inverse, IUseBI=4.
 Internal  Forces:  Max     0.061998117 RMS     0.012179432
 Search for a local minimum.
 Step number   1 out of a maximum of  171
 All quantities printed in internal units (Hartrees-Bohrs-Radians)
 Mixed Optimization -- RFO/linear search
 Second derivative matrix not updated -- first step.
 ITU=  0
     Eigenvalues ---    0.00766   0.00766   0.01295   0.01672   0.01806
     Eigenvalues ---    0.01817   0.01818   0.01949   0.02009   0.02023
     Eigenvalues ---    0.02035   0.02070   0.02070   0.02070   0.02070
     Eigenvalues ---    0.02070   0.02070   0.02070   0.02101   0.02129
     Eigenvalues ---    0.02130   0.02159   0.02190   0.02220   0.02269
     Eigenvalues ---    0.02300   0.02716   0.03042   0.16000   0.16000
     Eigenvalues ---    0.16000   0.16000   0.16000   0.16000   0.16000
     Eigenvalues ---    0.16000   0.16000   0.16000   0.16000   0.20748
     Eigenvalues ---    0.22000   0.22000   0.22285   0.22686   0.22860
     Eigenvalues ---    0.23520   0.23714   0.24373   0.24753   0.25000
     Eigenvalues ---    0.25000   0.25000   0.25000   0.25000   0.33644
     Eigenvalues ---    0.33645   0.33648   0.33659   0.33686   0.33688
     Eigenvalues ---    0.35740   0.37230   0.37230   0.37230   0.37230
     Eigenvalues ---    0.37230   0.37558   0.39677   0.40125   0.40989
     Eigenvalues ---    0.41069   0.41268   0.41474   0.42246   0.42561
     Eigenvalues ---    0.42923   0.45389   0.45389   0.45389   0.45389
     Eigenvalues ---    0.48402   0.48617   0.49809   0.49828   0.61288
     Eigenvalues ---    1.05155   1.05157
 RFO step:  Lambda=-6.68325355D-02 EMin= 7.65814655D-03
 Linear search not attempted -- first point.
 Maximum step size (   0.300) exceeded in Quadratic search.
    -- Step size scaled by   0.813
 Iteration  1 RMS(Cart)=  0.20319263 RMS(Int)=  0.00934390
 Iteration  2 RMS(Cart)=  0.04039173 RMS(Int)=  0.00166215
 Iteration  3 RMS(Cart)=  0.00051448 RMS(Int)=  0.00165465
 Iteration  4 RMS(Cart)=  0.00000166 RMS(Int)=  0.00165465
 Iteration  5 RMS(Cart)=  0.00000002 RMS(Int)=  0.00165465
 Variable       Old X    -DE/DX   Delta X   Delta X   Delta X     New X
                                 (Linear)    (Quad)   (Total)
    R1        2.64826  -0.00756   0.00000  -0.01083  -0.01126   2.63700
    R2        2.64826  -0.01269   0.00000  -0.01918  -0.01949   2.62877
    R3        2.77790   0.00322   0.00000   0.00616   0.00616   2.78406
    R4        2.64826  -0.01219   0.00000  -0.01870  -0.01877   2.62949
    R5        2.02201   0.01208   0.00000   0.02238   0.02238   2.04439
    R6        2.64826   0.03025   0.00000   0.04661   0.04698   2.69524
    R7        2.02201   0.00895   0.00000   0.01657   0.01657   2.03858
    R8        2.64826   0.00518   0.00000   0.00711   0.00746   2.65572
    R9        2.49935   0.05907   0.00000   0.07069   0.07069   2.57004
   R10        2.64826  -0.00464   0.00000  -0.00759  -0.00751   2.64076
   R11        2.02201   0.01044   0.00000   0.01934   0.01934   2.04134
   R12        2.02201   0.01145   0.00000   0.02120   0.02120   2.04321
   R13        2.26643   0.05193   0.00000   0.03776   0.03776   2.30419
   R14        2.26642   0.05252   0.00000   0.03820   0.03820   2.30462
   R15        2.67590  -0.00405   0.00000  -0.00692  -0.00691   2.66899
   R16        2.59524   0.00250   0.00000   0.00333   0.00333   2.59857
   R17        2.02201   0.01169   0.00000   0.02165   0.02165   2.04365
   R18        2.59422   0.00499   0.00000   0.00707   0.00708   2.60130
   R19        2.70231  -0.03320   0.00000  -0.05664  -0.05664   2.64567
   R20        2.68666   0.00279   0.00000   0.00468   0.00466   2.69132
   R21        2.07909  -0.00887   0.00000  -0.01789  -0.01789   2.06120
   R22        2.68721   0.00031   0.00000   0.00079   0.00079   2.68800
   R23        2.07933  -0.01083   0.00000  -0.02184  -0.02184   2.05748
   R24        2.68127   0.00969   0.00000   0.01642   0.01641   2.69768
   R25        2.68735   0.00130   0.00000   0.00223   0.00223   2.68958
   R26        2.68725   0.00134   0.00000   0.00231   0.00231   2.68957
   R27        2.59433   0.00455   0.00000   0.00642   0.00642   2.60075
   R28        2.07936  -0.00820   0.00000  -0.01653  -0.01653   2.06283
   R29        2.59448   0.00454   0.00000   0.00640   0.00640   2.60088
   R30        2.07928  -0.00819   0.00000  -0.01652  -0.01652   2.06276
   R31        2.67628   0.00332   0.00000   0.00529   0.00529   2.68157
   R32        2.07863  -0.00854   0.00000  -0.01722  -0.01722   2.06141
   R33        2.07860  -0.00856   0.00000  -0.01724  -0.01724   2.06136
    A1        2.09440   0.00801   0.00000   0.01884   0.01841   2.11281
    A2        2.09440  -0.00375   0.00000  -0.00877  -0.00857   2.08582
    A3        2.09440  -0.00426   0.00000  -0.01007  -0.00987   2.08453
    A4        2.09440  -0.00499   0.00000  -0.01660  -0.01673   2.07767
    A5        2.09440   0.00192   0.00000   0.00624   0.00630   2.10070
    A6        2.09440   0.00307   0.00000   0.01035   0.01039   2.10478
    A7        2.09440   0.00902   0.00000   0.02016   0.02087   2.11526
    A8        2.09440  -0.00309   0.00000  -0.00499  -0.00533   2.08906
    A9        2.09440  -0.00593   0.00000  -0.01517  -0.01558   2.07882
   A10        2.09440  -0.01936   0.00000  -0.03156  -0.03310   2.06130
   A11        1.74418   0.06200   0.00000   0.19818   0.19792   1.94210
   A12        2.29594  -0.03538   0.00000  -0.08177  -0.09032   2.20562
   A13        2.09440   0.00582   0.00000   0.00921   0.00982   2.10422
   A14        2.09440  -0.00059   0.00000   0.00372   0.00327   2.09767
   A15        2.09440  -0.00523   0.00000  -0.01293  -0.01327   2.08113
   A16        2.09440   0.00150   0.00000  -0.00006   0.00000   2.09440
   A17        2.09440   0.00003   0.00000   0.00282   0.00278   2.09717
   A18        2.09440  -0.00153   0.00000  -0.00276  -0.00281   2.09159
   A19        2.06635  -0.00964   0.00000  -0.02475  -0.02475   2.04160
   A20        2.06634  -0.00849   0.00000  -0.02180  -0.02180   2.04454
   A21        2.15049   0.01813   0.00000   0.04655   0.04655   2.19704
   A22        2.10053  -0.00489   0.00000  -0.01458  -0.01457   2.08597
   A23        2.09133  -0.00036   0.00000  -0.00278  -0.00278   2.08854
   A24        2.09133   0.00525   0.00000   0.01736   0.01735   2.10868
   A25        2.10096   0.00676   0.00000   0.01706   0.01706   2.11802
   A26        2.07652  -0.01949   0.00000  -0.04989  -0.04994   2.02659
   A27        2.10570   0.01273   0.00000   0.03283   0.03277   2.13847
   A28        2.10235   0.00394   0.00000   0.01104   0.01102   2.11338
   A29        2.11010  -0.00398   0.00000  -0.01272  -0.01272   2.09738
   A30        2.07073   0.00004   0.00000   0.00169   0.00169   2.07242
   A31        2.10330  -0.00271   0.00000  -0.00704  -0.00702   2.09627
   A32        2.10981   0.00078   0.00000   0.00146   0.00145   2.11126
   A33        2.07008   0.00193   0.00000   0.00558   0.00556   2.07564
   A34        2.08061  -0.00232   0.00000  -0.00539  -0.00540   2.07521
   A35        2.12459   0.00256   0.00000   0.00593   0.00594   2.13053
   A36        2.07798  -0.00024   0.00000  -0.00055  -0.00054   2.07744
   A37        2.07862  -0.00078   0.00000  -0.00109  -0.00109   2.07752
   A38        2.12407   0.00171   0.00000   0.00357   0.00357   2.12764
   A39        2.08050  -0.00092   0.00000  -0.00248  -0.00248   2.07802
   A40        2.10398   0.00060   0.00000   0.00181   0.00181   2.10579
   A41        2.06981   0.00031   0.00000   0.00126   0.00126   2.07107
   A42        2.10940  -0.00090   0.00000  -0.00307  -0.00307   2.10633
   A43        2.10307   0.00042   0.00000   0.00131   0.00131   2.10438
   A44        2.07068   0.00034   0.00000   0.00131   0.00131   2.07198
   A45        2.10944  -0.00076   0.00000  -0.00262  -0.00262   2.10682
   A46        2.10080  -0.00043   0.00000  -0.00149  -0.00149   2.09931
   A47        2.10573  -0.00090   0.00000  -0.00325  -0.00325   2.10247
   A48        2.07666   0.00133   0.00000   0.00474   0.00474   2.08140
   A49        2.10005   0.00058   0.00000   0.00139   0.00139   2.10144
   A50        2.10635  -0.00153   0.00000  -0.00513  -0.00513   2.10122
   A51        2.07679   0.00095   0.00000   0.00374   0.00374   2.08053
   A52        2.41435  -0.04443   0.00000  -0.11406  -0.11406   2.30030
    D1        0.00000  -0.00300   0.00000  -0.01966  -0.01900  -0.01900
    D2       -3.14159  -0.00011   0.00000  -0.00807  -0.00942   3.13218
    D3       -3.14159  -0.00210   0.00000  -0.01158  -0.01056   3.13104
    D4        0.00000   0.00078   0.00000   0.00001  -0.00098  -0.00097
    D5        0.00000   0.00062   0.00000   0.01328   0.01450   0.01449
    D6        3.14159   0.00333   0.00000   0.02233   0.02207  -3.11952
    D7        3.14159  -0.00027   0.00000   0.00520   0.00606  -3.13553
    D8        0.00000   0.00244   0.00000   0.01426   0.01364   0.01364
    D9        1.57667  -0.00053   0.00000  -0.00490  -0.00501   1.57166
   D10       -1.56492  -0.00030   0.00000  -0.00246  -0.00258  -1.56750
   D11       -1.56492   0.00037   0.00000   0.00318   0.00329  -1.56163
   D12        1.57667   0.00059   0.00000   0.00561   0.00573   1.58240
   D13        0.00000   0.00118   0.00000  -0.00332  -0.00576  -0.00576
   D14       -3.14159   0.00407   0.00000   0.00741   0.00355  -3.13805
   D15        3.14159  -0.00171   0.00000  -0.01491  -0.01537   3.12623
   D16        0.00000   0.00118   0.00000  -0.00418  -0.00606  -0.00606
   D17        0.00000   0.00302   0.00000   0.03268   0.03415   0.03415
   D18       -2.64376   0.00076   0.00000  -0.07546  -0.08566  -2.72942
   D19        3.14159   0.00013   0.00000   0.02195   0.02489  -3.11670
   D20        0.49783  -0.00214   0.00000  -0.08619  -0.09491   0.40291
   D21        0.00000  -0.00539   0.00000  -0.03906  -0.03863  -0.03863
   D22       -3.14159  -0.00939   0.00000  -0.06103  -0.05869   3.08290
   D23        2.46199   0.03208   0.00000   0.20831   0.19964   2.66163
   D24       -0.67960   0.02808   0.00000   0.18634   0.17957  -0.50003
   D25       -3.01645   0.00808   0.00000   0.08401   0.08466  -2.93179
   D26        0.71059  -0.00806   0.00000  -0.08387  -0.08452   0.62606
   D27        0.00000   0.00357   0.00000   0.01608   0.01519   0.01519
   D28       -3.14159   0.00086   0.00000   0.00703   0.00764  -3.13395
   D29       -3.14159   0.00757   0.00000   0.03805   0.03506  -3.10653
   D30        0.00000   0.00486   0.00000   0.02900   0.02751   0.02751
   D31       -0.00005   0.00016   0.00000   0.00156   0.00154   0.00149
   D32        3.14144  -0.00151   0.00000  -0.01412  -0.01380   3.12764
   D33        3.14154   0.00032   0.00000   0.00298   0.00290  -3.13875
   D34       -0.00016  -0.00135   0.00000  -0.01270  -0.01244  -0.01260
   D35        0.00018   0.00000   0.00000   0.00008   0.00014   0.00032
   D36        3.14149  -0.00005   0.00000  -0.00049  -0.00049   3.14100
   D37       -3.14141  -0.00016   0.00000  -0.00135  -0.00123   3.14055
   D38       -0.00011  -0.00021   0.00000  -0.00192  -0.00186  -0.00197
   D39       -0.00019  -0.00015   0.00000  -0.00158  -0.00162  -0.00181
   D40       -3.14154  -0.00067   0.00000  -0.00638  -0.00648   3.13516
   D41        3.14151   0.00155   0.00000   0.01437   0.01472  -3.12696
   D42        0.00016   0.00103   0.00000   0.00957   0.00986   0.01001
   D43        2.58527   0.00104   0.00000   0.00991   0.00982   2.59509
   D44       -0.55642  -0.00064   0.00000  -0.00581  -0.00572  -0.56214
   D45       -0.00007  -0.00017   0.00000  -0.00164  -0.00167  -0.00174
   D46        3.14145  -0.00007   0.00000  -0.00068  -0.00072   3.14073
   D47       -3.14138  -0.00011   0.00000  -0.00108  -0.00105   3.14076
   D48        0.00014  -0.00001   0.00000  -0.00012  -0.00009   0.00004
   D49        0.00030  -0.00001   0.00000   0.00000   0.00004   0.00034
   D50       -3.14138  -0.00004   0.00000  -0.00026  -0.00026   3.14155
   D51       -3.14153   0.00049   0.00000   0.00469   0.00480  -3.13673
   D52       -0.00002   0.00047   0.00000   0.00443   0.00451   0.00449
   D53       -0.00017   0.00017   0.00000   0.00159   0.00157   0.00140
   D54        3.14150   0.00019   0.00000   0.00184   0.00186  -3.13983
   D55        3.14150   0.00007   0.00000   0.00066   0.00064  -3.14105
   D56       -0.00001   0.00010   0.00000   0.00091   0.00093   0.00091
   D57       -3.14149  -0.00014   0.00000  -0.00137  -0.00138   3.14032
   D58        0.00005  -0.00009   0.00000  -0.00090  -0.00091  -0.00086
   D59        0.00003  -0.00004   0.00000  -0.00041  -0.00042  -0.00039
   D60        3.14156   0.00001   0.00000   0.00005   0.00005  -3.14157
   D61       -3.14158  -0.00006   0.00000  -0.00058  -0.00056   3.14104
   D62       -0.00024  -0.00004   0.00000  -0.00038  -0.00036  -0.00059
   D63       -0.00007  -0.00009   0.00000  -0.00084  -0.00086  -0.00093
   D64        3.14128  -0.00007   0.00000  -0.00064  -0.00065   3.14062
   D65        0.00005  -0.00002   0.00000  -0.00018  -0.00018  -0.00013
   D66        3.14131   0.00003   0.00000   0.00026   0.00026   3.14157
   D67       -3.14149  -0.00007   0.00000  -0.00065  -0.00066   3.14104
   D68       -0.00023  -0.00002   0.00000  -0.00022  -0.00022  -0.00044
   D69        0.00015   0.00003   0.00000   0.00025   0.00026   0.00041
   D70        3.14157   0.00002   0.00000   0.00019   0.00019  -3.14142
   D71       -3.14120   0.00000   0.00000   0.00005   0.00005  -3.14114
   D72        0.00023   0.00000   0.00000  -0.00002  -0.00002   0.00021
   D73       -0.00014   0.00003   0.00000   0.00026   0.00027   0.00013
   D74       -3.14156   0.00003   0.00000   0.00033   0.00034  -3.14122
   D75       -3.14140  -0.00002   0.00000  -0.00017  -0.00017  -3.14157
   D76        0.00035  -0.00001   0.00000  -0.00010  -0.00010   0.00026
         Item               Value     Threshold  Converged?
 Maximum Force            0.061998     0.000450     NO 
 RMS     Force            0.012179     0.000300     NO 
 Maximum Displacement     0.891480     0.001800     NO 
 RMS     Displacement     0.229770     0.001200     NO 
 Predicted change in Energy=-3.879747D-02
 GradGradGradGradGradGradGradGradGradGradGradGradGradGradGradGradGradGrad

                          Input orientation:                          
 ---------------------------------------------------------------------
 Center     Atomic      Atomic             Coordinates (Angstroms)
 Number     Number       Type             X           Y           Z
 ---------------------------------------------------------------------
      1          6           0       -4.122685   -0.345541   -3.083741
      2          6           0       -4.683818    0.218216   -1.937198
      3          6           0       -4.210704    1.447205   -1.487830
      4          6           0       -3.163265    2.130955   -2.173087
      5          6           0       -2.647254    1.548549   -3.343361
      6          6           0       -3.120120    0.311573   -3.789559
      7          1           0       -5.469050   -0.298672   -1.401825
      8          1           0       -1.891690    2.063348   -3.918693
      9          1           0       -2.709813   -0.129099   -4.687610
     10          1           0       -4.634677    1.891107   -0.600732
     11          7           0       -4.606539   -1.652670   -3.561024
     12          8           0       -5.534391   -1.643758   -4.352076
     13          8           0       -4.045760   -2.645389   -3.128199
     14          6           0       -1.617042    5.111722   -0.713066
     15          6           0       -1.589862    4.013770   -1.601071
     16          6           0       -0.729984    6.147592   -0.889148
     17          6           0       -0.690696    3.956389   -2.641788
     18          6           0        0.216552    6.132367   -1.953172
     19          1           0       -0.741976    7.001020   -0.210007
     20          6           0        0.235925    5.016586   -2.843433
     21          1           0       -0.671334    3.104117   -3.319053
     22          6           0        1.143311    7.193447   -2.155428
     23          6           0        1.181881    4.996805   -3.906653
     24          6           0        2.046721    7.147849   -3.192663
     25          1           0        1.123279    8.043706   -1.471140
     26          6           0        2.065714    6.038047   -4.076750
     27          1           0        1.192344    4.140463   -4.583470
     28          1           0        2.755652    7.962846   -3.344831
     29          1           0        2.789399    6.019908   -4.892747
     30          1           0       -2.333352    5.127337    0.096995
     31          8           0       -2.511946    2.991693   -1.345722
 ---------------------------------------------------------------------
                    Distance matrix (angstroms):
                    1          2          3          4          5
     1  C    0.000000
     2  C    1.395440   0.000000
     3  C    2.401794   1.391468   0.000000
     4  C    2.807634   2.454852   1.426261   0.000000
[...]
 0.00000101,0.00001015,-0.00000217,0.00002356,-0.00000599,0.00000426,-0
 .00001695,0.00000016,0.00000402,-0.00000709,-0.00002067,-0.00020428,-0
 .00009229,-0.00013748,0.00003042,-0.00001607,-0.00158465,-0.00008565,-
 0.00250082,-0.00031891,0.00035262,0.00022460,-0.00539632,0.00749941,0.
 00376481,0.00044076,-0.00004185,0.00014654,0.00241062,0.00211748,0.003
 79845,0.00011965,0.00015833,0.00013150,0.01788814,-0.01088518,-0.04057
 630,0.00007052,0.00016219,-0.00060177,0.00661475,-0.00981869,0.0033888
 7,-0.02263640,0.01036976,0.03101973,-0.00003149,-0.00002740,-0.0000103
 7,0.00001296,-0.00002217,0.00002123,-0.00004780,-0.00005084,-0.0000548
 2,-0.00005738,0.00009280,0.00034276,0.00001110,-0.00002755,-0.00005416
 ,0.00003571,0.00002662,0.00001738,-0.00000421,0.00000008,-0.00000296,0
 .00000961,0.00002734,0.00003131,-0.00000501,0.00000301,0.00000412,-0.0
 0000550,0.00000833,0.00000216,0.00005917,0.00003578,0.00003799,-0.0000
 2069,-0.00000552,-0.00002850,-0.00002290,-0.00002187,-0.00000198,-0.00
 105984,0.00298873,-0.00031907,0.00264456,-0.00169006,-0.00029234,-0.00
 330831,-0.00217771,0.00133570,-0.00593717,0.00093444,0.00412673,0.0024
 4585,0.00685480,-0.00430389,0.00008632,-0.00004668,-0.00004491,-0.0079
 3222,-0.03208883,0.01076012,0.00002885,-0.00022605,-0.00002761,-0.0352
 4021,0.02131702,0.01161117,-0.15236403,-0.10172830,0.05205789,-0.17651
 017,0.11239938,0.02127182,-0.00350740,-0.00059979,0.00428403,0.6601347
 9,-0.00012213,-0.00010690,0.00004654,-0.00003913,0.00000454,-0.0000633
 9,0.00004094,0.00003390,-0.00000350,0.00012750,-0.00020785,-0.00008412
 ,-0.00008850,-0.00019825,-0.00018409,0.00015852,0.00006088,0.00003847,
 -0.00000824,0.00000596,0.00000313,-0.00013993,-0.00000297,0.00006223,0
 .00002519,-0.00001999,-0.00001490,0.00000158,-0.00000112,-0.00000039,0
 .00007326,0.00007475,0.00008281,-0.00002169,-0.00000184,-0.00004625,-0
 .00002888,-0.00004996,0.00000032,0.00430742,-0.01938814,0.00215911,-0.
 02143587,0.01050454,0.00659426,0.01542909,0.00863567,-0.00740445,0.019
 19809,0.01739261,-0.00894108,-0.01113419,-0.04531371,0.01126541,0.0000
 4025,0.00031906,-0.00014413,-0.06469836,-0.00380029,0.02478882,0.00043
 537,0.00004521,-0.00018854,0.05963262,0.03457551,-0.02650111,-0.048016
 90,-0.33026645,0.06659066,0.05454144,-0.23590723,0.01170623,-0.0019108
 6,0.00152100,0.00184972,0.00753785,0.66054298,0.00004981,0.00004911,0.
 00001674,-0.00001006,-0.00001848,-0.00000198,0.00000160,0.00005245,-0.
 00000637,-0.00024588,-0.00015524,-0.00012437,0.00005578,0.00000629,0.0
 0009549,-0.00005481,-0.00001085,-0.00000963,0.00000156,-0.00000379,-0.
 00000410,0.00002624,0.00000308,-0.00003286,0.00000253,0.00000282,-0.00
 000003,0.00000449,-0.00000203,0.00000362,-0.00004999,-0.00003995,-0.00
 006716,0.00002062,-0.00000105,0.00004434,0.00001392,0.00002166,0.00000
 915,-0.00042003,0.00246047,-0.00039454,0.00305704,-0.00125884,-0.00038
 485,-0.00190041,-0.00095635,0.00012122,0.00083806,-0.00244517,0.005775
 18,-0.00102088,0.00467264,-0.00645875,-0.00006423,-0.00004419,-0.00006
 008,0.01655229,0.01335167,-0.00270981,-0.00015586,0.00003007,-0.000128
 48,0.00465807,-0.01265074,0.00797441,0.04239241,0.08602105,-0.09052526
 ,0.03174433,-0.00925736,-0.07158879,0.00451591,0.00138299,0.00612051,-
 0.19282321,-0.09852882,0.21981017,-0.00000650,-0.00000459,-0.00000005,
 -0.00000066,-0.00000134,-0.00000119,0.00000204,-0.00000840,-0.00000423
 ,0.00001369,0.00002800,0.00003495,0.00001422,-0.00001844,-0.00002715,0
 .00000755,-0.00000278,-0.00000042,-0.00000191,0.00000083,0.00000064,-0
 .00001418,0.00002701,0.00002098,-0.00000553,0.00000235,0.00000134,-0.0
 0000493,0.00000445,0.00000324,-0.00000615,-0.00000173,0.00000653,0.000
 00399,0.00000026,-0.00000478,0.00000426,0.00000133,-0.00000213,0.00009
 765,-0.00005504,-0.00006512,0.00005155,-0.00012227,-0.00004931,-0.0002
 7165,0.00162945,-0.00013604,0.00047210,0.00127956,-0.00152261,-0.00341
 295,-0.00235719,0.00347944,-0.00042835,-0.00002963,0.00023218,-0.01341
 372,0.02485379,0.00151801,-0.00026539,-0.00122005,0.00043110,-0.000497
 71,-0.00073965,0.00012495,-0.15169554,0.13240255,0.01791546,0.00075067
 ,-0.00192500,0.00296393,-0.00006836,0.00007266,-0.00042911,0.01056636,
 -0.01064424,-0.00049689,0.15746442,0.00004148,0.00003102,0.00001893,-0
 .00001242,0.00000081,-0.00001985,0.00003328,0.00003710,0.00001587,-0.0
 0013440,-0.00008233,-0.00009877,0.00003186,0.00001379,0.00004771,-0.00
 002808,-0.00002041,-0.00000487,0.00000252,-0.00000024,0.00000090,0.000
 00273,-0.00000624,-0.00001942,0.00000113,-0.00000076,-0.00000057,-0.00
 000044,-0.00000397,-0.00000012,-0.00006088,-0.00004935,-0.00003917,0.0
 0001988,0.00000829,0.00002787,0.00002448,0.00003150,-0.00000084,-0.000
 02484,0.00036374,-0.00007923,0.00027066,-0.00017555,-0.00010467,-0.000
 45657,0.00001143,0.00020367,-0.00144830,0.00084411,-0.00020385,-0.0008
 3762,0.00113068,0.00100689,-0.00003507,0.00001076,0.00004676,-0.002809
 09,0.00492933,0.00074413,0.00022637,0.00010159,-0.00004333,-0.00065322
 ,0.00012698,0.00011859,0.13211378,-0.23991668,-0.01082774,-0.00322258,
 -0.00288333,0.00314009,0.00005704,-0.00003918,-0.00023577,0.01869294,-
 0.01843012,-0.00272567,-0.14228388,0.25420210,-0.00001650,-0.00000734,
 -0.00001502,0.00001461,0.00000765,0.00000955,-0.00001616,-0.00002151,0
 .00000714,0.00013295,0.00008118,0.00005041,-0.00002633,-0.00000279,-0.
 00001994,0.00000802,-0.00000447,-0.00000692,0.00000029,0.00000056,0.00
 000092,-0.00000950,0.00000583,0.00001209,-0.00000658,-0.00000129,0.000
 00012,0.00000307,0.00000477,-0.00000352,0.00001277,0.00000158,0.000027
 32,-0.00000582,0.00000324,-0.00002124,0.00000007,0.00000291,-0.0000073
 7,-0.00005926,-0.00006725,-0.00001374,-0.00012661,0.00005071,-0.000246
 69,0.00023820,-0.00056382,0.00016133,-0.00103824,-0.00112212,-0.002478
 32,0.00320685,0.00155759,0.00359491,0.00022933,0.00003689,0.00009696,0
 .00654077,-0.00934631,0.00259141,0.00016594,0.00047510,0.00016847,0.00
 011255,0.00014007,-0.00058568,0.01798257,-0.01091424,-0.04034582,0.003
 21319,0.00266317,0.00631676,-0.00042702,-0.00023859,-0.00101804,-0.005
 82595,0.00790712,0.00453417,-0.02228025,0.00986304,0.03084279,-0.00003
 343,-0.00002278,-0.00001258,0.00000968,0.00000139,0.00001038,-0.000019
 22,-0.00002017,-0.00000342,0.00010305,0.00006104,0.00005688,-0.0000196
 7,-0.00001132,-0.00003901,0.00002260,0.00001532,0.00000715,-0.00000046
 ,0.00000024,-0.00000016,-0.00000140,0.00000345,0.00001554,0.00000016,-
 0.00000146,0.00000031,0.00000055,0.00000316,-0.00000059,0.00004562,0.0
 0003105,0.00003663,-0.00001709,-0.00000303,-0.00002597,-0.00001675,-0.
 00001865,-0.00000265,-0.00052791,-0.00026413,0.00000815,-0.00021085,0.
 00033924,0.00006618,0.00047259,-0.00132861,0.00020681,0.00024917,0.000
 01364,-0.00040591,-0.00400445,0.00177540,0.00420810,0.00000801,0.00004
 176,0.00004921,-0.00093791,0.00024248,0.00013114,-0.00000730,-0.000069
 08,0.00002831,-0.00604051,-0.02824510,0.00856380,-0.00154836,0.0034027
 5,0.00183287,-0.09228111,-0.08654541,0.03587649,0.00003058,-0.00005075
 ,-0.00176191,0.01062862,0.01764563,-0.00605669,0.00038132,0.00095887,-
 0.00023076,0.09352552,-0.00004287,-0.00003369,-0.00002298,0.00001371,0
 .00000188,0.00002167,-0.00003205,-0.00003625,-0.00000987,0.00014184,0.
 00009493,0.00009136,-0.00003340,-0.00000547,-0.00004834,0.00002770,0.0
 0002303,0.00000840,-0.00000043,0.00000006,-0.00000072,0.00000688,0.000
 00156,0.00001795,0.00000056,-0.00000071,0.00000083,0.00000228,0.000003
 67,-0.00000135,0.00007275,0.00005206,0.00004989,-0.00002667,-0.0000072
 3,-0.00003565,-0.00002848,-0.00003205,-0.00000169,-0.00019320,0.000074
 25,-0.00006164,0.00019348,0.00010065,-0.00007068,0.00008367,-0.0001196
 0,0.00006162,-0.00021920,-0.00006844,-0.00006480,0.00070950,0.00188591
 ,0.00093544,-0.00001503,0.00001187,0.00003269,0.00065377,0.00042839,-0
 .00039238,0.00003189,0.00003666,-0.00001003,0.00089652,0.00193266,-0.0
 0003968,0.00437878,-0.00208984,-0.00026792,-0.08694542,-0.28086696,0.0
 7566325,-0.00063704,0.00074476,-0.00077986,-0.01135094,-0.01759979,0.0
 0777940,-0.00057867,-0.00098719,0.00043027,0.09286961,0.29602828,0.000
 01066,0.00000814,0.00000354,-0.00000173,0.00000307,-0.00000603,0.00001
 211,0.00000482,0.00000337,-0.00001507,-0.00001337,-0.00000900,0.000007
 04,-0.00000252,0.00000691,-0.00000622,-0.00000650,-0.00000219,0.000000
 41,0.00000043,0.00000074,-0.00000494,-0.00000395,-0.00000353,-0.000001
 66,-0.00000179,-0.00000011,-0.00000114,0.00000025,-0.00000066,-0.00002
 331,-0.00002222,-0.00000327,0.00000718,0.00000579,0.00000218,0.0000124
 4,0.00001588,-0.00000432,-0.00002203,-0.00006811,-0.00063211,0.0001047
 7,-0.00010028,0.00006621,-0.00001426,0.00058445,0.00031778,-0.00037199
 ,-0.00014140,-0.00068635,0.00437999,0.00053350,0.00678350,0.00006058,0
 .00000849,0.00014549,0.00008386,-0.00024130,-0.00040252,0.00000875,0.0
 0002403,0.00002529,0.00329110,0.01053134,0.00040633,0.00165570,0.00009
 742,0.00459551,0.03596951,0.07551432,-0.06312388,-0.00165464,-0.000988
 83,-0.00406967,-0.00083055,-0.00272974,0.00347960,0.00004753,-0.000127
 20,0.00023574,-0.04153930,-0.08258232,0.05520545,-0.00005047,-0.000036
 96,-0.00003047,0.00001900,0.00000178,0.00003043,-0.00004431,-0.0000520
 1,-0.00001696,0.00019567,0.00011516,0.00012076,-0.00003851,-0.00000745
 ,-0.00005651,0.00002790,0.00002353,0.00000720,-0.00000234,0.00000056,-
 0.00000069,0.00000518,0.00000696,0.00002299,-0.00000218,0.00000015,0.0
 0000122,0.00000228,0.00000562,-0.00000092,0.00008062,0.00005924,0.0000
 5687,-0.00002837,-0.00000916,-0.00004141,-0.00003088,-0.00003633,-0.00
 000230,0.00002719,-0.00002338,0.00005497,0.00005248,-0.00005878,-0.000
 26382,-0.00009519,-0.00006978,-0.00024692,-0.00043040,0.00026740,0.000
 20262,0.00051184,0.00018520,-0.00038833,0.00002247,0.00001899,0.000003
 27,0.00236859,-0.00124092,0.00246880,0.00003259,-0.00001271,0.00006557
 ,0.00039408,0.00377946,0.00107070,-0.00610673,0.00092721,0.00337501,-0
 .01243311,-0.00407462,0.00629675,-0.00071883,-0.00023748,0.00036957,-0
 .30011449,-0.02145658,0.09925244,0.00023455,-0.00069460,-0.00171890,0.
 00031513,0.00020101,-0.00118796,0.31610828,-0.00002663,-0.00001729,-0.
 00001497,0.00001187,-0.00000183,0.00001583,-0.00002994,-0.00003349,-0.
 00001473,0.00010707,0.00005170,0.00009875,-0.00002405,-0.00000198,-0.0
 0003102,0.00001483,0.00000918,0.00000221,-0.00000270,0.00000030,-0.000
 00046,0.00000153,0.00000167,0.00000850,-0.00000150,-0.00000085,-0.0000
 0025,0.00000043,0.00000364,-0.00000015,0.00003361,0.00002530,0.0000259
 3,-0.00001145,-0.00000294,-0.00001903,-0.00001202,-0.00001525,-0.00000
 100,0.00012786,-0.00030830,0.00004039,-0.00023649,-0.00017375,0.000003
 60,0.00017193,0.00033084,-0.00026748,-0.00107440,0.00072458,0.00032159
 ,-0.00023644,-0.00109431,0.00019710,-0.00007948,0.00001351,0.00003379,
 -0.00033082,-0.00486142,0.00255970,0.00004528,-0.00000192,0.00002161,0
 .00282265,-0.00416738,0.00067570,-0.02815451,0.00202827,0.01048540,0.0
 2486094,0.00685519,-0.00972250,0.00130556,0.00016055,-0.00047091,-0.02
 101140,-0.06147291,0.01205698,-0.00012080,0.00052808,-0.00093333,-0.00
 054808,0.00060140,-0.00042694,0.02268078,0.06097596,0.00002502,0.00002
 146,0.00000802,-0.00000645,0.00000303,-0.00000646,0.00002171,0.0000136
 7,0.00000511,-0.00005693,-0.00005783,-0.00005357,0.00001774,0.00000568
 ,0.00003651,-0.00002028,-0.00001390,-0.00000476,0.00000018,0.00000121,
 0.00000155,-0.00000053,0.00000316,-0.00000424,-0.00000296,-0.00000076,
 0.00000060,0.00000066,-0.00000166,-0.00000102,-0.00003726,-0.00003621,
 -0.00001488,0.00001169,0.00000640,0.00000948,0.00001744,0.00002436,-0.
 00000532,0.00001791,0.00007013,0.00013539,-0.00025054,-0.00006400,-0.0
 0057222,-0.00028689,-0.00017365,-0.00066850,0.00048599,-0.00018426,0.0
 0012985,-0.00031824,0.00003965,-0.00038369,0.00002390,-0.00000513,0.00
 003812,0.00231195,0.00288382,0.00722285,0.00005148,0.00004370,0.000173
 23,0.00124198,0.00033802,0.00473806,0.00865004,-0.00005312,0.00054802,
 0.00107122,0.00073643,0.00237842,0.00009080,0.00008952,0.00013441,0.09
 915697,0.01224580,-0.07511574,-0.00182024,-0.00072628,-0.00405966,-0.0
 0105316,-0.00069831,-0.00235836,-0.10947238,-0.01466685,0.06770722,-0.
 00008364,-0.00007318,0.00004016,0.00000632,-0.00003042,-0.00004351,0.0
 0001639,0.00013073,0.00004280,0.00019959,0.00032158,0.00008721,-0.0000
 2923,-0.00029245,-0.00008723,0.00016824,0.00008100,-0.00003707,0.00000
 841,-0.00000412,-0.00000306,-0.00008719,0.00002490,0.00006302,-0.00000
 966,-0.00000028,0.00000120,-0.00002342,0.00003119,0.00000707,0.0000965
 1,0.00006742,0.00008664,-0.00003920,-0.00000755,-0.00005858,-0.0000376
 1,-0.00003570,-0.00001155,-0.29937001,-0.02330332,0.10359184,-0.014139
 26,-0.00518559,0.00748189,-0.00494870,0.00045875,0.00293141,0.00022245
 ,0.00358597,0.00069889,0.00250864,-0.00092646,0.00244094,0.00014241,-0
 .00062865,-0.00183604,0.00043187,0.00019687,-0.00045508,-0.00062791,-0
 .00019822,0.00039158,-0.00035300,0.00025707,0.00023154,-0.00007233,-0.
 00004510,-0.00014812,-0.00006593,-0.00030019,-0.00015316,0.00002892,-0
 .00001582,0.00005511,0.00006802,0.00001971,0.00002127,0.00002331,0.000
 01671,-0.00000021,-0.00004939,-0.00000757,0.00000465,-0.00001941,-0.00
 000355,0.00001024,0.31490442,0.00010918,0.00009493,0.00007805,-0.00004
 223,-0.00003640,-0.00006080,-0.00007278,0.00005110,0.00002766,-0.00012
 890,-0.00090254,-0.00040845,0.00001126,-0.00004008,-0.00007252,-0.0000
 4774,-0.00008177,-0.00001206,0.00000281,-0.00000596,-0.00000145,0.0000
 8621,0.00004505,-0.00000063,0.00000525,0.00001055,0.00000208,0.0000184
 6,-0.00001271,-0.00000057,-0.00025389,-0.00016258,-0.00016307,0.000096
 14,0.00002322,0.00011736,0.00009662,0.00009899,0.00001155,-0.02451867,
 -0.06126040,0.01414729,0.02430541,0.00642305,-0.00990404,-0.02777488,0
 .00228752,0.01046424,0.00252342,-0.00440512,0.00056004,-0.00004804,-0.
 00479165,0.00234892,-0.00009098,0.00061585,-0.00092753,-0.00038152,-0.
 00105899,0.00016986,0.00131556,0.00025561,-0.00037736,-0.00102004,0.00
 080707,0.00027755,0.00016042,0.00031283,-0.00021460,-0.00036545,-0.000
 35331,0.00009125,0.00003173,-0.00002354,0.00002155,0.00013446,-0.00029
 485,0.00003211,-0.00007831,0.00001283,0.00003581,-0.00014551,-0.000006
 57,0.00004931,-0.00000225,0.00001032,-0.00000116,0.02690279,0.05993642
 ,0.00007960,0.00009046,-0.00011836,0.00012626,0.00006584,0.00013127,-0
 .00026278,-0.00018407,-0.00002906,0.00054238,-0.00021848,0.00055803,-0
 .00023518,0.00016361,0.00027187,-0.00026060,-0.00007370,-0.00007227,0.
 00000071,-0.00000605,-0.00000665,0.00036663,0.00006518,-0.00021977,-0.
 00001686,-0.00001759,-0.00001967,0.00001281,0.00003377,-0.00002346,-0.
 00012853,-0.00014303,-0.00006755,0.00003637,0.00004068,0.00002537,0.00
 007833,0.00011077,-0.00001532,0.10380528,0.01357747,-0.07560041,0.0020
 3732,0.00195080,0.00194119,0.00793239,-0.00009478,0.00024857,0.0008572
 5,0.00020092,0.00361575,0.00219745,0.00270759,0.00725313,-0.00191856,-
 0.00076694,-0.00421378,-0.00042036,-0.00009101,-0.00058923,0.00018065,
 0.00009918,0.00038028,0.00044200,-0.00017994,0.00022166,-0.00017528,-0
 .00011264,-0.00050771,-0.00016353,0.00005865,-0.00059960,0.00004298,0.
 00004201,0.00014106,0.00002189,0.00004241,0.00016583,0.00002050,-0.000
 00374,0.00002673,0.00003460,0.00000014,-0.00003902,0.00001148,0.000000
 70,0.00000292,-0.11374793,-0.01601395,0.06968621,-0.00876417,-0.004664
 17,-0.00722434,0.00858238,0.00064442,0.00601714,-0.02889009,-0.0323072
 3,-0.01094156,-0.15595889,-0.06905163,-0.09723359,-0.01746138,-0.01237
 776,-0.02263001,0.00619094,0.00095925,-0.00117843,-0.00043586,-0.00019
 602,-0.00040189,-0.00106714,0.00057634,0.00126424,-0.00083705,-0.00033
 179,0.00006434,-0.00071853,0.00210254,0.00054751,0.00896795,0.00699888
 ,0.00574301,-0.00277425,-0.00047110,-0.00409814,-0.00293749,-0.0035820
 9,0.00045247,0.01023420,0.00847689,-0.00259102,-0.08732904,-0.04458883
 ,0.01611583,-0.00113690,0.00125208,0.00293697,-0.01512229,-0.04877024,
 0.01820916,0.00016613,-0.00149007,-0.00023624,0.00017762,0.00005776,-0
 .00021889,-0.00394431,0.00590265,0.00187707,0.00225057,-0.00012040,-0.
 00254969,-0.00004105,0.00035197,-0.00010760,-0.00023977,-0.00310188,0.
 00080483,-0.00012184,-0.00091019,0.00025908,0.00006594,-0.00033593,0.0
 0000657,-0.00056311,0.00053103,0.00009057,0.00000583,0.00020827,-0.000
 07307,-0.00007677,-0.00017300,0.00001851,-0.00028264,-0.00028007,0.000
 11895,0.00113038,-0.00082849,-0.00149727,0.29093061,-0.00574068,-0.003
 18186,-0.00635222,0.00267818,0.00011102,0.01064675,-0.04568836,-0.0307
 6789,-0.02124848,-0.08073722,-0.11303121,-0.03193350,-0.00519230,0.007
 61459,-0.00775585,-0.00181527,0.00245706,0.00393836,-0.00110384,-0.000
 58723,-0.00093544,0.00040299,-0.00172324,-0.00131475,0.00026772,-0.000
 22344,-0.00002313,0.00193664,0.00035084,-0.00165370,0.00754628,0.00504
 232,0.00460608,-0.00241332,-0.00031239,-0.00367860,-0.00238053,-0.0027
 3158,-0.00001716,-0.01761936,-0.04808855,0.02033923,-0.03399166,-0.199
 03016,0.06864270,0.00820790,-0.00161612,-0.00181022,-0.01446322,-0.018
 46491,0.01256648,-0.00129096,-0.00136567,0.00051642,-0.00097560,-0.002
 29650,0.00053017,-0.00118219,0.00368500,0.00027930,-0.00004132,0.00101
 488,-0.00132876,-0.00002103,0.00139490,-0.00034980,0.00062110,-0.00164
 112,-0.00022360,-0.00117389,-0.00087550,0.00060330,0.00016730,-0.00020
 143,-0.00005791,0.00002154,-0.00065427,0.00017576,-0.00011022,0.000211
 24,-0.00004442,-0.00013097,-0.00016822,0.00007522,-0.00026001,-0.00016
 687,0.00015708,-0.00103652,0.00245116,-0.00134422,0.19551883,0.4027951
 4,-0.00368974,-0.00488400,0.00065177,-0.00058411,0.00398616,-0.0035276
 9,0.00886068,0.00356236,0.01558511,-0.08545152,-0.01700064,-0.13457426
 ,-0.03976666,-0.02302727,-0.02137070,0.00385204,0.01060992,-0.00293041
 ,0.00045452,0.00032488,0.00038327,0.00179089,-0.00086416,0.00128541,-0
 .00083844,-0.00129751,-0.00056050,0.00101880,-0.00132031,0.00041529,0.
 00363146,0.00241646,0.00195167,-0.00087409,-0.00020852,-0.00109539,-0.
 00119272,-0.00169536,0.00049210,-0.00199306,0.00261117,0.00350458,0.00
 619643,0.05427752,-0.08368629,0.00275388,0.00017855,0.00430974,0.01146
 937,0.01675945,-0.00190495,-0.00071859,0.00070921,-0.00097449,-0.00003
 632,-0.00020847,0.00016383,0.00282711,-0.00157594,0.00914479,-0.002458
 95,-0.00086110,-0.00430430,-0.00016268,-0.00009546,-0.00063120,0.00052
 600,0.00072027,-0.00007317,-0.00006254,0.00061297,0.00007398,0.0000063
 6,0.00005613,-0.00001489,-0.00046296,-0.00054852,-0.00053760,0.0000387
 5,0.00002665,0.00014516,-0.00000045,-0.00000470,0.00006339,0.00001692,
 0.00002183,-0.00002135,-0.00160592,-0.00027645,-0.00254798,0.09645552,
 -0.04300511,0.22058510\\0.00000359,0.00000606,0.00000427,0.00001460,0.
 00000104,0.00000849,0.00000094,-0.00000043,0.00000033,-0.00004355,-0.0
 0001165,-0.00004133,0.00000306,0.00000092,-0.00000278,0.00000533,0.000
 00702,0.00000334,-0.00000251,0.00000009,-0.00000291,-0.00000252,-0.000
 00161,0.00000118,-0.00000145,-0.00000357,-0.00000012,0.00000011,0.0000
 0312,0.00000329,-0.00002080,-0.00002209,-0.00000821,0.00000327,-0.0000
 0283,0.00000953,0.00000740,0.00001693,-0.00001113,0.00000948,-0.000027
 55,-0.00000262,-0.00001499,0.00000434,0.00000247,0.00000891,0.00001347
 ,-0.00000466,0.00000849,0.00000666,-0.00000860,-0.00001320,0.00000783,
 0.00000320,-0.00000034,-0.00000135,0.00000006,0.00000505,-0.00001624,0
 .00000326,0.00000258,0.00000610,0.00000249,-0.00000227,0.00000101,0.00
 000018,-0.00000056,-0.00000023,0.00000113,0.00000174,-0.00000030,0.000
 00058,0.00000141,0.00000032,-0.00000162,-0.00000019,0.00000064,-0.0000
 0099,0.00000075,0.00000080,0.,-0.00000088,-0.00000009,0.00000036,-0.00
 000002,-0.00000109,0.00000141,-0.00000207,0.00000714,0.00000306,0.0000
 2866,0.00000553,0.00003635\\\@


 EVERY WORD THAT YOU WRITE IS A BLOW THAT SMITES THE DEVIL.
     -- ST. BERNARD OF CLAIRVAUX
 Job cpu time:       0 days  4 hours 26 minutes  7.3 seconds.
 Elapsed time:       0 days  0 hours  8 minutes 53.5 seconds.
 File lengths (MBytes):  RWF=    515 Int=      0 D2E=      0 Chk=     15 Scr=      1
 Normal termination of Gaussian 16 at Sat Sep 16 17:42:38 2023.
