 Entering Gaussian System, Link 0=/home/ubuntu/g16/g16
 Input=/home/ubuntu/ML products/molecule_96.gjf
 Output=/home/ubuntu/ML products/molecule_96.log
 Initial command:
 /home/ubuntu/g16/l1.exe "/home/ubuntu/Scratch/Gau-145555.inp" -scrdir="/home/ubuntu/Scratch/"
 Entering Link 1 = /home/ubuntu/g16/l1.exe PID=    145557.
  
 Copyright (c) 1988-2017, Gaussian, Inc.  All Rights Reserved.
  
 This is part of the Gaussian(R) 16 program.  It is based on
 the Gaussian(R) 09 system (copyright 2009, Gaussian, Inc.),
 the Gaussian(R) 03 system (copyright 2003, Gaussian, Inc.),
 the Gaussian(R) 98 system (copyright 1998, Gaussian, Inc.),
 the Gaussian(R) 94 system (copyright 1995, Gaussian, Inc.),
 the Gaussian 92(TM) system (copyright 1992, Gaussian, Inc.),
 the Gaussian 90(TM) system (copyright 1990, Gaussian, Inc.),
 the Gaussian 88(TM) system (copyright 1988, Gaussian, Inc.),
 the Gaussian 86(TM) system (copyright 1986, Carnegie Mellon
 University), and the Gaussian 82(TM) system (copyright 1983,
 Carnegie Mellon University). Gaussian is a federally registered
 trademark of Gaussian, Inc.
  
 This software contains proprietary and confidential information,
 including trade secrets, belonging to Gaussian, Inc.
  
 This software is provided under written license and may be
 used, copied, transmitted, or stored only in accord with that
 written license.
  
 The following legend is applicable only to US Government
 contracts under FAR:
  
                    RESTRICTED RIGHTS LEGEND
  
 Use, reproduction and disclosure by the US Government is
 subject to restrictions as set forth in subparagraphs (a)
 and (c) of the Commercial Computer Software - Restricted
 Rights clause in FAR 52.227-19.
  
 Gaussian, Inc.
 340 Quinnipiac St., Bldg. 40, Wallingford CT 06492
  
  
 ---------------------------------------------------------------
 Warning -- This program may not be used in any manner that
 competes with the business of Gaussian, Inc. or will provide
 assistance to any competitor of Gaussian, Inc.  The licensee
 of this program is prohibited from giving any competitor of
 Gaussian, Inc. access to this program.  By using this program,
 the user acknowledges that Gaussian, Inc. is engaged in the
 business of creating and licensing software in the field of
 computational chemistry and represents and warrants to the
 licensee that it is not a competitor of Gaussian, Inc. and that
 it will not use this program in any manner prohibited above.
 ---------------------------------------------------------------
  

 Cite this work as:
 Gaussian 16, Revision B.01,
 M. J. Frisch, G. W. Trucks, H. B. Schlegel, G. E. Scuseria, 
 M. A. Robb, J. R. Cheeseman, G. Scalmani, V. Barone, 
 G. A. Petersson, H. Nakatsuji, X. Li, M. Caricato, A. V. Marenich, 
 J. Bloino, B. G. Janesko, R. Gomperts, B. Mennucci, H. P. Hratchian, 
 J. V. Ortiz, A. F. Izmaylov, J. L. Sonnenberg, D. Williams-Young, 
 F. Ding, F. Lipparini, F. Egidi, J. Goings, B. Peng, A. Petrone, 
 T. Henderson, D. Ranasinghe, V. G. Zakrzewski, J. Gao, N. Rega, 
 G. Zheng, W. Liang, M. Hada, M. Ehara, K. Toyota, R. Fukuda, 
 J. Hasegawa, M. Ishida, T. Nakajima, Y. Honda, O. Kitao, H. Nakai, 
 T. Vreven, K. Throssell, J. A. Montgomery, Jr., J. E. Peralta, 
 F. Ogliaro, M. J. Bearpark, J. J. Heyd, E. N. Brothers, K. N. Kudin, 
 V. N. Staroverov, T. A. Keith, R. Kobayashi, J. Normand, 
 K. Raghavachari, A. P. Rendell, J. C. Burant, S. S. Iyengar, 
 J. Tomasi, M. Cossi, J. M. Millam, M. Klene, C. Adamo, R. Cammi, 
 J. W. Ochterski, R. L. Martin, K. Morokuma, O. Farkas, 
 J. B. Foresman, and D. J. Fox, Gaussian, Inc., Wallingford CT, 2016.
 
 ******************************************
 Gaussian 16:  EM64L-G16RevB.01 20-Dec-2017
                15-Sep-2023 
 ******************************************
 %nprocshared=30
 Will use up to   30 processors via shared memory.
 %mem=30GB
 %chk=molecule_96.chk
 ----------------------------------------------------------------------
 # opt freq b3lyp/6-31+g(d) geom=connectivity empiricaldispersion=gd3 v
 olume
 ----------------------------------------------------------------------
 1/18=20,19=15,26=3,38=1,57=2/1,3;
 2/9=110,12=2,17=6,18=5,40=1/2;
 3/5=1,6=6,7=11,11=2,25=1,30=1,71=1,74=-5,124=31/1,2,3;
 4//1;
 5/5=2,38=5/2;
 6/7=2,8=2,9=2,10=2,28=1,44=1/1,4;
 7//1,2,3,16;
 1/18=20,19=15,26=3/3(2);
 2/9=110/2;
 99//99;
 2/9=110/2;
 3/5=1,6=6,7=11,11=2,25=1,30=1,71=1,74=-5,124=31/1,2,3;
 4/5=5,16=3,69=1/1;
 5/5=2,38=5/2;
 7//1,2,3,16;
 1/18=20,19=15,26=3/3(-5);
 2/9=110/2;
 6/7=2,8=2,9=2,10=2,19=2,28=1,44=1/1,4;
 99/9=1/99;
 -------------
 ML molecule96
 -------------
 Symbolic Z-matrix:
 Charge =  0 Multiplicity = 1
 C                    -4.74942  -0.23058  -0.40002 
 C                    -4.8202    0.23854  -1.71867 
 C                    -4.55025   1.58484  -1.99888 
 C                    -4.20951   2.46203  -0.96044 
 C                    -4.13873   1.99291   0.35822 
 C                    -4.40868   0.64661   0.63842 
 H                    -5.08036  -0.43121  -2.51155 
 H                    -3.87857   2.66266   1.15109 
 H                    -4.35464   0.28843   1.64524 
 O                    -3.91049   3.9533   -1.27081 
 C                    -3.81752   4.69985  -2.77936 
 C                    -4.13168   3.88761  -3.87731 
 C                    -3.30395   5.98751  -2.98454 
 C                    -3.93225   4.36302  -5.18043 
 C                    -3.10452   6.46292  -4.28767 
 H                    -3.06408   6.60768  -2.14623 
 C                    -3.41867   5.65068  -5.38561 
 H                    -4.17211   3.74285  -6.01874 
 H                    -2.7124    7.44608  -4.44432 
 H                    -4.60429   1.94302  -3.0057 
 H                    -4.5238    2.90445  -3.72065 
 H                    -4.95553  -1.25851  -0.18608 
 Cl                   -3.16822   6.24774  -7.02219 
 

 GradGradGradGradGradGradGradGradGradGradGradGradGradGradGradGradGradGrad
 Berny optimization.
 Initialization pass.
                           ----------------------------
                           !    Initial Parameters    !
                           ! (Angstroms and Degrees)  !
 --------------------------                            --------------------------
 ! Name  Definition              Value          Derivative Info.                !
 --------------------------------------------------------------------------------
 ! R1    R(1,2)                  1.4014         estimate D2E/DX2                !
 ! R2    R(1,6)                  1.4014         estimate D2E/DX2                !
 ! R3    R(1,22)                 1.07           estimate D2E/DX2                !
 ! R4    R(2,3)                  1.4014         estimate D2E/DX2                !
 ! R5    R(2,7)                  1.07           estimate D2E/DX2                !
 ! R6    R(3,4)                  1.4014         estimate D2E/DX2                !
 ! R7    R(3,20)                 1.07           estimate D2E/DX2                !
 ! R8    R(4,5)                  1.4014         estimate D2E/DX2                !
 ! R9    R(4,10)                 1.5523         estimate D2E/DX2                !
 ! R10   R(5,6)                  1.4014         estimate D2E/DX2                !
 ! R11   R(5,8)                  1.07           estimate D2E/DX2                !
 ! R12   R(6,9)                  1.07           estimate D2E/DX2                !
 ! R13   R(10,11)                1.6857         estimate D2E/DX2                !
 ! R14   R(11,12)                1.4014         estimate D2E/DX2                !
 ! R15   R(11,13)                1.4014         estimate D2E/DX2                !
 ! R16   R(12,14)                1.4014         estimate D2E/DX2                !
 ! R17   R(12,21)                1.07           estimate D2E/DX2                !
 ! R18   R(13,15)                1.4014         estimate D2E/DX2                !
 ! R19   R(13,16)                1.07           estimate D2E/DX2                !
 ! R20   R(14,17)                1.4014         estimate D2E/DX2                !
 ! R21   R(14,18)                1.07           estimate D2E/DX2                !
 ! R22   R(15,17)                1.4014         estimate D2E/DX2                !
 ! R23   R(15,19)                1.07           estimate D2E/DX2                !
 ! R24   R(17,23)                1.76           estimate D2E/DX2                !
 ! A1    A(2,1,6)              120.0            estimate D2E/DX2                !
 ! A2    A(2,1,22)             120.0            estimate D2E/DX2                !
 ! A3    A(6,1,22)             120.0            estimate D2E/DX2                !
 ! A4    A(1,2,3)              120.0            estimate D2E/DX2                !
 ! A5    A(1,2,7)              120.0            estimate D2E/DX2                !
 ! A6    A(3,2,7)              120.0            estimate D2E/DX2                !
 ! A7    A(2,3,4)              120.0            estimate D2E/DX2                !
 ! A8    A(2,3,20)             120.0            estimate D2E/DX2                !
 ! A9    A(4,3,20)             120.0            estimate D2E/DX2                !
 ! A10   A(3,4,5)              120.0            estimate D2E/DX2                !
 ! A11   A(3,4,10)             120.0            estimate D2E/DX2                !
 ! A12   A(5,4,10)             120.0            estimate D2E/DX2                !
 ! A13   A(4,5,6)              120.0            estimate D2E/DX2                !
 ! A14   A(4,5,8)              120.0            estimate D2E/DX2                !
 ! A15   A(6,5,8)              120.0            estimate D2E/DX2                !
 ! A16   A(1,6,5)              120.0            estimate D2E/DX2                !
 ! A17   A(1,6,9)              120.0            estimate D2E/DX2                !
 ! A18   A(5,6,9)              120.0            estimate D2E/DX2                !
 ! A19   A(4,10,11)            127.9526         estimate D2E/DX2                !
 ! A20   A(10,11,12)           115.5989         estimate D2E/DX2                !
 ! A21   A(10,11,13)           123.9281         estimate D2E/DX2                !
 ! A22   A(12,11,13)           120.0            estimate D2E/DX2                !
 ! A23   A(11,12,14)           120.0            estimate D2E/DX2                !
 ! A24   A(11,12,21)           120.0            estimate D2E/DX2                !
 ! A25   A(14,12,21)           120.0            estimate D2E/DX2                !
 ! A26   A(11,13,15)           120.0            estimate D2E/DX2                !
 ! A27   A(11,13,16)           120.0            estimate D2E/DX2                !
 ! A28   A(15,13,16)           120.0            estimate D2E/DX2                !
 ! A29   A(12,14,17)           120.0            estimate D2E/DX2                !
 ! A30   A(12,14,18)           120.0            estimate D2E/DX2                !
 ! A31   A(17,14,18)           120.0            estimate D2E/DX2                !
 ! A32   A(13,15,17)           120.0            estimate D2E/DX2                !
 ! A33   A(13,15,19)           120.0            estimate D2E/DX2                !
 ! A34   A(17,15,19)           120.0            estimate D2E/DX2                !
 ! A35   A(14,17,15)           120.0            estimate D2E/DX2                !
 ! A36   A(14,17,23)           120.0            estimate D2E/DX2                !
 ! A37   A(15,17,23)           120.0            estimate D2E/DX2                !
 ! D1    D(6,1,2,3)              0.0001         estimate D2E/DX2                !
 ! D2    D(6,1,2,7)           -179.9998         estimate D2E/DX2                !
 ! D3    D(22,1,2,3)          -179.9999         estimate D2E/DX2                !
 ! D4    D(22,1,2,7)             0.0002         estimate D2E/DX2                !
 ! D5    D(2,1,6,5)             -0.0001         estimate D2E/DX2                !
 ! D6    D(2,1,6,9)            179.9998         estimate D2E/DX2                !
 ! D7    D(22,1,6,5)           179.9999         estimate D2E/DX2                !
 ! D8    D(22,1,6,9)            -0.0002         estimate D2E/DX2                !
 ! D9    D(1,2,3,4)              0.0001         estimate D2E/DX2                !
 ! D10   D(1,2,3,20)          -179.9999         estimate D2E/DX2                !
 ! D11   D(7,2,3,4)            179.9999         estimate D2E/DX2                !
 ! D12   D(7,2,3,20)            -0.0001         estimate D2E/DX2                !
 ! D13   D(2,3,4,5)             -0.0002         estimate D2E/DX2                !
 ! D14   D(2,3,4,10)           179.9998         estimate D2E/DX2                !
 ! D15   D(20,3,4,5)           179.9998         estimate D2E/DX2                !
 ! D16   D(20,3,4,10)           -0.0002         estimate D2E/DX2                !
 ! D17   D(3,4,5,6)              0.0001         estimate D2E/DX2                !
 ! D18   D(3,4,5,8)           -180.0            estimate D2E/DX2                !
 ! D19   D(10,4,5,6)          -179.9999         estimate D2E/DX2                !
 ! D20   D(10,4,5,8)             0.0            estimate D2E/DX2                !
 ! D21   D(3,4,10,11)           -5.2547         estimate D2E/DX2                !
 ! D22   D(5,4,10,11)          174.7453         estimate D2E/DX2                !
 ! D23   D(4,5,6,1)              0.0            estimate D2E/DX2                !
 ! D24   D(4,5,6,9)           -179.9999         estimate D2E/DX2                !
 ! D25   D(8,5,6,1)           -179.9999         estimate D2E/DX2                !
 ! D26   D(8,5,6,9)              0.0002         estimate D2E/DX2                !
 ! D27   D(4,10,11,12)           4.3564         estimate D2E/DX2                !
 ! D28   D(4,10,11,13)        -167.7268         estimate D2E/DX2                !
 ! D29   D(10,11,12,14)       -172.4167         estimate D2E/DX2                !
 ! D30   D(10,11,12,21)          7.5833         estimate D2E/DX2                !
 ! D31   D(13,11,12,14)          0.0002         estimate D2E/DX2                !
 ! D32   D(13,11,12,21)       -179.9998         estimate D2E/DX2                !
 ! D33   D(10,11,13,15)        171.7535         estimate D2E/DX2                !
 ! D34   D(10,11,13,16)         -8.2466         estimate D2E/DX2                !
 ! D35   D(12,11,13,15)          0.0            estimate D2E/DX2                !
 ! D36   D(12,11,13,16)        179.9999         estimate D2E/DX2                !
 ! D37   D(11,12,14,17)         -0.0002         estimate D2E/DX2                !
 ! D38   D(11,12,14,18)        179.9998         estimate D2E/DX2                !
 ! D39   D(21,12,14,17)        179.9998         estimate D2E/DX2                !
 ! D40   D(21,12,14,18)         -0.0002         estimate D2E/DX2                !
 ! D41   D(11,13,15,17)         -0.0001         estimate D2E/DX2                !
 ! D42   D(11,13,15,19)        179.9999         estimate D2E/DX2                !
 ! D43   D(16,13,15,17)        179.9999         estimate D2E/DX2                !
 ! D44   D(16,13,15,19)          0.0            estimate D2E/DX2                !
 ! D45   D(12,14,17,15)          0.0001         estimate D2E/DX2                !
 ! D46   D(12,14,17,23)       -179.9999         estimate D2E/DX2                !
 ! D47   D(18,14,17,15)       -179.9999         estimate D2E/DX2                !
 ! D48   D(18,14,17,23)          0.0001         estimate D2E/DX2                !
 ! D49   D(13,15,17,14)          0.0001         estimate D2E/DX2                !
 ! D50   D(13,15,17,23)       -179.9999         estimate D2E/DX2                !
 ! D51   D(19,15,17,14)       -180.0            estimate D2E/DX2                !
 ! D52   D(19,15,17,23)          0.0            estimate D2E/DX2                !
 --------------------------------------------------------------------------------
 Trust Radius=3.00D-01 FncErr=1.00D-07 GrdErr=1.00D-06 EigMax=2.50D+02 EigMin=1.00D-04
 Number of steps in this run=    123 maximum allowed number of steps=    138.
 GradGradGradGradGradGradGradGradGradGradGradGradGradGradGradGradGradGrad

                          Input orientation:                          
 ---------------------------------------------------------------------
 Center     Atomic      Atomic             Coordinates (Angstroms)
 Number     Number       Type             X           Y           Z
 ---------------------------------------------------------------------
      1          6           0       -4.749416   -0.230579   -0.400021
      2          6           0       -4.820199    0.238538   -1.718672
      3          6           0       -4.550247    1.584841   -1.998879
      4          6           0       -4.209510    2.462026   -0.960435
      5          6           0       -4.138728    1.992910    0.358216
      6          6           0       -4.408682    0.646607    0.638423
      7          1           0       -5.080361   -0.431212   -2.511547
      8          1           0       -3.878568    2.662660    1.151091
      9          1           0       -4.354640    0.288426    1.645243
     10          8           0       -3.910486    3.953296   -1.270814
     11          6           0       -3.817523    4.699853   -2.779363
     12          6           0       -4.131676    3.887607   -3.877310
     13          6           0       -3.303947    5.987511   -2.984541
     14          6           0       -3.932249    4.363019   -5.180435
     15          6           0       -3.104523    6.462923   -4.287666
     16          1           0       -3.064085    6.607679   -2.146234
     17          6           0       -3.418674    5.650677   -5.385613
     18          1           0       -4.172109    3.742850   -6.018741
     19          1           0       -2.712397    7.446079   -4.444324
     20          1           0       -4.604292    1.943023   -3.005698
     21          1           0       -4.523805    2.904453   -3.720651
     22          1           0       -4.955530   -1.258512   -0.186077
     23         17           0       -3.168218    6.247741   -7.022191
 ---------------------------------------------------------------------
                    Distance matrix (angstroms):
                    1          2          3          4          5
     1  C    0.000000
     2  C    1.401400   0.000000
     3  C    2.427296   1.401400   0.000000
     4  C    2.802800   2.427296   1.401400   0.000000
     5  C    2.427296   2.802800   2.427296   1.401400   0.000000
     6  C    1.401400   2.427296   2.802800   2.427296   1.401400
     7  H    2.146700   1.070000   2.146700   3.396345   3.872800
     8  H    3.396345   3.872800   3.396345   2.146700   1.070000
     9  H    2.146700   3.396345   3.872800   3.396345   2.146700
    10  O    4.355100   3.850660   2.559092   1.552300   2.559092
    11  C    5.553274   4.694012   3.293833   2.910330   4.156335
    12  C    5.425182   4.295286   3.001072   3.247537   4.640001
    13  C    6.887218   6.078827   4.680630   4.164864   5.275199
    14  C    6.679914   5.457435   4.268781   4.636706   6.027993
    15  C    7.913434   6.948831   5.578920   5.319647   6.529535
    16  H    7.256127   6.620627   5.240161   4.461452   5.359405
    17  C    7.824077   6.685954   5.411233   5.511362   6.847577
    18  H    6.905899   5.584874   4.578131   5.218081   6.612790
    19  H    8.912739   7.988783   6.611506   6.262556   7.405125
    20  H    3.396345   2.146700   1.070000   2.146700   3.396345
    21  H    4.572298   3.347069   2.169464   2.813062   4.197184
    22  H    1.070000   2.146700   3.396345   3.872800   3.396345
    23  Cl   9.397976   8.183329   6.991874   7.222244   8.574141
                    6          7          8          9         10
     6  C    0.000000
     7  H    3.396345   0.000000
     8  H    2.146700   4.942800   0.000000
     9  H    1.070000   4.280590   2.471400   0.000000
    10  O    3.850660   4.704459   2.744520   4.704459   0.000000
    11  C    5.334748   5.290965   4.427454   6.271070   1.685736
    12  C    5.565309   4.627906   5.181638   6.595635   2.616688
    13  C    6.547638   6.676779   5.337441   7.417441   2.728146
    14  C    6.920825   5.605869   6.556091   7.960565   3.931091
    15  C    7.732834   7.388345   6.679913   8.653706   4.006145
    16  H    6.715403   7.331085   5.205662   7.481563   2.920360
    17  C    7.893659   6.928985   7.201962   8.891721   4.478231
    18  H    7.345783   5.527036   7.256685   8.408509   4.759784
    19  H    8.657051   8.449532   7.453169   9.540010   4.868893
    20  H    3.872800   2.471400   4.280590   4.942800   2.744520
    21  H    4.910464   3.591427   4.920231   5.972021   2.734581
    22  H    2.146700   2.471400   4.280590   2.471400   5.425100
    23  Cl   9.570604   8.283152   8.953209  10.585152   6.236487
                   11         12         13         14         15
    11  C    0.000000
    12  C    1.401400   0.000000
    13  C    1.401400   2.427296   0.000000
    14  C    2.427296   1.401400   2.802800   0.000000
    15  C    2.427296   2.802800   1.401400   2.427296   0.000000
    16  H    2.146700   3.396345   1.070000   3.872800   2.146700
    17  C    2.802800   2.427296   2.427296   1.401400   1.401400
    18  H    3.396345   2.146700   3.872800   1.070000   3.396345
    19  H    3.396345   3.872800   2.146700   3.396345   1.070000
    20  H    2.875821   2.182769   4.248439   3.322273   4.931759
    21  H    2.146700   1.070000   3.396345   2.146700   3.872800
    22  H    6.597143   6.386429   7.941283   7.588960   8.936992
    23  Cl   4.562800   4.048303   4.048303   2.743718   2.743718
                   16         17         18         19         20
    16  H    0.000000
    17  C    3.396345   0.000000
    18  H    4.942800   2.146700   0.000000
    19  H    2.471400   2.146700   4.280590   0.000000
    20  H    4.986976   4.562498   3.536183   5.994376   0.000000
    21  H    4.280590   3.396345   2.471400   4.942800   1.200826
    22  H    8.324466   8.782596   7.723169   9.946568   4.280590
    23  Cl   4.890332   1.760000   2.879094   2.879094   6.060125
                   21         22         23
    21  H    0.000000
    22  H    5.478127   0.000000
    23  Cl   4.890332  10.308771   0.000000
 Stoichiometry    C12H9ClO
 Framework group  C1[X(C12H9ClO)]
 Deg. of freedom    63
 Full point group                 C1      NOp   1
 Largest Abelian subgroup         C1      NOp   1
 Largest concise Abelian subgroup C1      NOp   1
                         Standard orientation:                         
 ---------------------------------------------------------------------
 Center     Atomic      Atomic             Coordinates (Angstroms)
 Number     Number       Type             X           Y           Z
 ---------------------------------------------------------------------
      1          6           0        4.640731   -1.088423   -0.128941
      2          6           0        3.380259   -1.682027    0.021945
      3          6           0        2.233891   -0.880440    0.106922
      4          6           0        2.347995    0.514751    0.041011
      5          6           0        3.608467    1.108355   -0.109874
      6          6           0        4.754835    0.306768   -0.194849
      7          1           0        3.293138   -2.747286    0.072271
      8          1           0        3.695587    2.173615   -0.160198
      9          1           0        5.717233    0.759999   -0.310051
     10          8           0        1.078188    1.402651    0.135134
     11          6           0       -0.531735    0.906417    0.195194
     12          6           0       -0.736706   -0.478801    0.250705
     13          6           0       -1.623115    1.770260    0.032136
     14          6           0       -2.033056   -1.000175    0.143155
     15          6           0       -2.919465    1.248886   -0.075412
     16          1           0       -1.466615    2.827904   -0.010248
     17          6           0       -3.124436   -0.136332   -0.019903
     18          1           0       -2.189556   -2.057819    0.185536
     19          1           0       -3.752758    1.908449   -0.199910
     20          1           0        1.271493   -1.333670    0.222128
     21          1           0        0.096586   -1.138364    0.375207
     22          1           0        5.516008   -1.700452   -0.193823
     23         17           0       -4.752505   -0.791119   -0.154972
 ---------------------------------------------------------------------
 Rotational constants (GHZ):           2.0224303           0.2316031           0.2084999
 Standard basis: 6-31+G(d) (6D, 7F)
 There are   288 symmetry adapted cartesian basis functions of A   symmetry.
 There are   288 symmetry adapted basis functions of A   symmetry.
   288 basis functions,   508 primitive gaussians,   288 cartesian basis functions
    53 alpha electrons       53 beta electrons
       nuclear repulsion energy       837.5645132605 Hartrees.
 NAtoms=   23 NActive=   23 NUniq=   23 SFac= 1.00D+00 NAtFMM=   60 NAOKFM=F Big=F
 Integral buffers will be    131072 words long.
 Raffenetti 2 integral format.
 Two-electron integral symmetry is turned on.
 Nuclear repulsion after empirical dispersion term =      837.5468374838 Hartrees.
 One-electron integrals computed using PRISM.
 NBasis=   288 RedAO= T EigKep=  1.50D-06  NBF=   288
 NBsUse=   287 1.00D-06 EigRej=  4.55D-07 NBFU=   287
 ExpMin= 4.38D-02 ExpMax= 2.52D+04 ExpMxC= 3.78D+03 IAcc=3 IRadAn=         5 AccDes= 0.00D+00
 Harris functional with IExCor=  402 and IRadAn=       5 diagonalized for initial guess.
 HarFok:  IExCor=  402 AccDes= 0.00D+00 IRadAn=         5 IDoV= 1 UseB2=F ITyADJ=14
 ICtDFT=  3500011 ScaDFX=  1.000000  1.000000  1.000000  1.000000
 FoFCou: FMM=F IPFlag=           0 FMFlag=      100000 FMFlg1=           0
         NFxFlg=           0 DoJE=T BraDBF=F KetDBF=T FulRan=T
         wScrn=  0.000000 ICntrl=       500 IOpCl=  0 I1Cent=   200000004 NGrid=           0
         NMat0=    1 NMatS0=      1 NMatT0=    0 NMatD0=    1 NMtDS0=    0 NMtDT0=    0
 Petite list used in FoFCou.
 Requested convergence on RMS density matrix=1.00D-08 within 128 cycles.
 Requested convergence on MAX density matrix=1.00D-06.
 Requested convergence on             energy=1.00D-06.
 No special actions if energy rises.
 SCF Done:  E(RB3LYP) =  -998.054378146     A.U. after   15 cycles
            NFock= 15  Conv=0.71D-08     -V/T= 2.0071

 **********************************************************************

            Population analysis using the SCF Density.

 **********************************************************************

 Orbital symmetries:
       Occupied  (A) (A) (A) (A) (A) (A) (A) (A) (A) (A) (A) (A)
                 (A) (A) (A) (A) (A) (A) (A) (A) (A) (A) (A) (A)
                 (A) (A) (A) (A) (A) (A) (A) (A) (A) (A) (A) (A)
                 (A) (A) (A) (A) (A) (A) (A) (A) (A) (A) (A) (A)
                 (A) (A) (A) (A) (A)
       Virtual   (A) (A) (A) (A) (A) (A) (A) (A) (A) (A) (A) (A)
                 (A) (A) (A) (A) (A) (A) (A) (A) (A) (A) (A) (A)
                 (A) (A) (A) (A) (A) (A) (A) (A) (A) (A) (A) (A)
                 (A) (A) (A) (A) (A) (A) (A) (A) (A) (A) (A) (A)
                 (A) (A) (A) (A) (A) (A) (A) (A) (A) (A) (A) (A)
                 (A) (A) (A) (A) (A) (A) (A) (A) (A) (A) (A) (A)
                 (A) (A) (A) (A) (A) (A) (A) (A) (A) (A) (A) (A)
                 (A) (A) (A) (A) (A) (A) (A) (A) (A) (A) (A) (A)
                 (A) (A) (A) (A) (A) (A) (A) (A) (A) (A) (A) (A)
                 (A) (A) (A) (A) (A) (A) (A) (A) (A) (A) (A) (A)
                 (A) (A) (A) (A) (A) (A) (A) (A) (A) (A) (A) (A)
                 (A) (A) (A) (A) (A) (A) (A) (A) (A) (A) (A) (A)
                 (A) (A) (A) (A) (A) (A) (A) (A) (A) (A) (A) (A)
                 (A) (A) (A) (A) (A) (A) (A) (A) (A) (A) (A) (A)
                 (A) (A) (A) (A) (A) (A) (A) (A) (A) (A) (A) (A)
                 (A) (A) (A) (A) (A) (A) (A) (A) (A) (A) (A) (A)
                 (A) (A) (A) (A) (A) (A) (A) (A) (A) (A) (A) (A)
                 (A) (A) (A) (A) (A) (A) (A) (A) (A) (A) (A) (A)
                 (A) (A) (A) (A) (A) (A) (A) (A) (A) (A) (A) (A)
                 (A) (A) (A) (A) (A) (A)
 The electronic state is 1-A.
 Alpha  occ. eigenvalues -- -101.56588 -19.19040 -10.28986 -10.27340 -10.27314
 Alpha  occ. eigenvalues --  -10.23067 -10.22925 -10.22625 -10.22141 -10.20931
 Alpha  occ. eigenvalues --  -10.20843 -10.20793 -10.20454 -10.20144  -9.48086
 Alpha  occ. eigenvalues --   -7.24501  -7.23516  -7.23490  -0.97572  -0.90696
 Alpha  occ. eigenvalues --   -0.86463  -0.85247  -0.78430  -0.76440  -0.75762
 Alpha  occ. eigenvalues --   -0.74208  -0.65341  -0.62471  -0.61990  -0.60789
 Alpha  occ. eigenvalues --   -0.54316  -0.53758  -0.49469  -0.49134  -0.48173
 Alpha  occ. eigenvalues --   -0.46758  -0.46095  -0.44728  -0.43044  -0.41671
 Alpha  occ. eigenvalues --   -0.41394  -0.39483  -0.39318  -0.37575  -0.35934
 Alpha  occ. eigenvalues --   -0.35406  -0.32714  -0.32489  -0.32280  -0.28454
 Alpha  occ. eigenvalues --   -0.26861  -0.26641  -0.23592
 Alpha virt. eigenvalues --   -0.04297  -0.04243  -0.02815  -0.02265  -0.01311
 Alpha virt. eigenvalues --    0.00004   0.00499   0.00848   0.01656   0.02765
 Alpha virt. eigenvalues --    0.03221   0.04872   0.05063   0.05287   0.05413
 Alpha virt. eigenvalues --    0.06262   0.06690   0.07396   0.07724   0.07940
 Alpha virt. eigenvalues --    0.08145   0.09216   0.09743   0.10454   0.11158
 Alpha virt. eigenvalues --    0.11723   0.12115   0.12511   0.12680   0.13177
 Alpha virt. eigenvalues --    0.13239   0.13585   0.14041   0.14331   0.14629
 Alpha virt. eigenvalues --    0.15224   0.15780   0.16374   0.17231   0.17514
 Alpha virt. eigenvalues --    0.18151   0.18760   0.19405   0.19517   0.19952
 Alpha virt. eigenvalues --    0.20196   0.20833   0.21289   0.21895   0.22145
 Alpha virt. eigenvalues --    0.22410   0.23008   0.23627   0.24216   0.24727
 Alpha virt. eigenvalues --    0.24935   0.25295   0.25879   0.26799   0.27215
 Alpha virt. eigenvalues --    0.27536   0.27797   0.28286   0.29265   0.29937
 Alpha virt. eigenvalues --    0.30590   0.30922   0.31206   0.32249   0.32701
 Alpha virt. eigenvalues --    0.33505   0.34323   0.35014   0.36481   0.37648
 Alpha virt. eigenvalues --    0.38790   0.39456   0.40417   0.42036   0.44434
 Alpha virt. eigenvalues --    0.47965   0.51118   0.54132   0.56702   0.59702
 Alpha virt. eigenvalues --    0.60359   0.60709   0.61227   0.63895   0.64194
 Alpha virt. eigenvalues --    0.65732   0.66190   0.66511   0.67638   0.69150
 Alpha virt. eigenvalues --    0.69308   0.70486   0.71142   0.71733   0.72740
 Alpha virt. eigenvalues --    0.73125   0.73628   0.74890   0.75383   0.76214
 Alpha virt. eigenvalues --    0.76429   0.77019   0.78469   0.79334   0.80844
 Alpha virt. eigenvalues --    0.81756   0.82827   0.86084   0.87789   0.89617
 Alpha virt. eigenvalues --    0.90210   0.91321   0.92888   0.93235   0.93675
 Alpha virt. eigenvalues --    0.94002   0.94162   0.95350   0.97983   0.99788
 Alpha virt. eigenvalues --    1.02050   1.04405   1.07450   1.08744   1.09410
 Alpha virt. eigenvalues --    1.11902   1.12237   1.12674   1.13409   1.16003
 Alpha virt. eigenvalues --    1.17198   1.18891   1.19711   1.20296   1.21400
 Alpha virt. eigenvalues --    1.21921   1.23610   1.24144   1.27094   1.28942
 Alpha virt. eigenvalues --    1.31217   1.33079   1.36560   1.37115   1.37991
 Alpha virt. eigenvalues --    1.41078   1.42240   1.42820   1.43961   1.44435
 Alpha virt. eigenvalues --    1.46021   1.46792   1.47784   1.48287   1.49464
 Alpha virt. eigenvalues --    1.49949   1.53142   1.55563   1.61485   1.70574
 Alpha virt. eigenvalues --    1.76208   1.77418   1.79049   1.80599   1.81487
 Alpha virt. eigenvalues --    1.84720   1.89142   1.92034   1.95524   1.95639
 Alpha virt. eigenvalues --    1.97146   1.97397   1.98157   2.00353   2.02402
 Alpha virt. eigenvalues --    2.07539   2.09472   2.10368   2.11445   2.12467
 Alpha virt. eigenvalues --    2.13362   2.14529   2.14845   2.16254   2.20029
 Alpha virt. eigenvalues --    2.21216   2.24385   2.26718   2.27095   2.28104
 Alpha virt. eigenvalues --    2.28831   2.30410   2.37590   2.40839   2.48340
 Alpha virt. eigenvalues --    2.59704   2.59920   2.60719   2.61986   2.62652
 Alpha virt. eigenvalues --    2.65334   2.68110   2.70585   2.71462   2.74354
 Alpha virt. eigenvalues --    2.75666   2.77013   2.78760   2.79606   2.90897
 Alpha virt. eigenvalues --    3.00159   3.04413   3.06583   3.35078   3.40581
 Alpha virt. eigenvalues --    4.20508   4.22615   4.24253   4.26516   4.27894
 Alpha virt. eigenvalues --    4.31428   4.35431   4.36801   4.38274   4.40561
 Alpha virt. eigenvalues --    4.41920   4.46245   4.67989   4.72809
          Condensed to atoms (all electrons):
               1          2          3          4          5          6
     1  C    5.324407   0.210946   0.101811  -0.629962   0.278787   0.411219
     2  C    0.210946   9.315372  -3.613178   0.380797  -0.219458   0.373369
     3  C    0.101811  -3.613178  11.131770  -0.508304  -1.017333  -0.641229
     4  C   -0.629962   0.380797  -0.508304   9.190731  -2.738309   0.080114
     5  C    0.278787  -0.219458  -1.017333  -2.738309   9.932769   0.239100
     6  C    0.411219   0.373369  -0.641229   0.080114   0.239100   5.402810
     7  H   -0.041474   0.350357  -0.026543   0.039773  -0.038693   0.011118
     8  H    0.019554  -0.036248   0.075496   0.012307   0.286204  -0.063526
     9  H   -0.009870   0.020034  -0.021536   0.025586  -0.037338   0.319194
    10  O   -0.018993   0.031064  -0.138729   0.317518  -0.187467   0.027669
    11  C    0.020968  -0.251799   0.143314  -0.301168   0.491917  -0.052690
    12  C   -0.011906   0.229053  -0.020747   0.100928  -0.292969   0.051859
    13  C    0.011086  -0.480770  -0.417800   0.342893   0.284022  -0.040973
    14  C   -0.022083   0.093595   0.287337  -0.152352  -0.502154   0.024327
    15  C    0.000926   0.050702   0.135342  -0.045098  -0.056876  -0.001831
    16  H    0.000025  -0.000026   0.003307  -0.002557  -0.002655  -0.000218
    17  C    0.001734  -0.010286  -0.069803  -0.023020   0.034576  -0.001190
    18  H    0.000164   0.004545  -0.001815  -0.003771  -0.000545   0.000022
    19  H   -0.000002   0.000043   0.000102   0.000260  -0.000049   0.000005
    20  H    0.009063   0.010407   0.094818   0.044450   0.059174   0.005158
    21  H   -0.007725  -0.014819  -0.030029   0.056195   0.004060   0.004093
    22  H    0.297200  -0.028848   0.053205  -0.009589   0.014877  -0.034079
    23  Cl  -0.000042  -0.001040  -0.003545  -0.001809  -0.000201   0.000008
               7          8          9         10         11         12
     1  C   -0.041474   0.019554  -0.009870  -0.018993   0.020968  -0.011906
     2  C    0.350357  -0.036248   0.020034   0.031064  -0.251799   0.229053
     3  C   -0.026543   0.075496  -0.021536  -0.138729   0.143314  -0.020747
     4  C    0.039773   0.012307   0.025586   0.317518  -0.301168   0.100928
     5  C   -0.038693   0.286204  -0.037338  -0.187467   0.491917  -0.292969
     6  C    0.011118  -0.063526   0.319194   0.027669  -0.052690   0.051859
     7  H    0.538031   0.000016  -0.000179  -0.000295  -0.003764  -0.002390
     8  H    0.000016   0.518258  -0.005338  -0.004325  -0.003180   0.001964
     9  H   -0.000179  -0.005338   0.527542  -0.000159   0.000312   0.000143
    10  O   -0.000295  -0.004325  -0.000159   8.386765   0.294763   0.011147
    11  C   -0.003764  -0.003180   0.000312   0.294763  10.602518  -0.745784
    12  C   -0.002390   0.001964   0.000143   0.011147  -0.745784  11.788592
    13  C   -0.000508   0.000271  -0.000105  -0.262392  -3.597552  -0.793162
    14  C    0.004474  -0.000036   0.000057  -0.021272   0.469561  -4.853948
    15  C    0.000040  -0.000145   0.000003   0.035857   0.694547   0.014476
    16  H    0.000000  -0.000001   0.000000  -0.001812   0.025815   0.054482
    17  C    0.000082   0.000046  -0.000001  -0.017899  -1.557674   0.434363
    18  H    0.000000   0.000000   0.000000  -0.000155   0.018976  -0.028935
    19  H    0.000000   0.000000   0.000000  -0.000104   0.029005  -0.027108
    20  H   -0.008966  -0.000196   0.000015  -0.011772   0.042495  -0.012688
    21  H    0.000279   0.000005   0.000000  -0.011314   0.054622   0.055069
    22  H   -0.004627  -0.000151  -0.004797   0.000065   0.000662  -0.000474
    23  Cl   0.000000   0.000000   0.000000  -0.000422  -0.077064  -0.040614
              13         14         15         16         17         18
     1  C    0.011086  -0.022083   0.000926   0.000025   0.001734   0.000164
     2  C   -0.480770   0.093595   0.050702  -0.000026  -0.010286   0.004545
     3  C   -0.417800   0.287337   0.135342   0.003307  -0.069803  -0.001815
     4  C    0.342893  -0.152352  -0.045098  -0.002557  -0.023020  -0.003771
     5  C    0.284022  -0.502154  -0.056876  -0.002655   0.034576  -0.000545
     6  C   -0.040973   0.024327  -0.001831  -0.000218  -0.001190   0.000022
     7  H   -0.000508   0.004474   0.000040   0.000000   0.000082   0.000000
     8  H    0.000271  -0.000036  -0.000145  -0.000001   0.000046   0.000000
     9  H   -0.000105   0.000057   0.000003   0.000000  -0.000001   0.000000
    10  O   -0.262392  -0.021272   0.035857  -0.001812  -0.017899  -0.000155
    11  C   -3.597552   0.469561   0.694547   0.025815  -1.557674   0.018976
    12  C   -0.793162  -4.853948   0.014476   0.054482   0.434363  -0.028935
    13  C   11.764152  -0.641933  -1.129484   0.320057   0.967642  -0.039727
    14  C   -0.641933  12.655567  -0.976213  -0.030515  -0.661788   0.273126
    15  C   -1.129484  -0.976213   7.861945  -0.086867  -0.193494   0.052928
    16  H    0.320057  -0.030515  -0.086867   0.499807   0.012721   0.000014
    17  C    0.967642  -0.661788  -0.193494   0.012721   6.764525   0.018855
    18  H   -0.039727   0.273126   0.052928   0.000014   0.018855   0.508921
    19  H   -0.081704   0.066693   0.295294  -0.005451   0.013274  -0.000176
    20  H    0.005280  -0.049428   0.004361   0.000005   0.005094   0.000359
    21  H    0.030775   0.095596   0.008308  -0.000213  -0.025405  -0.009193
    22  H    0.000069  -0.000140  -0.000002   0.000000  -0.000002   0.000000
    23  Cl   0.123022  -0.015599  -0.163214   0.001024  -0.049353   0.002827
              19         20         21         22         23
     1  C   -0.000002   0.009063  -0.007725   0.297200  -0.000042
     2  C    0.000043   0.010407  -0.014819  -0.028848  -0.001040
     3  C    0.000102   0.094818  -0.030029   0.053205  -0.003545
     4  C    0.000260   0.044450   0.056195  -0.009589  -0.001809
     5  C   -0.000049   0.059174   0.004060   0.014877  -0.000201
     6  C    0.000005   0.005158   0.004093  -0.034079   0.000008
     7  H    0.000000  -0.008966   0.000279  -0.004627   0.000000
     8  H    0.000000  -0.000196   0.000005  -0.000151   0.000000
     9  H    0.000000   0.000015   0.000000  -0.004797   0.000000
    10  O   -0.000104  -0.011772  -0.011314   0.000065  -0.000422
    11  C    0.029005   0.042495   0.054622   0.000662  -0.077064
    12  C   -0.027108  -0.012688   0.055069  -0.000474  -0.040614
    13  C   -0.081704   0.005280   0.030775   0.000069   0.123022
    14  C    0.066693  -0.049428   0.095596  -0.000140  -0.015599
    15  C    0.295294   0.004361   0.008308  -0.000002  -0.163214
    16  H   -0.005451   0.000005  -0.000213   0.000000   0.001024
    17  C    0.013274   0.005094  -0.025405  -0.000002  -0.049353
    18  H   -0.000176   0.000359  -0.009193   0.000000   0.002827
    19  H    0.496757   0.000000   0.000010   0.000000   0.004180
    20  H    0.000000   0.671880  -0.001370  -0.000199   0.000010
    21  H    0.000010  -0.001370   0.629947   0.000001   0.001563
    22  H    0.000000  -0.000199   0.000001   0.538505   0.000000
    23  Cl   0.004180   0.000010   0.001563   0.000000  16.999155
 Mulliken charges:
               1
     1  C    0.054167
     2  C   -0.413812
     3  C    0.484088
     4  C   -0.175612
     5  C   -0.531439
     6  C   -0.114327
     7  H    0.183268
     8  H    0.199026
     9  H    0.186436
    10  O   -0.427739
    11  C   -0.298801
    12  C    0.088648
    13  C   -0.363159
    14  C   -0.042872
    15  C   -0.501506
    16  H    0.213055
    17  C    0.357003
    18  H    0.203578
    19  H    0.208970
    20  H    0.132048
    21  H    0.159544
    22  H    0.178326
    23  Cl   0.221112
 Sum of Mulliken charges =   0.00000
 Mulliken charges with hydrogens summed into heavy atoms:
               1
     1  C    0.232493
     2  C   -0.230544
     3  C    0.616137
     4  C   -0.175612
     5  C   -0.332414
     6  C    0.072109
    10  O   -0.427739
    11  C   -0.298801
    12  C    0.248192
    13  C   -0.150104
    14  C    0.160706
    15  C   -0.292536
    17  C    0.357003
    23  Cl   0.221112
 Electronic spatial extent (au):  <R**2>=           4747.9709
 Charge=              0.0000 electrons
 Dipole moment (field-independent basis, Debye):
    X=              0.9341    Y=             -0.7600    Z=             -0.0652  Tot=              1.2060
 Quadrupole moment (field-independent basis, Debye-Ang):
   XX=            -83.7537   YY=            -80.8131   ZZ=            -95.0061
   XY=             -5.5320   XZ=             -0.9252   YZ=             -1.3470
 Traceless Quadrupole moment (field-independent basis, Debye-Ang):
   XX=              2.7706   YY=              5.7111   ZZ=             -8.4818
   XY=             -5.5320   XZ=             -0.9252   YZ=             -1.3470
 Octapole moment (field-independent basis, Debye-Ang**2):
  XXX=             68.1088  YYY=             -0.3656  ZZZ=             -0.6611  XYY=             -7.2399
  XXY=             17.6497  XXZ=             -7.9653  XZZ=            -14.2408  YZZ=              0.3399
  YYZ=             -0.7484  XYZ=             -0.0811
 Hexadecapole moment (field-independent basis, Debye-Ang**3):
 XXXX=          -5343.2823 YYYY=           -703.1565 ZZZZ=           -126.2394 XXXY=            -15.3287
 XXXZ=            -30.1962 YYYX=            -15.3768 YYYZ=             -5.8247 ZZZX=              7.3844
 ZZZY=              0.7591 XXYY=           -974.0348 XXZZ=          -1037.4366 YYZZ=           -161.9134
 XXYZ=             -8.0312 YYXZ=              0.3749 ZZXY=             14.3128
 N-N= 8.375468374838D+02 E-N=-4.015363467947D+03  KE= 9.909689647414D+02
 Evaluate density.
 Using the total density.
 Monte-Carlo method of calculating molar volume:
 based on  0.001 e/bohr**3 density envelope.
 Number of points per bohr**3 =   20 CutOff= 1.00D-04
 Using the SCF density.
 There are       436 points.  Will hold       436 in memory.
 LenV=  4026321296 MDV=  4026531840.
 Box volume =10382.956 fraction occupied=0.142
 Integrated density= 9.0867284727591866D+01 error=-1.5132715272408134D+01
 Molar volume = 1476.475 bohr**3/mol (131.759 cm**3/mol)
 Recommended a0 for SCRF calculation =  4.61 angstrom (  8.72 bohr)
 Calling FoFJK, ICntrl=      2127 FMM=F ISym2X=0 I1Cent= 0 IOpClX= 0 NMat=1 NMatS=1 NMatT=0.
 ***** Axes restored to original set *****
 -------------------------------------------------------------------
 Center     Atomic                   Forces (Hartrees/Bohr)
 Number     Number              X              Y              Z
 -------------------------------------------------------------------
      1        6           0.002061715    0.010613824   -0.003379001
      2        6           0.004586220    0.010251484    0.016655822
      3        6          -0.001118851   -0.010772026    0.014579598
      4        6           0.006743326    0.045733696   -0.040437220
      5        6           0.000953791    0.008944141   -0.007220678
      6        6          -0.001817740    0.005682941   -0.021292653
      7        1          -0.002864500   -0.006683707   -0.009559258
      8        1           0.003084973    0.008654481    0.007485053
      9        1           0.001067419   -0.002151051    0.011413051
     10        8          -0.002403156   -0.003175582   -0.026195885
     11        6          -0.003430880   -0.060571027    0.032765881
     12        6           0.004284232    0.021313133   -0.004966529
     13        6          -0.005287716   -0.014483827    0.014759998
     14        6           0.002274966    0.011153746    0.009154430
     15        6          -0.008296286   -0.015005335   -0.001195849
     16        1           0.003876028    0.006362083    0.009000849
     17        6          -0.000905185   -0.003288383    0.006754265
     18        1          -0.002643997   -0.006580387   -0.008624283
     19        1           0.003806559    0.010067175   -0.000304364
     20        1          -0.002357094   -0.021605781    0.012625962
     21        1           0.000771299    0.017965858   -0.017185643
     22        1          -0.002308145   -0.011553332    0.002476590
     23       17          -0.000076977   -0.000872123    0.002689863
 -------------------------------------------------------------------
 Cartesian Forces:  Max     0.060571027 RMS     0.014462576

 GradGradGradGradGradGradGradGradGradGradGradGradGradGradGradGradGradGrad
 Berny optimization.
 FormGI is forming the generalized inverse of G from B-inverse, IUseBI=4.
 Internal  Forces:  Max     0.165963067 RMS     0.025835437
 Search for a local minimum.
 Step number   1 out of a maximum of  123
 All quantities printed in internal units (Hartrees-Bohrs-Radians)
 Mixed Optimization -- RFO/linear search
 Second derivative matrix not updated -- first step.
 ITU=  0
     Eigenvalues ---    0.00230   0.00230   0.01736   0.01786   0.02070
     Eigenvalues ---    0.02070   0.02070   0.02070   0.02070   0.02070
     Eigenvalues ---    0.02070   0.02070   0.02070   0.02070   0.02070
     Eigenvalues ---    0.02070   0.02070   0.02070   0.02070   0.02070
     Eigenvalues ---    0.16000   0.16000   0.16000   0.16000   0.16000
     Eigenvalues ---    0.16000   0.16000   0.16000   0.16000   0.18708
     Eigenvalues ---    0.22000   0.22000   0.22000   0.22966   0.23485
     Eigenvalues ---    0.23969   0.24759   0.25000   0.25000   0.25000
     Eigenvalues ---    0.27457   0.29539   0.37230   0.37230   0.37230
     Eigenvalues ---    0.37230   0.37230   0.37230   0.37230   0.37230
     Eigenvalues ---    0.37230   0.41268   0.41268   0.41459   0.41631
     Eigenvalues ---    0.45389   0.45389   0.45389   0.45389   0.45389
     Eigenvalues ---    0.45389   0.45389   0.45389
 RFO step:  Lambda=-1.77667424D-01 EMin= 2.30000000D-03
 Linear search not attempted -- first point.
 Maximum step size (   0.300) exceeded in Quadratic search.
    -- Step size scaled by   0.466
 Iteration  1 RMS(Cart)=  0.24355755 RMS(Int)=  0.01396067
 Iteration  2 RMS(Cart)=  0.12945848 RMS(Int)=  0.00288903
 Iteration  3 RMS(Cart)=  0.00629800 RMS(Int)=  0.00014985
 Iteration  4 RMS(Cart)=  0.00000335 RMS(Int)=  0.00014985
 Iteration  5 RMS(Cart)=  0.00000000 RMS(Int)=  0.00014985
 Variable       Old X    -DE/DX   Delta X   Delta X   Delta X     New X
                                 (Linear)    (Quad)   (Total)
    R1        2.64826  -0.00981   0.00000  -0.00727  -0.00728   2.64098
    R2        2.64826  -0.00951   0.00000  -0.00721  -0.00722   2.64105
    R3        2.02201   0.01204   0.00000   0.01021   0.01021   2.03222
    R4        2.64826  -0.00132   0.00000  -0.00082  -0.00082   2.64744
    R5        2.02201   0.01196   0.00000   0.01015   0.01015   2.03215
    R6        2.64826   0.00387   0.00000   0.00305   0.00305   2.65131
    R7        2.02201  -0.01899   0.00000  -0.01611  -0.01611   2.00590
    R8        2.64826  -0.00670   0.00000  -0.00491  -0.00490   2.64336
    R9        2.93342  -0.04053   0.00000  -0.04180  -0.04180   2.89162
   R10        2.64826  -0.00547   0.00000  -0.00420  -0.00420   2.64407
   R11        2.02201   0.01171   0.00000   0.00993   0.00993   2.03194
   R12        2.02201   0.01151   0.00000   0.00976   0.00976   2.03177
   R13        3.18558  -0.05369   0.00000  -0.06865  -0.06865   3.11693
   R14        2.64826  -0.00291   0.00000  -0.00207  -0.00207   2.64619
   R15        2.64826  -0.01181   0.00000  -0.00877  -0.00877   2.63949
   R16        2.64826  -0.00356   0.00000  -0.00250  -0.00250   2.64576
   R17        2.02201  -0.01931   0.00000  -0.01637  -0.01637   2.00563
   R18        2.64826  -0.00668   0.00000  -0.00507  -0.00507   2.64320
   R19        2.02201   0.01161   0.00000   0.00984   0.00984   2.03185
   R20        2.64826  -0.01118   0.00000  -0.00821  -0.00821   2.64005
   R21        2.02201   0.01116   0.00000   0.00947   0.00947   2.03147
   R22        2.64826  -0.01138   0.00000  -0.00849  -0.00848   2.63978
   R23        2.02201   0.01069   0.00000   0.00907   0.00907   2.03107
   R24        3.32592  -0.00281   0.00000  -0.00277  -0.00277   3.32315
    A1        2.09440  -0.00704   0.00000  -0.00881  -0.00882   2.08557
    A2        2.09440   0.00359   0.00000   0.00450   0.00451   2.09890
    A3        2.09440   0.00345   0.00000   0.00431   0.00431   2.09871
    A4        2.09440   0.00570   0.00000   0.00670   0.00669   2.10109
    A5        2.09440  -0.00177   0.00000  -0.00187  -0.00186   2.09253
    A6        2.09440  -0.00392   0.00000  -0.00484  -0.00483   2.08957
    A7        2.09440   0.00262   0.00000   0.00346   0.00346   2.09785
    A8        2.09440  -0.01793   0.00000  -0.02469  -0.02469   2.06971
    A9        2.09440   0.01531   0.00000   0.02123   0.02123   2.11562
   A10        2.09440  -0.01364   0.00000  -0.01471  -0.01470   2.07970
   A11        2.09440   0.10290   0.00000   0.11213   0.11212   2.20652
   A12        2.09440  -0.08926   0.00000  -0.09742  -0.09743   1.99697
   A13        2.09440   0.00892   0.00000   0.01007   0.01009   2.10448
   A14        2.09440  -0.00628   0.00000  -0.00754  -0.00755   2.08684
   A15        2.09440  -0.00265   0.00000  -0.00253  -0.00254   2.09186
   A16        2.09440   0.00344   0.00000   0.00328   0.00329   2.09768
   A17        2.09440   0.00016   0.00000   0.00096   0.00096   2.09535
   A18        2.09440  -0.00360   0.00000  -0.00424  -0.00424   2.09015
   A19        2.23319   0.16596   0.00000   0.18099   0.18099   2.41418
   A20        2.01758   0.10494   0.00000   0.11540   0.11548   2.13306
   A21        2.16295  -0.09640   0.00000  -0.10540  -0.10552   2.05744
   A22        2.09440  -0.00793   0.00000  -0.00839  -0.00838   2.08602
   A23        2.09440   0.00216   0.00000   0.00268   0.00267   2.09707
   A24        2.09440   0.01355   0.00000   0.01887   0.01886   2.11326
   A25        2.09440  -0.01571   0.00000  -0.02155  -0.02155   2.07284
   A26        2.09440   0.00655   0.00000   0.00719   0.00720   2.10159
   A27        2.09440  -0.00311   0.00000  -0.00336  -0.00337   2.09103
   A28        2.09440  -0.00344   0.00000  -0.00383  -0.00383   2.09057
   A29        2.09440   0.00075   0.00000   0.00098   0.00097   2.09537
   A30        2.09440  -0.00057   0.00000  -0.00076  -0.00076   2.09363
   A31        2.09440  -0.00018   0.00000  -0.00021  -0.00021   2.09418
   A32        2.09440  -0.00030   0.00000  -0.00089  -0.00089   2.09350
   A33        2.09440  -0.00114   0.00000  -0.00134  -0.00134   2.09306
   A34        2.09440   0.00144   0.00000   0.00223   0.00223   2.09662
   A35        2.09440  -0.00124   0.00000  -0.00158  -0.00158   2.09281
   A36        2.09440   0.00096   0.00000   0.00117   0.00117   2.09556
   A37        2.09440   0.00027   0.00000   0.00041   0.00041   2.09481
    D1        0.00000  -0.00005   0.00000  -0.00013  -0.00013  -0.00013
    D2       -3.14159  -0.00009   0.00000  -0.00021  -0.00021   3.14139
    D3       -3.14159  -0.00001   0.00000  -0.00002  -0.00002   3.14157
    D4        0.00000  -0.00005   0.00000  -0.00011  -0.00010  -0.00010
    D5        0.00000   0.00000   0.00000  -0.00001  -0.00001  -0.00001
    D6        3.14159   0.00004   0.00000   0.00010   0.00010  -3.14150
    D7        3.14159  -0.00005   0.00000  -0.00012  -0.00012   3.14148
    D8        0.00000   0.00000   0.00000  -0.00001   0.00000  -0.00001
    D9        0.00000   0.00002   0.00000   0.00006   0.00006   0.00006
   D10       -3.14159  -0.00031   0.00000  -0.00073  -0.00071   3.14088
   D11        3.14159   0.00006   0.00000   0.00014   0.00014  -3.14146
   D12        0.00000  -0.00027   0.00000  -0.00064  -0.00063  -0.00063
   D13        0.00000   0.00006   0.00000   0.00015   0.00015   0.00014
   D14        3.14159   0.00017   0.00000   0.00041   0.00042  -3.14117
   D15        3.14159   0.00040   0.00000   0.00093   0.00094  -3.14066
   D16        0.00000   0.00051   0.00000   0.00119   0.00121   0.00121
   D17        0.00000  -0.00012   0.00000  -0.00029  -0.00029  -0.00028
   D18       -3.14159  -0.00004   0.00000  -0.00009  -0.00010   3.14150
   D19       -3.14159  -0.00023   0.00000  -0.00055  -0.00053   3.14107
   D20        0.00000  -0.00015   0.00000  -0.00035  -0.00034  -0.00034
   D21       -0.09171   0.00105   0.00000   0.00272   0.00272  -0.08899
   D22        3.04988   0.00116   0.00000   0.00298   0.00299   3.05287
   D23        0.00000   0.00009   0.00000   0.00022   0.00022   0.00022
   D24       -3.14159   0.00005   0.00000   0.00011   0.00011  -3.14148
   D25       -3.14159   0.00001   0.00000   0.00002   0.00003  -3.14156
   D26        0.00000  -0.00004   0.00000  -0.00009  -0.00008  -0.00008
   D27        0.07603   0.01108   0.00000   0.02836   0.02804   0.10407
   D28       -2.92738   0.00532   0.00000   0.01413   0.01445  -2.91293
   D29       -3.00924   0.00354   0.00000  -0.00122  -0.00208  -3.01132
   D30        0.13235   0.00544   0.00000   0.00488   0.00423   0.13658
   D31        0.00000   0.00103   0.00000   0.00360   0.00371   0.00371
   D32       -3.14159   0.00294   0.00000   0.00970   0.01002  -3.13157
   D33        2.99766   0.01137   0.00000   0.01796   0.01727   3.01493
   D34       -0.14393   0.01037   0.00000   0.01730   0.01675  -0.12718
   D35        0.00000  -0.00258   0.00000  -0.00558  -0.00554  -0.00554
   D36        3.14159  -0.00359   0.00000  -0.00623  -0.00606   3.13553
   D37        0.00000   0.00115   0.00000   0.00091   0.00073   0.00073
   D38        3.14159   0.00045   0.00000   0.00096   0.00093  -3.14067
   D39        3.14159  -0.00075   0.00000  -0.00519  -0.00543   3.13616
   D40        0.00000  -0.00146   0.00000  -0.00514  -0.00523  -0.00524
   D41        0.00000   0.00194   0.00000   0.00304   0.00292   0.00292
   D42        3.14159   0.00051   0.00000   0.00129   0.00131  -3.14028
   D43        3.14159   0.00295   0.00000   0.00370   0.00344  -3.13815
   D44        0.00000   0.00152   0.00000   0.00195   0.00183   0.00183
   D45        0.00000  -0.00179   0.00000  -0.00345  -0.00338  -0.00338
   D46       -3.14159  -0.00079   0.00000  -0.00100  -0.00091   3.14068
   D47       -3.14159  -0.00109   0.00000  -0.00350  -0.00357   3.13802
   D48        0.00000  -0.00008   0.00000  -0.00105  -0.00111  -0.00111
   D49        0.00000   0.00024   0.00000   0.00148   0.00156   0.00156
   D50       -3.14159  -0.00076   0.00000  -0.00098  -0.00090   3.14069
   D51       -3.14159   0.00168   0.00000   0.00322   0.00318  -3.13841
   D52        0.00000   0.00067   0.00000   0.00077   0.00072   0.00072
         Item               Value     Threshold  Converged?
 Maximum Force            0.165963     0.000450     NO 
 RMS     Force            0.025835     0.000300     NO 
 Maximum Displacement     1.171556     0.001800     NO 
 RMS     Displacement     0.366579     0.001200     NO 
 Predicted change in Energy=-7.169895D-02
 GradGradGradGradGradGradGradGradGradGradGradGradGradGradGradGradGradGrad

                          Input orientation:                          
 ---------------------------------------------------------------------
 Center     Atomic      Atomic             Coordinates (Angstroms)
 Number     Number       Type             X           Y           Z
 ---------------------------------------------------------------------
      1          6           0       -4.736484   -0.275424   -0.050189
      2          6           0       -4.876264   -0.068064   -1.425180
      3          6           0       -4.642829    1.197780   -1.978218
      4          6           0       -4.266119    2.269227   -1.154483
      5          6           0       -4.127581    2.055508    0.220939
      6          6           0       -4.361224    0.790740    0.771825
      7          1           0       -5.164542   -0.883944   -2.063658
      8          1           0       -3.839075    2.871994    0.858350
      9          1           0       -4.250958    0.641297    1.830830
     10          8           0       -3.977692    3.703159   -1.604038
     11          6           0       -3.864235    4.553263   -3.012941
     12          6           0       -4.175998    3.985624   -4.254489
     13          6           0       -3.298182    5.829174   -2.962211
     14          6           0       -3.917275    4.691699   -5.435478
     15          6           0       -3.036945    6.535269   -4.141024
     16          1           0       -3.062138    6.271730   -2.011158
     17          6           0       -3.346016    5.965343   -5.378368
     18          1           0       -4.158663    4.253256   -6.386869
     19          1           0       -2.600078    7.516094   -4.092880
     20          1           0       -4.756690    1.323062   -3.026108
     21          1           0       -4.615027    3.021675   -4.321498
     22          1           0       -4.916191   -1.247937    0.372202
     23         17           0       -3.019660    6.851890   -6.861598
 ---------------------------------------------------------------------
                    Distance matrix (angstroms):
                    1          2          3          4          5
     1  C    0.000000
     2  C    1.397547   0.000000
     3  C    2.428251   1.400966   0.000000
     4  C    2.813531   2.430737   1.403014   0.000000
     5  C    2.424360   2.789228   2.416086   1.398804   0.000000
     6  C    1.397581   2.414465   2.794230   2.430150   1.399179
     7  H    2.146529   1.075369   2.147803   3.402389   3.864589
     8  H    3.396620   3.864480   3.390447   2.144106   1.075257
     9  H    2.148103   3.390546   3.869378   3.400364   2.146384
    10  O    4.338126   3.880921   2.619034   1.530180   2.463283
    11  C    5.731923   4.990175   3.596682   2.971901   4.094644
    12  C    6.012222   4.992770   3.629244   3.544599   4.874130
    13  C    6.914818   6.295254   4.922004   4.108285   5.006086
    14  C    7.371890   6.297420   4.968556   4.931225   6.244100
    15  C    8.124586   7.373120   5.978744   5.350646   6.347004
    16  H    7.036623   6.620228   5.314569   4.266556   4.888144
    17  C    8.322864   7.373693   5.997699   5.687624   6.873855
    18  H    7.810015   6.618694   5.385773   5.596944   6.963777
    19  H    9.034121   8.355662   6.968910   6.240151   7.124626
    20  H    3.378115   2.124264   1.061476   2.153803   3.387561
    21  H    5.397193   4.243040   2.969566   3.273820   4.669562
    22  H    1.075403   2.150413   3.403048   3.888934   3.399638
    23  Cl  10.007067   8.993741   7.645327   7.424663   8.625259
                    6          7          8          9         10
     6  C    0.000000
     7  H    3.389668   0.000000
     8  H    2.147497   4.939844   0.000000
     9  H    1.075167   4.281125   2.468070   0.000000
    10  O    3.778095   4.760396   2.602577   4.609554   0.000000
    11  C    5.359853   5.670551   4.220687   6.238201   1.649411
    12  C    5.958643   5.430437   5.243550   6.944152   2.672826
    13  C    6.360730   7.025428   4.861498   7.127067   2.612720
    14  C    7.344738   6.634202   6.552077   8.325643   3.957372
    15  C    7.673943   7.992924   6.249539   8.477958   3.916905
    16  H    6.282823   7.458320   4.516184   6.919244   2.757090
    17  C    8.101360   7.823495   6.979152   9.007603   4.445453
    18  H    7.954681   6.789165   7.382630   8.976934   4.817761
    19  H    8.485126   9.014147   6.900540   9.223805   4.757166
    20  H    3.855393   2.442033   4.281381   4.930559   2.879927
    21  H    5.566275   4.544630   5.239783   6.606805   2.873187
    22  H    2.150324   2.475395   4.286065   2.477769   5.412916
    23  Cl   9.839028   9.352212   8.724025  10.753876   6.202763
                   11         12         13         14         15
    11  C    0.000000
    12  C    1.400304   0.000000
    13  C    1.396760   2.416448   0.000000
    14  C    2.427069   1.400077   2.791805   0.000000
    15  C    2.425969   2.794817   1.398719   2.418541   0.000000
    16  H    2.144775   3.391092   1.075209   3.867005   2.146257
    17  C    2.803170   2.423069   2.420464   1.397057   1.396910
    18  H    3.400012   2.149179   3.866811   1.075010   3.392588
    19  H    3.397459   3.869607   2.147431   3.393343   1.074797
    20  H    3.351246   2.989207   4.736705   4.225802   5.600684
    21  H    2.149830   1.061336   3.385822   2.125275   3.855938
    22  H    6.798509   7.024551   7.988853   8.366975   9.191250
    23  Cl   4.561705   4.043466   4.040884   2.739700   2.738990
                   16         17         18         19         20
    16  H    0.000000
    17  C    3.393017   0.000000
    18  H    4.942009   2.146791   0.000000
    19  H    2.468908   2.147959   4.282252   0.000000
    20  H    5.328316   5.392022   4.498710   6.643991   0.000000
    21  H    4.279252   3.375285   2.447615   4.930729   2.140885
    22  H    8.103291   9.357666   8.747686  10.104928   4.264269
    23  Cl   4.885198   1.758535   2.876733   2.878022   6.949546
                   21         22         23
    21  H    0.000000
    22  H    6.352252   0.000000
    23  Cl   4.864962  11.024150   0.000000
 Stoichiometry    C12H9ClO
 Framework group  C1[X(C12H9ClO)]
 Deg. of freedom    63
 Full point group                 C1      NOp   1
 Largest Abelian subgroup         C1      NOp   1
 Largest concise Abelian subgroup C1      NOp   1
                         Standard orientation:                         
 ---------------------------------------------------------------------
 Center     Atomic      Atomic             Coordinates (Angstroms)
 Number     Number       Type             X           Y           Z
 ---------------------------------------------------------------------
      1          6           0        5.012593   -0.676145   -0.163871
      2          6           0        3.937070   -1.562844   -0.063102
      3          6           0        2.627234   -1.078309    0.047624
      4          6           0        2.384487    0.303506    0.058164
      5          6           0        3.464972    1.186069   -0.043256
      6          6           0        4.772596    0.700637   -0.153613
      7          1           0        4.114371   -2.623470   -0.070533
      8          1           0        3.286469    2.246380   -0.035937
      9          1           0        5.593322    1.390889   -0.230706
     10          8           0        1.019401    0.985320    0.172711
     11          6           0       -0.572392    0.555549    0.217983
     12          6           0       -0.983391   -0.782263    0.264763
     13          6           0       -1.525915    1.563170    0.055404
     14          6           0       -2.340296   -1.105720    0.144759
     15          6           0       -2.881742    1.241917   -0.066845
     16          1           0       -1.216042    2.592295    0.024479
     17          6           0       -3.288670   -0.093690   -0.023017
     18          1           0       -2.652400   -2.133753    0.181962
     19          1           0       -3.608685    2.023495   -0.192852
     20          1           0        1.831754   -1.777192    0.121820
     21          1           0       -0.281002   -1.566948    0.396496
     22          1           0        6.017236   -1.050281   -0.248759
     23         17           0       -4.992912   -0.499720   -0.175154
 ---------------------------------------------------------------------
 Rotational constants (GHZ):           2.3938134           0.2099592           0.1936801
 Standard basis: 6-31+G(d) (6D, 7F)
 There are   288 symmetry adapted cartesian basis functions of A   symmetry.
 There are   288 symmetry adapted basis functions of A   symmetry.
   288 basis functions,   508 primitive gaussians,   288 cartesian basis functions
    53 alpha electrons       53 beta electrons
       nuclear repulsion energy       827.1941595943 Hartrees.
 NAtoms=   23 NActive=   23 NUniq=   23 SFac= 1.00D+00 NAtFMM=   60 NAOKFM=F Big=F
 Integral buffers will be    131072 words long.
 Raffenetti 2 integral format.
 Two-electron integral symmetry is turned on.
 Nuclear repulsion after empirical dispersion term =      827.1771552846 Hartrees.
 One-electron integrals computed using PRISM.
 NBasis=   288 RedAO= T EigKep=  1.81D-06  NBF=   288
 NBsUse=   287 1.00D-06 EigRej=  8.33D-07 NBFU=   287
 Initial guess from the checkpoint file:  "molecule_96.chk"
 B after Tr=     0.000000    0.000000    0.000000
         Rot=    0.999512   -0.030801    0.000357   -0.005155 Ang=  -3.58 deg.
 ExpMin= 4.38D-02 ExpMax= 2.52D+04 ExpMxC= 3.78D+03 IAcc=3 IRadAn=         5 AccDes= 0.00D+00
 Harris functional with IExCor=  402 and IRadAn=       5 diagonalized for initial guess.
 HarFok:  IExCor=  402 AccDes= 0.00D+00 IRadAn=         5 IDoV= 1 UseB2=F ITyADJ=14
 ICtDFT=  3500011 ScaDFX=  1.000000  1.000000  1.000000  1.000000
 FoFCou: FMM=F IPFlag=           0 FMFlag=      100000 FMFlg1=           0
         NFxFlg=           0 DoJE=T BraDBF=F KetDBF=T FulRan=T
         wScrn=  0.000000 ICntrl=       500 IOpCl=  0 I1Cent=   200000004 NGrid=           0
         NMat0=    1 NMatS0=      1 NMatT0=    0 NMatD0=    1 NMtDS0=    0 NMtDT0=    0
 Petite list used in FoFCou.
 Requested convergence on RMS density matrix=1.00D-08 within 128 cycles.
 Requested convergence on MAX density matrix=1.00D-06.
 Requested convergence on             energy=1.00D-06.
 No special actions if energy rises.
 SCF Done:  E(RB3LYP) =  -998.082036160     A.U. after   16 cycles
            NFock= 16  Conv=0.56D-08     -V/T= 2.0072
 Calling FoFJK, ICntrl=      2127 FMM=F ISym2X=0 I1Cent= 0 IOpClX= 0 NMat=1 NMatS=1 NMatT=0.
 ***** Axes restored to original set *****
 -------------------------------------------------------------------
 Center     Atomic                   Forces (Hartrees/Bohr)
 Number     Number              X              Y              Z
 -------------------------------------------------------------------
      1        6           0.000785572    0.005207762   -0.003747546
      2        6           0.003493982    0.008784804    0.009655796
      3        6           0.002873794    0.006472814    0.009284262
      4        6           0.006043802    0.038668378   -0.034222536
      5        6           0.001136265    0.006313713   -0.002191441
      6        6          -0.001518693    0.002301841   -0.013790849
      7        1          -0.002074600   -0.005099251   -0.005925068
      8        1           0.002161087    0.006931223    0.002928826
      9        1           0.001209566    0.000370943    0.007959347
     10        8          -0.001585724    0.005536292   -0.022719765
     11        6          -0.002269610   -0.056283617    0.031909143
     12        6           0.004307615    0.010213828    0.009396717
     13        6          -0.003708780   -0.009890687    0.012812404
     14        6           0.000897722    0.005692005    0.006617963
     15        6          -0.006145208   -0.007974607   -0.001590023
     16        1           0.002786038    0.001974380    0.006922927
     17        6          -0.000883346   -0.002910186    0.003394849
     18        1          -0.001893585   -0.003464247   -0.006167621
     19        1           0.002845130    0.006555998    0.001226440
     20        1          -0.001185565    0.003880600   -0.016363707
     21        1          -0.005810966   -0.014981647   -0.000064300
     22        1          -0.001351385   -0.007219431    0.003030395
     23       17          -0.000113113   -0.001080908    0.001643787
 -------------------------------------------------------------------
 Cartesian Forces:  Max     0.056283617 RMS     0.011858765

 GradGradGradGradGradGradGradGradGradGradGradGradGradGradGradGradGradGrad
 Berny optimization.
 Using GEDIIS/GDIIS optimizer.
 FormGI is forming the generalized inverse of G from B-inverse, IUseBI=4.
 Internal  Forces:  Max     0.094336686 RMS     0.013768928
 Search for a local minimum.
 Step number   2 out of a maximum of  123
 All quantities printed in internal units (Hartrees-Bohrs-Radians)
 Mixed Optimization -- RFO/linear search
 Update second derivatives using D2CorX and points    1    2
 DE= -2.77D-02 DEPred=-7.17D-02 R= 3.86D-01
 Trust test= 3.86D-01 RLast= 3.03D-01 DXMaxT set to 3.00D-01
 ITU=  0  0
 Use linear search instead of GDIIS.
     Eigenvalues ---    0.00230   0.00232   0.01728   0.01777   0.02070
     Eigenvalues ---    0.02070   0.02070   0.02070   0.02070   0.02070
     Eigenvalues ---    0.02070   0.02070   0.02070   0.02070   0.02070
     Eigenvalues ---    0.02070   0.02070   0.02070   0.02070   0.02073
     Eigenvalues ---    0.15152   0.16000   0.16000   0.16000   0.16000
     Eigenvalues ---    0.16000   0.16000   0.16000   0.16021   0.16114
     Eigenvalues ---    0.21990   0.22000   0.22002   0.22861   0.23245
     Eigenvalues ---    0.23718   0.24247   0.24936   0.25000   0.26370
     Eigenvalues ---    0.29538   0.36791   0.37022   0.37230   0.37230
     Eigenvalues ---    0.37230   0.37230   0.37230   0.37230   0.37230
     Eigenvalues ---    0.41197   0.41227   0.41338   0.41591   0.45229
     Eigenvalues ---    0.45378   0.45389   0.45389   0.45389   0.45389
     Eigenvalues ---    0.45389   0.45389   1.23782
 RFO step:  Lambda=-1.36685909D-01 EMin= 2.29997890D-03
 Quartic linear search produced a step of  0.58582.
 Maximum step size (   0.300) exceeded in Quadratic search.
    -- Step size scaled by   0.467
 Iteration  1 RMS(Cart)=  0.23398838 RMS(Int)=  0.01390255
 Iteration  2 RMS(Cart)=  0.04915579 RMS(Int)=  0.00058666
 Iteration  3 RMS(Cart)=  0.00052764 RMS(Int)=  0.00054645
 Iteration  4 RMS(Cart)=  0.00000020 RMS(Int)=  0.00054645
 Variable       Old X    -DE/DX   Delta X   Delta X   Delta X     New X
                                 (Linear)    (Quad)   (Total)
    R1        2.64098   0.00058  -0.00427  -0.00075  -0.00502   2.63596
    R2        2.64105   0.00255  -0.00423   0.00148  -0.00276   2.63829
    R3        2.03222   0.00794   0.00598   0.01325   0.01923   2.05145
    R4        2.64744  -0.00196  -0.00048  -0.00238  -0.00286   2.64458
    R5        2.03215   0.00794   0.00594   0.01323   0.01917   2.05133
    R6        2.65131  -0.01003   0.00179  -0.01093  -0.00913   2.64218
    R7        2.00590   0.01674  -0.00944   0.01767   0.00823   2.01413
    R8        2.64336  -0.00818  -0.00287  -0.01067  -0.01354   2.62982
    R9        2.89162  -0.07735  -0.02449  -0.14065  -0.16514   2.72648
   R10        2.64407  -0.00317  -0.00246  -0.00459  -0.00705   2.63702
   R11        2.03194   0.00758   0.00582   0.01269   0.01851   2.05045
   R12        2.03177   0.00791   0.00572   0.01309   0.01881   2.05058
   R13        3.11693  -0.09434  -0.04021  -0.22641  -0.26663   2.85031
   R14        2.64619  -0.01065  -0.00121  -0.01295  -0.01410   2.63209
   R15        2.63949  -0.01306  -0.00514  -0.01728  -0.02237   2.61713
   R16        2.64576  -0.00332  -0.00146  -0.00427  -0.00573   2.64003
   R17        2.00563   0.01601  -0.00959   0.01664   0.00705   2.01269
   R18        2.64320  -0.00360  -0.00297  -0.00532  -0.00829   2.63491
   R19        2.03185   0.00755   0.00577   0.01263   0.01840   2.05025
   R20        2.64005  -0.00032  -0.00481  -0.00181  -0.00668   2.63338
   R21        2.03147   0.00730   0.00555   0.01219   0.01774   2.04921
   R22        2.63978   0.00095  -0.00497  -0.00050  -0.00553   2.63425
   R23        2.03107   0.00719   0.00531   0.01195   0.01726   2.04833
   R24        3.32315  -0.00195  -0.00162  -0.00394  -0.00556   3.31759
    A1        2.08557  -0.00048  -0.00517  -0.00339  -0.00857   2.07700
    A2        2.09890   0.00014   0.00264   0.00152   0.00417   2.10307
    A3        2.09871   0.00034   0.00253   0.00187   0.00441   2.10311
    A4        2.10109   0.00030   0.00392   0.00403   0.00794   2.10903
    A5        2.09253   0.00140  -0.00109   0.00222   0.00114   2.09367
    A6        2.08957  -0.00170  -0.00283  -0.00625  -0.00908   2.08049
    A7        2.09785  -0.00723   0.00202  -0.01226  -0.01023   2.08762
    A8        2.06971   0.00562  -0.01446  -0.00072  -0.01518   2.05453
    A9        2.11562   0.00160   0.01244   0.01298   0.02541   2.14104
   A10        2.07970   0.01468  -0.00861   0.01948   0.01088   2.09058
   A11        2.20652  -0.00514   0.06568   0.03299   0.09867   2.30519
   A12        1.99697  -0.00954  -0.05707  -0.05247  -0.10955   1.88742
   A13        2.10448  -0.00818   0.00591  -0.01151  -0.00560   2.09889
   A14        2.08684   0.00210  -0.00442   0.00001  -0.00442   2.08243
   A15        2.09186   0.00608  -0.00149   0.01150   0.01001   2.10187
   A16        2.09768   0.00091   0.00192   0.00366   0.00558   2.10326
   A17        2.09535   0.00110   0.00056   0.00298   0.00355   2.09890
   A18        2.09015  -0.00201  -0.00249  -0.00664  -0.00912   2.08103
   A19        2.41418  -0.05825   0.10603  -0.03382   0.07221   2.48639
   A20        2.13306   0.00411   0.06765   0.05144   0.11909   2.25215
   A21        2.05744  -0.02207  -0.06182  -0.07691  -0.13925   1.91819
   A22        2.08602   0.01830  -0.00491   0.02842   0.02344   2.10946
   A23        2.09707  -0.00816   0.00156  -0.01441  -0.01277   2.08430
   A24        2.11326   0.00309   0.01105   0.01498   0.02596   2.13922
   A25        2.07284   0.00507  -0.01263  -0.00062  -0.01334   2.05951
   A26        2.10159  -0.00940   0.00422  -0.01524  -0.01094   2.09065
   A27        2.09103   0.00404  -0.00197   0.00623   0.00422   2.09525
   A28        2.09057   0.00537  -0.00224   0.00900   0.00672   2.09729
   A29        2.09537  -0.00316   0.00057  -0.00432  -0.00376   2.09161
   A30        2.09363   0.00095  -0.00045   0.00060   0.00016   2.09379
   A31        2.09418   0.00221  -0.00012   0.00372   0.00360   2.09779
   A32        2.09350  -0.00157  -0.00052  -0.00242  -0.00297   2.09054
   A33        2.09306  -0.00013  -0.00078  -0.00174  -0.00252   2.09054
   A34        2.09662   0.00170   0.00130   0.00416   0.00548   2.10210
   A35        2.09281   0.00399  -0.00093   0.00794   0.00694   2.09975
   A36        2.09556  -0.00197   0.00068  -0.00379  -0.00307   2.09250
   A37        2.09481  -0.00202   0.00024  -0.00416  -0.00388   2.09092
    D1       -0.00013  -0.00002  -0.00007  -0.00019  -0.00026  -0.00039
    D2        3.14139   0.00000  -0.00012  -0.00021  -0.00032   3.14107
    D3        3.14157  -0.00001  -0.00001  -0.00008  -0.00010   3.14147
    D4       -0.00010   0.00000  -0.00006  -0.00010  -0.00016  -0.00026
    D5       -0.00001  -0.00002  -0.00001  -0.00010  -0.00011  -0.00013
    D6       -3.14150   0.00001   0.00006   0.00015   0.00021  -3.14128
    D7        3.14148  -0.00002  -0.00007  -0.00020  -0.00028   3.14120
    D8       -0.00001   0.00001   0.00000   0.00004   0.00005   0.00004
    D9        0.00006   0.00002   0.00003   0.00016   0.00020   0.00026
   D10        3.14088  -0.00001  -0.00042  -0.00073  -0.00111   3.13978
   D11       -3.14146   0.00001   0.00008   0.00018   0.00026  -3.14120
   D12       -0.00063  -0.00002  -0.00037  -0.00071  -0.00105  -0.00168
   D13        0.00014   0.00000   0.00009   0.00015   0.00024   0.00038
   D14       -3.14117   0.00009   0.00025   0.00082   0.00111  -3.14007
   D15       -3.14066   0.00004   0.00055   0.00107   0.00163  -3.13902
   D16        0.00121   0.00013   0.00071   0.00174   0.00250   0.00371
   D17       -0.00028  -0.00004  -0.00017  -0.00044  -0.00061  -0.00090
   D18        3.14150  -0.00001  -0.00006  -0.00012  -0.00020   3.14130
   D19        3.14107  -0.00012  -0.00031  -0.00102  -0.00126   3.13981
   D20       -0.00034  -0.00009  -0.00020  -0.00070  -0.00085  -0.00119
   D21       -0.08899   0.00039   0.00160   0.00494   0.00653  -0.08246
   D22        3.05287   0.00048   0.00175   0.00557   0.00731   3.06018
   D23        0.00022   0.00005   0.00013   0.00041   0.00055   0.00077
   D24       -3.14148   0.00001   0.00006   0.00017   0.00023  -3.14125
   D25       -3.14156   0.00002   0.00002   0.00010   0.00013  -3.14143
   D26       -0.00008  -0.00002  -0.00005  -0.00015  -0.00019  -0.00027
   D27        0.10407   0.00188   0.01643   0.03634   0.05195   0.15602
   D28       -2.91293  -0.00255   0.00847   0.00732   0.01660  -2.89633
   D29       -3.01132  -0.00208  -0.00122  -0.01893  -0.02307  -3.03439
   D30        0.13658  -0.00171   0.00248  -0.00997  -0.00965   0.12693
   D31        0.00371  -0.00038   0.00217   0.00333   0.00571   0.00943
   D32       -3.13157  -0.00001   0.00587   0.01229   0.01913  -3.11244
   D33        3.01493   0.00373   0.01012   0.02633   0.03360   3.04853
   D34       -0.12718   0.00322   0.00981   0.02509   0.03254  -0.09464
   D35       -0.00554   0.00037  -0.00325  -0.00386  -0.00679  -0.01233
   D36        3.13553  -0.00014  -0.00355  -0.00510  -0.00785   3.12768
   D37        0.00073   0.00034   0.00043   0.00049   0.00043   0.00116
   D38       -3.14067   0.00016   0.00054   0.00133   0.00186  -3.13881
   D39        3.13616  -0.00003  -0.00318  -0.00820  -0.01224   3.12393
   D40       -0.00524  -0.00021  -0.00307  -0.00736  -0.01081  -0.01604
   D41        0.00292  -0.00031   0.00171   0.00056   0.00169   0.00461
   D42       -3.14028  -0.00022   0.00077   0.00059   0.00131  -3.13897
   D43       -3.13815   0.00019   0.00202   0.00179   0.00275  -3.13540
   D44        0.00183   0.00029   0.00107   0.00182   0.00238   0.00420
   D45       -0.00338  -0.00022  -0.00198  -0.00373  -0.00539  -0.00877
   D46        3.14068  -0.00027  -0.00054  -0.00133  -0.00161   3.13907
   D47        3.13802  -0.00004  -0.00209  -0.00456  -0.00682   3.13120
   D48       -0.00111  -0.00009  -0.00065  -0.00217  -0.00305  -0.00415
   D49        0.00156   0.00020   0.00091   0.00319   0.00433   0.00589
   D50        3.14069   0.00025  -0.00053   0.00080   0.00056   3.14125
   D51       -3.13841   0.00010   0.00186   0.00316   0.00472  -3.13370
   D52        0.00072   0.00016   0.00042   0.00077   0.00094   0.00166
         Item               Value     Threshold  Converged?
 Maximum Force            0.094337     0.000450     NO 
 RMS     Force            0.013769     0.000300     NO 
 Maximum Displacement     0.823981     0.001800     NO 
 RMS     Displacement     0.267912     0.001200     NO 
 Predicted change in Energy=-2.216693D-02
 GradGradGradGradGradGradGradGradGradGradGradGradGradGradGradGradGradGrad

                          Input orientation:                          
 ---------------------------------------------------------------------
 Center     Atomic      Atomic             Coordinates (Angstroms)
 Number     Number       Type             X           Y           Z
 ---------------------------------------------------------------------
      1          6           0       -4.684896   -0.152062    0.096613
      2          6           0       -4.864608   -0.148874   -1.286647
      3          6           0       -4.672838    1.019765   -2.032282
      4          6           0       -4.296016    2.199411   -1.383165
      5          6           0       -4.114648    2.201508   -0.003396
      6          6           0       -4.308436    1.032159    0.733049
      7          1           0       -5.156762   -1.061065   -1.797428
      8          1           0       -3.821921    3.121127    0.492540
      9          1           0       -4.162761    1.052687    1.808149
[...]
 ,0.00000305,0.00020104,0.00007051,-0.00003004,0.00000903,-0.00001676,-
 0.00002432,-0.00000284,-0.00000874,0.00000255,-0.00000419,0.00000095,-
 0.00887933,0.00276472,-0.00118612,0.04526968,0.02931599,0.01088255,-0.
 04096057,-0.12872143,0.08627952,-0.01648507,-0.02792031,0.02590893,0.2
 3612701,0.37486510,-0.00038815,0.00018534,0.00042542,0.00034060,0.0005
 2642,-0.00005422,0.00064934,-0.00044045,0.00030489,-0.00086320,-0.0015
 5594,0.00058318,0.00038004,0.00065393,-0.00067858,0.00003067,-0.000717
 27,-0.00002598,0.00007608,0.00001095,0.00001621,-0.00006003,-0.0000044
 1,-0.00002106,0.00000821,0.00000238,0.00001168,0.00118751,0.00224764,0
 .00135127,-0.05237228,-0.01742618,-0.04260427,0.00720055,0.12349831,-0
 .29436820,0.01586407,0.02503031,-0.02645620,0.15369045,-0.13154795,0.6
 3517760,0.00018789,-0.00002546,-0.00021931,-0.00016671,-0.00028720,0.0
 0002283,-0.00014313,0.00028853,0.00019009,-0.00013502,-0.00048915,0.00
 122647,0.00000893,-0.00057098,0.00011091,-0.00013657,0.00029432,0.0001
 0042,-0.00005588,-0.00001614,-0.00001518,0.00001897,0.00001337,0.00002
 776,-0.00002208,-0.00003596,0.00000217,-0.00274878,-0.00665604,-0.0018
 6057,0.02874958,0.00718502,0.02753439,-0.01362222,0.00272479,-0.026144
 40,-0.10487831,-0.04156880,0.00758211,-0.03509530,-0.03512378,0.005704
 57,0.52599364,-0.00007390,0.00002884,0.00006640,0.00012500,0.00015515,
 0.00004412,0.00023543,-0.00001455,-0.00012629,-0.00145865,0.00123928,0
 .00097631,-0.00000417,-0.00036170,-0.00002014,-0.00001073,-0.00006439,
 0.00011099,0.00001442,0.00001874,-0.00000613,-0.00003726,-0.00001968,-
 0.00002664,-0.00000947,-0.00003068,0.00000861,-0.00282961,0.00009914,0
 .00061861,-0.01184659,-0.01699747,0.02083967,0.00225666,-0.00216889,0.
 00446153,-0.01863813,-0.13100569,0.12412553,-0.01760939,0.00006172,-0.
 01494316,0.26683932,0.41563206,0.00037474,-0.00015742,-0.00043348,-0.0
 0040157,-0.00063081,0.00012443,-0.00031429,0.00055393,-0.00032081,0.00
 106084,0.00060540,-0.00079486,-0.00019856,-0.00047540,0.00044832,-0.00
 000692,0.00051442,0.00009450,-0.00008289,-0.00001081,-0.00002168,0.000
 03057,0.00000305,-0.00001285,-0.00000677,-0.00001098,0.00000190,-0.007
 42680,-0.00095994,0.00423309,0.06592348,0.04886601,0.00272447,-0.02387
 627,0.00587922,-0.05093629,-0.03903106,0.08633753,-0.29544873,-0.02921
 050,-0.04163001,0.04544345,0.09186754,-0.16090279,0.60104561,0.0000041
 1,0.00003048,0.00000397,-0.00002874,0.00003881,0.00004702,0.00013486,0
 .00015380,-0.00009093,-0.00007567,-0.00010861,0.00020785,0.00004603,0.
 00005114,-0.00006395,-0.00001339,-0.00002805,0.00000770,0.00000018,0.0
 0002173,-0.00000313,-0.00002025,-0.00001268,0.00000858,0.00000329,0.00
 000273,-0.00000166,-0.00003633,0.00278654,0.00040420,-0.01140777,-0.00
 435526,-0.01727535,-0.00048309,-0.00485036,0.00120288,-0.19487409,-0.0
 5640115,-0.13930609,-0.00005276,0.00009889,0.00092423,0.00409111,0.000
 23140,0.00182884,0.20086166,0.00000381,0.00004342,-0.00001385,0.000009
 76,-0.00004989,-0.00003492,-0.00003615,0.00009994,0.00018733,0.0002262
 8,-0.00080875,0.00018309,0.00006579,0.00015612,-0.00009606,-0.00003139
 ,-0.00000823,-0.00003455,-0.00001191,0.00000361,-0.00000086,-0.0000004
 4,-0.00000139,0.00001267,0.00000411,0.00000862,-0.00001304,0.00275238,
 -0.00066222,-0.00140248,-0.01554213,0.00082985,-0.01590923,-0.00458590
 ,-0.00032017,0.00310699,-0.05607100,-0.06068585,-0.03565100,0.00020295
 ,-0.00084800,0.00057892,0.01125331,0.00653365,0.00966248,0.06267859,0.
 05491017,0.00000175,-0.00002509,-0.00000600,-0.00000079,-0.00002784,-0
 .00003922,-0.00004474,-0.00004251,0.00011536,0.00013776,0.00001186,0.0
 0007672,-0.00000597,-0.00006779,0.00004298,-0.00002303,0.00002881,-0.0
 0002707,-0.00000255,-0.00001376,-0.00000042,0.00002319,0.00000681,-0.0
 0000107,-0.00000325,-0.00000157,0.00000200,0.00086907,-0.00143145,0.00
 051350,0.00571299,0.00329791,0.00735542,0.00032085,0.00221133,0.000798
 08,-0.14103960,-0.03715282,-0.18173725,0.00066900,0.00031521,-0.000295
 69,-0.01988296,-0.00754778,-0.01385265,0.15230372,0.03735890,0.1894096
 9,-0.00038691,0.00015926,0.00043914,0.00038587,0.00054294,-0.00008950,
 0.00033144,-0.00043824,0.00025527,-0.00097751,-0.00054277,0.00059356,0
 .00013123,0.00050848,-0.00054026,0.00001030,-0.00061871,-0.00005463,0.
 00007879,0.00000703,0.00001900,-0.00002430,-0.00001209,0.00001725,0.00
 001145,-0.00000004,0.00000481,0.00482750,0.00165839,-0.00056453,-0.055
 51263,-0.03084038,-0.01406529,0.02555125,-0.01561761,0.06372110,0.0235
 8151,0.04127028,-0.05267389,-0.20970109,-0.11371898,-0.00645322,-0.211
 80921,-0.07861657,-0.08465389,0.00345767,-0.00267659,-0.00002563,0.473
 56687,-0.00015314,0.00011716,0.00021532,0.00012191,0.00018971,-0.00009
 901,0.00016285,-0.00012275,0.00021114,-0.00069796,-0.00071600,0.000426
 89,0.00016605,0.00036713,-0.00028877,0.00002646,-0.00034032,-0.0000684
 3,0.00004356,0.00002011,0.00002803,-0.00001153,-0.00000936,-0.00000238
 ,0.00001982,0.00001260,-0.00001510,0.00329100,0.00056883,-0.00098790,-
 0.03270814,-0.02306534,-0.01006057,0.00399595,-0.01639250,0.05162546,0
 .02066871,0.03088965,-0.01689684,-0.13690679,-0.17660168,0.02053554,-0
 .05479127,-0.10063622,-0.00498048,-0.00254016,0.00295012,0.00412203,0.
 22735693,0.33341163,-0.00012942,-0.00008290,0.00013092,0.00009053,0.00
 030603,0.00003722,0.00013778,-0.00043854,-0.00015732,-0.00009970,0.001
 39683,0.00010719,-0.00006108,-0.00025344,0.00011940,0.00000162,-0.0000
 3104,0.00000324,0.00002650,-0.00003252,-0.00001839,-0.00000124,0.00002
 044,-0.00004499,-0.00003613,-0.00003174,0.00003930,0.00163179,-0.00138
 708,-0.00002231,-0.01471965,-0.01002550,-0.00557014,0.02404858,0.02027
 190,0.00180306,-0.01389949,0.01420111,-0.04318839,0.04082995,0.0572358
 8,-0.11141992,-0.13155098,-0.04179931,-0.18570560,-0.00052058,0.003881
 19,-0.00154543,0.10976903,-0.08552563,0.46378308,0.00003785,-0.0000002
 4,-0.00004986,-0.00005070,-0.00005251,0.00002185,0.00004457,0.00008488
 ,-0.00009405,0.00000366,-0.00004985,0.00001904,-0.00004228,-0.00001561
 ,0.00006286,-0.00001076,0.00006452,0.00001146,-0.00000246,0.00001654,-
 0.00000211,-0.00000023,-0.00000303,0.00001097,0.00000243,0.00000424,0.
 00000017,-0.00004537,-0.00000614,-0.00001961,0.00356928,-0.00270696,-0
 .00028226,0.00422588,-0.00013311,0.00138262,0.00002392,0.00023167,0.00
 093013,-0.19825057,-0.05717805,-0.13903059,-0.00045345,-0.00491662,0.0
 0130937,-0.00019443,0.00025160,0.00004558,-0.01173238,-0.00331413,-0.0
 1639835,0.20462893,-0.00003604,-0.00002351,0.00004213,0.00002824,0.000
 03806,-0.00002725,-0.00004818,-0.00009147,0.00006008,0.00002002,0.0003
 0665,-0.00007490,0.00000706,-0.00001221,-0.00002266,0.00000097,-0.0000
 4189,-0.00001585,0.00000798,-0.00002074,0.00000410,0.00000722,0.000001
 32,-0.00000816,-0.00000040,-0.00000457,0.00000116,0.00078133,0.0000491
 1,0.00087910,-0.00335334,0.00279626,0.00409332,0.01072451,0.00667272,0
 .00979608,0.00032321,-0.00079488,0.00036240,-0.05588042,-0.06043406,-0
 .03657940,-0.00445271,0.00010836,0.00332051,0.00026537,-0.00024728,-0.
 00019964,-0.01516057,-0.00149548,-0.01477989,0.06446686,0.05643183,0.0
 0000100,0.00006927,0.00002552,0.00003975,0.00002137,0.00000152,0.00003
 523,0.00003887,0.00006919,-0.00023907,-0.00081853,0.00021273,0.0000689
 1,0.00014030,-0.00009002,0.00001462,-0.00007431,-0.00000095,-0.0000090
 8,0.00001851,-0.00000384,-0.00002021,-0.00000469,-0.00000017,0.0000035
 0,0.00001057,-0.00001095,-0.00091181,0.00024623,-0.00140773,0.00026046
 ,0.00448198,-0.00170853,-0.02032562,-0.00686722,-0.01383296,0.00066023
 ,0.00028126,-0.00044714,-0.14107872,-0.03796324,-0.17902713,0.00062315
 ,0.00261911,0.00095429,0.00006206,-0.00020462,-0.00005246,0.00653035,0
 .00310050,0.00704140,0.15124385,0.03641293,0.18702159,0.00000039,-0.00
 000643,0.00000581,0.00000125,0.00001041,-0.00000723,-0.00002147,0.0000
 0257,0.00000913,0.00004318,0.00009726,-0.00001721,0.00002160,-0.000029
 57,0.00001611,-0.00000069,0.00000246,0.00000222,0.00000078,-0.00000194
 ,-0.00000062,0.00000155,0.00000269,-0.00000289,-0.00000720,-0.00000166
 ,-0.00000021,-0.00005892,0.00002755,-0.00001994,0.00346644,-0.00213295
 ,-0.00218983,0.00003226,0.00081196,-0.00028291,0.00472645,0.00163027,-
 0.00122121,-0.00041320,-0.00204104,-0.00473175,-0.19280221,-0.14407711
 ,0.04308525,-0.00093258,0.00202973,0.00123766,-0.01173425,-0.01534599,
 0.00777651,-0.00050324,-0.00079934,0.00033169,0.19882515,-0.00000560,-
 0.00002066,-0.00000499,0.00000653,0.00000245,0.00000315,0.00002204,-0.
 00007503,-0.00000131,0.00001464,0.00038377,-0.00000113,-0.00003992,-0.
 00009179,0.00000975,0.00000113,0.00002147,0.00001340,-0.00000374,-0.00
 001177,-0.00000160,0.00000013,0.00000404,-0.00000864,0.00000129,-0.000
 00863,0.00000671,-0.00031819,-0.00076942,0.00039842,-0.00167875,0.0044
 8978,0.00328196,0.00066755,-0.00020352,-0.00024765,-0.00924703,-0.0048
 5526,0.00210566,-0.00241924,0.00342259,-0.00009479,-0.14501775,-0.1741
 5055,0.05144240,0.00224274,-0.00193304,-0.00119135,-0.00415067,-0.0021
 0920,0.00370275,-0.00025672,0.00003417,0.00014934,0.15819189,0.1770182
 4,0.00000546,0.00002536,-0.00001056,-0.00000304,-0.00000728,0.00000974
 ,0.00001605,0.00005299,-0.00000168,0.00010541,-0.00043989,-0.00032522,
 0.00000668,0.00021086,-0.00003263,0.00002687,-0.00002291,-0.00003672,-
 0.00000200,0.00001145,0.00000092,-0.00000372,-0.00000396,0.00000409,0.
 00001238,0.00001965,-0.00000573,0.00094390,0.00164437,-0.00041437,-0.0
 0279650,0.00281983,-0.00284055,-0.00020649,-0.00001678,-0.00105036,0.0
 2082103,0.01892666,-0.00243842,-0.00398820,0.00058751,-0.00226982,0.04
 509395,0.05297445,-0.07163749,0.00084674,-0.00155899,0.00009922,-0.015
 32459,-0.01436212,0.00762251,-0.00082425,-0.00075087,0.00054499,-0.044
 78537,-0.05854134,0.07264232,0.00533619,-0.00199697,0.00233209,-0.0012
 8035,-0.00014607,0.00593659,-0.12765006,-0.02869150,0.13808131,-0.0012
 9219,-0.00346235,0.00754422,0.00401927,0.00118800,0.00255403,-0.000345
 29,0.00032452,-0.00064700,-0.00269300,0.00026490,-0.00233185,0.0000059
 0,-0.00018896,0.00039219,-0.00066633,0.00007128,-0.00037558,-0.0023768
 0,0.00089703,-0.00223532,-0.00008630,0.00017702,0.00080550,0.00040698,
 -0.00029915,0.00000583,0.00025868,0.00032663,-0.00043138,0.00014589,0.
 00013213,-0.00051678,0.00013263,-0.00014548,0.00043800,-0.00005034,-0.
 00001956,0.00000896,-0.00037576,-0.00010683,-0.00019716,0.00000500,0.0
 0001191,-0.00002370,-0.00000555,-0.00001218,0.00000025,0.12689015,-0.0
 0140819,-0.00515776,0.00006943,-0.01670962,0.00004599,0.02533262,-0.02
 922442,-0.06767349,0.03848011,0.01375799,0.00918902,-0.02003551,0.0006
 4353,-0.00386096,-0.00274978,0.00010853,-0.00122365,-0.00016443,0.0005
 0744,0.00076987,-0.00002747,0.00063147,0.00032162,-0.00115541,0.000062
 57,0.00013941,0.00008476,0.00006676,0.00177496,0.00116001,0.00022231,-
 0.00160139,-0.00021573,0.00064111,-0.00076639,0.00046378,-0.00011485,-
 0.00001705,0.00013878,0.00012802,0.00005974,-0.00016427,0.00001450,-0.
 00005306,0.00004160,0.00000621,0.00002249,-0.00000977,-0.00010486,-0.0
 0015889,0.00017677,-0.00002110,0.00002430,-0.00002025,0.00001322,0.000
 00118,-0.00000861,0.03164853,0.06814656,0.00252125,0.00076513,0.003263
 23,0.00272521,-0.00019000,-0.00165258,0.13880926,0.03713161,-0.2409432
 3,0.01099249,0.00608345,-0.01175646,0.00238940,-0.00372623,0.00095073,
 -0.00064720,-0.00033173,0.00021311,-0.00221749,0.00053315,-0.00061312,
 0.00053882,0.00029689,-0.00053299,-0.00037214,0.00009460,-0.00029320,-
 0.00235590,0.00126825,-0.00030993,-0.00024036,0.00026623,0.00033524,-0
 .00003926,0.00069237,-0.00006740,-0.00013071,-0.00021027,0.00013920,-0
 .00015083,-0.00000535,0.00007944,-0.00004601,0.00001028,-0.00004615,0.
 00001731,-0.00006930,-0.00003535,0.00009983,-0.00000161,0.00003228,0.0
 0000256,-0.00000292,-0.00002679,-0.00001099,0.00001287,0.00000414,-0.1
 5215885,-0.04248897,0.25138043,-0.00025059,0.00005631,0.00024351,0.000
 31889,0.00045129,-0.00008187,0.00023761,0.00001901,0.00019891,-0.00051
 995,-0.00042518,-0.00057515,0.00037034,0.00038951,-0.00035227,-0.00003
 236,-0.00037366,-0.00000126,0.00001445,-0.00000868,-0.00001203,-0.0000
 5600,0.00000421,0.00002058,-0.00000564,-0.00000884,0.00003078,-0.00020
 728,0.00210047,0.00121293,-0.01140025,-0.01587416,0.00807454,-0.195106
 63,-0.14419014,0.04249367,-0.00041424,-0.00212129,-0.00465551,0.004246
 66,0.00173022,-0.00105129,-0.00015164,0.00080563,-0.00057765,-0.000574
 34,-0.00078463,0.00039298,0.00351030,-0.00185819,-0.00180049,-0.000858
 18,0.00210642,0.00120075,-0.00021553,0.00022880,0.00019469,-0.00044423
 ,-0.00004726,0.00003189,0.20141388,-0.00004152,-0.00003704,0.00000158,
 0.00012223,-0.00009070,-0.00003799,0.00040351,-0.00063259,0.00076774,0
 .00098775,0.00030108,0.00082396,0.00001670,0.00001636,-0.00010537,0.00
 003422,0.00004808,-0.00001181,-0.00002202,-0.00001736,-0.00000839,-0.0
 0003714,-0.00000643,-0.00009194,0.00002207,-0.00000230,-0.00000202,0.0
 0192955,-0.00228579,-0.00031007,-0.00517034,-0.00129745,0.00309991,-0.
 14553115,-0.17036203,0.05047418,-0.00242488,0.00318478,-0.00006442,-0.
 00894841,-0.00509663,0.00194476,0.00067114,-0.00012438,-0.00014724,-0.
 00016212,-0.00005146,0.00019899,-0.00175778,0.00394747,0.00327319,0.00
 220288,-0.00194764,-0.00121278,0.00022887,-0.00035652,-0.00015278,0.00
 005638,0.00005195,-0.00002937,0.15777103,0.17497209,0.00015395,-0.0000
 8553,-0.00020656,-0.00027335,-0.00029022,0.00009257,-0.00078920,0.0009
 9655,-0.00036250,-0.00058356,0.00036132,-0.00133659,0.00008485,-0.0000
 2960,0.00007281,0.00002123,0.00030467,-0.00007505,0.00001483,-0.000053
 65,0.00000582,0.00000657,-0.00001766,0.00000272,-0.00001755,-0.0000007
 8,0.00000103,0.00189991,-0.00053156,0.00108913,-0.01481342,-0.01430748
 ,0.01045740,0.04292338,0.05114286,-0.07216190,-0.00388777,0.00061745,-
 0.00236021,0.02134703,0.01918930,-0.00299586,-0.00030238,-0.00004017,-
 0.00096677,-0.00078940,-0.00083896,0.00032400,-0.00223270,0.00303278,-
 0.00264241,0.00093859,-0.00156341,0.00012625,0.00018624,-0.00016866,0.
 00001430,0.00027251,-0.00001075,-0.00000083,-0.04478072,-0.05874129,0.
 07177872,-0.06109305,-0.07079208,0.02912153,-0.00128731,-0.01665567,0.
 00244395,0.00293617,-0.00053625,0.00559547,-0.00052819,0.00053916,0.00
 052434,0.00444637,0.00114192,0.00386471,0.00516023,0.00917674,-0.00291
 525,-0.00253233,0.00053069,-0.00202983,0.00039236,0.00045696,0.0000349
 8,-0.00254280,0.00021863,-0.00215194,-0.00065997,0.00000530,-0.0003836
 8,-0.00008117,0.00007206,-0.00009939,0.00008710,-0.00004473,0.00001685
 ,0.00003521,0.00000563,-0.00003282,0.00000486,0.00000829,-0.00005156,0
 .00002990,-0.00001227,0.00004230,-0.00000366,0.00000842,0.00000578,-0.
 00004125,-0.00000732,-0.00003313,0.00000488,0.00000152,-0.00000605,-0.
 00000142,-0.00000218,0.00000127,0.00008008,-0.00081560,0.00024926,-0.0
 0002572,-0.00000124,0.00003025,0.05562320,-0.07088064,-0.30468145,0.06
 141700,0.00001343,-0.00091958,-0.00059575,-0.00079500,0.00165034,0.000
 33323,0.00057609,0.00066762,-0.00070948,0.00146396,-0.00151201,-0.0038
 9503,-0.00740226,-0.01766713,0.00801106,0.00015727,0.00072769,0.000590
 85,-0.00041914,-0.00087807,0.00044441,0.00061546,0.00066909,-0.0001136
 8,-0.00003038,-0.00023872,0.00041357,-0.00002439,0.00012326,-0.0002822
 5,0.00001180,-0.00001912,0.00005320,0.00000818,-0.00003719,0.00005565,
 -0.00000504,-0.00000015,-0.00000955,-0.00000511,-0.00000328,0.00000306
 ,0.00000428,0.00000726,-0.00000326,-0.00000090,0.00002282,-0.00005040,
 0.00000188,-0.00000280,0.00000890,-0.00000247,-0.00000433,0.00000612,0
 .00002200,-0.00012503,-0.00011367,-0.00002530,0.00000403,-0.00002246,0
 .07671600,0.32224408,0.02890838,0.06145399,-0.06844882,0.00578221,0.02
 582123,-0.00218963,0.00540961,-0.00063639,-0.00197194,0.00053311,-0.00
 071733,-0.00112475,0.00402967,-0.00289338,-0.00013126,-0.00592763,-0.0
 1846509,0.00813529,-0.00208733,-0.00008807,-0.00063053,-0.00012005,-0.
 00091011,0.00041848,-0.00205718,0.00053922,-0.00058773,-0.00064380,0.0
 0022701,0.00000112,-0.00004471,0.00001913,-0.00003117,0.00004520,0.000
 02960,0.00000238,-0.00001143,-0.00002633,-0.00000061,-0.00000515,0.000
 00149,0.00000839,0.00000131,0.00000122,0.00000110,0.00000189,-0.000002
 67,-0.00000009,0.00000440,-0.00001413,0.00002216,0.00000109,0.00000179
 ,-0.00000659,0.00000055,0.00000057,-0.00000086,0.00042284,0.00126170,-
 0.00006870,0.00002011,-0.00001432,0.00001326,-0.03426107,-0.06559828,0
 .06660841,0.00000118,0.00000217,0.00000407,0.00000993,0.00001260,0.000
 00614,0.00003434,-0.00000475,0.00002872,-0.00002439,-0.00001033,-0.000
 00809,0.00003535,0.00000567,-0.00000616,0.00000633,-0.00000494,-0.0000
 0674,-0.00000442,0.00000209,-0.00000398,-0.00000792,-0.00000069,-0.000
 00754,-0.00000120,0.00000001,-0.00000089,-0.00014108,0.00037043,0.0001
 4937,0.00105629,0.00094712,0.00048345,-0.00110780,-0.00297048,-0.00270
 346,-0.00112329,-0.00419115,-0.00060720,0.00344900,-0.00934965,0.01946
 253,0.00300785,0.00977809,-0.02017376,0.00014852,0.00027297,-0.0007007
 9,-0.03314888,-0.00741178,-0.00486488,-0.00040236,0.00097839,0.0015387
 1,-0.00042281,0.00177524,-0.00014053,-0.00001457,-0.00000627,-0.000007
 55,0.00015046,-0.00034973,0.00059070,-0.00000348,0.00000030,-0.0000020
 1,0.02850295,-0.00003228,-0.00008202,0.00002248,0.00003777,0.00007209,
 -0.00001295,-0.00010182,-0.00022230,-0.00000221,0.00067920,0.00100672,
 -0.00033563,-0.00006539,-0.00018603,0.00006330,0.00001156,0.00004945,0
 .00000706,0.,-0.00004165,-0.00000806,0.00000927,0.00001924,-0.00002440
 ,-0.00002188,-0.00002204,0.00002276,-0.00021027,-0.00142985,0.00186490
 ,0.00118093,0.00047591,-0.00110104,-0.00499138,0.00133889,-0.00122113,
 -0.00207971,0.00209287,0.00125736,0.00036632,-0.01036014,0.02826886,-0
 .00024394,0.00175361,0.00267626,-0.00015434,0.00005102,0.00016279,-0.0
 0724654,-0.05084948,0.04997189,0.00132899,-0.00134627,-0.00043351,0.00
 138963,-0.00078795,-0.00141370,-0.00005128,0.00009058,0.00001459,0.000
 05444,-0.00021753,0.00105727,-0.00001398,-0.00002732,0.00000916,0.0101
 5469,0.05862219,0.00011357,0.00019046,-0.00011157,-0.00009530,-0.00022
 680,0.00003991,0.00007943,0.00061830,0.00001522,-0.00116833,-0.0023779
 1,0.00060060,0.00008997,0.00040505,-0.00015044,-0.00003578,-0.00002815
 ,0.00000054,-0.00001699,0.00009341,0.00001047,-0.00002316,-0.00004058,
 0.00006750,0.00004030,0.00005011,-0.00005108,0.00134712,0.00266333,-0.
 00407500,0.00020102,-0.00057587,0.00253298,0.00131820,0.00185298,0.001
 90122,-0.00467838,-0.00196229,0.00146268,-0.00075437,0.01233468,-0.023
 18460,-0.00006588,0.01855556,-0.03489381,0.00018410,0.00085897,-0.0011
 4426,-0.00477561,0.05000528,-0.13042686,0.00072095,-0.00094862,0.00061
 778,0.00061899,-0.00086552,0.00012221,0.00012331,-0.00015859,-0.000051
 05,-0.00022711,0.00034548,-0.00086934,0.00003403,0.00005677,-0.0000178
 9,0.00696989,-0.08084605,0.18760478\\-0.00000642,0.00000760,0.00001211
 ,0.00001482,0.00000914,-0.00001461,-0.00000042,-0.00002116,-0.00000418
 ,-0.00001736,-0.00002282,0.00001905,0.00001662,0.00001542,-0.00001969,
 -0.00000221,-0.00001572,-0.00000435,-0.00000148,0.00000024,0.00000131,
 -0.00000376,0.00000017,0.00000239,0.00000001,-0.00000163,-0.00000011,0
 .00001657,0.00002007,0.00002210,0.00001227,0.00002210,-0.00001850,-0.0
 0001310,0.00000333,-0.00003752,-0.00002553,-0.00003083,0.00002582,-0.0
 0001716,-0.00002740,0.00003352,-0.00001706,0.00000268,-0.00003894,0.00
 000433,0.00000593,-0.00000145,0.00003880,0.00002696,0.00000778,0.00000
 198,0.00000011,-0.00000314,0.00000323,-0.00000038,0.00000652,-0.000003
 90,0.00000273,0.00000798,0.00000479,0.00000750,-0.00000073,-0.00000111
 ,0.00000036,0.00000307,-0.00000391,-0.00000440,0.00000158\\\@


 WE HAVE LEFT UNDONE THOSE THINGS WHICH WE OUGHT TO HAVE DONE,
 AND WE HAVE DONE THOSE THINGS WHICH WE OUGHT NOT TO HAVE DONE.
                   BOOK OF COMMON PRAYER                      
 Job cpu time:       0 days  1 hours 49 minutes 57.8 seconds.
 Elapsed time:       0 days  0 hours  3 minutes 40.4 seconds.
 File lengths (MBytes):  RWF=    212 Int=      0 D2E=      0 Chk=     10 Scr=      1
 Normal termination of Gaussian 16 at Fri Sep 15 06:53:54 2023.
