 Entering Gaussian System, Link 0=g16
 Input=/home/ubuntu/ml products/molecule_79.gjf
 Output=/home/ubuntu/ml products/molecule_79.log
 Initial command:
 /home/ubuntu/g16/l1.exe "/home/ubuntu/Scratch/Gau-5329.inp" -scrdir="/home/ubuntu/Scratch/"
 Entering Link 1 = /home/ubuntu/g16/l1.exe PID=      5333.
  
 Copyright (c) 1988-2017, Gaussian, Inc.  All Rights Reserved.
  
 This is part of the Gaussian(R) 16 program.  It is based on
 the Gaussian(R) 09 system (copyright 2009, Gaussian, Inc.),
 the Gaussian(R) 03 system (copyright 2003, Gaussian, Inc.),
 the Gaussian(R) 98 system (copyright 1998, Gaussian, Inc.),
 the Gaussian(R) 94 system (copyright 1995, Gaussian, Inc.),
 the Gaussian 92(TM) system (copyright 1992, Gaussian, Inc.),
 the Gaussian 90(TM) system (copyright 1990, Gaussian, Inc.),
 the Gaussian 88(TM) system (copyright 1988, Gaussian, Inc.),
 the Gaussian 86(TM) system (copyright 1986, Carnegie Mellon
 University), and the Gaussian 82(TM) system (copyright 1983,
 Carnegie Mellon University). Gaussian is a federally registered
 trademark of Gaussian, Inc.
  
 This software contains proprietary and confidential information,
 including trade secrets, belonging to Gaussian, Inc.
  
 This software is provided under written license and may be
 used, copied, transmitted, or stored only in accord with that
 written license.
  
 The following legend is applicable only to US Government
 contracts under FAR:
  
                    RESTRICTED RIGHTS LEGEND
  
 Use, reproduction and disclosure by the US Government is
 subject to restrictions as set forth in subparagraphs (a)
 and (c) of the Commercial Computer Software - Restricted
 Rights clause in FAR 52.227-19.
  
 Gaussian, Inc.
 340 Quinnipiac St., Bldg. 40, Wallingford CT 06492
  
  
 ---------------------------------------------------------------
 Warning -- This program may not be used in any manner that
 competes with the business of Gaussian, Inc. or will provide
 assistance to any competitor of Gaussian, Inc.  The licensee
 of this program is prohibited from giving any competitor of
 Gaussian, Inc. access to this program.  By using this program,
 the user acknowledges that Gaussian, Inc. is engaged in the
 business of creating and licensing software in the field of
 computational chemistry and represents and warrants to the
 licensee that it is not a competitor of Gaussian, Inc. and that
 it will not use this program in any manner prohibited above.
 ---------------------------------------------------------------
  

 Cite this work as:
 Gaussian 16, Revision B.01,
 M. J. Frisch, G. W. Trucks, H. B. Schlegel, G. E. Scuseria, 
 M. A. Robb, J. R. Cheeseman, G. Scalmani, V. Barone, 
 G. A. Petersson, H. Nakatsuji, X. Li, M. Caricato, A. V. Marenich, 
 J. Bloino, B. G. Janesko, R. Gomperts, B. Mennucci, H. P. Hratchian, 
 J. V. Ortiz, A. F. Izmaylov, J. L. Sonnenberg, D. Williams-Young, 
 F. Ding, F. Lipparini, F. Egidi, J. Goings, B. Peng, A. Petrone, 
 T. Henderson, D. Ranasinghe, V. G. Zakrzewski, J. Gao, N. Rega, 
 G. Zheng, W. Liang, M. Hada, M. Ehara, K. Toyota, R. Fukuda, 
 J. Hasegawa, M. Ishida, T. Nakajima, Y. Honda, O. Kitao, H. Nakai, 
 T. Vreven, K. Throssell, J. A. Montgomery, Jr., J. E. Peralta, 
 F. Ogliaro, M. J. Bearpark, J. J. Heyd, E. N. Brothers, K. N. Kudin, 
 V. N. Staroverov, T. A. Keith, R. Kobayashi, J. Normand, 
 K. Raghavachari, A. P. Rendell, J. C. Burant, S. S. Iyengar, 
 J. Tomasi, M. Cossi, J. M. Millam, M. Klene, C. Adamo, R. Cammi, 
 J. W. Ochterski, R. L. Martin, K. Morokuma, O. Farkas, 
 J. B. Foresman, and D. J. Fox, Gaussian, Inc., Wallingford CT, 2016.
 
 ******************************************
 Gaussian 16:  EM64L-G16RevB.01 20-Dec-2017
                16-Sep-2023 
 ******************************************
 %nprocshared=30
 Will use up to   30 processors via shared memory.
 %mem=30GB
 %chk=molecule_79.chk
 ----------------------------------------------------------------------
 # opt freq b3lyp/6-31+g(d) geom=connectivity empiricaldispersion=gd3 v
 olume
 ----------------------------------------------------------------------
 1/18=20,19=15,26=3,38=1,57=2/1,3;
 2/9=110,12=2,17=6,18=5,40=1/2;
 3/5=1,6=6,7=11,11=2,25=1,30=1,71=1,74=-5,124=31/1,2,3;
 4//1;
 5/5=2,38=5/2;
 6/7=2,8=2,9=2,10=2,28=1,44=1/1,4;
 7//1,2,3,16;
 1/18=20,19=15,26=3/3(2);
 2/9=110/2;
 99//99;
 2/9=110/2;
 3/5=1,6=6,7=11,11=2,25=1,30=1,71=1,74=-5,124=31/1,2,3;
 4/5=5,16=3,69=1/1;
 5/5=2,38=5/2;
 7//1,2,3,16;
 1/18=20,19=15,26=3/3(-5);
 2/9=110/2;
 6/7=2,8=2,9=2,10=2,19=2,28=1,44=1/1,4;
 99/9=1/99;
 -------------
 ML molecule79
 -------------
 Symbolic Z-matrix:
 Charge =  0 Multiplicity = 1
 C                    -4.74942  -0.23058  -0.40002 
 C                    -4.8202    0.23854  -1.71867 
 C                    -4.55025   1.58484  -1.99888 
 C                    -4.20951   2.46203  -0.96044 
 C                    -4.13873   1.99291   0.35822 
 C                    -4.40868   0.64661   0.63842 
 H                    -5.08036  -0.43121  -2.51155 
 H                    -4.35464   0.28843   1.64524 
 O                    -3.91049   3.9533   -1.27081 
 C                    -3.81752   4.69985  -2.77936 
 C                    -4.13168   3.88761  -3.87731 
 C                    -3.30395   5.98751  -2.98454 
 C                    -3.93225   4.36302  -5.18043 
 C                    -3.10452   6.46292  -4.28767 
 H                    -3.06408   6.60768  -2.14623 
 C                    -3.41867   5.65068  -5.38561 
 H                    -4.17211   3.74285  -6.01874 
 H                    -2.7124    7.44608  -4.44432 
 H                    -4.60429   1.94302  -3.0057 
 H                    -4.5238    2.90445  -3.72065 
 N                    -5.03258  -1.64279  -0.1061 
 O                    -4.12167  -2.42275  -0.12371 
 O                    -6.16321  -1.95858   0.13958 
 O                    -3.21518   6.13579  -6.71533 
 C                    -3.97143   7.3342   -6.9072 
 H                    -3.47636   8.14976  -6.42277 
 H                    -4.05554   7.53911  -7.95402 
 H                    -4.94824   7.21043  -6.48837 
 C                    -3.76429   2.95685   1.49936 
 H                    -2.78255   3.34685   1.32912 
 H                    -4.46764   3.76259   1.53086 
 H                    -3.78253   2.43087   2.43098 
 

 GradGradGradGradGradGradGradGradGradGradGradGradGradGradGradGradGradGrad
 Berny optimization.
 Initialization pass.
                           ----------------------------
                           !    Initial Parameters    !
                           ! (Angstroms and Degrees)  !
 --------------------------                            --------------------------
 ! Name  Definition              Value          Derivative Info.                !
 --------------------------------------------------------------------------------
 ! R1    R(1,2)                  1.4014         estimate D2E/DX2                !
 ! R2    R(1,6)                  1.4014         estimate D2E/DX2                !
 ! R3    R(1,21)                 1.47           estimate D2E/DX2                !
 ! R4    R(2,3)                  1.4014         estimate D2E/DX2                !
 ! R5    R(2,7)                  1.07           estimate D2E/DX2                !
 ! R6    R(3,4)                  1.4014         estimate D2E/DX2                !
 ! R7    R(3,19)                 1.07           estimate D2E/DX2                !
 ! R8    R(4,5)                  1.4014         estimate D2E/DX2                !
 ! R9    R(4,9)                  1.5523         estimate D2E/DX2                !
 ! R10   R(5,6)                  1.4014         estimate D2E/DX2                !
 ! R11   R(5,29)                 1.54           estimate D2E/DX2                !
 ! R12   R(6,8)                  1.07           estimate D2E/DX2                !
 ! R13   R(9,10)                 1.6857         estimate D2E/DX2                !
 ! R14   R(10,11)                1.4014         estimate D2E/DX2                !
 ! R15   R(10,12)                1.4014         estimate D2E/DX2                !
 ! R16   R(11,13)                1.4014         estimate D2E/DX2                !
 ! R17   R(11,20)                1.07           estimate D2E/DX2                !
 ! R18   R(12,14)                1.4014         estimate D2E/DX2                !
 ! R19   R(12,15)                1.07           estimate D2E/DX2                !
 ! R20   R(13,16)                1.4014         estimate D2E/DX2                !
 ! R21   R(13,17)                1.07           estimate D2E/DX2                !
 ! R22   R(14,16)                1.4014         estimate D2E/DX2                !
 ! R23   R(14,18)                1.07           estimate D2E/DX2                !
 ! R24   R(16,24)                1.43           estimate D2E/DX2                !
 ! R25   R(21,22)                1.1993         estimate D2E/DX2                !
 ! R26   R(21,23)                1.1993         estimate D2E/DX2                !
 ! R27   R(24,25)                1.43           estimate D2E/DX2                !
 ! R28   R(25,26)                1.07           estimate D2E/DX2                !
 ! R29   R(25,27)                1.07           estimate D2E/DX2                !
 ! R30   R(25,28)                1.07           estimate D2E/DX2                !
 ! R31   R(29,30)                1.07           estimate D2E/DX2                !
 ! R32   R(29,31)                1.07           estimate D2E/DX2                !
 ! R33   R(29,32)                1.07           estimate D2E/DX2                !
 ! A1    A(2,1,6)              120.0            estimate D2E/DX2                !
 ! A2    A(2,1,21)             120.0            estimate D2E/DX2                !
 ! A3    A(6,1,21)             120.0            estimate D2E/DX2                !
 ! A4    A(1,2,3)              120.0            estimate D2E/DX2                !
 ! A5    A(1,2,7)              120.0            estimate D2E/DX2                !
 ! A6    A(3,2,7)              120.0            estimate D2E/DX2                !
 ! A7    A(2,3,4)              120.0            estimate D2E/DX2                !
 ! A8    A(2,3,19)             120.0            estimate D2E/DX2                !
 ! A9    A(4,3,19)             120.0            estimate D2E/DX2                !
 ! A10   A(3,4,5)              120.0            estimate D2E/DX2                !
 ! A11   A(3,4,9)              120.0            estimate D2E/DX2                !
 ! A12   A(5,4,9)              120.0            estimate D2E/DX2                !
 ! A13   A(4,5,6)              120.0            estimate D2E/DX2                !
 ! A14   A(4,5,29)             120.0            estimate D2E/DX2                !
 ! A15   A(6,5,29)             120.0            estimate D2E/DX2                !
 ! A16   A(1,6,5)              120.0            estimate D2E/DX2                !
 ! A17   A(1,6,8)              120.0            estimate D2E/DX2                !
 ! A18   A(5,6,8)              120.0            estimate D2E/DX2                !
 ! A19   A(4,9,10)             127.9526         estimate D2E/DX2                !
 ! A20   A(9,10,11)            115.5989         estimate D2E/DX2                !
 ! A21   A(9,10,12)            123.9281         estimate D2E/DX2                !
 ! A22   A(11,10,12)           120.0            estimate D2E/DX2                !
 ! A23   A(10,11,13)           120.0            estimate D2E/DX2                !
 ! A24   A(10,11,20)           120.0            estimate D2E/DX2                !
 ! A25   A(13,11,20)           120.0            estimate D2E/DX2                !
 ! A26   A(10,12,14)           120.0            estimate D2E/DX2                !
 ! A27   A(10,12,15)           120.0            estimate D2E/DX2                !
 ! A28   A(14,12,15)           120.0            estimate D2E/DX2                !
 ! A29   A(11,13,16)           120.0            estimate D2E/DX2                !
 ! A30   A(11,13,17)           120.0            estimate D2E/DX2                !
 ! A31   A(16,13,17)           120.0            estimate D2E/DX2                !
 ! A32   A(12,14,16)           120.0            estimate D2E/DX2                !
 ! A33   A(12,14,18)           120.0            estimate D2E/DX2                !
 ! A34   A(16,14,18)           120.0            estimate D2E/DX2                !
 ! A35   A(13,16,14)           120.0            estimate D2E/DX2                !
 ! A36   A(13,16,24)           120.0            estimate D2E/DX2                !
 ! A37   A(14,16,24)           120.0            estimate D2E/DX2                !
 ! A38   A(1,21,22)            118.3934         estimate D2E/DX2                !
 ! A39   A(1,21,23)            118.3927         estimate D2E/DX2                !
 ! A40   A(22,21,23)           123.2139         estimate D2E/DX2                !
 ! A41   A(16,24,25)           109.5            estimate D2E/DX2                !
 ! A42   A(24,25,26)           109.4712         estimate D2E/DX2                !
 ! A43   A(24,25,27)           109.4712         estimate D2E/DX2                !
 ! A44   A(24,25,28)           109.4712         estimate D2E/DX2                !
 ! A45   A(26,25,27)           109.4713         estimate D2E/DX2                !
 ! A46   A(26,25,28)           109.4712         estimate D2E/DX2                !
 ! A47   A(27,25,28)           109.4712         estimate D2E/DX2                !
 ! A48   A(5,29,30)            109.4712         estimate D2E/DX2                !
 ! A49   A(5,29,31)            109.4712         estimate D2E/DX2                !
 ! A50   A(5,29,32)            109.4712         estimate D2E/DX2                !
 ! A51   A(30,29,31)           109.4713         estimate D2E/DX2                !
 ! A52   A(30,29,32)           109.4712         estimate D2E/DX2                !
 ! A53   A(31,29,32)           109.4712         estimate D2E/DX2                !
 ! D1    D(6,1,2,3)              0.0001         estimate D2E/DX2                !
 ! D2    D(6,1,2,7)           -179.9998         estimate D2E/DX2                !
 ! D3    D(21,1,2,3)          -179.9999         estimate D2E/DX2                !
 ! D4    D(21,1,2,7)             0.0002         estimate D2E/DX2                !
 ! D5    D(2,1,6,5)             -0.0001         estimate D2E/DX2                !
 ! D6    D(2,1,6,8)            179.9998         estimate D2E/DX2                !
 ! D7    D(21,1,6,5)           179.9999         estimate D2E/DX2                !
 ! D8    D(21,1,6,8)            -0.0002         estimate D2E/DX2                !
 ! D9    D(2,1,21,22)           90.3367         estimate D2E/DX2                !
 ! D10   D(2,1,21,23)          -89.6634         estimate D2E/DX2                !
 ! D11   D(6,1,21,22)          -89.6633         estimate D2E/DX2                !
 ! D12   D(6,1,21,23)           90.3367         estimate D2E/DX2                !
 ! D13   D(1,2,3,4)              0.0001         estimate D2E/DX2                !
 ! D14   D(1,2,3,19)          -179.9999         estimate D2E/DX2                !
 ! D15   D(7,2,3,4)            179.9999         estimate D2E/DX2                !
 ! D16   D(7,2,3,19)            -0.0001         estimate D2E/DX2                !
 ! D17   D(2,3,4,5)             -0.0002         estimate D2E/DX2                !
 ! D18   D(2,3,4,9)            179.9998         estimate D2E/DX2                !
 ! D19   D(19,3,4,5)           179.9998         estimate D2E/DX2                !
 ! D20   D(19,3,4,9)            -0.0002         estimate D2E/DX2                !
 ! D21   D(3,4,5,6)              0.0001         estimate D2E/DX2                !
 ! D22   D(3,4,5,29)          -180.0            estimate D2E/DX2                !
 ! D23   D(9,4,5,6)           -179.9999         estimate D2E/DX2                !
 ! D24   D(9,4,5,29)             0.0            estimate D2E/DX2                !
 ! D25   D(3,4,9,10)            -5.2547         estimate D2E/DX2                !
 ! D26   D(5,4,9,10)           174.7453         estimate D2E/DX2                !
 ! D27   D(4,5,6,1)              0.0            estimate D2E/DX2                !
 ! D28   D(4,5,6,8)           -179.9999         estimate D2E/DX2                !
 ! D29   D(29,5,6,1)          -179.9999         estimate D2E/DX2                !
 ! D30   D(29,5,6,8)             0.0002         estimate D2E/DX2                !
 ! D31   D(4,5,29,30)          -61.3047         estimate D2E/DX2                !
 ! D32   D(4,5,29,31)           58.6954         estimate D2E/DX2                !
 ! D33   D(4,5,29,32)          178.6953         estimate D2E/DX2                !
 ! D34   D(6,5,29,30)          118.6953         estimate D2E/DX2                !
 ! D35   D(6,5,29,31)         -121.3047         estimate D2E/DX2                !
 ! D36   D(6,5,29,32)           -1.3047         estimate D2E/DX2                !
 ! D37   D(4,9,10,11)            4.3564         estimate D2E/DX2                !
 ! D38   D(4,9,10,12)         -167.7268         estimate D2E/DX2                !
 ! D39   D(9,10,11,13)        -172.4167         estimate D2E/DX2                !
 ! D40   D(9,10,11,20)           7.5833         estimate D2E/DX2                !
 ! D41   D(12,10,11,13)          0.0002         estimate D2E/DX2                !
 ! D42   D(12,10,11,20)       -179.9998         estimate D2E/DX2                !
 ! D43   D(9,10,12,14)         171.7535         estimate D2E/DX2                !
 ! D44   D(9,10,12,15)          -8.2466         estimate D2E/DX2                !
 ! D45   D(11,10,12,14)          0.0            estimate D2E/DX2                !
 ! D46   D(11,10,12,15)        179.9999         estimate D2E/DX2                !
 ! D47   D(10,11,13,16)         -0.0002         estimate D2E/DX2                !
 ! D48   D(10,11,13,17)        179.9998         estimate D2E/DX2                !
 ! D49   D(20,11,13,16)        179.9998         estimate D2E/DX2                !
 ! D50   D(20,11,13,17)         -0.0002         estimate D2E/DX2                !
 ! D51   D(10,12,14,16)         -0.0001         estimate D2E/DX2                !
 ! D52   D(10,12,14,18)        179.9999         estimate D2E/DX2                !
 ! D53   D(15,12,14,16)        179.9999         estimate D2E/DX2                !
 ! D54   D(15,12,14,18)          0.0            estimate D2E/DX2                !
 ! D55   D(11,13,16,14)          0.0001         estimate D2E/DX2                !
 ! D56   D(11,13,16,24)       -179.9999         estimate D2E/DX2                !
 ! D57   D(17,13,16,14)       -179.9999         estimate D2E/DX2                !
 ! D58   D(17,13,16,24)          0.0001         estimate D2E/DX2                !
 ! D59   D(12,14,16,13)          0.0001         estimate D2E/DX2                !
 ! D60   D(12,14,16,24)       -180.0            estimate D2E/DX2                !
 ! D61   D(18,14,16,13)       -180.0            estimate D2E/DX2                !
 ! D62   D(18,14,16,24)          0.0            estimate D2E/DX2                !
 ! D63   D(13,16,24,25)        121.6994         estimate D2E/DX2                !
 ! D64   D(14,16,24,25)        -58.3005         estimate D2E/DX2                !
 ! D65   D(16,24,25,26)         76.4751         estimate D2E/DX2                !
 ! D66   D(16,24,25,27)       -163.5249         estimate D2E/DX2                !
 ! D67   D(16,24,25,28)        -43.5249         estimate D2E/DX2                !
 --------------------------------------------------------------------------------
 Trust Radius=3.00D-01 FncErr=1.00D-07 GrdErr=1.00D-06 EigMax=2.50D+02 EigMin=1.00D-04
 Number of steps in this run=    163 maximum allowed number of steps=    192.
 GradGradGradGradGradGradGradGradGradGradGradGradGradGradGradGradGradGrad

                          Input orientation:                          
 ---------------------------------------------------------------------
 Center     Atomic      Atomic             Coordinates (Angstroms)
 Number     Number       Type             X           Y           Z
 ---------------------------------------------------------------------
      1          6           0       -4.749416   -0.230579   -0.400021
      2          6           0       -4.820199    0.238538   -1.718672
      3          6           0       -4.550247    1.584841   -1.998879
      4          6           0       -4.209510    2.462026   -0.960435
      5          6           0       -4.138728    1.992910    0.358216
      6          6           0       -4.408682    0.646607    0.638423
      7          1           0       -5.080361   -0.431212   -2.511547
      8          1           0       -4.354640    0.288426    1.645243
      9          8           0       -3.910486    3.953296   -1.270814
     10          6           0       -3.817523    4.699853   -2.779363
     11          6           0       -4.131676    3.887607   -3.877310
     12          6           0       -3.303947    5.987511   -2.984541
     13          6           0       -3.932249    4.363019   -5.180435
     14          6           0       -3.104523    6.462923   -4.287666
     15          1           0       -3.064085    6.607679   -2.146234
     16          6           0       -3.418674    5.650677   -5.385613
     17          1           0       -4.172109    3.742850   -6.018741
     18          1           0       -2.712397    7.446079   -4.444324
     19          1           0       -4.604292    1.943023   -3.005698
     20          1           0       -4.523805    2.904453   -3.720651
     21          7           0       -5.032581   -1.642786   -0.106098
     22          8           0       -4.121672   -2.422755   -0.123715
     23          8           0       -6.163210   -1.958585    0.139583
     24          8           0       -3.215180    6.135792   -6.715333
     25          6           0       -3.971426    7.334199   -6.907199
     26          1           0       -3.476358    8.149758   -6.422770
     27          1           0       -4.055542    7.539113   -7.954020
     28          1           0       -4.948240    7.210435   -6.488371
     29          6           0       -3.764292    2.956850    1.499364
     30          1           0       -2.782549    3.346847    1.329125
     31          1           0       -4.467639    3.762586    1.530861
     32          1           0       -3.782529    2.430866    2.430980
 ---------------------------------------------------------------------
                    Distance matrix (angstroms):
                    1          2          3          4          5
     1  C    0.000000
     2  C    1.401400   0.000000
     3  C    2.427296   1.401400   0.000000
     4  C    2.802800   2.427296   1.401400   0.000000
     5  C    2.427296   2.802800   2.427296   1.401400   0.000000
     6  C    1.401400   2.427296   2.802800   2.427296   1.401400
     7  H    2.146700   1.070000   2.146700   3.396345   3.872800
     8  H    2.146700   3.396345   3.872800   3.396345   2.146700
     9  O    4.355100   3.850660   2.559092   1.552300   2.559092
    10  C    5.553274   4.694012   3.293833   2.910330   4.156335
    11  C    5.425182   4.295286   3.001072   3.247537   4.640001
    12  C    6.887218   6.078827   4.680630   4.164864   5.275199
    13  C    6.679914   5.457435   4.268781   4.636706   6.027993
    14  C    7.913434   6.948831   5.578920   5.319647   6.529535
    15  H    7.256127   6.620627   5.240161   4.461452   5.359405
    16  C    7.824077   6.685954   5.411233   5.511362   6.847577
    17  H    6.905899   5.584874   4.578131   5.218081   6.612790
    18  H    8.912739   7.988783   6.611506   6.262556   7.405125
    19  H    3.396345   2.146700   1.070000   2.146700   3.396345
    20  H    4.572298   3.347069   2.169464   2.813062   4.197184
    21  N    1.470000   2.486942   3.772644   4.272800   3.772644
    22  O    2.296964   3.180300   4.445306   4.956703   4.441919
    23  O    2.296952   3.175553   4.441907   4.956691   4.445293
    24  O    9.097676   7.894321   6.688684   6.899572   8.249334
    25  C   10.008721   8.831173   7.581672   7.691472   9.019069
    26  H   10.398280   9.301711   7.988878   7.919905   9.182989
    27  H   10.858751   9.631337   8.435745   8.643538   9.993026
    28  H    9.616456   8.448299   7.208414   7.324696   8.646018
    29  C    3.838989   4.342800   3.838989   2.548270   1.540000
    30  H    4.433564   4.806524   4.159931   2.839227   2.148263
    31  H    4.444443   4.806524   4.148308   2.822170   2.148263
    32  H    4.004089   4.806524   4.574801   3.418330   2.148263
                    6          7          8          9         10
     6  C    0.000000
     7  H    3.396345   0.000000
     8  H    1.070000   4.280590   0.000000
     9  O    3.850660   4.704459   4.704459   0.000000
    10  C    5.334748   5.290965   6.271070   1.685736   0.000000
    11  C    5.565309   4.627906   6.595635   2.616688   1.401400
    12  C    6.547638   6.676779   7.417441   2.728146   1.401400
    13  C    6.920825   5.605869   7.960565   3.931091   2.427296
    14  C    7.732834   7.388345   8.653706   4.006145   2.427296
    15  H    6.715403   7.331085   7.481563   2.920360   2.146700
    16  C    7.893659   6.928985   8.891721   4.478231   2.802800
    17  H    7.345783   5.527036   8.408509   4.759784   3.396345
    18  H    8.657051   8.449532   9.540010   4.868893   3.396345
    19  H    3.872800   2.471400   4.942800   2.744520   2.875821
    20  H    4.910464   3.591427   5.972021   2.734581   2.146700
    21  N    2.486942   2.693767   2.693766   5.825100   6.989404
    22  O    3.175565   3.253778   3.245611   6.481856   7.607662
    23  O    3.180288   3.245600   3.253766   6.481845   7.639194
    24  O    9.253827   8.017247  10.265928   5.906735   4.232800
    25  C   10.092150   8.991835  11.087562   6.572902   4.899234
    26  H   10.345383   9.565747  11.298882   6.658934   5.029180
    27  H   11.020954   9.705506  12.033610   7.585800   5.907210
    28  H    9.703925   8.615529  10.696833   6.237690   4.619338
    29  C    2.548270   5.412800   2.736837   2.947569   4.620432
    30  H    3.226867   5.856998   3.453309   2.898225   4.447636
    31  H    3.241797   5.856999   3.477878   2.862897   4.458604
    32  H    2.605554   5.856999   2.352604   4.004678   5.683062
                   11         12         13         14         15
    11  C    0.000000
    12  C    2.427296   0.000000
    13  C    1.401400   2.802800   0.000000
    14  C    2.802800   1.401400   2.427296   0.000000
    15  H    3.396345   1.070000   3.872800   2.146700   0.000000
    16  C    2.427296   2.427296   1.401400   1.401400   3.396345
    17  H    2.146700   3.872800   1.070000   3.396345   4.942800
    18  H    3.872800   2.146700   3.396345   1.070000   2.471400
    19  H    2.182769   4.248439   3.322273   4.931759   4.986976
    20  H    1.070000   3.396345   2.146700   3.872800   4.280590
    21  N    6.754177   8.336368   7.939100   9.322309   8.723949
    22  O    7.342360   8.921075   8.464811   9.865514   9.314387
    23  O    7.378382   9.004220   8.558180   9.993893   9.392040
    24  O    3.734792   3.734792   2.452106   2.452106   4.595886
    25  C    4.591830   4.200755   3.436737   2.893543   4.900804
    26  H    5.007468   4.065274   4.011312   2.746332   4.564727
    27  H    5.473468   5.260046   4.218477   3.937610   5.964975
    28  H    4.304138   4.059072   3.294042   2.966676   4.771531
    29  C    5.468994   5.431595   6.828267   6.798350   5.206652
    30  H    5.405508   5.084552   6.687958   6.431325   4.773930
    31  H    5.420038   5.166559   6.759338   6.557833   4.856496
    32  H    6.483712   6.496663   7.854251   7.864946   6.238014
                   16         17         18         19         20
    16  C    0.000000
    17  H    2.146700   0.000000
    18  H    2.146700   4.280590   0.000000
    19  H    4.562498   3.536183   5.994376   0.000000
    20  H    3.396345   2.471400   4.942800   1.200826   0.000000
    21  N    9.147271   8.043931  10.334937   4.631321   5.831057
    22  O    9.662406   8.530449  10.864972   5.253453   6.440404
    23  O    9.795975   8.625300  11.016716   5.248386   6.421697
    24  O    1.430000   2.669667   2.669667   5.768044   4.595886
    25  C    2.335595   3.705053   2.768289   6.684834   5.484693
    26  H    2.706368   4.479748   2.234512   7.174411   5.992646
    27  H    3.250924   4.262687   3.759077   7.490209   6.294502
    28  H    2.447140   3.584282   3.038527   6.323997   5.136331
    29  C    7.401288   7.570074   7.522439   4.693509   5.275240
    30  H    7.127411   7.488580   7.081055   4.907154   5.359844
    31  H    7.245884   7.555410   7.235457   4.889770   5.321459
    32  H    8.461601   8.559840   8.577141   5.520032   6.214205
                   21         22         23         24         25
    21  N    0.000000
    22  O    1.199341   0.000000
    23  O    1.199337   2.110132   0.000000
    24  O   10.367796  10.840658  11.009072   0.000000
    25  C   11.312262  11.884291  11.866628   1.430000   0.000000
    26  H   11.756533  12.323658  12.347560   2.051796   1.070000
    27  H   12.118240  12.671103  12.655233   2.051796   1.070000
    28  H   10.914212  11.575422  11.378789   2.051796   1.070000
    29  C    5.034154   5.630475   5.636072   8.825442   9.480210
    30  H    5.658528   6.098549   6.402459   8.525179   9.227645
    31  H    5.675987   6.412157   6.127186   8.671821   9.176247
    32  H    4.959238   5.495373   5.494126   9.884503  10.548930
                   26         27         28         29         30
    26  H    0.000000
    27  H    1.747303   0.000000
    28  H    1.747303   1.747303   0.000000
    29  C    9.476782  10.509445   9.126808   0.000000
    30  H    9.145556  10.265105   8.985030   1.070000   0.000000
    31  H    9.137295  10.217385   8.742238   1.070000   1.747303
    32  H   10.544588  11.576569  10.186166   1.070000   1.747303
                   31         32
    31  H    0.000000
    32  H    1.747303   0.000000
 Stoichiometry    C14H13NO4
 Framework group  C1[X(C14H13NO4)]
 Deg. of freedom    90
 Full point group                 C1      NOp   1
 Largest Abelian subgroup         C1      NOp   1
 Largest concise Abelian subgroup C1      NOp   1
                         Standard orientation:                         
 ---------------------------------------------------------------------
 Center     Atomic      Atomic             Coordinates (Angstroms)
 Number     Number       Type             X           Y           Z
 ---------------------------------------------------------------------
      1          6           0        3.539530   -0.483594    0.007369
      2          6           0        2.364866   -1.244643    0.077307
      3          6           0        1.117896   -0.606453    0.118561
      4          6           0        1.045590    0.792786    0.089874
      5          6           0        2.220254    1.553835    0.019938
      6          6           0        3.467224    0.915645   -0.021315
      7          1           0        2.420073   -2.312994    0.099211
      8          1           0        4.364106    1.496723   -0.074711
      9          8           0       -0.335651    1.499696    0.135566
     10          6           0       -1.864727    0.791004    0.098281
     11          6           0       -1.883166   -0.610208    0.111940
     12          6           0       -3.053273    1.505469   -0.103755
     13          6           0       -3.090152   -1.296955   -0.076440
     14          6           0       -4.260259    0.818723   -0.292132
     15          1           0       -3.039194    2.575326   -0.114184
     16          6           0       -4.278698   -0.582489   -0.278475
     17          1           0       -3.104230   -2.366811   -0.066013
     18          1           0       -5.167741    1.364233   -0.446390
     19          1           0        0.221015   -1.187531    0.171962
     20          1           0       -0.975685   -1.155718    0.266202
     21          7           0        4.847540   -1.153025   -0.035906
     22          8           0        5.310659   -1.431262   -1.106664
     23          8           0        5.399342   -1.394216    1.001277
     24          8           0       -5.510317   -1.283251   -0.470696
     25          6           0       -6.447204   -0.886333    0.534091
     26          1           0       -6.839511    0.079827    0.294239
     27          1           0       -7.247140   -1.595730    0.576046
     28          1           0       -5.955990   -0.846103    1.483823
     29          6           0        2.140797    3.091461   -0.011586
     30          1           0        1.599588    3.402897   -0.880493
     31          1           0        1.637983    3.440686    0.865979
     32          1           0        3.129613    3.499149   -0.042145
 ---------------------------------------------------------------------
 Rotational constants (GHZ):           0.9602848           0.1345158           0.1208138
 Standard basis: 6-31+G(d) (6D, 7F)
 There are   387 symmetry adapted cartesian basis functions of A   symmetry.
 There are   387 symmetry adapted basis functions of A   symmetry.
   387 basis functions,   660 primitive gaussians,   387 cartesian basis functions
    68 alpha electrons       68 beta electrons
       nuclear repulsion energy      1288.6897557500 Hartrees.
 NAtoms=   32 NActive=   32 NUniq=   32 SFac= 1.00D+00 NAtFMM=   60 NAOKFM=F Big=F
 Integral buffers will be    131072 words long.
 Raffenetti 2 integral format.
 Two-electron integral symmetry is turned on.
 Nuclear repulsion after empirical dispersion term =     1288.6628190681 Hartrees.
 One-electron integrals computed using PRISM.
 NBasis=   387 RedAO= T EigKep=  1.30D-06  NBF=   387
 NBsUse=   385 1.00D-06 EigRej=  7.20D-07 NBFU=   385
 ExpMin= 4.38D-02 ExpMax= 5.48D+03 ExpMxC= 8.25D+02 IAcc=3 IRadAn=         5 AccDes= 0.00D+00
 Harris functional with IExCor=  402 and IRadAn=       5 diagonalized for initial guess.
 HarFok:  IExCor=  402 AccDes= 0.00D+00 IRadAn=         5 IDoV= 1 UseB2=F ITyADJ=14
 ICtDFT=  3500011 ScaDFX=  1.000000  1.000000  1.000000  1.000000
 FoFCou: FMM=F IPFlag=           0 FMFlag=      100000 FMFlg1=           0
         NFxFlg=           0 DoJE=T BraDBF=F KetDBF=T FulRan=T
         wScrn=  0.000000 ICntrl=       500 IOpCl=  0 I1Cent=   200000004 NGrid=           0
         NMat0=    1 NMatS0=      1 NMatT0=    0 NMatD0=    1 NMtDS0=    0 NMtDT0=    0
 Petite list used in FoFCou.
 Requested convergence on RMS density matrix=1.00D-08 within 128 cycles.
 Requested convergence on MAX density matrix=1.00D-06.
 Requested convergence on             energy=1.00D-06.
 No special actions if energy rises.
 SCF Done:  E(RB3LYP) =  -896.799909463     A.U. after   16 cycles
            NFock= 16  Conv=0.39D-08     -V/T= 2.0096

 **********************************************************************

            Population analysis using the SCF Density.

 **********************************************************************

 Orbital symmetries:
       Occupied  (A) (A) (A) (A) (A) (A) (A) (A) (A) (A) (A) (A)
                 (A) (A) (A) (A) (A) (A) (A) (A) (A) (A) (A) (A)
                 (A) (A) (A) (A) (A) (A) (A) (A) (A) (A) (A) (A)
                 (A) (A) (A) (A) (A) (A) (A) (A) (A) (A) (A) (A)
                 (A) (A) (A) (A) (A) (A) (A) (A) (A) (A) (A) (A)
                 (A) (A) (A) (A) (A) (A) (A) (A)
       Virtual   (A) (A) (A) (A) (A) (A) (A) (A) (A) (A) (A) (A)
                 (A) (A) (A) (A) (A) (A) (A) (A) (A) (A) (A) (A)
                 (A) (A) (A) (A) (A) (A) (A) (A) (A) (A) (A) (A)
                 (A) (A) (A) (A) (A) (A) (A) (A) (A) (A) (A) (A)
                 (A) (A) (A) (A) (A) (A) (A) (A) (A) (A) (A) (A)
                 (A) (A) (A) (A) (A) (A) (A) (A) (A) (A) (A) (A)
                 (A) (A) (A) (A) (A) (A) (A) (A) (A) (A) (A) (A)
                 (A) (A) (A) (A) (A) (A) (A) (A) (A) (A) (A) (A)
                 (A) (A) (A) (A) (A) (A) (A) (A) (A) (A) (A) (A)
                 (A) (A) (A) (A) (A) (A) (A) (A) (A) (A) (A) (A)
                 (A) (A) (A) (A) (A) (A) (A) (A) (A) (A) (A) (A)
                 (A) (A) (A) (A) (A) (A) (A) (A) (A) (A) (A) (A)
                 (A) (A) (A) (A) (A) (A) (A) (A) (A) (A) (A) (A)
                 (A) (A) (A) (A) (A) (A) (A) (A) (A) (A) (A) (A)
                 (A) (A) (A) (A) (A) (A) (A) (A) (A) (A) (A) (A)
                 (A) (A) (A) (A) (A) (A) (A) (A) (A) (A) (A) (A)
                 (A) (A) (A) (A) (A) (A) (A) (A) (A) (A) (A) (A)
                 (A) (A) (A) (A) (A) (A) (A) (A) (A) (A) (A) (A)
                 (A) (A) (A) (A) (A) (A) (A) (A) (A) (A) (A) (A)
                 (A) (A) (A) (A) (A) (A) (A) (A) (A) (A) (A) (A)
                 (A) (A) (A) (A) (A) (A) (A) (A) (A) (A) (A) (A)
                 (A) (A) (A) (A) (A) (A) (A) (A) (A) (A) (A) (A)
                 (A) (A) (A) (A) (A) (A) (A) (A) (A) (A) (A) (A)
                 (A) (A) (A) (A) (A) (A) (A) (A) (A) (A) (A) (A)
                 (A) (A) (A) (A) (A) (A) (A) (A) (A) (A) (A) (A)
                 (A) (A) (A) (A) (A) (A) (A) (A) (A) (A) (A) (A)
                 (A) (A) (A) (A) (A)
 The electronic state is 1-A.
 Alpha  occ. eigenvalues --  -19.20216 -19.20214 -19.20032 -19.19025 -14.59028
 Alpha  occ. eigenvalues --  -10.29241 -10.28634 -10.27373 -10.26553 -10.24335
 Alpha  occ. eigenvalues --  -10.23675 -10.23325 -10.23172 -10.23145 -10.22637
 Alpha  occ. eigenvalues --  -10.22456 -10.22303 -10.22233 -10.19453  -1.27186
 Alpha  occ. eigenvalues --   -1.08768  -1.06120  -0.98651  -0.89949  -0.88222
 Alpha  occ. eigenvalues --   -0.82253  -0.79945  -0.78363  -0.77136  -0.72105
 Alpha  occ. eigenvalues --   -0.71182  -0.70074  -0.66139  -0.63729  -0.61883
 Alpha  occ. eigenvalues --   -0.59654  -0.57063  -0.55913  -0.55195  -0.52986
 Alpha  occ. eigenvalues --   -0.52810  -0.50887  -0.50485  -0.48963  -0.48135
 Alpha  occ. eigenvalues --   -0.47537  -0.46468  -0.45579  -0.44621  -0.44074
 Alpha  occ. eigenvalues --   -0.43780  -0.41930  -0.40711  -0.40350  -0.39750
 Alpha  occ. eigenvalues --   -0.39277  -0.36781  -0.36707  -0.35119  -0.33367
 Alpha  occ. eigenvalues --   -0.33176  -0.32321  -0.31599  -0.30371  -0.28629
 Alpha  occ. eigenvalues --   -0.27955  -0.26909  -0.24358
 Alpha virt. eigenvalues --   -0.07967  -0.04708  -0.04683  -0.03922  -0.03371
 Alpha virt. eigenvalues --   -0.02332  -0.00371   0.00260   0.00933   0.01660
 Alpha virt. eigenvalues --    0.02189   0.02968   0.03546   0.03808   0.04392
 Alpha virt. eigenvalues --    0.04442   0.04779   0.05569   0.05817   0.06673
 Alpha virt. eigenvalues --    0.07004   0.07641   0.07835   0.08404   0.09091
 Alpha virt. eigenvalues --    0.09426   0.09844   0.10401   0.10907   0.11061
 Alpha virt. eigenvalues --    0.11350   0.11465   0.11845   0.12695   0.12904
 Alpha virt. eigenvalues --    0.12978   0.13269   0.13760   0.14121   0.14155
 Alpha virt. eigenvalues --    0.14459   0.15204   0.15346   0.16127   0.16587
 Alpha virt. eigenvalues --    0.16870   0.17484   0.17661   0.17772   0.18272
 Alpha virt. eigenvalues --    0.19010   0.19458   0.19859   0.20260   0.20408
 Alpha virt. eigenvalues --    0.20688   0.21193   0.21391   0.21744   0.21883
 Alpha virt. eigenvalues --    0.22490   0.23475   0.23905   0.23945   0.24426
 Alpha virt. eigenvalues --    0.24506   0.24641   0.25300   0.25460   0.25751
 Alpha virt. eigenvalues --    0.26168   0.26738   0.27411   0.27547   0.28054
 Alpha virt. eigenvalues --    0.28379   0.28826   0.29178   0.29556   0.30046
 Alpha virt. eigenvalues --    0.30386   0.30788   0.31119   0.31417   0.31926
 Alpha virt. eigenvalues --    0.32560   0.33350   0.33661   0.34340   0.34615
 Alpha virt. eigenvalues --    0.34788   0.35583   0.35707   0.36697   0.37347
 Alpha virt. eigenvalues --    0.37441   0.38382   0.39141   0.39410   0.40031
 Alpha virt. eigenvalues --    0.40528   0.40927   0.41368   0.41669   0.42676
 Alpha virt. eigenvalues --    0.44874   0.45606   0.46934   0.49408   0.50395
 Alpha virt. eigenvalues --    0.55703   0.57025   0.58957   0.59802   0.62664
 Alpha virt. eigenvalues --    0.64332   0.65009   0.65781   0.66595   0.66876
 Alpha virt. eigenvalues --    0.67747   0.68762   0.69518   0.70992   0.71167
 Alpha virt. eigenvalues --    0.72100   0.72262   0.73040   0.74180   0.74848
 Alpha virt. eigenvalues --    0.75248   0.76060   0.77081   0.77201   0.78706
 Alpha virt. eigenvalues --    0.79037   0.79588   0.80584   0.80893   0.82300
 Alpha virt. eigenvalues --    0.82828   0.84421   0.86955   0.87593   0.88789
 Alpha virt. eigenvalues --    0.91510   0.92510   0.93166   0.93666   0.95880
 Alpha virt. eigenvalues --    0.96376   0.97589   0.98166   0.98432   0.98702
 Alpha virt. eigenvalues --    0.99840   1.01841   1.05404   1.07188   1.07674
 Alpha virt. eigenvalues --    1.08633   1.10455   1.10960   1.11625   1.12822
 Alpha virt. eigenvalues --    1.13947   1.15380   1.16631   1.17346   1.17878
 Alpha virt. eigenvalues --    1.18133   1.18218   1.19508   1.19608   1.20615
 Alpha virt. eigenvalues --    1.21045   1.21239   1.22057   1.23473   1.24233
 Alpha virt. eigenvalues --    1.25120   1.26946   1.27692   1.28098   1.28781
 Alpha virt. eigenvalues --    1.28855   1.30055   1.31286   1.33833   1.34470
 Alpha virt. eigenvalues --    1.35054   1.36731   1.38242   1.39170   1.40410
 Alpha virt. eigenvalues --    1.40813   1.41830   1.43419   1.45230   1.45430
 Alpha virt. eigenvalues --    1.46142   1.46640   1.47405   1.48646   1.50006
 Alpha virt. eigenvalues --    1.51042   1.53165   1.54697   1.55778   1.60222
 Alpha virt. eigenvalues --    1.66297   1.66355   1.70730   1.72196   1.74461
 Alpha virt. eigenvalues --    1.76055   1.76532   1.79125   1.79844   1.80069
 Alpha virt. eigenvalues --    1.80268   1.80341   1.82194   1.83432   1.84134
 Alpha virt. eigenvalues --    1.84451   1.86029   1.87062   1.87856   1.89629
 Alpha virt. eigenvalues --    1.90272   1.93405   1.95578   1.97213   1.97915
 Alpha virt. eigenvalues --    1.99762   2.00938   2.02183   2.04037   2.05055
 Alpha virt. eigenvalues --    2.05632   2.07383   2.07874   2.09300   2.11347
 Alpha virt. eigenvalues --    2.12828   2.13032   2.14582   2.16111   2.16195
 Alpha virt. eigenvalues --    2.19172   2.21587   2.23053   2.23443   2.24855
 Alpha virt. eigenvalues --    2.26751   2.27108   2.27863   2.28172   2.30034
 Alpha virt. eigenvalues --    2.31716   2.32575   2.33648   2.38317   2.39152
 Alpha virt. eigenvalues --    2.40619   2.42428   2.44416   2.47212   2.53795
 Alpha virt. eigenvalues --    2.54348   2.58510   2.60018   2.60827   2.62012
 Alpha virt. eigenvalues --    2.64199   2.69576   2.69884   2.71601   2.73613
 Alpha virt. eigenvalues --    2.75063   2.77196   2.79582   2.79833   2.81819
 Alpha virt. eigenvalues --    2.84735   2.87330   2.88766   2.93393   2.99048
 Alpha virt. eigenvalues --    2.99341   3.02698   3.03787   3.09671   3.11415
 Alpha virt. eigenvalues --    3.17685   3.39340   3.40568   4.15336   4.22387
 Alpha virt. eigenvalues --    4.25163   4.26507   4.28548   4.29711   4.32076
 Alpha virt. eigenvalues --    4.33664   4.35131   4.38107   4.38538   4.40686
 Alpha virt. eigenvalues --    4.44009   4.46375   4.49599   4.53321   4.56019
 Alpha virt. eigenvalues --    4.76069   4.77459
          Condensed to atoms (all electrons):
               1          2          3          4          5          6
     1  C   14.103074  -2.554010  -0.741841  -0.811146  -1.735851  -1.637893
     2  C   -2.554010  23.334305  -5.805979  -1.628420   1.542810  -8.717359
     3  C   -0.741841  -5.805979  14.813530   1.161999  -3.615358  -0.131877
     4  C   -0.811146  -1.628420   1.161999  11.408338  -0.380242  -3.090814
     5  C   -1.735851   1.542810  -3.615358  -0.380242  11.861644  -0.834236
     6  C   -1.637893  -8.717359  -0.131877  -3.090814  -0.834236  20.993468
     7  H    0.001650   0.341743  -0.045273  -0.008118   0.002468   0.004916
     8  H    0.026416  -0.024369   0.017873   0.039483  -0.034739   0.280829
     9  O   -0.026297   0.018045  -0.032161   0.226890  -0.190908  -0.018974
    10  C   -0.074932  -0.036057  -0.492001  -0.118120   0.616242   0.237807
    11  C   -0.131826  -0.246725  -0.043044   0.089135  -0.263744   0.243036
    12  C    0.012115  -0.587660  -0.847556   0.847753   0.375392  -0.005576
    13  C    0.175831   0.299303   1.213194  -1.203146  -0.516374  -0.107643
    14  C    0.016468   0.024597   0.188713  -0.070260  -0.067079  -0.020016
    15  H   -0.000044  -0.000165   0.000809  -0.003366  -0.001403   0.000107
    16  C   -0.023352  -0.108389  -0.303330   0.041938   0.046361   0.028642
    17  H    0.000245   0.004267  -0.000148  -0.006089  -0.000581   0.000001
    18  H    0.000005   0.000071   0.000938   0.000269  -0.000129  -0.000013
    19  H   -0.014303   0.037739   0.109582   0.002645   0.043856   0.017932
    20  H    0.007046   0.031720   0.006805   0.007141   0.006659  -0.006437
    21  N   -0.312845   0.241684  -0.106312   0.073387   0.007248  -0.362174
    22  O    0.276798  -0.177591   0.044737   0.016948  -0.011046  -0.119615
    23  O    0.278164  -0.189259   0.037278   0.002034   0.018643  -0.119633
    24  O    0.000037  -0.000461   0.000005   0.000527  -0.000410  -0.000079
    25  C    0.000082  -0.000437   0.001009  -0.001112  -0.000421  -0.000073
    26  H    0.000000  -0.000004  -0.000153   0.000034   0.000013   0.000001
    27  H    0.000000   0.000000   0.000003   0.000005  -0.000001   0.000000
    28  H    0.000002   0.000031   0.000552  -0.000116   0.000004  -0.000001
    29  C   -0.550720   0.553719   0.089858  -0.528438  -0.859049  -0.513059
    30  H   -0.012104   0.006266   0.001796  -0.010317  -0.069147  -0.019409
    31  H   -0.010182   0.006906  -0.003405  -0.015889  -0.066929  -0.018787
    32  H    0.010926   0.001255  -0.008454  -0.026265  -0.135468   0.039288
               7          8          9         10         11         12
     1  C    0.001650   0.026416  -0.026297  -0.074932  -0.131826   0.012115
     2  C    0.341743  -0.024369   0.018045  -0.036057  -0.246725  -0.587660
     3  C   -0.045273   0.017873  -0.032161  -0.492001  -0.043044  -0.847556
     4  C   -0.008118   0.039483   0.226890  -0.118120   0.089135   0.847753
     5  C    0.002468  -0.034739  -0.190908   0.616242  -0.263744   0.375392
     6  C    0.004916   0.280829  -0.018974   0.237807   0.243036  -0.005576
     7  H    0.514035  -0.000162  -0.000256  -0.002245  -0.003883  -0.000560
     8  H   -0.000162   0.512492  -0.000182   0.000583   0.000501  -0.000026
     9  O   -0.000256  -0.000182   8.386491   0.298302  -0.093069  -0.185415
    10  C   -0.002245   0.000583   0.298302  11.132703  -1.556096  -3.739180
    11  C   -0.003883   0.000501  -0.093069  -1.556096  12.783509   0.345470
    12  C   -0.000560  -0.000026  -0.185415  -3.739180   0.345470  11.196102
    13  C    0.002851   0.000022   0.019568   1.642845  -5.673459  -1.718717
    14  C    0.000048  -0.000007   0.021648   0.114929  -0.841887  -0.619002
    15  H    0.000000   0.000000  -0.002494   0.013400   0.064610   0.308905
    16  C    0.000054   0.000003  -0.026420  -1.814866   0.748062   1.448413
    17  H    0.000000   0.000000  -0.000192   0.025939  -0.068450  -0.038256
    18  H    0.000000   0.000000  -0.000107   0.040524  -0.007910  -0.104598
    19  H   -0.008112   0.000017  -0.010234   0.048803   0.003294   0.013159
    20  H    0.000274   0.000000  -0.010395   0.051246   0.068499  -0.006144
    21  N   -0.001462  -0.003689   0.000329   0.000867  -0.001302  -0.000605
    22  O    0.000223   0.001068   0.000000  -0.000093   0.000929   0.000032
    23  O    0.000544   0.000820  -0.000007  -0.000342   0.001143  -0.000009
    24  O    0.000000   0.000000   0.000257  -0.032446  -0.023821   0.044001
    25  C    0.000000   0.000000   0.000048  -0.032608  -0.067552   0.066180
    26  H    0.000000   0.000000  -0.000001  -0.009010   0.009657   0.010773
    27  H    0.000000   0.000000   0.000000   0.000732  -0.001752  -0.000068
    28  H    0.000000   0.000000  -0.000002   0.012484   0.009726  -0.013743
    29  C    0.001960  -0.022242   0.042627  -0.127539   0.092544  -0.184845
    30  H    0.000000   0.000201   0.001101  -0.001960   0.001920  -0.004359
    31  H    0.000000   0.000197   0.001168  -0.001891   0.001764  -0.003292
    32  H    0.000000   0.004079   0.001087   0.000154  -0.000580   0.000801
              13         14         15         16         17         18
     1  C    0.175831   0.016468  -0.000044  -0.023352   0.000245   0.000005
     2  C    0.299303   0.024597  -0.000165  -0.108389   0.004267   0.000071
     3  C    1.213194   0.188713   0.000809  -0.303330  -0.000148   0.000938
     4  C   -1.203146  -0.070260  -0.003366   0.041938  -0.006089   0.000269
     5  C   -0.516374  -0.067079  -0.001403   0.046361  -0.000581  -0.000129
     6  C   -0.107643  -0.020016   0.000107   0.028642   0.000001  -0.000013
     7  H    0.002851   0.000048   0.000000   0.000054   0.000000   0.000000
     8  H    0.000022  -0.000007   0.000000   0.000003   0.000000   0.000000
     9  O    0.019568   0.021648  -0.002494  -0.026420  -0.000192  -0.000107
    10  C    1.642845   0.114929   0.013400  -1.814866   0.025939   0.040524
    11  C   -5.673459  -0.841887   0.064610   0.748062  -0.068450  -0.007910
    12  C   -1.718717  -0.619002   0.308905   1.448413  -0.038256  -0.104598
    13  C   14.967628  -0.466905  -0.035352  -2.520806   0.327920   0.028495
    14  C   -0.466905   7.512505  -0.073466  -0.181494   0.037254   0.380798
    15  H   -0.035352  -0.073466   0.503708   0.020404   0.000014  -0.005220
    16  C   -2.520806  -0.181494   0.020404   8.354064   0.014725  -0.046555
    17  H    0.327920   0.037254   0.000014   0.014725   0.513782  -0.000155
    18  H    0.028495   0.380798  -0.005220  -0.046555  -0.000155   0.520103
    19  H   -0.034194  -0.001276   0.000004  -0.004929   0.000271   0.000000
    20  H    0.075682   0.026821  -0.000210  -0.044643  -0.008353   0.000013
    21  N    0.001198  -0.000055   0.000000   0.000066   0.000000   0.000000
    22  O   -0.000089  -0.000007   0.000000   0.000026   0.000000   0.000000
    23  O    0.000174  -0.000001   0.000000   0.000004   0.000000   0.000000
    24  O   -0.221461  -0.143793  -0.000609   0.496925  -0.004769  -0.003094
    25  C    0.019171  -0.046827   0.000029  -0.148073   0.000190   0.003825
    26  H   -0.065267   0.010645   0.000010   0.022541   0.000004   0.001240
    27  H    0.013422  -0.012922   0.000000   0.013472  -0.000019  -0.000021
    28  H    0.072701  -0.001150  -0.000002  -0.077953  -0.000003   0.000092
    29  C    0.089752  -0.003424   0.000229  -0.016536   0.000020   0.000016
    30  H    0.000190  -0.000547  -0.000001  -0.000006   0.000000   0.000000
    31  H    0.000213  -0.000335   0.000000  -0.000041   0.000000   0.000000
    32  H   -0.000048   0.000056   0.000000   0.000001   0.000000   0.000000
              19         20         21         22         23         24
     1  C   -0.014303   0.007046  -0.312845   0.276798   0.278164   0.000037
     2  C    0.037739   0.031720   0.241684  -0.177591  -0.189259  -0.000461
     3  C    0.109582   0.006805  -0.106312   0.044737   0.037278   0.000005
     4  C    0.002645   0.007141   0.073387   0.016948   0.002034   0.000527
     5  C    0.043856   0.006659   0.007248  -0.011046   0.018643  -0.000410
     6  C    0.017932  -0.006437  -0.362174  -0.119615  -0.119633  -0.000079
     7  H   -0.008112   0.000274  -0.001462   0.000223   0.000544   0.000000
     8  H    0.000017   0.000000  -0.003689   0.001068   0.000820   0.000000
     9  O   -0.010234  -0.010395   0.000329   0.000000  -0.000007   0.000257
    10  C    0.048803   0.051246   0.000867  -0.000093  -0.000342  -0.032446
    11  C    0.003294   0.068499  -0.001302   0.000929   0.001143  -0.023821
    12  C    0.013159  -0.006144  -0.000605   0.000032  -0.000009   0.044001
    13  C   -0.034194   0.075682   0.001198  -0.000089   0.000174  -0.221461
    14  C   -0.001276   0.026821  -0.000055  -0.000007  -0.000001  -0.143793
    15  H    0.000004  -0.000210   0.000000   0.000000   0.000000  -0.000609
    16  C   -0.004929  -0.044643   0.000066   0.000026   0.000004   0.496925
    17  H    0.000271  -0.008353   0.000000   0.000000   0.000000  -0.004769
    18  H    0.000000   0.000013   0.000000   0.000000   0.000000  -0.003094
    19  H    0.646325  -0.001203   0.001170  -0.000035  -0.000058   0.000001
    20  H   -0.001203   0.641049   0.000057  -0.000005  -0.000003  -0.000169
    21  N    0.001170   0.000057   7.369608   0.230584   0.233998   0.000000
    22  O   -0.000035  -0.000005   0.230584   7.837386  -0.111642   0.000000
    23  O   -0.000058  -0.000003   0.233998  -0.111642   7.836342   0.000000
    24  O    0.000001  -0.000169   0.000000   0.000000   0.000000   8.322695
    25  C   -0.000041   0.000471   0.000000   0.000000   0.000000   0.079885
    26  H    0.000000   0.000000   0.000000   0.000000   0.000000  -0.048100
    27  H    0.000000   0.000000   0.000000   0.000000   0.000000  -0.045613
    28  H    0.000000   0.000006   0.000000   0.000000   0.000000  -0.050353
    29  C    0.003937   0.001407  -0.032389   0.004214   0.006307   0.000028
    30  H    0.000001   0.000000  -0.000013  -0.000001   0.000006   0.000000
    31  H   -0.000001   0.000001  -0.000019   0.000006  -0.000001   0.000000
    32  H    0.000003   0.000000  -0.000188   0.000016   0.000013   0.000000
              25         26         27         28         29         30
     1  C    0.000082   0.000000   0.000000   0.000002  -0.550720  -0.012104
     2  C   -0.000437  -0.000004   0.000000   0.000031   0.553719   0.006266
     3  C    0.001009  -0.000153   0.000003   0.000552   0.089858   0.001796
     4  C   -0.001112   0.000034   0.000005  -0.000116  -0.528438  -0.010317
     5  C   -0.000421   0.000013  -0.000001   0.000004  -0.859049  -0.069147
     6  C   -0.000073   0.000001   0.000000  -0.000001  -0.513059  -0.019409
     7  H    0.000000   0.000000   0.000000   0.000000   0.001960   0.000000
     8  H    0.000000   0.000000   0.000000   0.000000  -0.022242   0.000201
     9  O    0.000048  -0.000001   0.000000  -0.000002   0.042627   0.001101
    10  C   -0.032608  -0.009010   0.000732   0.012484  -0.127539  -0.001960
    11  C   -0.067552   0.009657  -0.001752   0.009726   0.092544   0.001920
    12  C    0.066180   0.010773  -0.000068  -0.013743  -0.184845  -0.004359
    13  C    0.019171  -0.065267   0.013422   0.072701   0.089752   0.000190
    14  C   -0.046827   0.010645  -0.012922  -0.001150  -0.003424  -0.000547
    15  H    0.000029   0.000010   0.000000  -0.000002   0.000229  -0.000001
    16  C   -0.148073   0.022541   0.013472  -0.077953  -0.016536  -0.000006
    17  H    0.000190   0.000004  -0.000019  -0.000003   0.000020   0.000000
    18  H    0.003825   0.001240  -0.000021   0.000092   0.000016   0.000000
    19  H   -0.000041   0.000000   0.000000   0.000000   0.003937   0.000001
    20  H    0.000471   0.000000   0.000000   0.000006   0.001407   0.000000
    21  N    0.000000   0.000000   0.000000   0.000000  -0.032389  -0.000013
    22  O    0.000000   0.000000   0.000000   0.000000   0.004214  -0.000001
    23  O    0.000000   0.000000   0.000000   0.000000   0.006307   0.000006
    24  O    0.079885  -0.048100  -0.045613  -0.050353   0.000028   0.000000
    25  C    5.305895   0.406505   0.386323   0.384818   0.000001   0.000000
    26  H    0.406505   0.551905  -0.032909  -0.047122  -0.000001   0.000000
    27  H    0.386323  -0.032909   0.498031  -0.026789   0.000000   0.000000
    28  H    0.384818  -0.047122  -0.026789   0.528643   0.000001   0.000000
    29  C    0.000001  -0.000001   0.000000   0.000001   7.358716   0.445443
    30  H    0.000000   0.000000   0.000000   0.000000   0.445443   0.473059
    31  H    0.000000   0.000000   0.000000   0.000000   0.450173  -0.025849
    32  H    0.000000   0.000000   0.000000   0.000000   0.454701  -0.027152
              31         32
     1  C   -0.010182   0.010926
     2  C    0.006906   0.001255
     3  C   -0.003405  -0.008454
     4  C   -0.015889  -0.026265
     5  C   -0.066929  -0.135468
     6  C   -0.018787   0.039288
     7  H    0.000000   0.000000
     8  H    0.000197   0.004079
     9  O    0.001168   0.001087
    10  C   -0.001891   0.000154
    11  C    0.001764  -0.000580
    12  C   -0.003292   0.000801
    13  C    0.000213  -0.000048
    14  C   -0.000335   0.000056
    15  H    0.000000   0.000000
    16  C   -0.000041   0.000001
    17  H    0.000000   0.000000
    18  H    0.000000   0.000000
    19  H   -0.000001   0.000003
    20  H    0.000001   0.000000
    21  N   -0.000019  -0.000188
    22  O    0.000006   0.000016
    23  O   -0.000001   0.000013
    24  O    0.000000   0.000000
    25  C    0.000000   0.000000
    26  H    0.000000   0.000000
    27  H    0.000000   0.000000
    28  H    0.000000   0.000000
    29  C    0.450173   0.454701
    30  H   -0.025849  -0.027152
    31  H    0.472573  -0.027236
    32  H   -0.027236   0.508277
 Mulliken charges:
               1
     1  C   -0.271510
     2  C   -0.367578
     3  C    0.488210
     4  C   -0.016667
     5  C    0.261776
     6  C   -0.122359
     7  H    0.199306
     8  H    0.200835
     9  O   -0.420445
    10  C   -0.198174
    11  C    0.561302
    12  C   -0.609484
    13  C   -0.386700
    14  C    0.215971
    15  H    0.210103
    16  C    0.081693
    17  H    0.202383
    18  H    0.191416
    19  H    0.145647
    20  H    0.152666
    21  N   -0.339142
    22  O    0.007157
    23  O    0.005487
    24  O   -0.369183
    25  C   -0.357288
    26  H    0.189241
    27  H    0.208106
    28  H    0.208174
    29  C   -0.757412
    30  H    0.240881
    31  H    0.240856
    32  H    0.204732
 Sum of Mulliken charges =   0.00000
 Mulliken charges with hydrogens summed into heavy atoms:
               1
     1  C   -0.271510
     2  C   -0.168272
     3  C    0.633857
     4  C   -0.016667
     5  C    0.261776
     6  C    0.078477
     9  O   -0.420445
    10  C   -0.198174
    11  C    0.713968
    12  C   -0.399381
    13  C   -0.184317
    14  C    0.407387
    16  C    0.081693
    21  N   -0.339142
    22  O    0.007157
    23  O    0.005487
    24  O   -0.369183
    25  C    0.248233
    29  C   -0.070942
 Electronic spatial extent (au):  <R**2>=           8330.0921
 Charge=              0.0000 electrons
 Dipole moment (field-independent basis, Debye):
    X=             -5.5522    Y=              1.9325    Z=              1.1301  Tot=              5.9865
 Quadrupole moment (field-independent basis, Debye-Ang):
   XX=           -120.2163   YY=           -104.4910   ZZ=           -119.4039
   XY=              9.0590   XZ=             -6.7053   YZ=             -3.1141
 Traceless Quadrupole moment (field-independent basis, Debye-Ang):
   XX=             -5.5125   YY=             10.2127   ZZ=             -4.7002
   XY=              9.0590   XZ=             -6.7053   YZ=             -3.1141
 Octapole moment (field-independent basis, Debye-Ang**2):
  XXX=           -278.5816  YYY=             -3.4314  ZZZ=              0.2814  XYY=              1.7764
  XXY=            107.0748  XXZ=             41.7375  XZZ=             -7.3827  YZZ=              2.0844
  YYZ=              1.5088  XYZ=             11.7072
 Hexadecapole moment (field-independent basis, Debye-Ang**3):
 XXXX=          -9471.9411 YYYY=          -1321.3570 ZZZZ=           -250.9162 XXXY=            340.3260
 XXXZ=           -263.4289 YYYX=            -22.7732 YYYZ=             -5.5390 ZZZX=             -3.4154
 ZZZY=              1.1034 XXYY=          -1798.9145 XXZZ=          -1745.1182 YYZZ=           -284.9588
 XXYZ=            -84.5687 YYXZ=             -7.5404 ZZXY=             14.4819
 N-N= 1.288662819068D+03 E-N=-4.664350404794D+03  KE= 8.882980807894D+02
 Evaluate density.
 Using the total density.
 Monte-Carlo method of calculating molar volume:
 based on  0.001 e/bohr**3 density envelope.
 Number of points per bohr**3 =   20 CutOff= 1.00D-04
 Using the SCF density.
 There are       438 points.  Will hold       438 in memory.
 LenV=  4026210426 MDV=  4026531840.
 Box volume =10532.561 fraction occupied=0.219
 Integrated density= 9.3328798563772452D+01 error=-4.2671201436227548D+01
 Molar volume = 2308.506 bohr**3/mol (206.009 cm**3/mol)
 Recommended a0 for SCRF calculation =  5.28 angstrom (  9.97 bohr)
 Calling FoFJK, ICntrl=      2127 FMM=F ISym2X=0 I1Cent= 0 IOpClX= 0 NMat=1 NMatS=1 NMatT=0.
 ***** Axes restored to original set *****
 -------------------------------------------------------------------
 Center     Atomic                   Forces (Hartrees/Bohr)
 Number     Number              X              Y              Z
 -------------------------------------------------------------------
      1        6           0.004502123    0.023182278   -0.006811540
      2        6           0.002159650    0.001953685    0.013001527
      3        6          -0.000780682   -0.012677848    0.020198814
      4        6           0.006336802    0.047142996   -0.046418754
      5        6           0.007864259    0.024958144    0.017313081
      6        6          -0.003389585   -0.001542104   -0.021069178
      7        1          -0.002863425   -0.007111585   -0.008797907
      8        1           0.000928293   -0.002579913    0.011069330
      9        8          -0.003505667   -0.008897216   -0.022051595
     10        6          -0.003618834   -0.058819174    0.028506706
     11        6           0.005290976    0.020077263   -0.003507202
     12        6          -0.004842912   -0.013394476    0.015938921
     13        6           0.003637203    0.012265320    0.008060348
     14        6          -0.008955614   -0.018299218    0.002011684
     15        1           0.004013360    0.006161781    0.009359288
     16        6           0.007070928    0.005649559   -0.019479559
     17        1          -0.002420493   -0.005462169   -0.009625723
     18        1           0.004356922    0.009399108    0.000804408
     19        1          -0.002502954   -0.022330896    0.012336497
     20        1           0.000667348    0.018303491   -0.017558425
     21        7           0.004749252    0.023458674   -0.004996644
     22        8           0.047243286   -0.024640381   -0.003567788
     23        8          -0.052649420   -0.001991167    0.009225842
     24        8          -0.008810132   -0.017680976    0.029029463
     25        6           0.007800321   -0.008346052    0.001412825
     26        1           0.006322603    0.017506846    0.006172278
     27        1           0.002257861   -0.000377511   -0.016829971
     28        1          -0.018305148    0.000179785    0.005516318
     29        6          -0.008683954   -0.023008463   -0.024110802
     30        1           0.014926272    0.008856556   -0.001742466
     31        1          -0.009065255    0.014706944    0.001162600
     32        1           0.000266616   -0.006643279    0.015447624
 -------------------------------------------------------------------
 Cartesian Forces:  Max     0.058819174 RMS     0.016713259

 GradGradGradGradGradGradGradGradGradGradGradGradGradGradGradGradGradGrad
 Berny optimization.
 FormGI is forming the generalized inverse of G from B-inverse, IUseBI=4.
 Internal  Forces:  Max     0.165443453 RMS     0.023597261
 Search for a local minimum.
 Step number   1 out of a maximum of  163
 All quantities printed in internal units (Hartrees-Bohrs-Radians)
 Mixed Optimization -- RFO/linear search
 Second derivative matrix not updated -- first step.
 ITU=  0
     Eigenvalues ---    0.00230   0.00230   0.00237   0.00766   0.00766
     Eigenvalues ---    0.01295   0.01295   0.01335   0.01656   0.01754
     Eigenvalues ---    0.01784   0.01932   0.02070   0.02070   0.02070
     Eigenvalues ---    0.02070   0.02070   0.02070   0.02070   0.02070
     Eigenvalues ---    0.02070   0.02070   0.02070   0.02070   0.02070
     Eigenvalues ---    0.07243   0.07243   0.10344   0.10344   0.16000
     Eigenvalues ---    0.16000   0.16000   0.16000   0.16000   0.16000
     Eigenvalues ---    0.16000   0.16000   0.16000   0.16000   0.16000
     Eigenvalues ---    0.16000   0.16000   0.18708   0.22000   0.22375
     Eigenvalues ---    0.22966   0.23491   0.23969   0.24610   0.24759
     Eigenvalues ---    0.25000   0.25000   0.25000   0.25000   0.25000
     Eigenvalues ---    0.25000   0.25000   0.25000   0.27457   0.28519
     Eigenvalues ---    0.35740   0.37230   0.37230   0.37230   0.37230
     Eigenvalues ---    0.37230   0.37230   0.37230   0.37230   0.37230
     Eigenvalues ---    0.37230   0.37230   0.37230   0.37230   0.40989
     Eigenvalues ---    0.40989   0.41268   0.41393   0.41631   0.41697
     Eigenvalues ---    0.45389   0.45389   0.45389   0.45389   0.45389
     Eigenvalues ---    0.45389   0.45389   0.45389   1.05155   1.05157
 RFO step:  Lambda=-1.86726735D-01 EMin= 2.30000000D-03
 Linear search not attempted -- first point.
 Maximum step size (   0.300) exceeded in Quadratic search.
    -- Step size scaled by   0.465
 Iteration  1 RMS(Cart)=  0.27218936 RMS(Int)=  0.01209788
 Iteration  2 RMS(Cart)=  0.15186797 RMS(Int)=  0.00260098
 Iteration  3 RMS(Cart)=  0.00754847 RMS(Int)=  0.00011551
 Iteration  4 RMS(Cart)=  0.00000264 RMS(Int)=  0.00011551
 Iteration  5 RMS(Cart)=  0.00000000 RMS(Int)=  0.00011551
 Variable       Old X    -DE/DX   Delta X   Delta X   Delta X     New X
                                 (Linear)    (Quad)   (Total)
    R1        2.64826  -0.01696   0.00000  -0.01263  -0.01263   2.63563
    R2        2.64826  -0.01424   0.00000  -0.01068  -0.01068   2.63758
    R3        2.77790   0.00331   0.00000   0.00283   0.00283   2.78072
    R4        2.64826  -0.00569   0.00000  -0.00410  -0.00411   2.64416
    R5        2.02201   0.01167   0.00000   0.00970   0.00970   2.03171
    R6        2.64826   0.00423   0.00000   0.00342   0.00342   2.65168
    R7        2.02201  -0.01896   0.00000  -0.01576  -0.01576   2.00624
    R8        2.64826  -0.00194   0.00000  -0.00108  -0.00108   2.64718
    R9        2.93342  -0.04538   0.00000  -0.04574  -0.04574   2.88768
   R10        2.64826  -0.00714   0.00000  -0.00520  -0.00520   2.64306
   R11        2.91018  -0.01128   0.00000  -0.01111  -0.01111   2.89906
   R12        2.02201   0.01133   0.00000   0.00942   0.00942   2.03143
   R13        3.18558  -0.05047   0.00000  -0.06277  -0.06277   3.12281
   R14        2.64826  -0.00326   0.00000  -0.00230  -0.00230   2.64596
   R15        2.64826  -0.01237   0.00000  -0.00900  -0.00900   2.63926
   R16        2.64826  -0.00283   0.00000  -0.00196  -0.00196   2.64630
   R17        2.02201  -0.01963   0.00000  -0.01633  -0.01633   2.00568
   R18        2.64826  -0.00650   0.00000  -0.00481  -0.00481   2.64345
   R19        2.02201   0.01180   0.00000   0.00982   0.00982   2.03182
   R20        2.64826  -0.01357   0.00000  -0.00982  -0.00982   2.63844
   R21        2.02201   0.01125   0.00000   0.00936   0.00936   2.03136
   R22        2.64826  -0.00877   0.00000  -0.00643  -0.00643   2.64183
   R23        2.02201   0.01012   0.00000   0.00841   0.00841   2.03042
   R24        2.70231  -0.02801   0.00000  -0.02183  -0.02183   2.68048
   R25        2.26643   0.05196   0.00000   0.01951   0.01951   2.28593
   R26        2.26642   0.05205   0.00000   0.01954   0.01954   2.28596
   R27        2.70231   0.00903   0.00000   0.00704   0.00704   2.70934
   R28        2.02201   0.01906   0.00000   0.01585   0.01585   2.03786
   R29        2.02201   0.01622   0.00000   0.01348   0.01348   2.03549
   R30        2.02201   0.01885   0.00000   0.01567   0.01567   2.03768
   R31        2.02201   0.01720   0.00000   0.01430   0.01430   2.03631
   R32        2.02201   0.01707   0.00000   0.01419   0.01419   2.03620
   R33        2.02201   0.01671   0.00000   0.01390   0.01390   2.03590
    A1        2.09440   0.00455   0.00000   0.00382   0.00381   2.09821
    A2        2.09440  -0.00223   0.00000  -0.00185  -0.00185   2.09254
    A3        2.09440  -0.00233   0.00000  -0.00196  -0.00196   2.09244
    A4        2.09440  -0.00172   0.00000  -0.00247  -0.00248   2.09192
    A5        2.09440   0.00110   0.00000   0.00156   0.00157   2.09596
    A6        2.09440   0.00062   0.00000   0.00091   0.00091   2.09531
    A7        2.09440   0.00410   0.00000   0.00526   0.00525   2.09965
    A8        2.09440  -0.01947   0.00000  -0.02599  -0.02599   2.06841
    A9        2.09440   0.01537   0.00000   0.02073   0.02073   2.11513
   A10        2.09440  -0.01070   0.00000  -0.01042  -0.01042   2.08398
   A11        2.09440   0.10137   0.00000   0.10742   0.10742   2.20181
   A12        2.09440  -0.09067   0.00000  -0.09700  -0.09700   1.99740
   A13        2.09440   0.00327   0.00000   0.00390   0.00390   2.09830
   A14        2.09440  -0.00420   0.00000  -0.00468  -0.00468   2.08971
   A15        2.09440   0.00093   0.00000   0.00078   0.00078   2.09518
   A16        2.09440   0.00049   0.00000  -0.00007  -0.00007   2.09432
   A17        2.09440   0.00110   0.00000   0.00184   0.00184   2.09623
   A18        2.09440  -0.00159   0.00000  -0.00176  -0.00176   2.09263
   A19        2.23319   0.16544   0.00000   0.17611   0.17611   2.40930
   A20        2.01758   0.10507   0.00000   0.11275   0.11283   2.13041
   A21        2.16295  -0.09691   0.00000  -0.10344  -0.10354   2.05941
   A22        2.09440  -0.00759   0.00000  -0.00785  -0.00784   2.08655
   A23        2.09440   0.00194   0.00000   0.00228   0.00227   2.09666
   A24        2.09440   0.01399   0.00000   0.01892   0.01892   2.11331
   A25        2.09440  -0.01593   0.00000  -0.02120  -0.02120   2.07319
   A26        2.09440   0.00570   0.00000   0.00611   0.00611   2.10050
   A27        2.09440  -0.00301   0.00000  -0.00327  -0.00327   2.09112
   A28        2.09440  -0.00269   0.00000  -0.00284  -0.00283   2.09156
   A29        2.09440   0.00213   0.00000   0.00243   0.00243   2.09682
   A30        2.09440   0.00025   0.00000   0.00055   0.00055   2.09495
   A31        2.09440  -0.00238   0.00000  -0.00298  -0.00298   2.09141
   A32        2.09440   0.00091   0.00000   0.00057   0.00057   2.09497
   A33        2.09440  -0.00279   0.00000  -0.00341  -0.00341   2.09098
   A34        2.09440   0.00188   0.00000   0.00284   0.00284   2.09724
   A35        2.09440  -0.00309   0.00000  -0.00354  -0.00354   2.09085
   A36        2.09440  -0.00755   0.00000  -0.00792  -0.00792   2.08648
   A37        2.09440   0.01065   0.00000   0.01146   0.01146   2.10585
   A38        2.06635  -0.00932   0.00000  -0.00992  -0.00992   2.05644
   A39        2.06634  -0.00932   0.00000  -0.00992  -0.00992   2.05642
   A40        2.15049   0.01863   0.00000   0.01984   0.01984   2.17032
   A41        1.91114   0.02689   0.00000   0.02862   0.02862   1.93975
   A42        1.91063   0.00754   0.00000   0.01034   0.01032   1.92095
   A43        1.91063  -0.01052   0.00000  -0.01463  -0.01462   1.89601
   A44        1.91063   0.00544   0.00000   0.00759   0.00756   1.91820
   A45        1.91063  -0.00130   0.00000  -0.00233  -0.00231   1.90832
   A46        1.91063  -0.00140   0.00000  -0.00082  -0.00088   1.90976
   A47        1.91063   0.00025   0.00000  -0.00015  -0.00014   1.91049
   A48        1.91063   0.00208   0.00000   0.00265   0.00265   1.91328
   A49        1.91063   0.00215   0.00000   0.00275   0.00275   1.91338
   A50        1.91063   0.00232   0.00000   0.00337   0.00336   1.91400
   A51        1.91063  -0.00354   0.00000  -0.00527  -0.00527   1.90537
   A52        1.91063  -0.00151   0.00000  -0.00178  -0.00179   1.90885
   A53        1.91063  -0.00149   0.00000  -0.00173  -0.00174   1.90890
    D1        0.00000  -0.00005   0.00000  -0.00012  -0.00012  -0.00011
    D2       -3.14159  -0.00010   0.00000  -0.00021  -0.00021   3.14139
    D3       -3.14159  -0.00002   0.00000  -0.00004  -0.00004   3.14155
    D4        0.00000  -0.00006   0.00000  -0.00014  -0.00014  -0.00014
    D5        0.00000   0.00001   0.00000   0.00002   0.00001   0.00001
    D6        3.14159   0.00005   0.00000   0.00012   0.00012  -3.14147
    D7        3.14159  -0.00002   0.00000  -0.00006  -0.00006   3.14153
    D8        0.00000   0.00002   0.00000   0.00005   0.00005   0.00005
    D9        1.57667   0.00008   0.00000   0.00020   0.00020   1.57687
   D10       -1.56492  -0.00002   0.00000  -0.00004  -0.00004  -1.56496
   D11       -1.56492   0.00011   0.00000   0.00027   0.00027  -1.56465
   D12        1.57667   0.00001   0.00000   0.00003   0.00003   1.57670
   D13        0.00000   0.00001   0.00000   0.00002   0.00002   0.00003
   D14       -3.14159  -0.00034   0.00000  -0.00077  -0.00076   3.14084
   D15        3.14159   0.00005   0.00000   0.00012   0.00012  -3.14147
   D16        0.00000  -0.00030   0.00000  -0.00067  -0.00066  -0.00066
   D17        0.00000   0.00007   0.00000   0.00017   0.00016   0.00016
   D18        3.14159   0.00016   0.00000   0.00036   0.00037  -3.14123
   D19        3.14159   0.00043   0.00000   0.00096   0.00097  -3.14063
   D20        0.00000   0.00051   0.00000   0.00115   0.00117   0.00117
   D21        0.00000  -0.00012   0.00000  -0.00027  -0.00027  -0.00026
   D22       -3.14159  -0.00009   0.00000  -0.00021  -0.00021   3.14138
   D23       -3.14159  -0.00020   0.00000  -0.00046  -0.00044   3.14115
   D24        0.00000  -0.00018   0.00000  -0.00040  -0.00039  -0.00039
   D25       -0.09171   0.00116   0.00000   0.00287   0.00287  -0.08884
   D26        3.04988   0.00125   0.00000   0.00306   0.00306   3.05294
   D27        0.00000   0.00008   0.00000   0.00017   0.00018   0.00018
   D28       -3.14159   0.00003   0.00000   0.00007   0.00007  -3.14152
   D29       -3.14159   0.00005   0.00000   0.00012   0.00012  -3.14147
   D30        0.00000   0.00001   0.00000   0.00001   0.00002   0.00002
   D31       -1.06997   0.00087   0.00000   0.00157   0.00157  -1.06840
   D32        1.02443  -0.00088   0.00000  -0.00157  -0.00157   1.02285
   D33        3.11882   0.00003   0.00000   0.00006   0.00006   3.11888
   D34        2.07162   0.00090   0.00000   0.00163   0.00163   2.07325
   D35       -2.11717  -0.00086   0.00000  -0.00151  -0.00152  -2.11869
   D36       -0.02277   0.00005   0.00000   0.00012   0.00012  -0.02266
   D37        0.07603   0.01114   0.00000   0.02707   0.02676   0.10279
   D38       -2.92738   0.00560   0.00000   0.01408   0.01439  -2.91299
   D39       -3.00924   0.00343   0.00000  -0.00126  -0.00203  -3.01127
   D40        0.13235   0.00557   0.00000   0.00506   0.00449   0.13684
   D41        0.00000   0.00063   0.00000   0.00251   0.00261   0.00262
   D42       -3.14159   0.00278   0.00000   0.00883   0.00913  -3.13246
   D43        2.99766   0.01135   0.00000   0.01721   0.01660   3.01427
   D44       -0.14393   0.01062   0.00000   0.01717   0.01669  -0.12724
   D45        0.00000  -0.00236   0.00000  -0.00481  -0.00479  -0.00479
   D46        3.14159  -0.00309   0.00000  -0.00485  -0.00470   3.13689
   D47        0.00000   0.00120   0.00000   0.00100   0.00084   0.00084
   D48        3.14159   0.00045   0.00000   0.00093   0.00090  -3.14069
   D49        3.14159  -0.00095   0.00000  -0.00533  -0.00553   3.13606
   D50        0.00000  -0.00169   0.00000  -0.00539  -0.00547  -0.00547
   D51        0.00000   0.00225   0.00000   0.00361   0.00351   0.00351
   D52        3.14159   0.00115   0.00000   0.00266   0.00268  -3.13891
   D53        3.14159   0.00298   0.00000   0.00365   0.00342  -3.13817
   D54        0.00000   0.00188   0.00000   0.00270   0.00259   0.00259
   D55        0.00000  -0.00131   0.00000  -0.00220  -0.00214  -0.00213
   D56       -3.14159  -0.00194   0.00000  -0.00357  -0.00349   3.13810
   D57       -3.14159  -0.00056   0.00000  -0.00214  -0.00220   3.13939
   D58        0.00000  -0.00120   0.00000  -0.00351  -0.00355  -0.00355
   D59        0.00000  -0.00042   0.00000  -0.00010  -0.00003  -0.00002
   D60       -3.14159   0.00022   0.00000   0.00127   0.00134  -3.14025
   D61       -3.14159   0.00068   0.00000   0.00085   0.00081  -3.14078
   D62        0.00000   0.00132   0.00000   0.00222   0.00218   0.00218
   D63        2.12406  -0.00049   0.00000  -0.00119  -0.00119   2.12286
   D64       -1.01754  -0.00113   0.00000  -0.00256  -0.00256  -1.02010
   D65        1.33474   0.00265   0.00000   0.00383   0.00389   1.33864
   D66       -2.85405  -0.00077   0.00000  -0.00165  -0.00165  -2.85570
   D67       -0.75965  -0.00358   0.00000  -0.00614  -0.00620  -0.76585
         Item               Value     Threshold  Converged?
 Maximum Force            0.165443     0.000450     NO 
 RMS     Force            0.023597     0.000300     NO 
 Maximum Displacement     1.366876     0.001800     NO 
 RMS     Displacement     0.416969     0.001200     NO 
 Predicted change in Energy=-7.520141D-02
 GradGradGradGradGradGradGradGradGradGradGradGradGradGradGradGradGradGrad

                          Input orientation:                          
 ---------------------------------------------------------------------
 Center     Atomic      Atomic             Coordinates (Angstroms)
 Number     Number       Type             X           Y           Z
 ---------------------------------------------------------------------
      1          6           0       -4.738581   -0.371633   -0.096915
      2          6           0       -4.866953   -0.174936   -1.471709
      3          6           0       -4.645396    1.094256   -2.017513
      4          6           0       -4.294563    2.170262   -1.187982
      5          6           0       -4.167930    1.962331    0.191528
      6          6           0       -4.389862    0.693061    0.735508
      7          1           0       -5.135476   -0.996571   -2.111024
      8          1           0       -4.291312    0.539381    1.794876
      9          8           0       -4.023588    3.605023   -1.638661
     10          6           0       -3.909004    4.447021   -3.055957
     11          6           0       -4.198784    3.861040   -4.294167
     12          6           0       -3.363819    5.732128   -3.012808
     13          6           0       -3.939976    4.559339   -5.480090
     14          6           0       -3.102625    6.429239   -4.197125
     15          1           0       -3.143708    6.187837   -2.064164
     16          6           0       -3.391042    5.842229   -5.432696
     17          1           0       -4.163833    4.108284   -6.429803
     18          1           0       -2.680804    7.416474   -4.153781
     19          1           0       -4.748279    1.219703   -3.066701
     20          1           0       -4.621048    2.889202   -4.355074
     21          7           0       -4.971454   -1.706036    0.477922
     22          8           0       -4.024502   -2.452599    0.573897
     23          8           0       -6.097089   -1.983439    0.823335
     24          8           0       -3.130044    6.536479   -6.641786
     25          6           0       -3.837918    7.782490   -6.685734
     26          1           0       -3.343942    8.510776   -6.062428
     27          1           0       -3.851699    8.134767   -7.703542
     28          1           0       -4.849727    7.642267   -6.340339
     29          6           0       -3.784428    3.133337    1.105416
     30          1           0       -2.814432    3.509152    0.824298
     31          1           0       -4.511641    3.922351    1.007194
     32          1           0       -3.755308    2.799628    2.129369
 ---------------------------------------------------------------------
                    Distance matrix (angstroms):
                    1          2          3          4          5
     1  C    0.000000
     2  C    1.394714   0.000000
     3  C    2.417894   1.399227   0.000000
[...]
 5,-0.00001017,0.00004735,0.00016238,0.00007625,-0.00008419,-0.00048792
 ,0.00001942,-0.00021359,0.00043268,-0.00007305,0.00023826,0.00032628,-
 0.00071820,0.00151918,-0.00125499,-0.00007224,-0.00039992,-0.00001261,
 -0.00003362,0.00005372,-0.00453379,-0.00137399,0.00117044,-0.00001215,
 0.00001834,-0.00004707,0.00079130,0.00030536,-0.00020268,-0.00000411,0
 .00000429,0.00000297,0.00000605,-0.00005255,0.00012363,-0.00000046,0.0
 0000047,0.00000265,-0.00000004,0.00000081,-0.00000172,0.00000074,-0.00
 000041,-0.00000202,0.00112928,-0.01804285,0.03772111,-0.07376697,0.036
 78411,-0.08342128,-0.00388296,0.00586174,-0.01803635,0.08318010,0.0000
 0228,-0.00004401,0.00000867,-0.00000140,0.00002373,-0.00000730,0.00000
 138,-0.00003822,-0.00001845,-0.00001076,0.00013757,-0.00002202,0.00000
 345,-0.00003351,0.00001722,-0.00000287,0.00002106,0.00001127,0.0000007
 9,-0.00000024,0.00000116,0.,-0.00000062,0.00000028,0.00001876,-0.00016
 882,0.00011726,0.00002583,0.00002730,-0.00012784,-0.00018885,-0.000032
 83,-0.00002680,0.00004749,0.00013723,0.00011281,0.00012264,-0.00007049
 ,0.00067958,-0.00026206,0.00027256,-0.00000050,-0.00000233,0.00001546,
 0.00003357,-0.00188741,0.00053467,-0.00050904,-0.00001434,0.00002038,-
 0.00000280,0.00013691,-0.00033347,-0.00024138,0.00000119,0.00001626,0.
 00000756,0.00000470,-0.00006097,0.00003316,-0.00000495,0.00007395,-0.0
 0000433,0.00000030,-0.00002414,0.00001564,0.00000333,-0.00003212,-0.00
 001422,-0.00150955,-0.00653179,0.01419611,0.03097705,-0.09001980,0.087
 17869,0.00760840,-0.00777632,0.02194473,-0.02862202,0.09267841,-0.0000
 0590,0.00008140,-0.00001913,0.00000284,-0.00004575,0.00001799,-0.00001
 163,0.00007747,0.00003434,0.00001770,-0.00027945,0.00004465,-0.0000061
 3,0.00006132,-0.00002803,0.00000650,-0.00003436,-0.00002318,0.00000020
 ,-0.00000011,-0.00000034,-0.00000012,0.00000140,-0.00000065,0.00000093
 ,0.00028969,-0.00026847,0.00000395,-0.00010958,0.00019210,0.00023451,0
 .00003624,-0.00002062,-0.00000943,0.00007847,0.00002447,-0.00022015,0.
 00041619,-0.00066607,0.00001642,0.00006740,0.00019756,-0.00001089,0.00
 002116,-0.00002100,0.00221999,-0.00035906,0.00203887,0.00001894,0.0000
 0731,0.00001178,0.00013935,-0.00018778,-0.00003746,0.00000575,-0.00002
 554,-0.00001405,0.00000618,0.00001389,-0.00007544,0.00000922,-0.000138
 80,0.00002322,-0.00000026,0.00004767,-0.00003946,-0.00000641,0.0000566
 3,0.00001921,0.00334103,0.00872043,-0.01648253,-0.07134844,0.08911185,
 -0.26221738,0.00056278,-0.00235651,0.00673071,0.07121746,-0.10225820,0
 .28456316,0.00000787,-0.00010331,0.00002109,-0.00000323,0.00005433,-0.
 00002160,0.00001783,-0.00009927,-0.00004043,-0.00002573,0.00035664,-0.
 00005774,0.00001163,-0.00008884,0.00003567,-0.00001021,0.00004814,0.00
 003081,-0.00000235,-0.00000202,0.00000121,0.00000009,-0.00000324,0.000
 00089,-0.00001001,-0.00042955,0.00040438,0.00035013,0.00006940,-0.0000
 8256,-0.00007025,0.00038980,-0.00026064,-0.00009553,-0.00012755,0.0001
 8123,-0.00074857,-0.00019227,0.00119840,0.00064691,0.00021250,0.000722
 84,0.00001861,-0.00001857,0.00006146,0.00014077,0.00197784,-0.00587515
 ,0.00017391,-0.00012341,-0.00013986,0.00028974,0.00012716,-0.00016851,
 -0.00001091,0.00003736,0.00002101,-0.00002261,-0.00005997,0.00001936,-
 0.00001204,0.00016873,-0.00002565,0.00000083,-0.00005750,0.00004681,0.
 00000903,-0.00006852,-0.00002442,-0.02626195,-0.02826762,-0.00612525,-
 0.08652972,-0.06575276,-0.05577324,0.01086717,0.01477956,0.01135311,-0
 .00212932,-0.00644726,-0.00618344,0.10339770,-0.00000285,-0.00001394,0
 .00000199,0.00000445,0.00000467,-0.00000196,-0.00000108,-0.00000686,-0
 .00000935,0.00000268,0.00002642,-0.00001956,-0.00000345,-0.00001712,-0
 .00000068,0.00000110,0.00000871,0.00000981,-0.00000174,0.00000229,-0.0
 0000261,-0.00000049,-0.00000129,0.00000068,0.00005876,-0.00005963,0.00
 011376,0.00045441,0.00001401,0.00000438,-0.00012991,0.00032646,-0.0004
 9132,0.00023216,0.00004446,0.00037849,-0.00045828,-0.00046348,0.001041
 06,-0.00058210,-0.00027134,0.00020756,-0.00000950,-0.00003141,0.000034
 67,-0.00055495,0.00135521,-0.00422129,0.00015555,-0.00002351,-0.000091
 43,0.00082685,-0.00105699,0.00062044,-0.00000249,0.00000710,-0.0000025
 5,-0.00000554,-0.00002734,0.00001066,-0.00000082,0.00002399,-0.0000174
 9,0.00000028,-0.00001180,0.00001694,0.00000133,-0.00000674,0.00000492,
 -0.01350894,-0.00759837,0.00298592,-0.06703807,-0.18083431,-0.10475913
 ,-0.00897951,-0.01634315,-0.01551884,0.00591956,0.01121069,0.00670385,
 0.08362499,0.19374356,-0.00000056,-0.00003307,0.00000623,0.00000217,0.
 00001602,-0.00000571,-0.00000121,-0.00002886,-0.00002262,0.00004684,0.
 00013136,-0.00004761,-0.00001570,-0.00002593,0.00001197,0.00000200,0.0
 0001678,0.00001078,0.00000022,0.00000154,-0.00000151,-0.00000062,-0.00
 000071,0.00000044,-0.00000962,-0.00001817,0.00023031,-0.00085030,-0.00
 021540,-0.00017765,0.00044990,-0.00036046,0.00058072,0.00062474,-0.000
 08103,-0.00083483,0.00061015,-0.00011134,-0.00083541,-0.00124824,-0.00
 009981,0.00022419,-0.00000227,0.00003492,0.00004095,0.00051828,0.00084
 105,0.00337687,-0.00006009,0.00007348,0.00004315,0.00011820,0.00184514
 ,-0.00079644,-0.00000506,0.00000798,0.00000447,-0.00000116,0.00002061,
 0.00002837,-0.00000450,0.00005447,-0.00002103,0.00000059,-0.00002108,0
 .00002397,0.00000272,-0.00001967,-0.00000097,0.01039224,0.01584757,0.0
 1090914,-0.05928223,-0.10824505,-0.14222557,-0.00230042,-0.00150569,-0
 .00166757,-0.00967804,-0.02112078,-0.01399406,0.06068980,0.11299796,0.
 14514014,0.00831690,0.00045532,0.00047802,-0.00085506,0.00000583,0.000
 03451,0.00482143,0.00013943,0.00028282,0.00385769,0.00091749,0.0030254
 0,-0.07268915,0.01098233,0.01259724,0.00440289,0.00257349,0.00192143,-
 0.00060361,-0.00004650,-0.00005430,-0.00507931,-0.00063776,-0.00045302
 ,-0.00361034,0.00021698,-0.00047749,-0.00027174,-0.00001515,0.00004250
 ,0.00011958,0.00015919,-0.00014988,0.00010464,-0.00011659,0.00011655,-
 0.00009874,-0.00002131,-0.00000919,-0.00008849,0.00002917,-0.00000381,
 -0.00005976,0.00000563,0.00003520,0.00007040,-0.00001396,0.00000180,-0
 .00000318,-0.00000002,-0.00001197,-0.00000626,-0.00000078,0.00000906,-
 0.00010316,0.00000856,-0.00002332,-0.00005642,-0.00002395,-0.00005078,
 0.00123131,0.00013595,0.00011941,0.00001083,-0.00002849,0.00001838,-0.
 00063890,-0.00006549,-0.00007135,-0.00002983,0.00000334,-0.00000837,0.
 00001384,0.00000521,0.00000199,-0.00000125,0.00000098,0.00000187,-0.00
 000065,-0.00000125,-0.00000040,-0.00000118,-0.00000360,0.00000168,0.54
 114423,0.00044679,-0.00094128,0.00303640,0.00013435,-0.00185356,-0.000
 70572,-0.00002090,-0.00069906,0.00514931,-0.00059075,0.01149960,0.0002
 0945,0.01030938,-0.13763363,-0.05606317,0.00466661,-0.02510834,-0.0259
 1800,-0.00005086,0.00007788,-0.00003538,-0.00033510,0.00079127,-0.0013
 4350,-0.00057912,-0.00038900,0.00344030,-0.00001489,0.00027855,-0.0003
 7402,-0.00010953,-0.00008891,0.00013233,0.00011832,-0.00008095,0.00017
 652,0.00006493,-0.00002565,0.00000909,-0.00007306,-0.00004040,-0.00000
 454,-0.00002094,0.00002159,0.00002856,0.,0.00003514,-0.00004829,-0.000
 00367,-0.00000630,0.00002404,-0.00000133,-0.00000728,0.00002634,-0.000
 15855,0.00077555,0.00095308,0.00000040,0.00002255,0.00002444,0.0002463
 2,-0.00039514,-0.00129494,-0.00001614,0.00009741,0.00009929,-0.0000226
 8,-0.00051826,0.00013644,-0.00001129,-0.00002849,0.00004999,0.00002240
 ,0.00001206,-0.00000527,-0.00000279,-0.00000004,-0.00000027,-0.0000005
 3,-0.00000137,0.00000191,-0.00000357,-0.00000260,-0.00000198,0.0050810
 6,0.53932328,0.00050418,0.00283006,0.00061277,-0.00009205,0.00072829,-
 0.00047752,0.00042725,0.00335021,-0.00275028,0.00435129,-0.01685097,-0
 .02901127,0.01315931,-0.06300951,-0.16093537,0.00013369,-0.00285090,0.
 00563567,-0.00004942,-0.00008405,0.00000987,-0.00071075,0.00191285,0.0
 0090557,0.00012374,-0.00485218,-0.00114533,0.00003932,-0.00036571,-0.0
 0047050,-0.00003662,-0.00001550,0.00012521,0.00003859,-0.00003624,0.00
 015867,0.00003707,-0.00000177,0.00004819,-0.00005307,-0.00001233,0.000
 04312,-0.00001329,-0.00000853,-0.00000451,-0.00000034,0.00004021,-0.00
 005348,0.00000173,-0.00001309,0.00001510,-0.00000511,-0.00001329,0.000
 01727,0.00011632,-0.00087109,-0.00063035,0.00000708,-0.00000691,-0.000
 00892,0.00002331,-0.00007895,0.00104793,0.00000849,0.00024844,-0.00028
 191,-0.00010505,0.00059866,-0.00001089,-0.00001583,-0.00003972,0.00006
 978,0.00002854,0.00001170,-0.00001444,-0.00000546,0.00000032,-0.000001
 73,0.00000001,-0.00000140,0.00000428,-0.00000473,-0.00000046,-0.000000
 56,0.00406439,-0.05366382,0.54269617,-0.00045982,0.00011832,-0.0001959
 1,-0.00005026,-0.00004149,0.00009339,-0.00026623,0.00020263,-0.0001580
 3,0.00076023,-0.00161916,0.00053806,0.00663784,0.00465841,-0.00091486,
 -0.00044454,0.00093559,0.00041509,0.00005786,0.00001465,0.00000346,0.0
 0020079,0.00009441,0.00002097,-0.00000548,0.00080093,0.00067910,-0.000
 07350,0.00029039,-0.00014045,-0.00001743,-0.00002623,0.00003300,-0.000
 00190,0.00000528,0.00003930,-0.00000014,-0.00000169,-0.00000621,0.0000
 2277,-0.00000679,0.00000961,0.00001855,-0.00001360,-0.00000564,-0.0000
 1970,0.00000582,-0.00004664,0.00000110,-0.00000419,0.00000308,0.000000
 22,-0.00000711,0.00000104,0.00001743,-0.00004750,-0.00003664,0.0000072
 8,-0.00000654,0.00001343,-0.00004912,0.00008048,0.00007172,0.00000487,
 -0.00001107,-0.00002990,0.00003462,-0.00000918,-0.00001517,-0.00000426
 ,-0.00002260,0.00006318,0.00002054,0.00000221,-0.00001474,-0.00000511,
 0.00000233,0.00000014,0.,-0.00000128,0.00000242,-0.00000172,0.00000077
 ,-0.00000086,-0.19791177,-0.13058998,-0.00411442,0.21387039,0.00127827
 ,-0.00059686,-0.00018050,-0.00011011,-0.00009671,0.00011541,0.00037053
 ,-0.00027705,-0.00017131,0.00038492,-0.00138399,0.00179230,-0.01391539
 ,-0.01706839,-0.00347467,-0.00027591,-0.00018870,-0.00247036,-0.000052
 12,0.00000994,-0.00003330,-0.00075623,0.00012776,-0.00019381,-0.000048
 42,0.00143754,-0.00017480,-0.00007493,0.00001873,0.00029728,0.00003992
 ,0.00000520,-0.00005038,-0.00006446,-0.00001056,-0.00004917,0.00000079
 ,0.00000594,-0.00001114,0.00002105,0.00000616,-0.00000991,0.00000815,0
 .00001737,-0.00001200,-0.00000231,-0.00003796,0.00005182,-0.00000027,0
 .00000425,-0.00000607,0.00000145,0.00000510,-0.00000934,-0.00002367,-0
 .00000959,-0.00003370,0.00000901,-0.00000137,0.00000041,0.00018005,0.0
 0029665,-0.00029115,0.00002575,-0.00015312,0.00009924,-0.00005947,-0.0
 0029571,-0.00006052,0.00001993,0.00003683,-0.00006432,-0.00003086,-0.0
 0001222,0.00001452,0.00000447,-0.00000180,-0.00000027,0.00000044,0.000
 00143,-0.00000337,0.00000406,0.00000268,0.00000243,-0.13179136,-0.1554
 8073,-0.00211281,0.14255361,0.17116964,0.00093071,-0.00013726,-0.00015
 812,-0.00008523,-0.00078558,0.00007711,0.00074498,0.00054648,0.0007106
 3,0.00024336,-0.00287309,-0.00068579,-0.01960787,-0.01676952,-0.000901
 78,-0.00001734,-0.00031487,-0.00202987,-0.00002701,0.00003186,0.000011
 77,-0.00025293,-0.00018923,0.00006865,-0.00059366,0.00135137,0.0002343
 1,0.00026181,0.00039530,-0.00019989,-0.00005741,-0.00004389,0.00008719
 ,-0.00010494,-0.00003946,0.00002390,0.00001174,-0.00003781,0.00005746,
 0.00002795,0.00002809,-0.00000324,0.00004945,-0.00001081,-0.00004463,0
 .00002780,0.00002906,-0.00009277,0.00000411,-0.00000864,0.00001386,-0.
 00000521,-0.00000461,0.00000470,-0.00007009,0.00002140,-0.00001232,0.0
 0001007,-0.00000746,-0.00000221,0.00027478,0.00012931,-0.00032852,-0.0
 0003219,-0.00008330,0.00009669,-0.00008780,-0.00022775,0.00001977,-0.0
 0001689,-0.00005629,0.00012097,0.00004278,0.00001452,-0.00002643,-0.00
 000934,0.00000080,-0.00000078,0.00000013,-0.00000296,0.00000635,-0.000
 00689,0.00000050,-0.00000163,-0.00404744,-0.00343932,-0.04892326,0.003
 21716,0.00719998,0.05002788,-0.00012652,-0.00002022,0.00021826,-0.0000
 8620,0.00017939,-0.00013422,-0.00004567,-0.00025790,0.00004100,0.00060
 510,0.00240552,-0.00054093,0.00031313,0.00117642,0.00166920,-0.0003949
 4,-0.00088378,0.00026168,0.00004687,-0.00001437,0.00000783,0.00004684,
 -0.00006969,0.00000339,0.00016745,-0.00123927,-0.00068494,0.00001556,-
 0.00035436,0.00012627,-0.00001628,0.00000359,-0.00003577,-0.00001457,0
 .00002513,-0.00004386,0.00002893,0.00000320,-0.00000305,-0.00000129,0.
 00000808,-0.00000420,0.00000749,0.00001178,-0.00000905,-0.00000867,-0.
 00000974,0.00005565,-0.00000139,0.00000648,-0.00000127,0.00000195,0.00
 000644,-0.00000352,-0.00001422,0.00004219,0.00004133,0.00001888,0.0000
 1893,0.00002128,0.00004490,-0.00013662,0.00003878,-0.00000421,0.000047
 57,-0.00000228,-0.00001002,0.00009307,0.00002016,0.00001925,0.00003068
 ,-0.00007570,-0.00003134,-0.00000572,0.00001765,0.00000694,-0.00000318
 ,-0.00000091,0.00000077,0.00000185,-0.00000299,0.00000309,0.00000042,0
 .00000136,-0.23197076,0.11703846,-0.02788697,-0.02233290,0.01343766,-0
 .00380106,0.25066977,-0.00116023,-0.00079844,-0.00037452,0.00008945,-0
 .00006436,0.00011735,-0.00029730,-0.00036649,-0.00021598,-0.00043087,-
 0.00112768,0.00163652,0.01729025,-0.01492242,-0.00036600,0.00070806,-0
 .00026058,-0.00239607,0.00006179,0.00001666,-0.00002250,0.00076612,0.0
 0023513,-0.00005435,-0.00009289,0.00128140,-0.00026492,0.00001738,-0.0
 0003865,0.00032668,0.00007301,0.00001547,-0.00004251,-0.00003072,0.000
 00217,-0.00006140,-0.00001858,-0.00000158,-0.00001046,-0.00000380,0.00
 000452,-0.00001299,-0.00000933,-0.00000045,-0.00000157,0.00001409,-0.0
 0003003,0.00005855,0.00000021,0.00000549,-0.00000920,0.00000123,0.0000
 0544,-0.00000727,0.00002947,0.00000241,-0.00002245,-0.00000699,0.00001
 322,-0.00001688,-0.00016614,0.00025047,-0.00032560,-0.00001953,-0.0001
 5147,0.00009647,0.00011557,-0.00027378,-0.00004156,0.00000583,0.000035
 84,-0.00007092,-0.00002417,-0.00001096,0.00001434,0.00000393,-0.000001
 02,0.00000113,-0.00000029,0.00000163,-0.00000353,0.00000379,0.00000086
 ,0.00000161,0.11796534,-0.11741247,0.01941994,-0.01856896,0.01204026,-
 0.00255145,-0.12896664,0.12960791,-0.00091531,-0.00028962,-0.00027918,
 0.00018380,-0.00073771,0.00007163,-0.00095860,0.00036124,0.00057542,0.
 00042061,-0.00246908,-0.00075881,0.02241544,-0.01384297,0.00322879,0.0
 0037985,-0.00047570,-0.00202278,0.00002708,0.00003392,0.00001735,0.000
 28575,-0.00016174,0.00011731,0.00035193,0.00123952,0.00021474,-0.00028
 221,0.00029280,-0.00024188,0.00010680,-0.00002310,0.00002975,0.0000349
 6,-0.00002666,0.00008706,-0.00003514,0.00003006,-0.00000595,-0.0000113
 6,-0.00004553,0.00005297,-0.00000362,-0.00000422,-0.00000480,-0.000030
 91,0.00001486,-0.00009366,0.00000392,-0.00000211,0.00000613,-0.0000059
 5,-0.00000948,0.00001173,0.00006588,0.00004173,0.00000783,-0.00003329,
 -0.00002194,-0.00004698,-0.00022159,0.00006722,-0.00037687,0.00002557,
 -0.00007372,0.00010352,0.00011702,-0.00020130,0.00004315,-0.00002355,-
 0.00005236,0.00011099,0.00004552,0.00001519,-0.00002180,-0.00000858,0.
 00000129,-0.00000173,-0.00000037,-0.00000308,0.00000636,-0.00000715,0.
 00000015,-0.00000247,-0.02775405,0.01790431,-0.05307130,-0.00017143,0.
 00069027,-0.00044967,0.03111001,-0.01604434,0.05496177,-0.00013755,0.0
 0003556,0.00000667,0.00003119,0.00000904,-0.00003448,0.00028050,-0.000
 16023,0.00017110,0.00092457,0.00077549,0.00048468,-0.00151774,-0.00198
 424,0.00360414,-0.00026493,-0.00034630,-0.00002958,0.00002552,0.000006
 09,-0.00000619,0.00036233,0.00020341,-0.00001566,0.00022637,0.00002887
 ,-0.00010329,0.00012558,-0.00000086,0.00000689,-0.00004258,-0.00003015
 ,0.00003319,-0.00003160,0.00001789,-0.00003848,0.00002555,-0.00000586,
 0.00000359,0.00002063,0.00001224,0.00000151,0.00001958,-0.00000153,-0.
 00001308,-0.00000773,0.00000067,-0.00000057,-0.00000056,-0.00000028,0.
 00000267,0.00000005,0.00000074,-0.00000165,-0.00014687,0.00003204,0.00
 003068,0.00001604,0.00000922,0.00001795,-0.00004796,-0.00005373,0.0000
 4013,-0.00003476,0.00000338,-0.00004243,0.00001982,0.00000753,-0.00000
 854,0.00000338,-0.00000031,0.00000083,0.00000095,0.00000011,-0.0000007
 8,0.00000005,0.00000016,-0.00000024,0.00000032,0.,0.00000002,0.0000000
 1,0.00000001,0.,-0.05001415,-0.00552334,0.01002879,-0.00001061,-0.0111
 3457,0.02297644,0.00306206,0.01265094,-0.02511105,0.04711254,-0.000012
 56,0.00014310,-0.00010252,-0.00000689,0.00001768,0.00009027,0.00003527
 ,0.00089270,-0.00087600,0.00066080,-0.00451739,-0.00270810,0.00115802,
 0.01043050,-0.02214699,0.00002605,0.00108884,-0.00149204,-0.00000008,-
 0.00001760,0.00003193,0.00007877,-0.00072507,0.00008044,-0.00011333,0.
 00024523,0.00125285,0.00000232,0.00039545,-0.00030475,0.00000935,-0.00
 001269,0.00005216,-0.00002636,-0.00001212,0.00004124,-0.00002113,-0.00
 002644,0.00001748,0.00002834,-0.00002120,0.00002461,0.00002049,0.00000
 179,-0.00001597,-0.00000826,0.00005022,-0.00010956,0.00000386,-0.00000
 586,0.00000833,-0.00000562,-0.00000722,0.00000688,0.00003028,-0.000229
 99,-0.00025668,-0.00001332,-0.00000253,-0.00001679,0.00000493,-0.00000
 583,-0.00007803,-0.00001526,0.00007910,0.00006371,-0.00001198,0.000089
 65,0.00006835,-0.00002595,-0.00007289,0.00014889,0.00005726,0.00002192
 ,-0.00003109,-0.00001074,0.00000146,-0.00000118,-0.00000026,-0.0000036
 0,0.00000774,-0.00000908,-0.00000123,-0.00000389,-0.00591910,-0.112221
 41,0.11574855,0.00121156,-0.00957073,0.01783463,-0.00257539,-0.0080584
 9,0.01379208,0.00544803,0.12205464,0.00003946,-0.00061887,-0.00010828,
 -0.00001897,-0.00006529,0.00032868,0.00000443,0.00122109,-0.00087425,0
 .00057393,-0.00376419,-0.00196269,0.00100919,0.01170123,-0.02205599,-0
 .00034555,0.00262937,0.00124105,-0.00000087,-0.00003124,0.00006567,0.0
 0008988,-0.00128654,0.00051737,0.00002519,-0.00041566,0.00016724,0.000
 00681,-0.00017453,0.00032504,0.00002979,0.00001972,-0.00003210,-0.0000
 3552,0.00001622,-0.00004352,0.00001862,0.00001789,-0.00001620,-0.00001
 437,0.00001990,-0.00002581,-0.00000965,-0.00001569,0.00000195,0.000007
 89,-0.00005602,0.00010456,-0.00000220,0.00000334,-0.00001006,0.0000049
 6,0.00000425,-0.00001036,0.00003329,-0.00027839,-0.00026177,0.00001681
 ,-0.00001246,0.00000778,-0.00000747,0.00054587,-0.00041565,-0.00002670
 ,-0.00013542,0.00036540,0.00000728,-0.00013994,0.00005496,0.00002473,0
 .00007204,-0.00013470,-0.00005247,-0.00002525,0.00002663,0.00000850,-0
 .00000076,0.00000179,0.00000037,0.00000338,-0.00000716,0.00000919,0.00
 000293,0.00000394,0.01036311,0.11149643,-0.25359799,0.00064676,-0.0008
 5075,0.00229965,-0.00040312,0.00124388,-0.00226866,-0.01200327,-0.1211
 2655,0.27631350\\0.00000231,-0.00003218,-0.00000224,-0.00000054,0.0000
 0567,0.00000066,-0.00000100,0.00000214,0.00000313,0.00000363,0.0000051
 0,-0.00001066,0.00000073,-0.00001010,0.00000813,-0.00000316,0.00001856
 ,0.00000177,0.00000058,-0.00000062,-0.00000045,0.00000067,-0.00000241,
 -0.00000024,-0.00000649,-0.00000445,0.00000279,0.00001340,0.00000632,-
 0.00000850,-0.00000182,-0.00000114,-0.00000081,-0.00000395,-0.00000851
 ,0.00001347,-0.00000404,0.00000039,-0.00000277,-0.00000049,0.00000253,
 -0.00000762,-0.00000043,0.00000143,-0.00000176,0.00000495,-0.00000001,
 0.00000153,-0.00000010,-0.00000006,0.00000104,-0.00000049,0.00000024,0
 .00000179,-0.00000024,0.00000224,-0.00000205,-0.00000029,-0.00000254,0
 .00000296,-0.00000115,0.00003688,-0.00000892,-0.00000021,-0.00000980,0
 .00001435,0.00000140,-0.00001039,-0.00000880,-0.00000249,-0.00000187,0
 .00000385,0.00000283,0.00000244,-0.00000202,-0.00000138,-0.00000004,0.
 00000036,-0.00000024,0.00000004,0.00000031,-0.00000127,0.00000031,0.00
 000069,0.00000474,0.00000377,0.00000114,-0.00000237,-0.00000208,-0.000
 00123,-0.00000205,-0.00000072,0.00000024,-0.00000104,-0.00000114,-0.00
 000013\\\@


 "ANNA, YOU MUSN'T SPEAK OF OXIDIZED MURIATIC ACID
 ANYMORE, FROM NOW ON YOU MUST SAY CHLORINE."
   -- JENS JACOB BERZELIUS, IN 1820, TO HIS COOK, WHO HAD
 COMPLAINED OF THE SMELL OF THE FLASK SHE WAS CLEANING.
 Job cpu time:       0 days  3 hours 54 minutes 49.2 seconds.
 Elapsed time:       0 days  0 hours  7 minutes 56.5 seconds.
 File lengths (MBytes):  RWF=    498 Int=      0 D2E=      0 Chk=     16 Scr=      1
 Normal termination of Gaussian 16 at Sat Sep 16 11:57:08 2023.
