 Entering Gaussian System, Link 0=/home/ubuntu/g16/g16
 Input=/home/ubuntu/products/molecule_30.gjf
 Output=/home/ubuntu/products/molecule_30.log
 Initial command:
 /home/ubuntu/g16/l1.exe "/home/ubuntu/Scratch/Gau-21458.inp" -scrdir="/home/ubuntu/Scratch/"
 Entering Link 1 = /home/ubuntu/g16/l1.exe PID=     21460.
  
 Copyright (c) 1988-2017, Gaussian, Inc.  All Rights Reserved.
  
 This is part of the Gaussian(R) 16 program.  It is based on
 the Gaussian(R) 09 system (copyright 2009, Gaussian, Inc.),
 the Gaussian(R) 03 system (copyright 2003, Gaussian, Inc.),
 the Gaussian(R) 98 system (copyright 1998, Gaussian, Inc.),
 the Gaussian(R) 94 system (copyright 1995, Gaussian, Inc.),
 the Gaussian 92(TM) system (copyright 1992, Gaussian, Inc.),
 the Gaussian 90(TM) system (copyright 1990, Gaussian, Inc.),
 the Gaussian 88(TM) system (copyright 1988, Gaussian, Inc.),
 the Gaussian 86(TM) system (copyright 1986, Carnegie Mellon
 University), and the Gaussian 82(TM) system (copyright 1983,
 Carnegie Mellon University). Gaussian is a federally registered
 trademark of Gaussian, Inc.
  
 This software contains proprietary and confidential information,
 including trade secrets, belonging to Gaussian, Inc.
  
 This software is provided under written license and may be
 used, copied, transmitted, or stored only in accord with that
 written license.
  
 The following legend is applicable only to US Government
 contracts under FAR:
  
                    RESTRICTED RIGHTS LEGEND
  
 Use, reproduction and disclosure by the US Government is
 subject to restrictions as set forth in subparagraphs (a)
 and (c) of the Commercial Computer Software - Restricted
 Rights clause in FAR 52.227-19.
  
 Gaussian, Inc.
 340 Quinnipiac St., Bldg. 40, Wallingford CT 06492
  
  
 ---------------------------------------------------------------
 Warning -- This program may not be used in any manner that
 competes with the business of Gaussian, Inc. or will provide
 assistance to any competitor of Gaussian, Inc.  The licensee
 of this program is prohibited from giving any competitor of
 Gaussian, Inc. access to this program.  By using this program,
 the user acknowledges that Gaussian, Inc. is engaged in the
 business of creating and licensing software in the field of
 computational chemistry and represents and warrants to the
 licensee that it is not a competitor of Gaussian, Inc. and that
 it will not use this program in any manner prohibited above.
 ---------------------------------------------------------------
  

 Cite this work as:
 Gaussian 16, Revision B.01,
 M. J. Frisch, G. W. Trucks, H. B. Schlegel, G. E. Scuseria, 
 M. A. Robb, J. R. Cheeseman, G. Scalmani, V. Barone, 
 G. A. Petersson, H. Nakatsuji, X. Li, M. Caricato, A. V. Marenich, 
 J. Bloino, B. G. Janesko, R. Gomperts, B. Mennucci, H. P. Hratchian, 
 J. V. Ortiz, A. F. Izmaylov, J. L. Sonnenberg, D. Williams-Young, 
 F. Ding, F. Lipparini, F. Egidi, J. Goings, B. Peng, A. Petrone, 
 T. Henderson, D. Ranasinghe, V. G. Zakrzewski, J. Gao, N. Rega, 
 G. Zheng, W. Liang, M. Hada, M. Ehara, K. Toyota, R. Fukuda, 
 J. Hasegawa, M. Ishida, T. Nakajima, Y. Honda, O. Kitao, H. Nakai, 
 T. Vreven, K. Throssell, J. A. Montgomery, Jr., J. E. Peralta, 
 F. Ogliaro, M. J. Bearpark, J. J. Heyd, E. N. Brothers, K. N. Kudin, 
 V. N. Staroverov, T. A. Keith, R. Kobayashi, J. Normand, 
 K. Raghavachari, A. P. Rendell, J. C. Burant, S. S. Iyengar, 
 J. Tomasi, M. Cossi, J. M. Millam, M. Klene, C. Adamo, R. Cammi, 
 J. W. Ochterski, R. L. Martin, K. Morokuma, O. Farkas, 
 J. B. Foresman, and D. J. Fox, Gaussian, Inc., Wallingford CT, 2016.
 
 ******************************************
 Gaussian 16:  EM64L-G16RevB.01 20-Dec-2017
                18-Sep-2023 
 ******************************************
 %nprocshared=30
 Will use up to   30 processors via shared memory.
 %mem=30GB
 %chk=molecule_30.chk
 ---------------------------------------------------------
 # opt freq b3lyp/6-31+g(d) empiricaldispersion=gd3 volume
 ---------------------------------------------------------
 1/18=20,19=15,26=3,38=1/1,3;
 2/9=110,12=2,17=6,18=5,40=1/2;
 3/5=1,6=6,7=11,11=2,25=1,30=1,71=1,74=-5,124=31/1,2,3;
 4//1;
 5/5=2,38=5/2;
 6/7=2,8=2,9=2,10=2,28=1,44=1/1,4;
 7//1,2,3,16;
 1/18=20,19=15,26=3/3(2);
 2/9=110/2;
 99//99;
 2/9=110/2;
 3/5=1,6=6,7=11,11=2,25=1,30=1,71=1,74=-5,124=31/1,2,3;
 4/5=5,16=3,69=1/1;
 5/5=2,38=5/2;
 7//1,2,3,16;
 1/18=20,19=15,26=3/3(-5);
 2/9=110/2;
 6/7=2,8=2,9=2,10=2,19=2,28=1,44=1/1,4;
 99/9=1/99;
 -------------------
 Title Card Required
 -------------------
 Symbolic Z-matrix:
 Charge =  0 Multiplicity = 1
 C                    -3.97127   1.44302  -0.00017 
 C                    -2.58526   1.37177  -0.00012 
 C                    -1.92396   0.11829   0. 
 C                    -2.70959  -1.05315   0.00001 
 C                    -4.10388  -0.98734  -0.00006 
 C                    -4.73677   0.26465  -0.00013 
 H                    -4.49025   2.39397  -0.00025 
 H                    -1.99485   2.2813   -0.00015 
 H                    -2.2175   -2.0197    0.00006 
 H                    -4.67856  -1.90493  -0.00009 
 C                    -0.50377   0.04379   0.00002 
 C                     0.7157   -0.01997   0.00006 
 C                     2.13462  -0.09126   0.00007 
 C                     2.9156    1.09287   0.00018 
 C                     2.79296  -1.34429  -0.00011 
 C                     4.30209   1.02196   0.00016 
 H                     2.41318   2.05372   0.0003 
 C                     4.18295  -1.40626  -0.00014 
 H                     2.20018  -2.2521   -0.00021 
 C                     4.95156  -0.22841  -0.00002 
 H                     4.91071   1.91989   0.00026 
 H                     4.68235  -2.37167  -0.00028 
 O                    -6.11081   0.44784  -0.00026 
 C                    -6.97609  -0.72078   0.00039 
 H                    -6.81648  -1.33216  -0.89584 
 H                    -6.81578  -1.3317    0.89681 
 H                    -7.99037  -0.32398   0.00069 
 C                     6.41898  -0.30576  -0.00004 
 H                     6.83816  -1.32967  -0.00014 
 O                     7.1778    0.67995   0.00004 
 

 GradGradGradGradGradGradGradGradGradGradGradGradGradGradGradGradGradGrad
 Berny optimization.
 Initialization pass.
                           ----------------------------
                           !    Initial Parameters    !
                           ! (Angstroms and Degrees)  !
 --------------------------                            --------------------------
 ! Name  Definition              Value          Derivative Info.                !
 --------------------------------------------------------------------------------
 ! R1    R(1,2)                  1.3878         estimate D2E/DX2                !
 ! R2    R(1,6)                  1.4052         estimate D2E/DX2                !
 ! R3    R(1,7)                  1.0834         estimate D2E/DX2                !
 ! R4    R(2,3)                  1.4172         estimate D2E/DX2                !
 ! R5    R(2,8)                  1.0844         estimate D2E/DX2                !
 ! R6    R(3,4)                  1.4105         estimate D2E/DX2                !
 ! R7    R(3,11)                 1.4221         estimate D2E/DX2                !
 ! R8    R(4,5)                  1.3958         estimate D2E/DX2                !
 ! R9    R(4,9)                  1.0846         estimate D2E/DX2                !
 ! R10   R(5,6)                  1.4029         estimate D2E/DX2                !
 ! R11   R(5,10)                 1.0827         estimate D2E/DX2                !
 ! R12   R(6,23)                 1.3862         estimate D2E/DX2                !
 ! R13   R(11,12)                1.2211         estimate D2E/DX2                !
 ! R14   R(12,13)                1.4207         estimate D2E/DX2                !
 ! R15   R(13,14)                1.4185         estimate D2E/DX2                !
 ! R16   R(13,15)                1.4154         estimate D2E/DX2                !
 ! R17   R(14,16)                1.3883         estimate D2E/DX2                !
 ! R18   R(14,17)                1.0843         estimate D2E/DX2                !
 ! R19   R(15,18)                1.3914         estimate D2E/DX2                !
 ! R20   R(15,19)                1.0842         estimate D2E/DX2                !
 ! R21   R(16,20)                1.409          estimate D2E/DX2                !
 ! R22   R(16,21)                1.0848         estimate D2E/DX2                !
 ! R23   R(18,20)                1.4065         estimate D2E/DX2                !
 ! R24   R(18,22)                1.0869         estimate D2E/DX2                !
 ! R25   R(20,28)                1.4695         estimate D2E/DX2                !
 ! R26   R(23,24)                1.4541         estimate D2E/DX2                !
 ! R27   R(24,25)                1.0966         estimate D2E/DX2                !
 ! R28   R(24,26)                1.0966         estimate D2E/DX2                !
 ! R29   R(24,27)                1.0891         estimate D2E/DX2                !
 ! R30   R(28,29)                1.1064         estimate D2E/DX2                !
 ! R31   R(28,30)                1.244          estimate D2E/DX2                !
 ! A1    A(2,1,6)              120.0658         estimate D2E/DX2                !
 ! A2    A(2,1,7)              121.5664         estimate D2E/DX2                !
 ! A3    A(6,1,7)              118.3678         estimate D2E/DX2                !
 ! A4    A(1,2,3)              120.7583         estimate D2E/DX2                !
 ! A5    A(1,2,8)              120.0459         estimate D2E/DX2                !
 ! A6    A(3,2,8)              119.1958         estimate D2E/DX2                !
 ! A7    A(2,3,4)              118.3367         estimate D2E/DX2                !
 ! A8    A(2,3,11)             120.8184         estimate D2E/DX2                !
 ! A9    A(4,3,11)             120.8449         estimate D2E/DX2                !
 ! A10   A(3,4,5)              121.146          estimate D2E/DX2                !
 ! A11   A(3,4,9)              119.1703         estimate D2E/DX2                !
 ! A12   A(5,4,9)              119.6838         estimate D2E/DX2                !
 ! A13   A(4,5,6)              119.5191         estimate D2E/DX2                !
 ! A14   A(4,5,10)             119.3567         estimate D2E/DX2                !
 ! A15   A(6,5,10)             121.1241         estimate D2E/DX2                !
 ! A16   A(1,6,5)              120.1742         estimate D2E/DX2                !
 ! A17   A(1,6,23)             115.4146         estimate D2E/DX2                !
 ! A18   A(5,6,23)             124.4113         estimate D2E/DX2                !
 ! A19   A(12,13,14)           120.5297         estimate D2E/DX2                !
 ! A20   A(12,13,15)           120.5939         estimate D2E/DX2                !
 ! A21   A(14,13,15)           118.8764         estimate D2E/DX2                !
 ! A22   A(13,14,16)           120.4782         estimate D2E/DX2                !
 ! A23   A(13,14,17)           118.9888         estimate D2E/DX2                !
 ! A24   A(16,14,17)           120.533          estimate D2E/DX2                !
 ! A25   A(13,15,18)           120.2701         estimate D2E/DX2                !
 ! A26   A(13,15,19)           119.1389         estimate D2E/DX2                !
 ! A27   A(18,15,19)           120.591          estimate D2E/DX2                !
 ! A28   A(14,16,20)           120.3766         estimate D2E/DX2                !
 ! A29   A(14,16,21)           121.2015         estimate D2E/DX2                !
 ! A30   A(20,16,21)           118.4218         estimate D2E/DX2                !
 ! A31   A(15,18,20)           120.5736         estimate D2E/DX2                !
 ! A32   A(15,18,22)           119.905          estimate D2E/DX2                !
 ! A33   A(20,18,22)           119.5214         estimate D2E/DX2                !
 ! A34   A(16,20,18)           119.4252         estimate D2E/DX2                !
 ! A35   A(16,20,28)           120.4662         estimate D2E/DX2                !
 ! A36   A(18,20,28)           120.1086         estimate D2E/DX2                !
 ! A37   A(6,23,24)            118.9229         estimate D2E/DX2                !
 ! A38   A(23,24,25)           111.1682         estimate D2E/DX2                !
 ! A39   A(23,24,26)           111.1689         estimate D2E/DX2                !
 ! A40   A(23,24,27)           105.1515         estimate D2E/DX2                !
 ! A41   A(25,24,26)           109.6465         estimate D2E/DX2                !
 ! A42   A(25,24,27)           109.809          estimate D2E/DX2                !
 ! A43   A(26,24,27)           109.8092         estimate D2E/DX2                !
 ! A44   A(20,28,29)           115.2817         estimate D2E/DX2                !
 ! A45   A(20,28,30)           124.5721         estimate D2E/DX2                !
 ! A46   A(29,28,30)           120.1462         estimate D2E/DX2                !
 ! A47   L(3,11,12,8,-1)       179.9894         estimate D2E/DX2                !
 ! A48   L(11,12,13,17,-1)     179.884          estimate D2E/DX2                !
 ! A49   L(3,11,12,8,-2)       179.9986         estimate D2E/DX2                !
 ! A50   L(11,12,13,17,-2)     180.002          estimate D2E/DX2                !
 ! D1    D(6,1,2,3)             -0.0008         estimate D2E/DX2                !
 ! D2    D(6,1,2,8)            179.9998         estimate D2E/DX2                !
 ! D3    D(7,1,2,3)            179.9992         estimate D2E/DX2                !
 ! D4    D(7,1,2,8)             -0.0002         estimate D2E/DX2                !
 ! D5    D(2,1,6,5)             -0.001          estimate D2E/DX2                !
 ! D6    D(2,1,6,23)          -179.997          estimate D2E/DX2                !
 ! D7    D(7,1,6,5)            179.9991         estimate D2E/DX2                !
 ! D8    D(7,1,6,23)             0.0031         estimate D2E/DX2                !
 ! D9    D(1,2,3,4)              0.0022         estimate D2E/DX2                !
 ! D10   D(1,2,3,11)           179.9981         estimate D2E/DX2                !
 ! D11   D(8,2,3,4)           -179.9984         estimate D2E/DX2                !
 ! D12   D(8,2,3,11)            -0.0024         estimate D2E/DX2                !
 ! D13   D(2,3,4,5)             -0.002          estimate D2E/DX2                !
 ! D14   D(2,3,4,9)            179.9977         estimate D2E/DX2                !
 ! D15   D(11,3,4,5)          -179.9979         estimate D2E/DX2                !
 ! D16   D(11,3,4,9)             0.0017         estimate D2E/DX2                !
 ! D17   D(2,3,13,14)            0.0098         estimate D2E/DX2                !
 ! D18   D(2,3,13,15)         -179.9863         estimate D2E/DX2                !
 ! D19   D(4,3,13,14)         -179.9942         estimate D2E/DX2                !
 ! D20   D(4,3,13,15)            0.0098         estimate D2E/DX2                !
 ! D21   D(3,4,5,6)              0.0003         estimate D2E/DX2                !
 ! D22   D(3,4,5,10)           179.9977         estimate D2E/DX2                !
 ! D23   D(9,4,5,6)           -179.9994         estimate D2E/DX2                !
 ! D24   D(9,4,5,10)            -0.0019         estimate D2E/DX2                !
 ! D25   D(4,5,6,1)              0.0012         estimate D2E/DX2                !
 ! D26   D(4,5,6,23)           179.9968         estimate D2E/DX2                !
 ! D27   D(10,5,6,1)          -179.9962         estimate D2E/DX2                !
 ! D28   D(10,5,6,23)           -0.0006         estimate D2E/DX2                !
 ! D29   D(1,6,23,24)         -179.972          estimate D2E/DX2                !
 ! D30   D(5,6,23,24)            0.0321         estimate D2E/DX2                !
 ! D31   D(12,13,14,16)       -179.9984         estimate D2E/DX2                !
 ! D32   D(12,13,14,17)          0.0019         estimate D2E/DX2                !
 ! D33   D(15,13,14,16)         -0.0015         estimate D2E/DX2                !
 ! D34   D(15,13,14,17)        179.9989         estimate D2E/DX2                !
 ! D35   D(12,13,15,18)        179.9983         estimate D2E/DX2                !
 ! D36   D(12,13,15,19)         -0.0025         estimate D2E/DX2                !
 ! D37   D(14,13,15,18)          0.0014         estimate D2E/DX2                !
 ! D38   D(14,13,15,19)       -179.9994         estimate D2E/DX2                !
 ! D39   D(13,14,16,20)          0.0013         estimate D2E/DX2                !
 ! D40   D(13,14,16,21)       -179.999          estimate D2E/DX2                !
 ! D41   D(17,14,16,20)       -179.9991         estimate D2E/DX2                !
 ! D42   D(17,14,16,21)          0.0006         estimate D2E/DX2                !
 ! D43   D(13,15,18,20)         -0.001          estimate D2E/DX2                !
 ! D44   D(13,15,18,22)        179.9999         estimate D2E/DX2                !
 ! D45   D(19,15,18,20)        179.9998         estimate D2E/DX2                !
 ! D46   D(19,15,18,22)          0.0006         estimate D2E/DX2                !
 ! D47   D(14,16,20,18)         -0.0009         estimate D2E/DX2                !
 ! D48   D(14,16,20,28)       -179.9999         estimate D2E/DX2                !
 ! D49   D(21,16,20,18)        179.9994         estimate D2E/DX2                !
 ! D50   D(21,16,20,28)          0.0004         estimate D2E/DX2                !
 ! D51   D(15,18,20,16)          0.0007         estimate D2E/DX2                !
 ! D52   D(15,18,20,28)        179.9997         estimate D2E/DX2                !
 ! D53   D(22,18,20,16)        179.9999         estimate D2E/DX2                !
 ! D54   D(22,18,20,28)         -0.0011         estimate D2E/DX2                !
 ! D55   D(16,20,28,29)        179.9976         estimate D2E/DX2                !
 ! D56   D(16,20,28,30)         -0.002          estimate D2E/DX2                !
 ! D57   D(18,20,28,29)         -0.0014         estimate D2E/DX2                !
 ! D58   D(18,20,28,30)        179.999          estimate D2E/DX2                !
 ! D59   D(6,23,24,25)         -61.2557         estimate D2E/DX2                !
 ! D60   D(6,23,24,26)          61.1962         estimate D2E/DX2                !
 ! D61   D(6,23,24,27)         179.9706         estimate D2E/DX2                !
 --------------------------------------------------------------------------------
 Trust Radius=3.00D-01 FncErr=1.00D-07 GrdErr=1.00D-06 EigMax=2.50D+02 EigMin=1.00D-04
 Number of steps in this run=    152 maximum allowed number of steps=    180.
 GradGradGradGradGradGradGradGradGradGradGradGradGradGradGradGradGradGrad

                          Input orientation:                          
 ---------------------------------------------------------------------
 Center     Atomic      Atomic             Coordinates (Angstroms)
 Number     Number       Type             X           Y           Z
 ---------------------------------------------------------------------
      1          6           0       -3.971268    1.443021   -0.000172
      2          6           0       -2.585262    1.371765   -0.000115
      3          6           0       -1.923955    0.118293    0.000000
      4          6           0       -2.709592   -1.053149    0.000007
      5          6           0       -4.103880   -0.987344   -0.000055
      6          6           0       -4.736772    0.264646   -0.000132
      7          1           0       -4.490247    2.393974   -0.000247
      8          1           0       -1.994854    2.281298   -0.000149
      9          1           0       -2.217499   -2.019701    0.000056
     10          1           0       -4.678562   -1.904928   -0.000085
     11          6           0       -0.503767    0.043785    0.000019
     12          6           0        0.715700   -0.019966    0.000059
     13          6           0        2.134623   -0.091264    0.000065
     14          6           0        2.915603    1.092874    0.000182
     15          6           0        2.792963   -1.344294   -0.000112
     16          6           0        4.302087    1.021957    0.000155
     17          1           0        2.413177    2.053723    0.000299
     18          6           0        4.182953   -1.406263   -0.000141
     19          1           0        2.200184   -2.252101   -0.000212
     20          6           0        4.951558   -0.228405   -0.000016
     21          1           0        4.910708    1.919887    0.000260
     22          1           0        4.682352   -2.371666   -0.000275
     23          8           0       -6.110808    0.447842   -0.000261
     24          6           0       -6.976085   -0.720778    0.000391
     25          1           0       -6.816484   -1.332164   -0.895836
     26          1           0       -6.815778   -1.331703    0.896806
     27          1           0       -7.990371   -0.323983    0.000686
     28          6           0        6.418978   -0.305763   -0.000042
     29          1           0        6.838160   -1.329667   -0.000139
     30          8           0        7.177798    0.679949    0.000044
 ---------------------------------------------------------------------
                    Distance matrix (angstroms):
                    1          2          3          4          5
     1  C    0.000000
     2  C    1.387836   0.000000
     3  C    2.438523   1.417222   0.000000
     4  C    2.796907   2.428099   1.410497   0.000000
     5  C    2.433980   2.805636   2.444280   1.395840   0.000000
     6  C    1.405192   2.419650   2.816622   2.417859   1.402865
     7  H    1.083352   2.161916   3.429953   3.879870   3.403321
     8  H    2.146840   1.084358   2.164167   3.410189   3.889989
     9  H    3.881514   3.411347   2.158052   1.084610   2.150394
    10  H    3.421846   3.888267   3.417789   2.145314   1.082691
    11  C    3.739174   2.469039   1.422141   2.463519   3.744869
    12  C    4.909990   3.582355   2.643273   3.577722   4.915707
    13  C    6.295708   4.941434   4.063984   4.938789   6.302530
    14  C    6.895766   5.507930   4.936712   6.020651   7.321233
    15  C    7.316006   6.025137   4.938469   5.510252   6.906074
    16  C    8.284063   6.896227   6.291280   7.312298   8.642776
    17  H    6.413587   5.044746   4.749379   5.991278   7.191670
    18  C    8.637693   7.316158   6.294330   6.901584   8.297415
    19  H    7.193104   6.002741   4.756815   5.054047   6.429684
    20  C    9.078022   7.704817   6.884249   7.705415   9.087186
    21  H    8.894768   7.515983   7.068123   8.179726   9.471789
    22  H    9.457112   8.175053   7.059971   7.508617   8.894617
    23  O    2.359664   3.644600   4.199802   3.717693   2.467290
    24  C    3.702830   4.863955   5.121334   4.279420   2.884548
    25  H    4.074202   5.100665   5.181041   4.212712   2.877420
    26  H    4.073684   5.100046   5.180413   4.212197   2.877036
    27  H    4.390386   5.664871   6.082517   5.330883   3.942697
    28  C   10.536387   9.159172   8.353703   9.159114  10.544908
    29  H   11.159370   9.802990   8.880949   9.551755  10.947393
    30  O   11.175149   9.787541   9.119066  10.038133  11.404215
                    6          7          8          9         10
     6  C    0.000000
     7  H    2.143551   0.000000
     8  H    3.403674   2.497936   0.000000
     9  H    3.400732   4.964465   4.306758   0.000000
    10  H    2.170355   4.303025   4.972603   2.463738   0.000000
    11  C    4.238763   4.627679   2.688830   2.682322   4.607211
    12  C    5.459895   5.738379   3.555688   3.550014   5.714118
    13  C    6.880606   7.075684   4.762524   4.760235   7.050452
    14  C    7.697065   7.519274   5.052221   6.003071   8.164445
    15  C    7.699714   8.186562   6.005673   5.055779   7.492529
    16  C    9.070529   8.898740   6.421636   7.194212   9.445566
    17  H    7.370384   6.911804   4.413902   6.167329   8.121803
    18  C    9.074879   9.469224   7.194679   6.429782   8.875535
    19  H    7.379388   8.145421   6.176573   4.423792   6.887501
    20  C    9.700868   9.799212   7.385882   7.389460   9.774965
    21  H    9.788447   9.412901   6.915013   8.144427  10.323919
    22  H    9.781106  10.336726   8.138498   6.908822   9.372543
    23  O    1.386195   2.532518   4.505845   4.609406   2.754425
    24  C    2.446545   3.985106   5.815937   4.932681   2.584729
    25  H    2.770792   4.483031   6.091591   4.735609   2.387706
    26  H    2.770396   4.482574   6.090945   4.735153   2.387612
    27  H    3.306417   4.431496   6.537103   6.016769   3.669805
    28  C   11.170323  11.238317   8.802582   8.804903  11.212169
    29  H   11.684215  11.924693   9.542599   9.081911  11.531080
    30  O   11.921806  11.793267   9.311384   9.775465  12.134861
                   11         12         13         14         15
    11  C    0.000000
    12  C    1.221132   0.000000
    13  C    2.641844   1.420713   0.000000
    14  C    3.576685   2.465357   1.418490   0.000000
    15  C    3.577037   2.463507   1.415449   2.440252   0.000000
    16  C    4.904391   3.734672   2.436629   1.388296   2.806528
    17  H    3.542374   2.679853   2.162998   1.084280   3.419175
    18  C    4.905913   3.734121   2.434107   2.802117   1.391371
    19  H    3.547174   2.680694   2.161831   3.420626   1.084205
    20  C    5.462111   4.240983   2.820271   2.427116   2.429967
    21  H    5.730297   4.621809   3.428028   2.159721   3.890980
    22  H    5.721034   4.611380   3.419233   3.889015   2.150647
    23  O    5.621581   6.842518   8.263036   9.049429   9.082339
    24  C    6.517320   7.723645   9.132431  10.056581   9.788926
    25  H    6.522744   7.697940   9.081012  10.069616   9.651111
    26  H    6.522091   7.697270   9.080337  10.068877   9.650519
    27  H    7.495632   8.711378  10.127668  10.997625  10.831497
    28  C    6.931564   5.710434   4.289721   3.772244   3.771807
    29  H    7.469288   6.260977   4.863836   4.610332   4.045223
    30  O    7.707863   6.499892   5.101802   4.282151   4.829528
                   16         17         18         19         20
    16  C    0.000000
    17  H    2.152329   0.000000
    18  C    2.431141   3.886336   0.000000
    19  H    3.890688   4.311089   2.155647   0.000000
    20  C    1.408978   3.413427   1.406451   3.415465   0.000000
    21  H    1.084757   2.501114   3.404835   4.975181   2.148680
    22  H    3.414861   4.973251   1.086923   2.485046   2.160102
    23  O   10.428710   8.673936  10.459408   8.738551  11.083016
    24  C   11.412024   9.790613  11.180072   9.303164  11.937801
    25  H   11.400320   9.871876  11.036094   9.107619  11.853590
    26  H   11.399589   9.871091  11.035495   9.107104  11.852922
    27  H   12.365924  10.671799  12.221340  10.371357  12.942282
    28  C    2.498813   4.649045   2.492169   4.646123   1.469458
    29  H    3.458584   5.570261   2.656312   4.728817   2.184501
    30  O    2.895977   4.958716   3.649846   5.776985   2.404423
                   21         22         23         24         25
    21  H    0.000000
    22  H    4.297624   0.000000
    23  O   11.119385  11.155354   0.000000
    24  C   12.176574  11.774744   1.454090   0.000000
    25  H   12.202699  11.580407   2.113872   1.096580   0.000000
    26  H   12.201930  11.579865   2.113881   1.096580   1.792642
    27  H   13.094762  12.837091   2.031864   1.089138   1.788349
    28  C    2.688568   2.698856  12.552428  13.401491  13.305390
    29  H    3.778184   2.394425  13.070398  13.827657  13.683990
    30  O    2.584017   3.942031  13.290633  14.223025  14.166550
                   26         27         28         29         30
    26  H    0.000000
    27  H    1.788351   0.000000
    28  C   13.304723  14.409361   0.000000
    29  H   13.683367  14.862595   1.106387   0.000000
    30  O   14.165843  15.201356   1.243960   2.038114   0.000000
 Stoichiometry    C16H12O2
 Framework group  C1[X(C16H12O2)]
 Deg. of freedom    84
 Full point group                 C1      NOp   1
 Largest Abelian subgroup         C1      NOp   1
 Largest concise Abelian subgroup C1      NOp   1
                         Standard orientation:                         
 ---------------------------------------------------------------------
 Center     Atomic      Atomic             Coordinates (Angstroms)
 Number     Number       Type             X           Y           Z
 ---------------------------------------------------------------------
      1          6           0        3.971268   -1.443021   -0.000172
      2          6           0        2.585262   -1.371765   -0.000115
      3          6           0        1.923955   -0.118293    0.000000
      4          6           0        2.709592    1.053149    0.000007
      5          6           0        4.103880    0.987344   -0.000055
      6          6           0        4.736772   -0.264646   -0.000132
      7          1           0        4.490247   -2.393974   -0.000247
      8          1           0        1.994854   -2.281298   -0.000149
      9          1           0        2.217499    2.019701    0.000056
     10          1           0        4.678562    1.904928   -0.000085
     11          6           0        0.503767   -0.043785    0.000019
     12          6           0       -0.715700    0.019966    0.000059
     13          6           0       -2.134623    0.091264    0.000065
     14          6           0       -2.915603   -1.092874    0.000182
     15          6           0       -2.792963    1.344294   -0.000112
     16          6           0       -4.302087   -1.021957    0.000155
     17          1           0       -2.413177   -2.053723    0.000299
     18          6           0       -4.182953    1.406263   -0.000141
     19          1           0       -2.200184    2.252101   -0.000212
     20          6           0       -4.951558    0.228405   -0.000016
     21          1           0       -4.910708   -1.919887    0.000260
     22          1           0       -4.682352    2.371666   -0.000275
     23          8           0        6.110808   -0.447842   -0.000261
     24          6           0        6.976085    0.720778    0.000391
     25          1           0        6.816484    1.332164   -0.895836
     26          1           0        6.815778    1.331703    0.896806
     27          1           0        7.990371    0.323983    0.000686
     28          6           0       -6.418978    0.305763   -0.000042
     29          1           0       -6.838160    1.329667   -0.000139
     30          8           0       -7.177798   -0.679949    0.000044
 ---------------------------------------------------------------------
 Rotational constants (GHZ):           2.4168322           0.1081417           0.1035789
 Standard basis: 6-31+G(d) (6D, 7F)
 There are   366 symmetry adapted cartesian basis functions of A   symmetry.
 There are   366 symmetry adapted basis functions of A   symmetry.
   366 basis functions,   624 primitive gaussians,   366 cartesian basis functions
    62 alpha electrons       62 beta electrons
       nuclear repulsion energy      1046.8090693955 Hartrees.
 NAtoms=   30 NActive=   30 NUniq=   30 SFac= 1.00D+00 NAtFMM=   60 NAOKFM=F Big=F
 Integral buffers will be    131072 words long.
 Raffenetti 2 integral format.
 Two-electron integral symmetry is turned on.
 Nuclear repulsion after empirical dispersion term =     1046.7872782689 Hartrees.
 One-electron integrals computed using PRISM.
 NBasis=   366 RedAO= T EigKep=  1.16D-06  NBF=   366
 NBsUse=   362 1.00D-06 EigRej=  4.54D-07 NBFU=   362
 ExpMin= 4.38D-02 ExpMax= 5.48D+03 ExpMxC= 8.25D+02 IAcc=3 IRadAn=         5 AccDes= 0.00D+00
 Harris functional with IExCor=  402 and IRadAn=       5 diagonalized for initial guess.
 HarFok:  IExCor=  402 AccDes= 0.00D+00 IRadAn=         5 IDoV= 1 UseB2=F ITyADJ=14
 ICtDFT=  3500011 ScaDFX=  1.000000  1.000000  1.000000  1.000000
 FoFCou: FMM=F IPFlag=           0 FMFlag=      100000 FMFlg1=           0
         NFxFlg=           0 DoJE=T BraDBF=F KetDBF=T FulRan=T
         wScrn=  0.000000 ICntrl=       500 IOpCl=  0 I1Cent=   200000004 NGrid=           0
         NMat0=    1 NMatS0=      1 NMatT0=    0 NMatD0=    1 NMtDS0=    0 NMtDT0=    0
 Petite list used in FoFCou.
 Requested convergence on RMS density matrix=1.00D-08 within 128 cycles.
 Requested convergence on MAX density matrix=1.00D-06.
 Requested convergence on             energy=1.00D-06.
 No special actions if energy rises.
 SCF Done:  E(RB3LYP) =  -767.360703991     A.U. after   16 cycles
            NFock= 16  Conv=0.44D-08     -V/T= 2.0100

 **********************************************************************

            Population analysis using the SCF Density.

 **********************************************************************

 Orbital symmetries:
       Occupied  (A) (A) (A) (A) (A) (A) (A) (A) (A) (A) (A) (A)
                 (A) (A) (A) (A) (A) (A) (A) (A) (A) (A) (A) (A)
                 (A) (A) (A) (A) (A) (A) (A) (A) (A) (A) (A) (A)
                 (A) (A) (A) (A) (A) (A) (A) (A) (A) (A) (A) (A)
                 (A) (A) (A) (A) (A) (A) (A) (A) (A) (A) (A) (A)
                 (A) (A)
       Virtual   (A) (A) (A) (A) (A) (A) (A) (A) (A) (A) (A) (A)
                 (A) (A) (A) (A) (A) (A) (A) (A) (A) (A) (A) (A)
                 (A) (A) (A) (A) (A) (A) (A) (A) (A) (A) (A) (A)
                 (A) (A) (A) (A) (A) (A) (A) (A) (A) (A) (A) (A)
                 (A) (A) (A) (A) (A) (A) (A) (A) (A) (A) (A) (A)
                 (A) (A) (A) (A) (A) (A) (A) (A) (A) (A) (A) (A)
                 (A) (A) (A) (A) (A) (A) (A) (A) (A) (A) (A) (A)
                 (A) (A) (A) (A) (A) (A) (A) (A) (A) (A) (A) (A)
                 (A) (A) (A) (A) (A) (A) (A) (A) (A) (A) (A) (A)
                 (A) (A) (A) (A) (A) (A) (A) (A) (A) (A) (A) (A)
                 (A) (A) (A) (A) (A) (A) (A) (A) (A) (A) (A) (A)
                 (A) (A) (A) (A) (A) (A) (A) (A) (A) (A) (A) (A)
                 (A) (A) (A) (A) (A) (A) (A) (A) (A) (A) (A) (A)
                 (A) (A) (A) (A) (A) (A) (A) (A) (A) (A) (A) (A)
                 (A) (A) (A) (A) (A) (A) (A) (A) (A) (A) (A) (A)
                 (A) (A) (A) (A) (A) (A) (A) (A) (A) (A) (A) (A)
                 (A) (A) (A) (A) (A) (A) (A) (A) (A) (A) (A) (A)
                 (A) (A) (A) (A) (A) (A) (A) (A) (A) (A) (A) (A)
                 (A) (A) (A) (A) (A) (A) (A) (A) (A) (A) (A) (A)
                 (A) (A) (A) (A) (A) (A) (A) (A) (A) (A) (A) (A)
                 (A) (A) (A) (A) (A) (A) (A) (A) (A) (A) (A) (A)
                 (A) (A) (A) (A) (A) (A) (A) (A) (A) (A) (A) (A)
                 (A) (A) (A) (A) (A) (A) (A) (A) (A) (A) (A) (A)
                 (A) (A) (A) (A) (A) (A) (A) (A) (A) (A) (A) (A)
                 (A) (A) (A) (A) (A) (A) (A) (A) (A) (A) (A) (A)
 The electronic state is 1-A.
 Alpha  occ. eigenvalues --  -19.20281 -19.15485 -10.28271 -10.27402 -10.25998
 Alpha  occ. eigenvalues --  -10.24254 -10.22938 -10.22155 -10.21910 -10.21756
 Alpha  occ. eigenvalues --  -10.21712 -10.21615 -10.21606 -10.21453 -10.21341
 Alpha  occ. eigenvalues --  -10.21090 -10.20855 -10.20570  -1.07153  -1.03387
 Alpha  occ. eigenvalues --   -0.88390  -0.87762  -0.81200  -0.79078  -0.77209
 Alpha  occ. eigenvalues --   -0.77083  -0.74528  -0.71571  -0.67292  -0.63507
 Alpha  occ. eigenvalues --   -0.63202  -0.62199  -0.58875  -0.56416  -0.54910
 Alpha  occ. eigenvalues --   -0.52544  -0.50464  -0.50048  -0.48149  -0.47681
 Alpha  occ. eigenvalues --   -0.46827  -0.45644  -0.44614  -0.44430  -0.43701
 Alpha  occ. eigenvalues --   -0.43222  -0.41313  -0.41075  -0.40349  -0.39390
 Alpha  occ. eigenvalues --   -0.38328  -0.38066  -0.36695  -0.35614  -0.34905
 Alpha  occ. eigenvalues --   -0.31645  -0.28534  -0.27734  -0.27619  -0.27023
 Alpha  occ. eigenvalues --   -0.26434  -0.22021
 Alpha virt. eigenvalues --   -0.09047  -0.03567  -0.02912  -0.02880  -0.00686
 Alpha virt. eigenvalues --    0.00187   0.01114   0.01157   0.01586   0.02112
 Alpha virt. eigenvalues --    0.02730   0.03136   0.03340   0.03806   0.04436
 Alpha virt. eigenvalues --    0.04506   0.05185   0.05338   0.05865   0.06261
 Alpha virt. eigenvalues --    0.07172   0.07420   0.07926   0.08055   0.08715
 Alpha virt. eigenvalues --    0.09018   0.09362   0.09899   0.10261   0.11285
 Alpha virt. eigenvalues --    0.11444   0.11914   0.12141   0.12651   0.13362
 Alpha virt. eigenvalues --    0.13455   0.14060   0.14162   0.14255   0.14509
 Alpha virt. eigenvalues --    0.14547   0.15235   0.15393   0.15883   0.16180
 Alpha virt. eigenvalues --    0.16559   0.17089   0.18117   0.18433   0.19073
 Alpha virt. eigenvalues --    0.19215   0.19471   0.19975   0.20089   0.20500
 Alpha virt. eigenvalues --    0.21188   0.21903   0.22129   0.22525   0.22696
 Alpha virt. eigenvalues --    0.22814   0.23299   0.23701   0.23732   0.23903
 Alpha virt. eigenvalues --    0.24613   0.25174   0.25252   0.25528   0.26208
 Alpha virt. eigenvalues --    0.26464   0.27113   0.27414   0.27872   0.28173
 Alpha virt. eigenvalues --    0.28271   0.29115   0.29254   0.29895   0.30569
 Alpha virt. eigenvalues --    0.31531   0.31548   0.31781   0.32722   0.32885
 Alpha virt. eigenvalues --    0.33462   0.33841   0.34955   0.35246   0.35527
 Alpha virt. eigenvalues --    0.36473   0.37001   0.38864   0.39307   0.40380
 Alpha virt. eigenvalues --    0.40687   0.41468   0.42315   0.43849   0.44733
 Alpha virt. eigenvalues --    0.47708   0.49417   0.50640   0.55369   0.56868
 Alpha virt. eigenvalues --    0.59316   0.59621   0.63253   0.65040   0.65663
 Alpha virt. eigenvalues --    0.66178   0.66324   0.67484   0.67785   0.68020
 Alpha virt. eigenvalues --    0.69071   0.69719   0.69928   0.70842   0.71001
 Alpha virt. eigenvalues --    0.71954   0.72434   0.73219   0.74045   0.74266
 Alpha virt. eigenvalues --    0.74958   0.76022   0.76445   0.77070   0.77750
 Alpha virt. eigenvalues --    0.78523   0.79360   0.79507   0.80192   0.82033
 Alpha virt. eigenvalues --    0.83101   0.83895   0.84370   0.87170   0.88274
 Alpha virt. eigenvalues --    0.88867   0.89492   0.89597   0.90444   0.92791
 Alpha virt. eigenvalues --    0.93448   0.94623   0.96523   0.97324   0.98524
 Alpha virt. eigenvalues --    0.98701   0.99481   1.00682   1.02659   1.04606
 Alpha virt. eigenvalues --    1.05525   1.07865   1.08193   1.09509   1.10816
 Alpha virt. eigenvalues --    1.14130   1.15811   1.16505   1.17654   1.19591
 Alpha virt. eigenvalues --    1.20054   1.20217   1.21095   1.22075   1.22278
 Alpha virt. eigenvalues --    1.22720   1.22973   1.24654   1.25386   1.25778
 Alpha virt. eigenvalues --    1.27063   1.28487   1.29848   1.31820   1.32074
 Alpha virt. eigenvalues --    1.32459   1.33640   1.34123   1.35753   1.37568
 Alpha virt. eigenvalues --    1.38646   1.39434   1.41938   1.42578   1.43138
 Alpha virt. eigenvalues --    1.43882   1.44350   1.44757   1.48068   1.48420
 Alpha virt. eigenvalues --    1.49016   1.51343   1.52573   1.53052   1.55072
 Alpha virt. eigenvalues --    1.55617   1.57085   1.59752   1.66667   1.69501
 Alpha virt. eigenvalues --    1.71911   1.75565   1.75660   1.80948   1.81492
 Alpha virt. eigenvalues --    1.82866   1.83194   1.84980   1.86682   1.88000
 Alpha virt. eigenvalues --    1.88799   1.89616   1.90529   1.91136   1.94464
 Alpha virt. eigenvalues --    1.95081   1.97595   1.97949   1.98445   1.98656
 Alpha virt. eigenvalues --    2.00838   2.03211   2.05193   2.06852   2.08552
 Alpha virt. eigenvalues --    2.09321   2.10503   2.11886   2.13214   2.13964
 Alpha virt. eigenvalues --    2.14409   2.14772   2.17716   2.20302   2.23356
 Alpha virt. eigenvalues --    2.24242   2.25187   2.27902   2.29248   2.29269
 Alpha virt. eigenvalues --    2.30357   2.32624   2.34989   2.35444   2.36602
 Alpha virt. eigenvalues --    2.38392   2.45539   2.49603   2.50223   2.50504
 Alpha virt. eigenvalues --    2.55336   2.56402   2.58053   2.60082   2.63269
 Alpha virt. eigenvalues --    2.64500   2.64999   2.66125   2.71679   2.74930
 Alpha virt. eigenvalues --    2.75740   2.77971   2.79102   2.81451   2.86214
 Alpha virt. eigenvalues --    2.90256   2.90969   2.95161   3.00557   3.02288
 Alpha virt. eigenvalues --    3.04352   3.11422   3.17005   3.28556   3.33502
 Alpha virt. eigenvalues --    3.40662   3.59403   4.15587   4.21169   4.23045
 Alpha virt. eigenvalues --    4.23347   4.24280   4.24543   4.27467   4.32512
 Alpha virt. eigenvalues --    4.34838   4.38375   4.38817   4.41299   4.45087
 Alpha virt. eigenvalues --    4.48936   4.59417   4.68107   4.79311   4.99907
          Condensed to atoms (all electrons):
               1          2          3          4          5          6
     1  C   11.485454  -3.428374   1.597619   0.570483  -2.590016  -0.346262
     2  C   -3.428374  14.945414  -2.189527  -7.193552   3.081115  -1.208152
     3  C    1.597619  -2.189527   8.565539  -0.117865  -0.349725  -0.282855
     4  C    0.570483  -7.193552  -0.117865  24.737222 -10.099017   0.719238
     5  C   -2.590016   3.081115  -0.349725 -10.099017  14.286096  -0.315251
     6  C   -0.346262  -1.208152  -0.282855   0.719238  -0.315251   7.754904
     7  H    0.368439  -0.121410   0.038106  -0.005479   0.030486  -0.005164
     8  H   -0.105501   0.391506  -0.050021   0.019264  -0.015590   0.017579
     9  H   -0.010087   0.012149  -0.032261   0.369163  -0.090263   0.000056
    10  H    0.006513   0.004079   0.048820   0.053062   0.226269  -0.029866
    11  C   -0.743117   1.864567  -1.147327  -1.607363   0.889126  -0.352164
    12  C    0.036535   0.014744  -0.386770   0.142470  -0.285671  -0.098583
    13  C   -0.053687   0.188766   0.164719  -0.730964   0.479400   0.003102
    14  C   -0.070731   0.268641  -0.633106  -0.312258   0.176437  -0.019119
    15  C    0.048251  -0.201201   0.224174   0.435037  -0.259083   0.012406
    16  C    0.023809  -0.111056   0.327731   0.094669  -0.048152   0.006660
    17  H    0.000035   0.000043   0.002985   0.000846  -0.000017   0.000014
    18  C   -0.019534   0.061918  -0.038961  -0.100740   0.017058  -0.001737
    19  H    0.000048  -0.000472  -0.000956   0.003640  -0.000108   0.000022
    20  C   -0.001158   0.002104   0.001389  -0.002775   0.008614   0.000673
    21  H    0.000005   0.000062  -0.000124  -0.000021  -0.000002   0.000000
    22  H   -0.000002  -0.000045  -0.000176   0.000120   0.000004   0.000000
    23  O   -0.593344   0.018474  -0.033077  -0.075796   0.202268   0.474884
    24  C    0.060990  -0.016500  -0.042569   0.110663  -0.133756  -0.162176
    25  H   -0.026670  -0.001116  -0.004049   0.069318   0.033188  -0.083056
    26  H   -0.026493  -0.001132  -0.004043   0.069235   0.033009  -0.082931
    27  H    0.044622   0.003582   0.001542  -0.029542  -0.063329   0.055387
    28  C   -0.000210   0.000598   0.006438  -0.000726   0.000931   0.000090
    29  H    0.000000   0.000000   0.000001   0.000001   0.000000   0.000000
    30  O    0.000000   0.000001  -0.000044   0.000008   0.000001   0.000000
               7          8          9         10         11         12
     1  C    0.368439  -0.105501  -0.010087   0.006513  -0.743117   0.036535
     2  C   -0.121410   0.391506   0.012149   0.004079   1.864567   0.014744
     3  C    0.038106  -0.050021  -0.032261   0.048820  -1.147327  -0.386770
     4  C   -0.005479   0.019264   0.369163   0.053062  -1.607363   0.142470
     5  C    0.030486  -0.015590  -0.090263   0.226269   0.889126  -0.285671
     6  C   -0.005164   0.017579   0.000056  -0.029866  -0.352164  -0.098583
     7  H    0.513042  -0.004284   0.000014  -0.000145  -0.004698   0.000958
     8  H   -0.004284   0.520226  -0.000154   0.000016   0.031256  -0.004258
     9  H    0.000014  -0.000154   0.522691  -0.004602   0.036351  -0.000757
    10  H   -0.000145   0.000016  -0.004602   0.536599  -0.007358   0.001387
    11  C   -0.004698   0.031256   0.036351  -0.007358   7.453061   0.361593
    12  C    0.000958  -0.004258  -0.000757   0.001387   0.361593   6.705081
    13  C   -0.000081  -0.000697  -0.001433  -0.000321  -0.668117  -0.487918
    14  C    0.000053   0.002019  -0.000134  -0.000060  -0.003278  -0.785622
    15  C   -0.000023  -0.000016   0.002650   0.000176   0.245687   0.688051
    16  C    0.000004   0.000076   0.000048  -0.000002  -0.113591   0.415028
    17  H    0.000000   0.000003   0.000000   0.000000  -0.005873   0.029334
    18  C   -0.000002   0.000020   0.000105   0.000007  -0.053807  -0.221566
    19  H    0.000000   0.000000   0.000002   0.000000   0.001568   0.031987
    20  C    0.000000   0.000000  -0.000016   0.000000  -0.112746  -0.166201
    21  H    0.000000   0.000000   0.000000   0.000000   0.000998  -0.006284
    22  H    0.000000   0.000000   0.000000   0.000000   0.000981  -0.007282
    23  O   -0.006477  -0.000474  -0.000565  -0.012395   0.001824  -0.000134
    24  C   -0.001973   0.000272   0.000553  -0.002662   0.006958  -0.004407
    25  H    0.000005   0.000000   0.000003  -0.000543  -0.000200  -0.000011
    26  H    0.000005   0.000000   0.000003  -0.000544  -0.000201  -0.000011
    27  H   -0.000014   0.000000   0.000000   0.000114   0.000068   0.000004
    28  C    0.000000  -0.000002  -0.000002   0.000000  -0.061813   0.069361
    29  H    0.000000   0.000000   0.000000   0.000000   0.000016   0.000568
    30  O    0.000000   0.000000   0.000000   0.000000  -0.000118  -0.001909
              13         14         15         16         17         18
     1  C   -0.053687  -0.070731   0.048251   0.023809   0.000035  -0.019534
     2  C    0.188766   0.268641  -0.201201  -0.111056   0.000043   0.061918
     3  C    0.164719  -0.633106   0.224174   0.327731   0.002985  -0.038961
     4  C   -0.730964  -0.312258   0.435037   0.094669   0.000846  -0.100740
     5  C    0.479400   0.176437  -0.259083  -0.048152  -0.000017   0.017058
     6  C    0.003102  -0.019119   0.012406   0.006660   0.000014  -0.001737
     7  H   -0.000081   0.000053  -0.000023   0.000004   0.000000  -0.000002
     8  H   -0.000697   0.002019  -0.000016   0.000076   0.000003   0.000020
     9  H   -0.001433  -0.000134   0.002650   0.000048   0.000000   0.000105
    10  H   -0.000321  -0.000060   0.000176  -0.000002   0.000000   0.000007
    11  C   -0.668117  -0.003278   0.245687  -0.113591  -0.005873  -0.053807
    12  C   -0.487918  -0.785622   0.688051   0.415028   0.029334  -0.221566
    13  C    8.193694  -0.469025  -1.675821   0.609384  -0.055745   0.968550
    14  C   -0.469025  16.744017  -4.192556  -7.087036   0.361331   1.026816
    15  C   -1.675821  -4.192556  12.814098   1.215393   0.022325  -3.462573
    16  C    0.609384  -7.087036   1.215393  12.368402  -0.060066  -1.348610
    17  H   -0.055745   0.361331   0.022325  -0.060066   0.517362  -0.021557
    18  C    0.968550   1.026816  -3.462573  -1.348610  -0.021557  10.253009
    19  H   -0.030982   0.015737   0.394268  -0.005400  -0.000138  -0.121963
    20  C    0.024494   0.187702  -0.119281   0.869991   0.011730  -1.046554
    21  H    0.026551  -0.111182   0.007247   0.300645  -0.003600   0.037771
    22  H    0.031465   0.005997  -0.026841   0.022229   0.000016   0.227321
    23  O    0.000044   0.000039  -0.000083  -0.000004   0.000000  -0.000002
    24  C    0.000838   0.000024  -0.000060   0.000011   0.000000  -0.000001
    25  H   -0.000005   0.000000   0.000002   0.000000   0.000000   0.000000
    26  H   -0.000005   0.000000   0.000002   0.000000   0.000000   0.000000
    27  H    0.000001   0.000000   0.000000   0.000000   0.000000   0.000000
    28  C   -0.587405   0.735363  -0.068254  -0.980713   0.001570   0.662788
    29  H   -0.006017   0.004077   0.069043  -0.072018   0.000003   0.118442
    30  O   -0.024159   0.174315   0.036688  -0.264248   0.000137   0.018231
              19         20         21         22         23         24
     1  C    0.000048  -0.001158   0.000005  -0.000002  -0.593344   0.060990
     2  C   -0.000472   0.002104   0.000062  -0.000045   0.018474  -0.016500
     3  C   -0.000956   0.001389  -0.000124  -0.000176  -0.033077  -0.042569
     4  C    0.003640  -0.002775  -0.000021   0.000120  -0.075796   0.110663
     5  C   -0.000108   0.008614  -0.000002   0.000004   0.202268  -0.133756
     6  C    0.000022   0.000673   0.000000   0.000000   0.474884  -0.162176
     7  H    0.000000   0.000000   0.000000   0.000000  -0.006477  -0.001973
     8  H    0.000000   0.000000   0.000000   0.000000  -0.000474   0.000272
     9  H    0.000002  -0.000016   0.000000   0.000000  -0.000565   0.000553
    10  H    0.000000   0.000000   0.000000   0.000000  -0.012395  -0.002662
    11  C    0.001568  -0.112746   0.000998   0.000981   0.001824   0.006958
    12  C    0.031987  -0.166201  -0.006284  -0.007282  -0.000134  -0.004407
    13  C   -0.030982   0.024494   0.026551   0.031465   0.000044   0.000838
    14  C    0.015737   0.187702  -0.111182   0.005997   0.000039   0.000024
    15  C    0.394268  -0.119281   0.007247  -0.026841  -0.000083  -0.000060
    16  C   -0.005400   0.869991   0.300645   0.022229  -0.000004   0.000011
    17  H   -0.000138   0.011730  -0.003600   0.000016   0.000000   0.000000
    18  C   -0.121963  -1.046554   0.037771   0.227321  -0.000002  -0.000001
    19  H    0.519266  -0.002679   0.000014  -0.003924   0.000000   0.000000
    20  C   -0.002679   8.272068   0.060314   0.068709  -0.000001   0.000011
    21  H    0.000014   0.060314   0.487840  -0.000141   0.000000   0.000000
    22  H   -0.003924   0.068709  -0.000141   0.528339   0.000000   0.000000
    23  O    0.000000  -0.000001   0.000000   0.000000   8.443257   0.089626
    24  C    0.000000   0.000011   0.000000   0.000000   0.089626   5.255008
    25  H    0.000000   0.000000   0.000000   0.000000  -0.032985   0.383351
    26  H    0.000000   0.000000   0.000000   0.000000  -0.032990   0.383336
    27  H    0.000000   0.000000   0.000000   0.000000  -0.058683   0.396477
    28  C    0.002637  -2.182209  -0.028724  -0.042106   0.000000   0.000001
    29  H    0.000004  -0.375990   0.000100   0.005783   0.000000   0.000000
    30  O    0.000028  -0.195169   0.006425   0.000465   0.000000   0.000000
              25         26         27         28         29         30
     1  C   -0.026670  -0.026493   0.044622  -0.000210   0.000000   0.000000
     2  C   -0.001116  -0.001132   0.003582   0.000598   0.000000   0.000001
     3  C   -0.004049  -0.004043   0.001542   0.006438   0.000001  -0.000044
     4  C    0.069318   0.069235  -0.029542  -0.000726   0.000001   0.000008
     5  C    0.033188   0.033009  -0.063329   0.000931   0.000000   0.000001
     6  C   -0.083056  -0.082931   0.055387   0.000090   0.000000   0.000000
     7  H    0.000005   0.000005  -0.000014   0.000000   0.000000   0.000000
     8  H    0.000000   0.000000   0.000000  -0.000002   0.000000   0.000000
     9  H    0.000003   0.000003   0.000000  -0.000002   0.000000   0.000000
    10  H   -0.000543  -0.000544   0.000114   0.000000   0.000000   0.000000
    11  C   -0.000200  -0.000201   0.000068  -0.061813   0.000016  -0.000118
    12  C   -0.000011  -0.000011   0.000004   0.069361   0.000568  -0.001909
    13  C   -0.000005  -0.000005   0.000001  -0.587405  -0.006017  -0.024159
    14  C    0.000000   0.000000   0.000000   0.735363   0.004077   0.174315
    15  C    0.000002   0.000002   0.000000  -0.068254   0.069043   0.036688
    16  C    0.000000   0.000000   0.000000  -0.980713  -0.072018  -0.264248
    17  H    0.000000   0.000000   0.000000   0.001570   0.000003   0.000137
    18  C    0.000000   0.000000   0.000000   0.662788   0.118442   0.018231
    19  H    0.000000   0.000000   0.000000   0.002637   0.000004   0.000028
    20  C    0.000000   0.000000   0.000000  -2.182209  -0.375990  -0.195169
    21  H    0.000000   0.000000   0.000000  -0.028724   0.000100   0.006425
    22  H    0.000000   0.000000   0.000000  -0.042106   0.005783   0.000465
    23  O   -0.032985  -0.032990  -0.058683   0.000000   0.000000   0.000000
    24  C    0.383351   0.383336   0.396477   0.000001   0.000000   0.000000
    25  H    0.526578  -0.044642  -0.028086   0.000000   0.000000   0.000000
    26  H   -0.044642   0.526564  -0.028077   0.000000   0.000000   0.000000
    27  H   -0.028086  -0.028077   0.491013   0.000000   0.000000   0.000000
    28  C    0.000000   0.000000   0.000000   7.414114   0.532352   0.531584
    29  H    0.000000   0.000000   0.000000   0.532352   0.625919  -0.061696
    30  O    0.000000   0.000000   0.000000   0.531584  -0.061696   8.173825
 Mulliken charges:
               1
     1  C   -0.227615
     2  C   -0.385224
     3  C    0.334395
     4  C   -1.118342
     5  C    0.785980
     6  C   -0.057697
     7  H    0.198638
     8  H    0.198760
     9  H    0.196487
    10  H    0.181456
    11  C   -0.012284
    12  C   -0.039716
    13  C    0.101374
    14  C   -0.018461
    15  C   -0.209705
    16  C   -0.163182
    17  H    0.199263
    18  C   -0.954429
    19  H    0.197404
    20  C    0.696980
    21  H    0.222106
    22  H    0.189087
    23  O   -0.383407
    24  C   -0.324015
    25  H    0.208920
    26  H    0.208918
    27  H    0.214922
    28  C   -0.005660
    29  H    0.159411
    30  O   -0.394364
 Sum of Mulliken charges =   0.00000
 Mulliken charges with hydrogens summed into heavy atoms:
               1
     1  C   -0.028977
     2  C   -0.186465
     3  C    0.334395
     4  C   -0.921855
     5  C    0.967435
     6  C   -0.057697
    11  C   -0.012284
    12  C   -0.039716
    13  C    0.101374
    14  C    0.180802
    15  C   -0.012300
    16  C    0.058924
    18  C   -0.765343
    20  C    0.696980
    23  O   -0.383407
    24  C    0.308745
    28  C    0.153751
    30  O   -0.394364
 Electronic spatial extent (au):  <R**2>=           9585.9956
 Charge=              0.0000 electrons
 Dipole moment (field-independent basis, Debye):
    X=              6.0505    Y=              3.0560    Z=              0.0006  Tot=              6.7785
 Quadrupole moment (field-independent basis, Debye-Ang):
   XX=           -117.5528   YY=            -93.7837   ZZ=           -110.2488
   XY=             -3.7340   XZ=              0.0065   YZ=             -0.0007
 Traceless Quadrupole moment (field-independent basis, Debye-Ang):
   XX=            -10.3577   YY=             13.4114   ZZ=             -3.0537
   XY=             -3.7340   XZ=              0.0065   YZ=             -0.0007
 Octapole moment (field-independent basis, Debye-Ang**2):
  XXX=            491.3985  YYY=             -3.1635  ZZZ=              0.0003  XYY=              4.4770
  XXY=            160.4601  XXZ=              0.0313  XZZ=              1.6446  YZZ=             -0.5881
  YYZ=             -0.0019  XYZ=              0.0040
 Hexadecapole moment (field-independent basis, Debye-Ang**3):
 XXXX=         -13423.0182 YYYY=           -654.2457 ZZZZ=           -136.0021 XXXY=           -247.8288
 XXXZ=              0.3306 YYYX=            -12.2143 YYYZ=             -0.0043 ZZZX=              0.0017
 ZZZY=              0.0014 XXYY=          -2013.7506 XXZZ=          -2097.0324 YYZZ=           -154.9307
 XXYZ=             -0.0164 YYXZ=             -0.0052 ZZXY=             13.4130
 N-N= 1.046787278269D+03 E-N=-3.874548808056D+03  KE= 7.597860885276D+02
 Evaluate density.
 Using the total density.
 Monte-Carlo method of calculating molar volume:
 based on  0.001 e/bohr**3 density envelope.
 Number of points per bohr**3 =   20 CutOff= 1.00D-04
 Using the SCF density.
 There are       418 points.  Will hold       418 in memory.
 LenV=  4026242858 MDV=  4026531840.
 Box volume = 9194.242 fraction occupied=0.227
 Integrated density= 1.0555553743971612D+02 error=-1.8444462560283881D+01
 Molar volume = 2089.600 bohr**3/mol (186.474 cm**3/mol)
 Recommended a0 for SCRF calculation =  5.12 angstrom (  9.67 bohr)
 Calling FoFJK, ICntrl=      2127 FMM=F ISym2X=0 I1Cent= 0 IOpClX= 0 NMat=1 NMatS=1 NMatT=0.
 ***** Axes restored to original set *****
 -------------------------------------------------------------------
 Center     Atomic                   Forces (Hartrees/Bohr)
 Number     Number              X              Y              Z
 -------------------------------------------------------------------
      1        6           0.000629258   -0.002575173    0.000000286
      2        6          -0.000839930   -0.003006188    0.000001985
      3        6          -0.001972547    0.000032181   -0.000005954
      4        6          -0.000052723    0.003169281    0.000001724
      5        6           0.000857179    0.002018191    0.000000409
      6        6          -0.015987009   -0.000430318   -0.000006376
      7        1          -0.000210068    0.001621899   -0.000000292
      8        1           0.000443398    0.000972783    0.000000203
      9        1           0.000302319   -0.000950606    0.000000048
     10        1          -0.000545910   -0.000805774    0.000000740
     11        6           0.004418498   -0.000288739    0.000003643
     12        6          -0.004356548    0.000258113   -0.000000182
     13        6           0.002322642   -0.000641226   -0.000005214
     14        6           0.001064882   -0.002420486    0.000001486
     15        6           0.000291837    0.002471780    0.000002944
     16        6          -0.001741021   -0.001984625   -0.000001131
     17        1          -0.000411424    0.001016431    0.000000478
     18        6          -0.000636572    0.002420470   -0.000000771
     19        1          -0.000494240   -0.000954381   -0.000000373
     20        6          -0.002881178    0.001246720    0.000001958
     21        1           0.000166665    0.000890666   -0.000000348
     22        1           0.000171306   -0.000991087    0.000000061
     23        8           0.006189729   -0.012668265    0.000015358
     24        6           0.011119301    0.010391247   -0.000009426
     25        1           0.000586956    0.000678110   -0.000607259
     26        1           0.000586636    0.000680191    0.000607317
     27        1          -0.000576303    0.000845529   -0.000001043
     28        6           0.018726512    0.026267498    0.000002660
     29        1           0.001745995   -0.001258635   -0.000000639
     30        8          -0.018917642   -0.026005589   -0.000002291
 -------------------------------------------------------------------
 Cartesian Forces:  Max     0.026267498 RMS     0.005671809

 GradGradGradGradGradGradGradGradGradGradGradGradGradGradGradGradGradGrad
 Berny optimization.
 FormGI is forming the generalized inverse of G from B-inverse, IUseBI=4.
 Internal  Forces:  Max     0.032146290 RMS     0.003529018
 Search for a local minimum.
 Step number   1 out of a maximum of  152
 All quantities printed in internal units (Hartrees-Bohrs-Radians)
 Mixed Optimization -- RFO/linear search
 Second derivative matrix not updated -- first step.
 ITU=  0
     Eigenvalues ---    0.00230   0.00976   0.01024   0.01170   0.01170
     Eigenvalues ---    0.01364   0.01737   0.01815   0.01851   0.01874
     Eigenvalues ---    0.01909   0.01928   0.02013   0.02014   0.02020
     Eigenvalues ---    0.02032   0.02046   0.02071   0.02077   0.02085
     Eigenvalues ---    0.02096   0.02112   0.02122   0.02137   0.02157
     Eigenvalues ---    0.03741   0.04455   0.09920   0.10578   0.16000
     Eigenvalues ---    0.16000   0.16000   0.16000   0.16000   0.16000
     Eigenvalues ---    0.16000   0.16000   0.16000   0.16000   0.16000
     Eigenvalues ---    0.16000   0.22000   0.22000   0.22000   0.22961
     Eigenvalues ---    0.22965   0.24000   0.24000   0.25000   0.25000
     Eigenvalues ---    0.25000   0.25000   0.25000   0.32986   0.34063
     Eigenvalues ---    0.34063   0.34912   0.35171   0.35426   0.35443
     Eigenvalues ---    0.35473   0.35482   0.35491   0.35592   0.35671
     Eigenvalues ---    0.35805   0.37714   0.40100   0.40451   0.41027
     Eigenvalues ---    0.41291   0.42140   0.42353   0.43693   0.43781
     Eigenvalues ---    0.44111   0.44376   0.45546   0.45637   0.47208
     Eigenvalues ---    0.47378   0.47987   0.85509   0.94883
 RFO step:  Lambda=-2.99693820D-03 EMin= 2.30000000D-03
 Linear search not attempted -- first point.
 Iteration  1 RMS(Cart)=  0.02343891 RMS(Int)=  0.00008197
 Iteration  2 RMS(Cart)=  0.00013700 RMS(Int)=  0.00000345
 Iteration  3 RMS(Cart)=  0.00000003 RMS(Int)=  0.00000345
 Variable       Old X    -DE/DX   Delta X   Delta X   Delta X     New X
                                 (Linear)    (Quad)   (Total)
    R1        2.62263  -0.00152   0.00000  -0.00318  -0.00318   2.61945
    R2        2.65543  -0.00142   0.00000  -0.00308  -0.00308   2.65234
    R3        2.04724   0.00152   0.00000   0.00425   0.00425   2.05148
    R4        2.67816  -0.00230   0.00000  -0.00542  -0.00542   2.67274
    R5        2.04914   0.00106   0.00000   0.00296   0.00296   2.05209
    R6        2.66545  -0.00238   0.00000  -0.00546  -0.00546   2.65999
    R7        2.68746  -0.00053   0.00000  -0.00125  -0.00125   2.68621
    R8        2.63776  -0.00114   0.00000  -0.00243  -0.00243   2.63533
    R9        2.04962   0.00098   0.00000   0.00275   0.00275   2.05237
   R10        2.65103  -0.00169   0.00000  -0.00364  -0.00364   2.64739
   R11        2.04599   0.00097   0.00000   0.00270   0.00270   2.04869
   R12        2.61953  -0.01776   0.00000  -0.03678  -0.03678   2.58275
   R13        2.30761  -0.00496   0.00000  -0.00521  -0.00521   2.30240
   R14        2.68476  -0.00059   0.00000  -0.00139  -0.00139   2.68336
   R15        2.68056  -0.00176   0.00000  -0.00416  -0.00416   2.67640
   R16        2.67481  -0.00253   0.00000  -0.00589  -0.00589   2.66892
   R17        2.62350  -0.00191   0.00000  -0.00398  -0.00398   2.61952
   R18        2.04899   0.00109   0.00000   0.00305   0.00305   2.05204
   R19        2.62931  -0.00148   0.00000  -0.00313  -0.00313   2.62618
   R20        2.04885   0.00107   0.00000   0.00299   0.00299   2.05184
   R21        2.66258  -0.00123   0.00000  -0.00270  -0.00270   2.65988
   R22        2.04989   0.00083   0.00000   0.00233   0.00233   2.05222
   R23        2.65781  -0.00135   0.00000  -0.00295  -0.00295   2.65486
   R24        2.05399   0.00096   0.00000   0.00270   0.00270   2.05669
   R25        2.77687   0.00161   0.00000   0.00445   0.00445   2.78132
   R26        2.74783  -0.01709   0.00000  -0.04497  -0.04497   2.70287
   R27        2.07224   0.00020   0.00000   0.00059   0.00059   2.07283
   R28        2.07224   0.00020   0.00000   0.00059   0.00059   2.07283
   R29        2.05817   0.00084   0.00000   0.00240   0.00240   2.06057
   R30        2.09077   0.00183   0.00000   0.00549   0.00549   2.09625
   R31        2.35074  -0.03215   0.00000  -0.03746  -0.03746   2.31328
    A1        2.09554  -0.00025   0.00000  -0.00100  -0.00100   2.09454
    A2        2.12173  -0.00048   0.00000  -0.00322  -0.00322   2.11851
    A3        2.06591   0.00073   0.00000   0.00422   0.00422   2.07013
    A4        2.10763   0.00022   0.00000   0.00082   0.00082   2.10845
    A5        2.09520  -0.00027   0.00000  -0.00140  -0.00140   2.09379
    A6        2.08036   0.00005   0.00000   0.00058   0.00058   2.08094
    A7        2.06536   0.00014   0.00000   0.00029   0.00029   2.06566
    A8        2.10868  -0.00019   0.00000  -0.00061  -0.00062   2.10806
    A9        2.10914   0.00005   0.00000   0.00032   0.00032   2.10946
   A10        2.11440   0.00007   0.00000   0.00021   0.00021   2.11461
   A11        2.07991   0.00013   0.00000   0.00091   0.00091   2.08082
   A12        2.08888  -0.00020   0.00000  -0.00112  -0.00112   2.08775
   A13        2.08600  -0.00018   0.00000  -0.00059  -0.00059   2.08541
   A14        2.08317   0.00013   0.00000   0.00051   0.00051   2.08368
   A15        2.11401   0.00005   0.00000   0.00008   0.00008   2.11409
   A16        2.09743   0.00000   0.00000   0.00027   0.00027   2.09770
   A17        2.01436  -0.00007   0.00000  -0.00041  -0.00041   2.01395
   A18        2.17139   0.00007   0.00000   0.00015   0.00015   2.17154
   A19        2.10364  -0.00027   0.00000  -0.00098  -0.00098   2.10266
   A20        2.10476  -0.00027   0.00000  -0.00096  -0.00096   2.10380
   A21        2.07478   0.00054   0.00000   0.00194   0.00194   2.07673
   A22        2.10274   0.00001   0.00000  -0.00002  -0.00002   2.10272
   A23        2.07675   0.00010   0.00000   0.00068   0.00068   2.07743
   A24        2.10370  -0.00012   0.00000  -0.00066  -0.00066   2.10304
   A25        2.09911  -0.00037   0.00000  -0.00175  -0.00175   2.09736
   A26        2.07937   0.00030   0.00000   0.00155   0.00155   2.08092
   A27        2.10471   0.00007   0.00000   0.00020   0.00020   2.10491
   A28        2.10097  -0.00020   0.00000  -0.00074  -0.00074   2.10023
   A29        2.11537  -0.00027   0.00000  -0.00191  -0.00191   2.11346
   A30        2.06685   0.00047   0.00000   0.00264   0.00265   2.06950
   A31        2.10441   0.00020   0.00000   0.00106   0.00106   2.10547
   A32        2.09274  -0.00041   0.00000  -0.00244  -0.00244   2.09030
   A33        2.08604   0.00021   0.00000   0.00138   0.00138   2.08742
   A34        2.08436  -0.00019   0.00000  -0.00050  -0.00050   2.08387
   A35        2.10253   0.00120   0.00000   0.00460   0.00460   2.10713
   A36        2.09629  -0.00101   0.00000  -0.00411  -0.00411   2.09218
   A37        2.07560  -0.00586   0.00000  -0.02317  -0.02317   2.05243
   A38        1.94025  -0.00113   0.00000  -0.00689  -0.00691   1.93335
   A39        1.94026  -0.00113   0.00000  -0.00690  -0.00692   1.93335
   A40        1.83524  -0.00049   0.00000  -0.00307  -0.00309   1.83215
   A41        1.91369   0.00130   0.00000   0.00809   0.00807   1.92176
   A42        1.91653   0.00071   0.00000   0.00426   0.00424   1.92077
   A43        1.91653   0.00071   0.00000   0.00426   0.00424   1.92077
   A44        2.01204   0.00090   0.00000   0.00602   0.00602   2.01806
   A45        2.17419   0.00057   0.00000   0.00257   0.00257   2.17677
   A46        2.09695  -0.00148   0.00000  -0.00859  -0.00859   2.08835
   A47        3.14141  -0.00023   0.00000  -0.00483  -0.00483   3.13658
   A48        3.13957  -0.00009   0.00000  -0.00425  -0.00425   3.13532
   A49        3.14157   0.00000   0.00000   0.00003   0.00003   3.14160
   A50        3.14163   0.00000   0.00000  -0.00003  -0.00003   3.14160
    D1       -0.00001   0.00000   0.00000   0.00001   0.00001   0.00000
    D2        3.14159   0.00000   0.00000   0.00001   0.00001  -3.14158
    D3        3.14158   0.00000   0.00000   0.00001   0.00001   3.14159
    D4        0.00000   0.00000   0.00000   0.00001   0.00001   0.00000
    D5       -0.00002   0.00000   0.00000   0.00002   0.00002   0.00000
    D6       -3.14154   0.00000   0.00000  -0.00002  -0.00002  -3.14156
    D7        3.14158   0.00000   0.00000   0.00002   0.00002  -3.14159
    D8        0.00005   0.00000   0.00000  -0.00002  -0.00002   0.00003
    D9        0.00004   0.00000   0.00000  -0.00004  -0.00004   0.00000
   D10        3.14156   0.00000   0.00000   0.00004   0.00004  -3.14158
   D11       -3.14156   0.00000   0.00000  -0.00004  -0.00004   3.14158
   D12       -0.00004   0.00000   0.00000   0.00004   0.00004   0.00000
   D13       -0.00003   0.00000   0.00000   0.00004   0.00004   0.00000
   D14        3.14155   0.00000   0.00000   0.00004   0.00004   3.14159
   D15       -3.14156   0.00000   0.00000  -0.00004  -0.00004   3.14159
   D16        0.00003   0.00000   0.00000  -0.00004  -0.00004  -0.00001
   D17        0.00017   0.00000   0.00000  -0.00003  -0.00003   0.00014
   D18       -3.14135   0.00000   0.00000  -0.00011  -0.00011  -3.14147
   D19       -3.14149   0.00000   0.00000   0.00004   0.00004  -3.14145
   D20        0.00017   0.00000   0.00000  -0.00004  -0.00004   0.00013
   D21        0.00001   0.00000   0.00000  -0.00001  -0.00001  -0.00001
   D22        3.14155   0.00000   0.00000   0.00001   0.00001   3.14156
   D23       -3.14158   0.00000   0.00000  -0.00001  -0.00001   3.14159
   D24       -0.00003   0.00000   0.00000   0.00001   0.00001  -0.00002
   D25        0.00002   0.00000   0.00000  -0.00002  -0.00002   0.00000
   D26        3.14154   0.00000   0.00000   0.00003   0.00003   3.14157
   D27       -3.14153   0.00000   0.00000  -0.00004  -0.00004  -3.14157
   D28       -0.00001   0.00000   0.00000   0.00000   0.00000  -0.00001
   D29       -3.14110   0.00000   0.00000  -0.00008  -0.00008  -3.14118
   D30        0.00056   0.00000   0.00000  -0.00012  -0.00012   0.00044
   D31       -3.14157   0.00000   0.00000  -0.00003  -0.00003   3.14159
   D32        0.00003   0.00000   0.00000  -0.00004  -0.00004  -0.00001
   D33       -0.00003   0.00000   0.00000   0.00004   0.00004   0.00001
   D34        3.14157   0.00000   0.00000   0.00003   0.00003  -3.14158
   D35        3.14156   0.00000   0.00000   0.00004   0.00004  -3.14159
   D36       -0.00004   0.00000   0.00000   0.00005   0.00005   0.00001
   D37        0.00002   0.00000   0.00000  -0.00003  -0.00003  -0.00001
   D38       -3.14158   0.00000   0.00000  -0.00002  -0.00002   3.14158
   D39        0.00002   0.00000   0.00000  -0.00003  -0.00003  -0.00001
   D40       -3.14157   0.00000   0.00000  -0.00002  -0.00002   3.14159
   D41       -3.14158   0.00000   0.00000  -0.00002  -0.00002   3.14159
   D42        0.00001   0.00000   0.00000  -0.00001  -0.00001   0.00000
   D43       -0.00002   0.00000   0.00000   0.00002   0.00002   0.00000
   D44        3.14159   0.00000   0.00000   0.00001   0.00001  -3.14159
   D45        3.14159   0.00000   0.00000   0.00001   0.00001  -3.14159
   D46        0.00001   0.00000   0.00000   0.00000   0.00000   0.00001
   D47       -0.00002   0.00000   0.00000   0.00001   0.00001   0.00000
   D48       -3.14159   0.00000   0.00000   0.00000   0.00000  -3.14159
   D49        3.14158   0.00000   0.00000   0.00001   0.00001   3.14159
   D50        0.00001   0.00000   0.00000  -0.00001  -0.00001   0.00000
   D51        0.00001   0.00000   0.00000  -0.00001  -0.00001   0.00000
   D52        3.14159   0.00000   0.00000   0.00000   0.00000   3.14159
   D53        3.14159   0.00000   0.00000   0.00000   0.00000  -3.14159
   D54       -0.00002   0.00000   0.00000   0.00002   0.00002   0.00000
   D55        3.14155   0.00000   0.00000   0.00004   0.00004   3.14159
   D56       -0.00003   0.00000   0.00000   0.00000   0.00000  -0.00003
   D57       -0.00002   0.00000   0.00000   0.00003   0.00003   0.00000
   D58        3.14158   0.00000   0.00000  -0.00001  -0.00001   3.14157
   D59       -1.06911  -0.00003   0.00000  -0.00018  -0.00018  -1.06930
   D60        1.06808   0.00004   0.00000   0.00048   0.00049   1.06856
   D61        3.14108   0.00000   0.00000   0.00015   0.00015   3.14123
         Item               Value     Threshold  Converged?
 Maximum Force            0.032146     0.000450     NO 
 RMS     Force            0.003529     0.000300     NO 
 Maximum Displacement     0.130313     0.001800     NO 
 RMS     Displacement     0.023421     0.001200     NO 
 Predicted change in Energy=-1.507665D-03
 GradGradGradGradGradGradGradGradGradGradGradGradGradGradGradGradGradGrad

                          Input orientation:                          
 ---------------------------------------------------------------------
 Center     Atomic      Atomic             Coordinates (Angstroms)
 Number     Number       Type             X           Y           Z
 ---------------------------------------------------------------------
      1          6           0       -3.969193    1.441339   -0.000125
      2          6           0       -2.585290    1.362380   -0.000116
      3          6           0       -1.931345    0.108285   -0.000072
      4          6           0       -2.720645   -1.057204   -0.000040
      5          6           0       -4.113354   -0.985465   -0.000055
      6          6           0       -4.739249    0.267886   -0.000095
      7          1           0       -4.480796    2.398829   -0.000151
      8          1           0       -1.990186    2.270717   -0.000131
      9          1           0       -2.233151   -2.027715   -0.000007
     10          1           0       -4.693215   -1.901478   -0.000056
     11          6           0       -0.512143    0.027860   -0.000050
     12          6           0        0.704611   -0.034973   -0.000039
     13          6           0        2.123129   -0.099307   -0.000028
     14          6           0        2.895949    1.087549    0.000114
     15          6           0        2.784917   -1.346991   -0.000138
     16          6           0        4.280721    1.024830    0.000132
     17          1           0        2.387791    2.047207    0.000209
     18          6           0        4.173581   -1.401011   -0.000118
     19          1           0        2.196261   -2.259359   -0.000236
     20          6           0        4.935903   -0.220935    0.000014
     21          1           0        4.883047    1.928475    0.000239
     22          1           0        4.676759   -2.366063   -0.000208
     23          8           0       -6.093064    0.455341   -0.000143
     24          6           0       -6.923211   -0.709390    0.000408
     25          1           0       -6.747525   -1.312755   -0.898626
     26          1           0       -6.746940   -1.312325    0.899615
     27          1           0       -7.944538   -0.327448    0.000646
     28          6           0        6.405711   -0.297677    0.000035
     29          1           0        6.832680   -1.321505   -0.000060
     30          8           0        7.154445    0.670777    0.000123
 ---------------------------------------------------------------------
                    Distance matrix (angstroms):
                    1          2          3          4          5
     1  C    0.000000
     2  C    1.386154   0.000000
     3  C    2.435130   1.414354   0.000000
     4  C    2.793133   2.423367   1.407608   0.000000
     5  C    2.431082   2.801312   2.440789   1.394555   0.000000
     6  C    1.403559   2.416082   2.812436   2.414669   1.400940
     7  H    1.085599   2.160364   3.427287   3.878441   3.404183
     8  H    2.145772   1.085922   2.163232   3.407144   3.887230
     9  H    3.879199   3.408335   2.157217   1.086067   2.149755
    10  H    3.420327   3.885372   3.415710   2.145654   1.084122
    11  C    3.734852   2.465539   1.421479   2.460659   3.741062
    12  C    4.901422   3.574359   2.639846   3.574540   4.910827
    13  C    6.284105   4.930085   4.059784   4.937581   6.299126
    14  C    6.874252   5.488125   4.925619   6.012162   7.309426
    15  C    7.307037   6.014966   4.935682   5.513183   6.907738
    16  C    8.260421   6.874304   6.279317   7.304382   8.631441
    17  H    6.385791   5.020012   4.734380   5.977749   7.173700
    18  C    8.624600   7.301963   6.288728   6.902793   8.297347
    19  H    7.190827   5.998351   4.758452   5.061733   6.436928
    20  C    9.058912   7.686041   6.875135   7.702082   9.081495
    21  H    8.865633   7.489761   7.053299   8.168868   9.456546
    22  H    9.447158   8.163249   7.056163   7.512303   8.897872
    23  O    2.341585   3.623148   4.176165   3.696080   2.448505
    24  C    3.654020   4.807264   5.058391   4.216934   2.823387
    25  H    4.013910   5.028705   5.101211   4.133828   2.802394
    26  H    4.013487   5.028210   5.100738   4.133464   2.802146
    27  H    4.351089   5.619346   6.028959   5.274619   3.887282
    28  C   10.519639   9.142969   8.346934   9.157906  10.541526
    29  H   11.149608   9.792925   8.879889   9.556980  10.951190
    30  O   11.150295   9.764259   9.103185  10.025134  11.388873
                    6          7          8          9         10
     6  C    0.000000
     7  H    2.146560   0.000000
     8  H    3.401276   2.493903   0.000000
     9  H    3.398575   4.964495   4.305294   0.000000
    10  H    2.169853   4.305551   4.971276   2.463301   0.000000
    11  C    4.233915   4.622954   2.686079   2.680906   4.604749
    12  C    5.452278   5.728162   3.546567   3.549855   5.711425
    13  C    6.872194   7.060631   4.747249   4.764025   7.050558
    14  C    7.679068   7.492384   5.027345   6.001045   8.156574
    15  C    7.695512   8.174458   5.990778   5.064030   7.498661
    16  C    9.051675   8.868599   6.393474   7.193648   9.439005
    17  H    7.345793   6.877582   4.383679   6.161014   8.107574
    18  C    9.067731   9.451827   7.174512   6.437312   8.880909
    19  H    7.381616   8.141364   6.168300   4.435465   6.898765
    20  C    9.687492   9.774322   7.360641   7.393226   9.774668
    21  H    9.764534   9.375648   6.881748   8.141972  10.313745
    22  H    9.777468  10.323033   8.120830   6.918189   9.381484
    23  O    1.366732   2.525184   4.486558   4.589608   2.741200
    24  C    2.392647   3.953027   5.763313   4.871821   2.528627
    25  H    2.709052   4.440854   6.023358   4.658139   2.318235
    26  H    2.708758   4.440457   6.022827   4.657832   2.318253
    27  H    3.260107   4.407958   6.496519   5.959098   3.612294
    28  C   11.159300  11.215488   8.779962   8.810390  11.214202
    29  H   11.680569  11.909476   9.526123   9.093295  11.540477
    30  O   11.900515  11.762865   9.283538   9.767744  12.123677
                   11         12         13         14         15
    11  C    0.000000
    12  C    1.218375   0.000000
    13  C    2.638338   1.419976   0.000000
    14  C    3.569038   2.462116   1.416291   0.000000
    15  C    3.572229   2.459485   1.412331   2.437071   0.000000
    16  C    4.895457   3.729845   2.432877   1.386192   2.804098
    17  H    3.533749   2.677417   2.162768   1.085894   3.417351
    18  C    4.898743   3.728245   2.428742   2.797370   1.389714
    19  H    3.544971   2.678229   2.161289   3.419263   1.085786
    20  C    5.453724   4.235376   2.815403   2.423539   2.427909
    21  H    5.720176   4.616757   3.424769   2.157710   3.889836
    22  H    5.714505   4.605642   3.414559   3.885708   2.148854
    23  O    5.597269   6.815336   8.234893   9.011218   9.059082
    24  C    6.453319   7.657578   9.066888   9.982229   9.729043
    25  H    6.440860   7.614101   8.998246   9.978266   9.574754
    26  H    6.440356   7.613582   8.997716   9.977666   9.574292
    27  H    7.440883   8.654093  10.070251  10.932446  10.777786
    28  C    6.925509   5.707149   4.287174   3.773232   3.769775
    29  H    7.467744   6.261660   4.865556   4.615343   4.047843
    30  O    7.693498   6.488331   5.089909   4.278842   4.812916
                   16         17         18         19         20
    16  C    0.000000
    17  H    2.151380   0.000000
    18  C    2.428206   3.883201   0.000000
    19  H    3.889842   4.310822   2.155587   0.000000
    20  C    1.407549   3.411354   1.404889   3.414793   0.000000
    21  H    1.085988   2.498079   3.404235   4.975617   2.150059
    22  H    3.413943   4.971551   1.088354   2.482792   2.160725
    23  O   10.389405   8.628960  10.433123   8.722529  11.049682
    24  C   11.337355   9.710488  11.118324   9.250252  11.869169
    25  H   11.309036   9.775032  10.958361   9.038500  11.768692
    26  H   11.308434   9.774390  10.957882   9.038111  11.768145
    27  H   12.299821  10.601698  12.165580  10.323182  12.880881
    28  C    2.502920   4.652113   2.489929   4.644100   1.471810
    29  H    3.466667   5.577208   2.660287   4.730322   2.192947
    30  O    2.895452   4.961406   3.630132   5.759278   2.391042
                   21         22         23         24         25
    21  H    0.000000
    22  H    4.299490   0.000000
    23  O   11.074526  11.133257   0.000000
    24  C   12.097357  11.717673   1.430295   0.000000
    25  H   12.107177  11.507862   2.088482   1.096894   0.000000
    26  H   12.106538  11.507430   2.088483   1.096893   1.798242
    27  H   13.024443  12.784877   2.010152   1.090408   1.792306
[...]
 00033,-0.00174473,-0.00129264,-0.00000028,0.00190647,-0.00035517,0.000
 00008,-0.00095677,-0.00204639,0.00000004,0.00285055,-0.00058574,0.0000
 0031,-0.04567522,-0.03306594,0.00000536,-0.00002717,-0.00042574,0.0000
 0009,-0.00021829,0.00015583,-0.00000003,0.00044561,-0.00007790,0.,-0.0
 0242751,-0.00083111,0.00000002,-0.00168170,-0.00001283,-0.00000005,0.0
 0154639,-0.00005289,-0.00000003,-0.00120153,0.00005612,0.00000002,0.00
 048389,0.00012457,0.00000002,0.00047440,-0.00018215,0.00000003,-0.0003
 1017,0.00008683,0.00000005,-0.00002988,-0.00001538,-0.00000002,-0.0003
 3112,-0.00003438,0.00000008,-0.00002963,0.00001515,-0.00000002,0.00085
 642,-0.00016774,-0.00000010,0.00001810,0.00000477,0.,0.00003849,-0.000
 02672,0.,-0.12078906,-0.04205486,0.00000627,0.57221508,0.00546788,0.00
 154919,0.00000064,-0.00054872,0.00017123,0.00000005,0.00214799,0.00045
 090,0.00000004,-0.00163902,-0.00159732,0.00000009,0.00977258,0.0016624
 1,-0.00000050,-0.01228551,0.00604400,-0.00000121,-0.00005309,0.0000800
 8,0.00000002,0.00036121,0.00008569,-0.00000007,0.00044550,-0.00012302,
 0.,0.00153309,-0.00083704,-0.00000023,-0.00179984,-0.00005102,-0.00000
 001,0.00178738,-0.00008511,0.,-0.00145862,0.00007475,-0.00000002,0.000
 59079,0.00013472,0.00000002,0.00060581,-0.00018788,0.00000005,-0.00037
 688,0.00009668,0.00000007,-0.00003921,-0.00002136,-0.00000002,-0.00040
 608,-0.00003789,0.00000011,-0.00003896,0.00001456,-0.00000003,0.001061
 21,-0.00020648,-0.00000012,0.00002306,0.00000603,0.,0.00005257,-0.0000
 3486,0.,-0.07272783,-0.18182786,0.00001715,-0.08356485,0.50335876,-0.0
 0000096,0.00000020,0.00304500,-0.00000051,0.,0.00165433,-0.00000021,-0
 .00000041,0.00024328,0.00000051,0.00000042,0.00036310,-0.00000134,0.00
 000015,-0.00137402,0.00000166,-0.00000175,-0.00555952,0.00000005,0.000
 00008,-0.00064893,-0.00000012,-0.00000002,-0.00032835,-0.00000009,0.00
 000003,0.00002313,0.00000024,0.00000015,-0.00012594,0.00000017,0.,-0.0
 0028869,-0.00000018,0.,-0.00007680,0.00000014,0.,0.00005052,-0.0000000
 6,-0.00000002,-0.00000811,-0.00000005,0.00000002,0.00000410,0.00000003
 ,0.,-0.00000053,0.,0.,0.00000565,0.00000004,0.,-0.00001746,0.,0.,0.000
 01208,-0.00000010,0.00000002,0.00000994,0.,0.,0.00000361,0.,0.,0.00000
 481,0.00001290,0.00001829,-0.06010923,0.00001216,0.00001292,0.57661313
 ,-0.00132147,-0.00061333,0.00061415,0.00088973,-0.00048674,0.00021328,
 0.00003818,0.00089428,0.00006106,-0.00083901,-0.00028890,0.00054080,0.
 00012130,0.00088037,-0.00016478,0.00476486,-0.00147939,-0.00216994,0.0
 0005316,0.00011927,-0.00013610,-0.00000303,-0.00000473,-0.00005246,-0.
 00000593,-0.00000532,-0.00004334,-0.00181157,0.00022770,-0.00149791,0.
 00000805,0.00003675,-0.00014060,0.00000608,-0.00001043,-0.00000436,-0.
 00001751,-0.00000099,0.00002034,0.00000788,-0.00000158,-0.00000828,0.0
 0000848,-0.00000121,0.00000348,-0.00000345,0.00000136,0.00000759,-0.00
 000091,-0.00000058,-0.00000017,-0.00000552,-0.00000027,-0.00000579,-0.
 00000127,0.00000115,0.00000085,0.00001734,-0.00000264,-0.00000130,0.00
 000057,0.00000014,0.00000019,0.00000091,-0.00000069,0.00000022,-0.0024
 5133,-0.02026950,-0.01918927,-0.06137219,0.02726309,0.04012115,0.06215
 632,-0.00132584,-0.00059139,0.00042058,0.00053465,-0.00011712,0.000225
 67,-0.00048949,0.00024702,-0.00003113,0.00004652,0.00009364,-0.0000586
 7,-0.00070450,0.00063694,0.00037658,0.00621518,-0.00051902,-0.00056177
 ,0.00008881,0.00014711,-0.00018084,-0.00005065,-0.00001793,-0.00004596
 ,-0.00006357,0.00002450,0.00001566,0.00035582,0.00036103,0.00010635,0.
 00037195,0.00001560,-0.00000963,-0.00036643,0.00001016,-0.00000136,0.0
 0028465,-0.00001355,-0.00000195,-0.00011614,-0.00002821,-0.00000398,-0
 .00011425,0.00004144,0.00000848,0.00007360,-0.00002050,0.00000331,0.00
 000743,0.00000353,-0.00000121,0.00007789,0.00000793,-0.00000316,0.0000
 0723,-0.00000316,-0.00000144,-0.00020418,0.00003985,0.00000177,-0.0000
 0461,-0.00000123,-0.00000038,-0.00000927,0.00000646,-0.00000071,-0.010
 21779,-0.02807000,-0.02155396,0.02414660,-0.11898832,-0.10831497,-0.01
 932251,0.13947125,-0.00058135,-0.00004138,-0.00022491,0.00023118,0.000
 02655,-0.00001776,-0.00015487,0.00001701,-0.00004543,0.00017462,0.0005
 0217,-0.00004396,-0.00048558,-0.00108676,-0.00004222,0.00191940,-0.000
 44053,0.00056218,0.00005926,0.00008303,-0.00000516,-0.00001932,0.00000
 440,0.00000932,-0.00003743,-0.00000456,0.00000630,-0.00020743,0.000760
 34,-0.00016384,0.00015967,0.00005132,0.00002012,-0.00011751,0.00001083
 ,-0.00000251,0.00009091,-0.00000998,0.00000385,-0.00003383,-0.00001088
 ,0.00000038,-0.00003619,0.00001044,-0.00000181,0.00002477,-0.00000387,
 0.00000015,0.00000098,0.00000058,-0.00000127,0.00002664,0.00000124,0.0
 0000382,0.00000080,0.00000126,-0.00000269,-0.00006317,0.00001255,-0.00
 000129,-0.00000063,-0.00000029,-0.00000053,-0.00000322,0.00000181,-0.0
 0000105,-0.00586272,-0.00213374,0.00759889,0.03672532,-0.11077065,-0.2
 3014004,-0.03787490,0.12556011,0.24140439,-0.00132134,-0.00061360,-0.0
 0061406,0.00088994,-0.00048683,-0.00021326,0.00003824,0.00089450,-0.00
 006108,-0.00083937,-0.00028909,-0.00054077,0.00012138,0.00088051,0.000
 16461,0.00476548,-0.00147881,0.00217064,0.00005312,0.00011924,0.000136
 11,-0.00000300,-0.00000473,0.00005244,-0.00000592,-0.00000533,0.000043
 34,-0.00181113,0.00022763,0.00149811,0.00000801,0.00003674,0.00014061,
 0.00000613,-0.00001043,0.00000435,-0.00001755,-0.00000099,-0.00002033,
 0.00000789,-0.00000157,0.00000828,0.00000849,-0.00000121,-0.00000349,-
 0.00000346,0.00000136,-0.00000758,-0.00000092,-0.00000058,0.00000017,-
 0.00000553,-0.00000027,0.00000580,-0.00000127,0.00000115,-0.00000086,0
 .00001737,-0.00000264,0.00000130,0.00000057,0.00000014,-0.00000019,0.0
 0000091,-0.00000069,-0.00000022,-0.00244781,-0.02026585,0.01919340,-0.
 06138723,0.02727851,-0.04015958,0.00181334,-0.00203411,0.00586081,0.06
 217125,-0.00132556,-0.00059153,-0.00042068,0.00053472,-0.00011711,-0.0
 0022558,-0.00048949,0.00024709,0.00003109,0.00004642,0.00009347,0.0000
 5860,-0.00070432,0.00063710,-0.00037658,0.00621499,-0.00051811,0.00056
 148,0.00008878,0.00014705,0.00018082,-0.00005062,-0.00001793,0.0000459
 7,-0.00006356,0.00002450,-0.00001564,0.00035585,0.00036078,-0.00010652
 ,0.00037191,0.00001558,0.00000964,-0.00036639,0.00001016,0.00000137,0.
 00028462,-0.00001355,0.00000195,-0.00011612,-0.00002820,0.00000398,-0.
 00011424,0.00004143,-0.00000849,0.00007359,-0.00002050,-0.00000333,0.0
 0000743,0.00000353,0.00000121,0.00007788,0.00000793,0.00000312,0.00000
 723,-0.00000316,0.00000145,-0.00020416,0.00003985,-0.00000171,-0.00000
 461,-0.00000123,0.00000038,-0.00000927,0.00000646,0.00000071,-0.010212
 02,-0.02806617,0.02156214,0.02416106,-0.11895214,0.10829181,-0.0020379
 6,0.01197791,-0.01425480,-0.01934076,0.13942919,0.00058194,0.00004163,
 -0.00022479,-0.00023150,-0.00002646,-0.00001770,0.00015504,-0.00001724
 ,-0.00004543,-0.00017449,-0.00050202,-0.00004384,0.00048571,0.00108623
 ,-0.00004203,-0.00192119,0.00044085,0.00056214,-0.00005928,-0.00008307
 ,-0.00000520,0.00001933,-0.00000440,0.00000930,0.00003744,0.00000455,0
 .00000630,0.00020764,-0.00076043,-0.00016433,-0.00015975,-0.00005133,0
 .00002007,0.00011760,-0.00001082,-0.00000250,-0.00009097,0.00000998,0.
 00000384,0.00003386,0.00001089,0.00000038,0.00003621,-0.00001044,-0.00
 000179,-0.00002479,0.00000387,0.00000016,-0.00000098,-0.00000058,-0.00
 000127,-0.00002665,-0.00000124,0.00000383,-0.00000081,-0.00000126,-0.0
 0000270,0.00006321,-0.00001256,-0.00000130,0.00000063,0.00000029,-0.00
 000053,0.00000322,-0.00000181,-0.00000105,0.00586555,0.00214348,0.0075
 8942,-0.03676260,0.11074762,-0.23016286,-0.00586490,0.01424979,-0.0207
 7600,0.03791394,-0.12553958,0.24143285,-0.00114930,0.00035091,0.000000
 07,0.00004263,-0.00039103,-0.00000007,-0.00011734,0.00000862,0.0000000
 2,0.00005831,0.00012145,0.00000003,0.00011303,-0.00021166,-0.00000003,
 0.00173681,-0.00342028,0.00000111,0.00001585,-0.00002819,0.00000002,-0
 .00010505,0.00000592,0.,-0.00004185,0.00001150,0.,0.00010520,-0.000003
 57,-0.00000008,0.00020853,0.00000527,0.,-0.00022080,0.00000831,0.,0.00
 019134,-0.00000766,0.,-0.00008025,-0.00001615,0.,-0.00007798,0.0000262
 9,0.,0.00004866,-0.00001532,0.,0.00000666,0.00000367,0.,0.00005215,0.0
 0000653,-0.00000002,0.00000635,-0.00000414,0.,-0.00014189,0.00002751,0
 .00000002,-0.00000363,-0.00000088,0.,-0.00000672,0.00000481,0.,-0.0275
 0931,-0.00117957,0.00000149,-0.28202087,0.09708150,0.00001411,-0.00204
 346,0.00271067,0.00017282,-0.00204804,0.00271225,-0.00017242,0.3129081
 6,-0.00156627,0.00046248,0.,0.00018149,-0.00050695,-0.00000008,0.00007
 077,0.00016541,0.00000001,-0.00017489,0.00047606,-0.00000007,0.0001596
 2,-0.00128063,-0.00000008,-0.00213923,-0.00426246,0.00000115,0.0000500
 9,-0.00001697,0.00000004,-0.00012876,0.00001800,0.,-0.00005957,-0.0000
 0618,0.,0.00039815,0.00079950,0.00000002,0.00005519,0.00005429,0.00000
 002,-0.00002285,0.00000010,0.,0.00001507,-0.00000405,0.,-0.00000560,-0
 .00000184,0.,-0.00000601,0.00000022,0.,0.00000517,0.00000084,0.,-0.000
 00002,-0.00000034,0.,0.00000377,-0.00000044,0.,-0.00000067,0.00000137,
 0.,-0.00000750,0.00000170,0.,-0.00000013,-0.00000012,0.,-0.00000041,-0
 .00000003,0.,-0.03988084,0.00488939,0.00000267,0.11063757,-0.09097282,
 -0.00000692,0.01509881,-0.00467633,0.00172408,0.01509385,-0.00467480,-
 0.00172621,-0.09777938,0.09953532,0.00000032,0.,0.00021593,-0.00000011
 ,0.00000013,0.00001033,0.,-0.00000011,-0.00007675,0.00000012,0.,0.0002
 0153,-0.00000017,0.00000007,0.00030743,-0.00000027,0.00000053,0.000593
 28,0.,0.,0.00001888,0.00000002,0.,-0.00004315,0.00000001,0.,0.00003074
 ,-0.00000013,-0.00000005,-0.00046294,-0.00000001,0.,-0.00001277,0.0000
 0001,0.,-0.00001130,0.,0.,0.00000347,0.,0.,-0.00000627,0.,0.,-0.000000
 17,0.,0.,0.00000396,0.,0.,0.00000075,0.,0.,-0.00000181,0.,0.,0.0000005
 1,0.,0.,0.00000633,0.,0.,0.00000052,0.,0.,0.00000031,0.00000581,-0.000
 00014,0.00054483,0.00001298,-0.00000587,-0.05318789,0.02557140,-0.0101
 9658,0.00186084,-0.02557290,0.01019663,0.00186482,-0.00001705,0.000005
 39,0.04814187,0.00120739,0.00096366,-0.00000005,-0.00065053,0.00124973
 ,-0.00000001,0.00167199,0.00008776,0.00000002,-0.00093253,-0.00120937,
 0.00000002,0.00128078,-0.00117274,0.00000005,-0.00286591,0.00057182,-0
 .00000012,0.00012413,-0.00009331,0.,-0.00013890,0.00004101,0.,-0.00013
 811,-0.00003600,-0.00000002,0.00014670,0.00010332,0.,-0.00507370,0.000
 20895,0.00000008,0.00791010,-0.00043196,-0.00000037,-0.00739619,-0.000
 17132,-0.00000054,0.00945777,0.00465711,0.00000284,0.00806258,-0.00459
 660,0.00000306,-0.02983388,0.02078495,0.00000161,0.00050360,-0.0003926
 5,-0.00000008,-0.02970989,-0.01652576,0.00000097,0.00069039,0.00037777
 ,-0.00000018,-0.19544593,0.02122545,-0.00002751,0.00008718,-0.00296358
 ,-0.00000156,0.00001940,0.00363140,-0.00000171,0.00388824,0.00015883,0
 .00000006,-0.00097965,-0.00120603,0.00000011,-0.00002303,0.00023194,0.
 00006651,-0.00002306,0.00023191,-0.00006655,0.00016827,0.00000304,0.,0
 .66517328,0.00019696,0.00013319,-0.00000002,-0.00018100,0.00024257,0.0
 0000001,0.00059696,0.00000823,0.,-0.00023207,-0.00020710,0.,0.00020408
 ,-0.00016632,0.00000001,-0.00035455,0.00006850,0.,0.00001779,-0.000011
 24,0.,-0.00002017,-0.00000317,0.,-0.00000984,-0.00000111,0.,0.00001055
 ,0.00000987,0.,-0.00151025,0.00014537,0.,0.00232584,-0.00013756,-0.000
 00003,-0.00287242,-0.00457705,0.00000003,0.00747584,-0.00556335,0.0000
 0068,-0.00390039,-0.00584125,-0.00000039,0.02704889,0.01121536,0.00000
 364,0.00194684,-0.00006119,-0.00000014,-0.03481695,0.00207870,-0.00000
 241,-0.00157543,0.00019302,0.00000013,0.05132845,-0.11529917,-0.000007
 63,0.00095897,-0.00233397,0.00000002,-0.00339959,-0.00056313,0.0000002
 0,0.00043116,-0.00000431,0.,-0.00010444,-0.00011606,0.00000001,-0.0000
 0183,0.00002521,0.00000481,-0.00000183,0.00002521,-0.00000482,0.000018
 60,0.00000034,0.,0.16721544,0.83757103,-0.00000041,-0.00000027,-0.0000
 1466,0.00000033,-0.00000045,-0.00000595,-0.00000107,-0.00000001,0.0001
 2800,0.00000043,0.00000043,0.00003900,-0.00000042,0.00000033,-0.000035
 68,0.00000077,-0.00000013,0.00003761,-0.00000003,0.00000002,0.00000466
 ,0.00000003,0.,0.00000472,0.00000003,0.,0.00000430,-0.00000004,-0.0000
 0002,0.00000459,0.00000263,-0.00000008,-0.00020970,-0.00000404,0.00000
 009,-0.00096790,0.00000447,0.00000092,-0.00077072,-0.00000373,-0.00000
 178,0.00672974,-0.00000207,-0.00000050,0.00774144,0.00001001,-0.000007
 03,0.00218974,0.00000003,-0.00000004,0.00028027,0.00000335,0.00000778,
 -0.00031718,-0.00000034,0.00000005,0.00059801,0.00000102,-0.00001383,-
 0.07310841,0.00000009,0.00000064,-0.00353175,-0.00000006,-0.00000101,-
 0.00425655,-0.00000097,-0.00000004,-0.00001104,0.00000025,0.00000030,0
 .00000033,0.00000033,-0.00000089,-0.00000089,-0.00000032,0.00000077,-0
 .00000086,-0.00000004,0.,-0.00000224,-0.00022178,-0.00008338,0.1853377
 1,-0.00002501,-0.00002597,0.,-0.00000068,-0.00001019,0.,0.00003159,0.0
 0000142,-0.00000004,0.00000264,0.00002155,-0.00000001,-0.00003067,0.00
 002499,0.,0.00008140,-0.00001430,0.,-0.00000364,0.00000301,0.,0.000006
 79,-0.00000560,0.,0.00000530,0.00000162,0.,-0.00000615,-0.00000356,0.,
 -0.00002545,-0.00001296,0.00000010,0.00004835,-0.00008592,-0.00000008,
 0.00019875,-0.00016909,0.00000021,0.00011430,0.00199883,-0.00000087,0.
 00000763,-0.00060203,-0.00000030,-0.00600690,-0.00197553,0.00000066,-0
 .00055418,0.00001066,-0.00000016,0.00030975,0.00240074,-0.00000059,-0.
 00009274,-0.00001567,0.00000002,-0.00992874,0.02858548,0.00001930,0.00
 019395,0.00005892,0.00000025,-0.00057053,-0.00153685,0.00000043,-0.000
 11729,-0.00000907,0.,0.00002935,0.00003916,0.,0.00000079,-0.00000707,-
 0.00000223,0.00000079,-0.00000707,0.00000223,-0.00000525,-0.00000006,0
 .,-0.10731974,0.08343605,0.00004009,0.10581107,0.00008746,0.00007426,0
 .,-0.00003532,0.00007461,0.,0.00006938,0.00000558,0.,-0.00005573,-0.00
 008708,-0.00000002,0.00009640,-0.00008263,0.00000002,-0.00022422,0.000
 04088,-0.00000001,0.00000812,-0.00000738,0.,-0.00001188,0.00000713,0.,
 -0.00001154,-0.00000171,0.,0.00001376,0.00000861,0.,-0.00023653,-0.000
 00895,0.00000006,0.00035711,0.00011397,-0.00000005,-0.00039424,0.00023
 324,-0.00000014,-0.00012069,-0.00012249,0.00000042,0.00078736,0.000240
 65,0.00000028,0.00046385,0.00135292,-0.00000059,0.00015229,0.00000906,
 -0.00000006,-0.00081852,0.00054105,0.00000096,0.00011284,0.00002553,0.
 00000002,0.00102320,-0.00411357,-0.00000920,-0.00047165,0.00018500,0.,
 0.00047916,0.00071216,-0.00000009,0.00031008,0.00002002,0.,-0.00007950
 ,-0.00010177,0.,-0.00000188,0.00001879,0.00000624,-0.00000189,0.000018
 79,-0.00000625,0.00001343,0.00000034,0.,0.09366458,-0.21741835,-0.0001
 0266,-0.08283755,0.26591357,0.00000012,0.00000008,0.00000452,-0.000000
 07,0.00000011,-0.00001250,0.00000022,0.,-0.00001013,-0.00000011,-0.000
 00011,-0.00000051,0.00000013,-0.00000010,-0.00000289,-0.00000024,0.000
 00004,-0.00000200,0.,0.,0.00000096,-0.00000001,0.,0.00000242,-0.000000
 01,0.,0.00000290,0.00000001,0.,0.00000013,-0.00000058,-0.00000001,0.00
 006092,0.00000085,0.00000014,-0.00008345,-0.00000108,-0.00000012,0.000
 33924,0.00000035,-0.00000025,-0.00085031,0.00000070,0.00000073,-0.0004
 1156,0.,0.00000181,0.00265470,0.00000015,0.00000007,-0.00041074,-0.000
 00042,-0.00000182,-0.00133494,0.00000015,0.,0.00003579,-0.00000540,-0.
 00000313,0.01687495,-0.00000022,0.00000018,0.00022082,0.00000072,0.000
 00120,0.00016800,0.00000032,0.00000002,-0.00000038,-0.00000008,-0.0000
 0010,0.00000174,0.00000014,-0.00000024,-0.00000025,-0.00000014,0.00000
 028,-0.00000026,0.00000001,0.,0.00000012,0.00006395,-0.00013072,-0.058
 45368,-0.00006115,0.00010800,0.02225221,-0.00062538,-0.00048829,0.0000
 0003,0.00030987,-0.00063897,0.,-0.00076285,-0.00004536,0.,0.00045955,0
 .00060326,-0.00000001,-0.00066293,0.00060542,-0.00000003,0.00152035,-0
 .00030241,0.00000006,-0.00006825,0.00005017,0.,0.00007852,-0.00002653,
 0.,0.00008012,0.00002774,0.,-0.00007732,-0.00005582,0.,0.00237404,-0.0
 0006323,0.00000003,-0.00373454,0.00025135,-0.00000012,0.00318617,-0.00
 161388,0.00000024,-0.00156915,-0.00228200,-0.00000049,-0.00488902,0.00
 002393,-0.00000224,0.00424120,-0.00593576,-0.00000127,-0.00017593,0.00
 017712,0.00000027,-0.00112132,0.00982291,0.00000043,-0.00103831,-0.000
 03852,0.00000002,-0.05523636,-0.04612000,0.00003183,-0.00091970,0.0002
 6484,0.00000043,0.00055914,-0.00076586,0.00000071,-0.00205144,-0.00008
 253,-0.00000003,0.00051924,0.00063331,-0.00000006,0.00001270,-0.000122
 52,-0.00003332,0.00001271,-0.00012250,0.00003335,-0.00009023,-0.000000
 39,0.,-0.31986076,-0.29423164,0.00017147,0.01784455,-0.01233788,0.0000
 0170,0.36168533,-0.00047796,-0.00035415,0.00000003,0.00030957,-0.00053
 649,0.,-0.00089582,-0.00003970,0.,0.00042485,0.00047633,0.00000002,-0.
 00049433,0.00045363,-0.00000004,0.00103979,-0.00021307,0.00000004,-0.0
 0004836,0.00003319,0.,0.00004838,-0.00000338,0.,0.00004794,0.00001339,
 0.,-0.00004702,-0.00003549,0.,0.00247491,-0.00010722,0.,-0.00379733,0.
 00047422,0.00000003,0.00379375,0.00068980,0.00000027,-0.00460630,0.000
 17549,-0.00000117,-0.00204308,0.00232224,-0.00000095,0.00668093,-0.009
 23109,-0.00000279,-0.00050532,0.00011254,0.00000014,0.00596365,0.00588
 197,0.,-0.00023011,-0.00005929,0.00000012,-0.04470424,0.00737093,0.000
 01684,-0.00022106,0.00265881,0.00000077,0.00142351,0.00060028,0.000000
 22,-0.00137695,-0.00003636,-0.00000002,0.00034410,0.00041198,-0.000000
 04,0.00000757,-0.00008164,-0.00002134,0.00000758,-0.00008163,0.0000213
 5,-0.00005941,-0.00000139,0.,-0.28660935,-0.49941229,0.00020080,-0.029
 26393,-0.04765223,0.00002392,0.35281403,0.53617062,0.00000030,0.000000
 21,0.00001087,-0.00000019,0.00000033,-0.00000545,0.00000061,0.00000002
 ,-0.00000160,-0.00000028,-0.00000029,-0.00002294,0.00000031,-0.0000002
 6,0.00001651,-0.00000063,0.00000012,-0.00000928,0.00000003,-0.00000002
 ,-0.00000389,-0.00000003,0.,-0.00000556,-0.00000003,0.,-0.00000518,0.0
 0000003,0.00000002,-0.00000139,-0.00000161,0.00000003,0.00003903,0.000
 00252,-0.00000013,0.00025289,-0.00000270,-0.00000051,-0.00015315,0.000
 00268,0.00000081,-0.00059305,0.00000142,0.00000075,-0.00175337,-0.0000
 0478,0.00000459,-0.00055729,0.00000019,-0.00000009,0.00013648,0.000000
 46,-0.00000607,0.00347774,0.00000053,-0.00000002,-0.00036396,0.0000210
 9,0.00001613,0.01790446,-0.00000011,-0.00000071,-0.00015872,-0.0000007
 3,0.00000034,0.00075916,0.00000082,0.00000003,0.00000444,-0.00000021,-
 0.00000025,-0.00000636,-0.00000088,0.00000056,0.00000136,0.00000087,-0
 .00000046,0.00000133,0.00000004,0.,-0.00000120,0.00018122,0.00022001,-
 0.06141291,0.00000212,0.00000307,0.01895417,-0.00020304,-0.00023819,0.
 02349685\\0.00003782,0.00002437,0.00000023,-0.00000923,0.00003170,-0.0
 0000007,-0.00002258,-0.00002082,0.00000017,0.00003182,0.00000404,0.000
 00009,-0.00002524,0.00000529,-0.00000041,0.00000626,-0.00003301,0.0000
 0119,-0.00000265,-0.00000622,0.00000005,-0.00000349,-0.00000360,0.0000
 0003,0.00000226,0.00000052,0.,0.00001704,-0.00000304,-0.00000005,-0.00
 000933,-0.00000865,-0.00000022,0.00001189,0.00000558,-0.00000061,-0.00
 000176,0.00000336,-0.00000003,0.00001414,0.00000060,0.00000207,0.00001
 184,-0.00001124,0.00000312,-0.00003141,0.00000887,-0.00000326,-0.00000
 009,0.00000056,0.00000044,-0.00002561,0.00000344,-0.00000337,0.0000031
 2,0.00000173,0.00000048,0.00002322,-0.00002916,-0.00004025,0.00000265,
 0.00000196,-0.00000001,0.00000662,0.00000051,-0.00000116,0.00002267,0.
 00009521,-0.00000198,-0.00005465,-0.00011942,0.00000122,-0.00001020,0.
 00001346,0.00000012,-0.00000988,0.00001329,-0.00000040,0.00000004,0.00
 000337,0.00000005,-0.00005309,-0.00004188,0.00013961,-0.00001106,-0.00
 004941,-0.00004774,0.00007888,0.00010858,-0.00004929\\\@


 ALL THINGS ARE POSSIBLE EXCEPT SKIING THROUGH A REVOLVING DOOR.
 Job cpu time:       0 days  2 hours 45 minutes 13.7 seconds.
 Elapsed time:       0 days  0 hours  5 minutes 30.5 seconds.
 File lengths (MBytes):  RWF=    409 Int=      0 D2E=      0 Chk=     12 Scr=      1
 Normal termination of Gaussian 16 at Mon Sep 18 04:34:06 2023.
