 Entering Gaussian System, Link 0=/home/ubuntu/g16/g16
 Input=/home/ubuntu/ml products/molecule_71.gjf
 Output=/home/ubuntu/ml products/molecule_71.log
 Initial command:
 /home/ubuntu/g16/l1.exe "/home/ubuntu/Scratch/Gau-70982.inp" -scrdir="/home/ubuntu/Scratch/"
 Entering Link 1 = /home/ubuntu/g16/l1.exe PID=     70984.
  
 Copyright (c) 1988-2017, Gaussian, Inc.  All Rights Reserved.
  
 This is part of the Gaussian(R) 16 program.  It is based on
 the Gaussian(R) 09 system (copyright 2009, Gaussian, Inc.),
 the Gaussian(R) 03 system (copyright 2003, Gaussian, Inc.),
 the Gaussian(R) 98 system (copyright 1998, Gaussian, Inc.),
 the Gaussian(R) 94 system (copyright 1995, Gaussian, Inc.),
 the Gaussian 92(TM) system (copyright 1992, Gaussian, Inc.),
 the Gaussian 90(TM) system (copyright 1990, Gaussian, Inc.),
 the Gaussian 88(TM) system (copyright 1988, Gaussian, Inc.),
 the Gaussian 86(TM) system (copyright 1986, Carnegie Mellon
 University), and the Gaussian 82(TM) system (copyright 1983,
 Carnegie Mellon University). Gaussian is a federally registered
 trademark of Gaussian, Inc.
  
 This software contains proprietary and confidential information,
 including trade secrets, belonging to Gaussian, Inc.
  
 This software is provided under written license and may be
 used, copied, transmitted, or stored only in accord with that
 written license.
  
 The following legend is applicable only to US Government
 contracts under FAR:
  
                    RESTRICTED RIGHTS LEGEND
  
 Use, reproduction and disclosure by the US Government is
 subject to restrictions as set forth in subparagraphs (a)
 and (c) of the Commercial Computer Software - Restricted
 Rights clause in FAR 52.227-19.
  
 Gaussian, Inc.
 340 Quinnipiac St., Bldg. 40, Wallingford CT 06492
  
  
 ---------------------------------------------------------------
 Warning -- This program may not be used in any manner that
 competes with the business of Gaussian, Inc. or will provide
 assistance to any competitor of Gaussian, Inc.  The licensee
 of this program is prohibited from giving any competitor of
 Gaussian, Inc. access to this program.  By using this program,
 the user acknowledges that Gaussian, Inc. is engaged in the
 business of creating and licensing software in the field of
 computational chemistry and represents and warrants to the
 licensee that it is not a competitor of Gaussian, Inc. and that
 it will not use this program in any manner prohibited above.
 ---------------------------------------------------------------
  

 Cite this work as:
 Gaussian 16, Revision B.01,
 M. J. Frisch, G. W. Trucks, H. B. Schlegel, G. E. Scuseria, 
 M. A. Robb, J. R. Cheeseman, G. Scalmani, V. Barone, 
 G. A. Petersson, H. Nakatsuji, X. Li, M. Caricato, A. V. Marenich, 
 J. Bloino, B. G. Janesko, R. Gomperts, B. Mennucci, H. P. Hratchian, 
 J. V. Ortiz, A. F. Izmaylov, J. L. Sonnenberg, D. Williams-Young, 
 F. Ding, F. Lipparini, F. Egidi, J. Goings, B. Peng, A. Petrone, 
 T. Henderson, D. Ranasinghe, V. G. Zakrzewski, J. Gao, N. Rega, 
 G. Zheng, W. Liang, M. Hada, M. Ehara, K. Toyota, R. Fukuda, 
 J. Hasegawa, M. Ishida, T. Nakajima, Y. Honda, O. Kitao, H. Nakai, 
 T. Vreven, K. Throssell, J. A. Montgomery, Jr., J. E. Peralta, 
 F. Ogliaro, M. J. Bearpark, J. J. Heyd, E. N. Brothers, K. N. Kudin, 
 V. N. Staroverov, T. A. Keith, R. Kobayashi, J. Normand, 
 K. Raghavachari, A. P. Rendell, J. C. Burant, S. S. Iyengar, 
 J. Tomasi, M. Cossi, J. M. Millam, M. Klene, C. Adamo, R. Cammi, 
 J. W. Ochterski, R. L. Martin, K. Morokuma, O. Farkas, 
 J. B. Foresman, and D. J. Fox, Gaussian, Inc., Wallingford CT, 2016.
 
 ******************************************
 Gaussian 16:  EM64L-G16RevB.01 20-Dec-2017
                16-Sep-2023 
 ******************************************
 %nprocshared=30
 Will use up to   30 processors via shared memory.
 %mem=30GB
 %chk=molecule_71.chk
 ----------------------------------------------------------------------
 # opt freq b3lyp/6-31+g(d) geom=connectivity empiricaldispersion=gd3 v
 olume
 ----------------------------------------------------------------------
 1/18=20,19=15,26=3,38=1,57=2/1,3;
 2/9=110,12=2,17=6,18=5,40=1/2;
 3/5=1,6=6,7=11,11=2,25=1,30=1,71=1,74=-5,124=31/1,2,3;
 4//1;
 5/5=2,38=5/2;
 6/7=2,8=2,9=2,10=2,28=1,44=1/1,4;
 7//1,2,3,16;
 1/18=20,19=15,26=3/3(2);
 2/9=110/2;
 99//99;
 2/9=110/2;
 3/5=1,6=6,7=11,11=2,25=1,30=1,71=1,74=-5,124=31/1,2,3;
 4/5=5,16=3,69=1/1;
 5/5=2,38=5/2;
 7//1,2,3,16;
 1/18=20,19=15,26=3/3(-5);
 2/9=110/2;
 6/7=2,8=2,9=2,10=2,19=2,28=1,44=1/1,4;
 99/9=1/99;
 -------------
 ML molecule71
 -------------
 Symbolic Z-matrix:
 Charge =  0 Multiplicity = 1
 C                    -4.74942  -0.23058  -0.40002 
 C                    -4.8202    0.23854  -1.71867 
 C                    -4.55025   1.58484  -1.99888 
 C                    -4.20951   2.46203  -0.96044 
 C                    -4.13873   1.99291   0.35822 
 C                    -4.40868   0.64661   0.63842 
 H                    -5.08036  -0.43121  -2.51155 
 H                    -3.87857   2.66266   1.15109 
 H                    -4.35464   0.28843   1.64524 
 O                    -3.91049   3.9533   -1.27081 
 C                    -3.81752   4.69985  -2.77936 
 C                    -4.13168   3.88761  -3.87731 
 C                    -3.30395   5.98751  -2.98454 
 C                    -3.93225   4.36302  -5.18043 
 C                    -3.10452   6.46292  -4.28767 
 H                    -3.06408   6.60768  -2.14623 
 C                    -3.41867   5.65068  -5.38561 
 H                    -4.17211   3.74285  -6.01874 
 H                    -2.7124    7.44608  -4.44432 
 H                    -3.26641   6.01366  -6.38058 
 H                    -4.60429   1.94302  -3.0057 
 H                    -4.5238    2.90445  -3.72065 
 N                    -5.03258  -1.64279  -0.1061 
 O                    -4.12167  -2.42275  -0.12371 
 O                    -6.16321  -1.95858   0.13958 
 

 GradGradGradGradGradGradGradGradGradGradGradGradGradGradGradGradGradGrad
 Berny optimization.
 Initialization pass.
                           ----------------------------
                           !    Initial Parameters    !
                           ! (Angstroms and Degrees)  !
 --------------------------                            --------------------------
 ! Name  Definition              Value          Derivative Info.                !
 --------------------------------------------------------------------------------
 ! R1    R(1,2)                  1.4014         estimate D2E/DX2                !
 ! R2    R(1,6)                  1.4014         estimate D2E/DX2                !
 ! R3    R(1,23)                 1.47           estimate D2E/DX2                !
 ! R4    R(2,3)                  1.4014         estimate D2E/DX2                !
 ! R5    R(2,7)                  1.07           estimate D2E/DX2                !
 ! R6    R(3,4)                  1.4014         estimate D2E/DX2                !
 ! R7    R(3,21)                 1.07           estimate D2E/DX2                !
 ! R8    R(4,5)                  1.4014         estimate D2E/DX2                !
 ! R9    R(4,10)                 1.5523         estimate D2E/DX2                !
 ! R10   R(5,6)                  1.4014         estimate D2E/DX2                !
 ! R11   R(5,8)                  1.07           estimate D2E/DX2                !
 ! R12   R(6,9)                  1.07           estimate D2E/DX2                !
 ! R13   R(10,11)                1.6857         estimate D2E/DX2                !
 ! R14   R(11,12)                1.4014         estimate D2E/DX2                !
 ! R15   R(11,13)                1.4014         estimate D2E/DX2                !
 ! R16   R(12,14)                1.4014         estimate D2E/DX2                !
 ! R17   R(12,22)                1.07           estimate D2E/DX2                !
 ! R18   R(13,15)                1.4014         estimate D2E/DX2                !
 ! R19   R(13,16)                1.07           estimate D2E/DX2                !
 ! R20   R(14,17)                1.4014         estimate D2E/DX2                !
 ! R21   R(14,18)                1.07           estimate D2E/DX2                !
 ! R22   R(15,17)                1.4014         estimate D2E/DX2                !
 ! R23   R(15,19)                1.07           estimate D2E/DX2                !
 ! R24   R(17,20)                1.07           estimate D2E/DX2                !
 ! R25   R(23,24)                1.1993         estimate D2E/DX2                !
 ! R26   R(23,25)                1.1993         estimate D2E/DX2                !
 ! A1    A(2,1,6)              120.0            estimate D2E/DX2                !
 ! A2    A(2,1,23)             120.0            estimate D2E/DX2                !
 ! A3    A(6,1,23)             120.0            estimate D2E/DX2                !
 ! A4    A(1,2,3)              120.0            estimate D2E/DX2                !
 ! A5    A(1,2,7)              120.0            estimate D2E/DX2                !
 ! A6    A(3,2,7)              120.0            estimate D2E/DX2                !
 ! A7    A(2,3,4)              120.0            estimate D2E/DX2                !
 ! A8    A(2,3,21)             120.0            estimate D2E/DX2                !
 ! A9    A(4,3,21)             120.0            estimate D2E/DX2                !
 ! A10   A(3,4,5)              120.0            estimate D2E/DX2                !
 ! A11   A(3,4,10)             120.0            estimate D2E/DX2                !
 ! A12   A(5,4,10)             120.0            estimate D2E/DX2                !
 ! A13   A(4,5,6)              120.0            estimate D2E/DX2                !
 ! A14   A(4,5,8)              120.0            estimate D2E/DX2                !
 ! A15   A(6,5,8)              120.0            estimate D2E/DX2                !
 ! A16   A(1,6,5)              120.0            estimate D2E/DX2                !
 ! A17   A(1,6,9)              120.0            estimate D2E/DX2                !
 ! A18   A(5,6,9)              120.0            estimate D2E/DX2                !
 ! A19   A(4,10,11)            127.9526         estimate D2E/DX2                !
 ! A20   A(10,11,12)           115.5989         estimate D2E/DX2                !
 ! A21   A(10,11,13)           123.9281         estimate D2E/DX2                !
 ! A22   A(12,11,13)           120.0            estimate D2E/DX2                !
 ! A23   A(11,12,14)           120.0            estimate D2E/DX2                !
 ! A24   A(11,12,22)           120.0            estimate D2E/DX2                !
 ! A25   A(14,12,22)           120.0            estimate D2E/DX2                !
 ! A26   A(11,13,15)           120.0            estimate D2E/DX2                !
 ! A27   A(11,13,16)           120.0            estimate D2E/DX2                !
 ! A28   A(15,13,16)           120.0            estimate D2E/DX2                !
 ! A29   A(12,14,17)           120.0            estimate D2E/DX2                !
 ! A30   A(12,14,18)           120.0            estimate D2E/DX2                !
 ! A31   A(17,14,18)           120.0            estimate D2E/DX2                !
 ! A32   A(13,15,17)           120.0            estimate D2E/DX2                !
 ! A33   A(13,15,19)           120.0            estimate D2E/DX2                !
 ! A34   A(17,15,19)           120.0            estimate D2E/DX2                !
 ! A35   A(14,17,15)           120.0            estimate D2E/DX2                !
 ! A36   A(14,17,20)           120.0            estimate D2E/DX2                !
 ! A37   A(15,17,20)           120.0            estimate D2E/DX2                !
 ! A38   A(1,23,24)            118.3934         estimate D2E/DX2                !
 ! A39   A(1,23,25)            118.3927         estimate D2E/DX2                !
 ! A40   A(24,23,25)           123.2139         estimate D2E/DX2                !
 ! D1    D(6,1,2,3)              0.0001         estimate D2E/DX2                !
 ! D2    D(6,1,2,7)           -179.9998         estimate D2E/DX2                !
 ! D3    D(23,1,2,3)          -179.9999         estimate D2E/DX2                !
 ! D4    D(23,1,2,7)             0.0002         estimate D2E/DX2                !
 ! D5    D(2,1,6,5)             -0.0001         estimate D2E/DX2                !
 ! D6    D(2,1,6,9)            179.9998         estimate D2E/DX2                !
 ! D7    D(23,1,6,5)           179.9999         estimate D2E/DX2                !
 ! D8    D(23,1,6,9)            -0.0002         estimate D2E/DX2                !
 ! D9    D(2,1,23,24)           90.3367         estimate D2E/DX2                !
 ! D10   D(2,1,23,25)          -89.6634         estimate D2E/DX2                !
 ! D11   D(6,1,23,24)          -89.6633         estimate D2E/DX2                !
 ! D12   D(6,1,23,25)           90.3367         estimate D2E/DX2                !
 ! D13   D(1,2,3,4)              0.0001         estimate D2E/DX2                !
 ! D14   D(1,2,3,21)          -179.9999         estimate D2E/DX2                !
 ! D15   D(7,2,3,4)            179.9999         estimate D2E/DX2                !
 ! D16   D(7,2,3,21)            -0.0001         estimate D2E/DX2                !
 ! D17   D(2,3,4,5)             -0.0002         estimate D2E/DX2                !
 ! D18   D(2,3,4,10)           179.9998         estimate D2E/DX2                !
 ! D19   D(21,3,4,5)           179.9998         estimate D2E/DX2                !
 ! D20   D(21,3,4,10)           -0.0002         estimate D2E/DX2                !
 ! D21   D(3,4,5,6)              0.0001         estimate D2E/DX2                !
 ! D22   D(3,4,5,8)           -180.0            estimate D2E/DX2                !
 ! D23   D(10,4,5,6)          -179.9999         estimate D2E/DX2                !
 ! D24   D(10,4,5,8)             0.0            estimate D2E/DX2                !
 ! D25   D(3,4,10,11)           -5.2547         estimate D2E/DX2                !
 ! D26   D(5,4,10,11)          174.7453         estimate D2E/DX2                !
 ! D27   D(4,5,6,1)              0.0            estimate D2E/DX2                !
 ! D28   D(4,5,6,9)           -179.9999         estimate D2E/DX2                !
 ! D29   D(8,5,6,1)           -179.9999         estimate D2E/DX2                !
 ! D30   D(8,5,6,9)              0.0002         estimate D2E/DX2                !
 ! D31   D(4,10,11,12)           4.3564         estimate D2E/DX2                !
 ! D32   D(4,10,11,13)        -167.7268         estimate D2E/DX2                !
 ! D33   D(10,11,12,14)       -172.4167         estimate D2E/DX2                !
 ! D34   D(10,11,12,22)          7.5833         estimate D2E/DX2                !
 ! D35   D(13,11,12,14)          0.0002         estimate D2E/DX2                !
 ! D36   D(13,11,12,22)       -179.9998         estimate D2E/DX2                !
 ! D37   D(10,11,13,15)        171.7535         estimate D2E/DX2                !
 ! D38   D(10,11,13,16)         -8.2466         estimate D2E/DX2                !
 ! D39   D(12,11,13,15)          0.0            estimate D2E/DX2                !
 ! D40   D(12,11,13,16)        179.9999         estimate D2E/DX2                !
 ! D41   D(11,12,14,17)         -0.0002         estimate D2E/DX2                !
 ! D42   D(11,12,14,18)        179.9998         estimate D2E/DX2                !
 ! D43   D(22,12,14,17)        179.9998         estimate D2E/DX2                !
 ! D44   D(22,12,14,18)         -0.0002         estimate D2E/DX2                !
 ! D45   D(11,13,15,17)         -0.0001         estimate D2E/DX2                !
 ! D46   D(11,13,15,19)        179.9999         estimate D2E/DX2                !
 ! D47   D(16,13,15,17)        179.9999         estimate D2E/DX2                !
 ! D48   D(16,13,15,19)          0.0            estimate D2E/DX2                !
 ! D49   D(12,14,17,15)          0.0001         estimate D2E/DX2                !
 ! D50   D(12,14,17,20)       -179.9999         estimate D2E/DX2                !
 ! D51   D(18,14,17,15)       -179.9999         estimate D2E/DX2                !
 ! D52   D(18,14,17,20)          0.0001         estimate D2E/DX2                !
 ! D53   D(13,15,17,14)          0.0001         estimate D2E/DX2                !
 ! D54   D(13,15,17,20)       -180.0            estimate D2E/DX2                !
 ! D55   D(19,15,17,14)       -180.0            estimate D2E/DX2                !
 ! D56   D(19,15,17,20)          0.0            estimate D2E/DX2                !
 --------------------------------------------------------------------------------
 Trust Radius=3.00D-01 FncErr=1.00D-07 GrdErr=1.00D-06 EigMax=2.50D+02 EigMin=1.00D-04
 Number of steps in this run=    132 maximum allowed number of steps=    150.
 GradGradGradGradGradGradGradGradGradGradGradGradGradGradGradGradGradGrad

                          Input orientation:                          
 ---------------------------------------------------------------------
 Center     Atomic      Atomic             Coordinates (Angstroms)
 Number     Number       Type             X           Y           Z
 ---------------------------------------------------------------------
      1          6           0       -4.749416   -0.230579   -0.400021
      2          6           0       -4.820199    0.238538   -1.718672
      3          6           0       -4.550247    1.584841   -1.998879
      4          6           0       -4.209510    2.462026   -0.960435
      5          6           0       -4.138728    1.992910    0.358216
      6          6           0       -4.408682    0.646607    0.638423
      7          1           0       -5.080361   -0.431212   -2.511547
      8          1           0       -3.878568    2.662660    1.151091
      9          1           0       -4.354640    0.288426    1.645243
     10          8           0       -3.910486    3.953296   -1.270814
     11          6           0       -3.817523    4.699853   -2.779363
     12          6           0       -4.131676    3.887607   -3.877310
     13          6           0       -3.303947    5.987511   -2.984541
     14          6           0       -3.932249    4.363019   -5.180435
     15          6           0       -3.104523    6.462923   -4.287666
     16          1           0       -3.064085    6.607679   -2.146234
     17          6           0       -3.418674    5.650677   -5.385613
     18          1           0       -4.172109    3.742850   -6.018741
     19          1           0       -2.712397    7.446079   -4.444324
     20          1           0       -3.266409    6.013665   -6.380578
     21          1           0       -4.604292    1.943023   -3.005698
     22          1           0       -4.523805    2.904453   -3.720651
     23          7           0       -5.032581   -1.642786   -0.106098
     24          8           0       -4.121672   -2.422755   -0.123715
     25          8           0       -6.163210   -1.958585    0.139583
 ---------------------------------------------------------------------
                    Distance matrix (angstroms):
                    1          2          3          4          5
     1  C    0.000000
     2  C    1.401400   0.000000
     3  C    2.427296   1.401400   0.000000
     4  C    2.802800   2.427296   1.401400   0.000000
     5  C    2.427296   2.802800   2.427296   1.401400   0.000000
     6  C    1.401400   2.427296   2.802800   2.427296   1.401400
     7  H    2.146700   1.070000   2.146700   3.396345   3.872800
     8  H    3.396345   3.872800   3.396345   2.146700   1.070000
     9  H    2.146700   3.396345   3.872800   3.396345   2.146700
    10  O    4.355100   3.850660   2.559092   1.552300   2.559092
    11  C    5.553274   4.694012   3.293833   2.910330   4.156335
    12  C    5.425182   4.295286   3.001072   3.247537   4.640001
    13  C    6.887218   6.078827   4.680630   4.164864   5.275199
    14  C    6.679914   5.457435   4.268781   4.636706   6.027993
    15  C    7.913434   6.948831   5.578920   5.319647   6.529535
    16  H    7.256127   6.620627   5.240161   4.461452   5.359405
    17  C    7.824077   6.685954   5.411233   5.511362   6.847577
    18  H    6.905899   5.584874   4.578131   5.218081   6.612790
    19  H    8.912739   7.988783   6.611506   6.262556   7.405125
    20  H    8.772511   7.582857   6.360975   6.548399   7.895490
    21  H    3.396345   2.146700   1.070000   2.146700   3.396345
    22  H    4.572298   3.347069   2.169464   2.813062   4.197184
    23  N    1.470000   2.486942   3.772644   4.272800   3.772644
    24  O    2.296964   3.180300   4.445306   4.956703   4.441919
    25  O    2.296952   3.175553   4.441907   4.956691   4.445293
                    6          7          8          9         10
     6  C    0.000000
     7  H    3.396345   0.000000
     8  H    2.146700   4.942800   0.000000
     9  H    1.070000   4.280590   2.471400   0.000000
    10  O    3.850660   4.704459   2.744520   4.704459   0.000000
    11  C    5.334748   5.290965   4.427454   6.271070   1.685736
    12  C    5.565309   4.627906   5.181638   6.595635   2.616688
    13  C    6.547638   6.676779   5.337441   7.417441   2.728146
    14  C    6.920825   5.605869   6.556091   7.960565   3.931091
    15  C    7.732834   7.388345   6.679913   8.653706   4.006145
    16  H    6.715403   7.331085   5.205662   7.481563   2.920360
    17  C    7.893659   6.928985   7.201962   8.891721   4.478231
    18  H    7.345783   5.527036   7.256685   8.408509   4.759784
    19  H    8.657051   8.449532   7.453169   9.540010   4.868893
    20  H    8.909348   7.732804   8.266197   9.918488   5.547039
    21  H    3.872800   2.471400   4.280590   4.942800   2.744520
    22  H    4.910464   3.591427   4.920231   5.972021   2.734581
    23  N    2.486942   2.693767   4.631321   2.693766   5.825100
    24  O    3.175565   3.253778   5.248398   3.245611   6.481856
    25  O    3.180288   3.245600   5.253441   3.253766   6.481845
                   11         12         13         14         15
    11  C    0.000000
    12  C    1.401400   0.000000
    13  C    1.401400   2.427296   0.000000
    14  C    2.427296   1.401400   2.802800   0.000000
    15  C    2.427296   2.802800   1.401400   2.427296   0.000000
    16  H    2.146700   3.396345   1.070000   3.872800   2.146700
    17  C    2.802800   2.427296   2.427296   1.401400   1.401400
    18  H    3.396345   2.146700   3.872800   1.070000   3.396345
    19  H    3.396345   3.872800   2.146700   3.396345   1.070000
    20  H    3.872800   3.396345   3.396345   2.146700   2.146700
    21  H    2.875821   2.182769   4.248439   3.322273   4.931759
    22  H    2.146700   1.070000   3.396345   2.146700   3.872800
    23  N    6.989404   6.754177   8.336368   7.939100   9.322309
    24  O    7.607662   7.342360   8.921075   8.464811   9.865514
    25  O    7.639194   7.378382   9.004220   8.558180   9.993893
                   16         17         18         19         20
    16  H    0.000000
    17  C    3.396345   0.000000
    18  H    4.942800   2.146700   0.000000
    19  H    2.471400   2.146700   4.280590   0.000000
    20  H    4.280590   1.070000   2.471400   2.471400   0.000000
    21  H    4.986976   4.562498   3.536183   5.994376   5.454344
    22  H    4.280590   3.396345   2.471400   4.942800   4.280590
    23  N    8.723949   9.147271   8.043931  10.334937  10.055332
    24  O    9.314387   9.662406   8.530449  10.864972  10.538168
    25  O    9.392040   9.795975   8.625300  11.016716  10.698632
                   21         22         23         24         25
    21  H    0.000000
    22  H    1.200826   0.000000
    23  N    4.631321   5.831057   0.000000
    24  O    5.253453   6.440404   1.199341   0.000000
    25  O    5.248386   6.421697   1.199337   2.110132   0.000000
 Stoichiometry    C12H9NO3
 Framework group  C1[X(C12H9NO3)]
 Deg. of freedom    69
 Full point group                 C1      NOp   1
 Largest Abelian subgroup         C1      NOp   1
 Largest concise Abelian subgroup C1      NOp   1
                         Standard orientation:                         
 ---------------------------------------------------------------------
 Center     Atomic      Atomic             Coordinates (Angstroms)
 Number     Number       Type             X           Y           Z
 ---------------------------------------------------------------------
      1          6           0       -2.848362   -0.022717    0.015171
      2          6           0       -1.786001   -0.930027   -0.094840
      3          6           0       -0.466231   -0.461174   -0.142870
      4          6           0       -0.208822    0.914987   -0.080887
      5          6           0       -1.271182    1.822296    0.029122
      6          6           0       -2.590952    1.353444    0.077151
      7          1           0       -1.982539   -1.980756   -0.142166
      8          1           0       -1.074644    2.873026    0.076447
      9          1           0       -3.402088    2.046195    0.161143
     10          8           0        1.253059    1.434324   -0.134085
     11          6           0        2.675179    0.529218   -0.142045
     12          6           0        2.507665   -0.861283   -0.190700
     13          6           0        3.950721    1.074814    0.056046
     14          6           0        3.615692   -1.706189   -0.041261
     15          6           0        5.058749    0.229908    0.205481
     16          1           0        4.078622    2.136492    0.093194
     17          6           0        4.891234   -1.160593    0.156829
     18          1           0        3.487791   -2.767867   -0.078408
     19          1           0        6.032654    0.646483    0.356727
     20          1           0        5.737238   -1.805697    0.270926
     21          1           0        0.344904   -1.153925   -0.226867
     22          1           0        1.533761   -1.277858   -0.341950
     23          7           0       -4.232736   -0.514520    0.065554
     24          8           0       -4.712857   -0.757903    1.137312
     25          8           0       -4.826788   -0.652740   -0.967115
 ---------------------------------------------------------------------
 Rotational constants (GHZ):           1.7477329           0.2023075           0.1864670
 Standard basis: 6-31+G(d) (6D, 7F)
 There are   322 symmetry adapted cartesian basis functions of A   symmetry.
 There are   322 symmetry adapted basis functions of A   symmetry.
   322 basis functions,   548 primitive gaussians,   322 cartesian basis functions
    56 alpha electrons       56 beta electrons
       nuclear repulsion energy       953.1019053500 Hartrees.
 NAtoms=   25 NActive=   25 NUniq=   25 SFac= 1.00D+00 NAtFMM=   60 NAOKFM=F Big=F
 Integral buffers will be    131072 words long.
 Raffenetti 2 integral format.
 Two-electron integral symmetry is turned on.
 Nuclear repulsion after empirical dispersion term =      953.0827436092 Hartrees.
 One-electron integrals computed using PRISM.
 NBasis=   322 RedAO= T EigKep=  1.47D-06  NBF=   322
 NBsUse=   321 1.00D-06 EigRej=  3.91D-07 NBFU=   321
 ExpMin= 4.38D-02 ExpMax= 5.48D+03 ExpMxC= 8.25D+02 IAcc=3 IRadAn=         5 AccDes= 0.00D+00
 Harris functional with IExCor=  402 and IRadAn=       5 diagonalized for initial guess.
 HarFok:  IExCor=  402 AccDes= 0.00D+00 IRadAn=         5 IDoV= 1 UseB2=F ITyADJ=14
 ICtDFT=  3500011 ScaDFX=  1.000000  1.000000  1.000000  1.000000
 FoFCou: FMM=F IPFlag=           0 FMFlag=      100000 FMFlg1=           0
         NFxFlg=           0 DoJE=T BraDBF=F KetDBF=T FulRan=T
         wScrn=  0.000000 ICntrl=       500 IOpCl=  0 I1Cent=   200000004 NGrid=           0
         NMat0=    1 NMatS0=      1 NMatT0=    0 NMatD0=    1 NMtDS0=    0 NMtDT0=    0
 Petite list used in FoFCou.
 Requested convergence on RMS density matrix=1.00D-08 within 128 cycles.
 Requested convergence on MAX density matrix=1.00D-06.
 Requested convergence on             energy=1.00D-06.
 No special actions if energy rises.
 SCF Done:  E(RB3LYP) =  -742.957928835     A.U. after   16 cycles
            NFock= 16  Conv=0.42D-08     -V/T= 2.0098

 **********************************************************************

            Population analysis using the SCF Density.

 **********************************************************************

 Orbital symmetries:
       Occupied  (A) (A) (A) (A) (A) (A) (A) (A) (A) (A) (A) (A)
                 (A) (A) (A) (A) (A) (A) (A) (A) (A) (A) (A) (A)
                 (A) (A) (A) (A) (A) (A) (A) (A) (A) (A) (A) (A)
                 (A) (A) (A) (A) (A) (A) (A) (A) (A) (A) (A) (A)
                 (A) (A) (A) (A) (A) (A) (A) (A)
       Virtual   (A) (A) (A) (A) (A) (A) (A) (A) (A) (A) (A) (A)
                 (A) (A) (A) (A) (A) (A) (A) (A) (A) (A) (A) (A)
                 (A) (A) (A) (A) (A) (A) (A) (A) (A) (A) (A) (A)
                 (A) (A) (A) (A) (A) (A) (A) (A) (A) (A) (A) (A)
                 (A) (A) (A) (A) (A) (A) (A) (A) (A) (A) (A) (A)
                 (A) (A) (A) (A) (A) (A) (A) (A) (A) (A) (A) (A)
                 (A) (A) (A) (A) (A) (A) (A) (A) (A) (A) (A) (A)
                 (A) (A) (A) (A) (A) (A) (A) (A) (A) (A) (A) (A)
                 (A) (A) (A) (A) (A) (A) (A) (A) (A) (A) (A) (A)
                 (A) (A) (A) (A) (A) (A) (A) (A) (A) (A) (A) (A)
                 (A) (A) (A) (A) (A) (A) (A) (A) (A) (A) (A) (A)
                 (A) (A) (A) (A) (A) (A) (A) (A) (A) (A) (A) (A)
                 (A) (A) (A) (A) (A) (A) (A) (A) (A) (A) (A) (A)
                 (A) (A) (A) (A) (A) (A) (A) (A) (A) (A) (A) (A)
                 (A) (A) (A) (A) (A) (A) (A) (A) (A) (A) (A) (A)
                 (A) (A) (A) (A) (A) (A) (A) (A) (A) (A) (A) (A)
                 (A) (A) (A) (A) (A) (A) (A) (A) (A) (A) (A) (A)
                 (A) (A) (A) (A) (A) (A) (A) (A) (A) (A) (A) (A)
                 (A) (A) (A) (A) (A) (A) (A) (A) (A) (A) (A) (A)
                 (A) (A) (A) (A) (A) (A) (A) (A) (A) (A) (A) (A)
                 (A) (A) (A) (A) (A) (A) (A) (A) (A) (A) (A) (A)
                 (A) (A) (A) (A) (A) (A) (A) (A) (A) (A) (A) (A)
                 (A)
 The electronic state is 1-A.
 Alpha  occ. eigenvalues --  -19.20481 -19.20480 -19.20097 -14.59316 -10.29359
 Alpha  occ. eigenvalues --  -10.29292 -10.26951 -10.23908 -10.23762 -10.23126
 Alpha  occ. eigenvalues --  -10.22867 -10.22618 -10.22498 -10.22243 -10.22119
 Alpha  occ. eigenvalues --  -10.21771  -1.27457  -1.09037  -0.98683  -0.90187
 Alpha  occ. eigenvalues --   -0.88173  -0.82027  -0.79226  -0.77866  -0.77034
 Alpha  occ. eigenvalues --   -0.70910  -0.66655  -0.63848  -0.62575  -0.61350
 Alpha  occ. eigenvalues --   -0.57801  -0.56537  -0.55083  -0.53239  -0.52521
 Alpha  occ. eigenvalues --   -0.50361  -0.48929  -0.47852  -0.47238  -0.46907
 Alpha  occ. eigenvalues --   -0.44259  -0.44157  -0.41961  -0.40267  -0.39946
 Alpha  occ. eigenvalues --   -0.39386  -0.36580  -0.35593  -0.33434  -0.33424
 Alpha  occ. eigenvalues --   -0.32668  -0.31711  -0.29069  -0.28294  -0.28080
 Alpha  occ. eigenvalues --   -0.25001
 Alpha virt. eigenvalues --   -0.08245  -0.04975  -0.04759  -0.04125  -0.03544
 Alpha virt. eigenvalues --   -0.02608  -0.00336   0.00353   0.01107   0.02066
 Alpha virt. eigenvalues --    0.02833   0.04196   0.04524   0.04608   0.04726
 Alpha virt. eigenvalues --    0.05938   0.06309   0.06905   0.07300   0.07900
 Alpha virt. eigenvalues --    0.08218   0.08756   0.09127   0.10055   0.10901
 Alpha virt. eigenvalues --    0.11275   0.11368   0.11897   0.12249   0.12574
 Alpha virt. eigenvalues --    0.12793   0.13257   0.13628   0.13869   0.14367
 Alpha virt. eigenvalues --    0.14522   0.15023   0.15361   0.16175   0.16725
 Alpha virt. eigenvalues --    0.17270   0.17897   0.18033   0.18997   0.19303
 Alpha virt. eigenvalues --    0.19375   0.19718   0.20266   0.20987   0.21212
 Alpha virt. eigenvalues --    0.21763   0.22080   0.22673   0.23186   0.23483
 Alpha virt. eigenvalues --    0.24089   0.24497   0.24948   0.25337   0.25412
 Alpha virt. eigenvalues --    0.26098   0.26589   0.27195   0.27543   0.27924
 Alpha virt. eigenvalues --    0.28593   0.28875   0.29599   0.29881   0.30088
 Alpha virt. eigenvalues --    0.30508   0.31066   0.31869   0.32376   0.32718
 Alpha virt. eigenvalues --    0.33545   0.33767   0.35274   0.35789   0.37247
 Alpha virt. eigenvalues --    0.37525   0.38354   0.39345   0.40140   0.40450
 Alpha virt. eigenvalues --    0.41000   0.41346   0.43666   0.44176   0.45716
 Alpha virt. eigenvalues --    0.48411   0.49416   0.54221   0.56118   0.58429
 Alpha virt. eigenvalues --    0.59384   0.60632   0.63246   0.64562   0.65906
 Alpha virt. eigenvalues --    0.66199   0.67561   0.69196   0.69448   0.71229
 Alpha virt. eigenvalues --    0.71703   0.71925   0.72206   0.74027   0.74754
 Alpha virt. eigenvalues --    0.75181   0.75515   0.76171   0.76710   0.76870
 Alpha virt. eigenvalues --    0.78900   0.79497   0.81643   0.82649   0.86383
 Alpha virt. eigenvalues --    0.86800   0.88405   0.90637   0.91826   0.92793
 Alpha virt. eigenvalues --    0.93418   0.94001   0.95614   0.95965   0.98490
 Alpha virt. eigenvalues --    0.99799   1.00627   1.02336   1.06141   1.07040
 Alpha virt. eigenvalues --    1.08534   1.09471   1.11159   1.12547   1.13386
 Alpha virt. eigenvalues --    1.15221   1.15799   1.16741   1.17250   1.18199
 Alpha virt. eigenvalues --    1.18820   1.19344   1.20703   1.22074   1.22672
 Alpha virt. eigenvalues --    1.23679   1.24866   1.26049   1.26651   1.28058
 Alpha virt. eigenvalues --    1.28256   1.30758   1.32149   1.33296   1.34357
 Alpha virt. eigenvalues --    1.36109   1.38953   1.39518   1.41234   1.42256
 Alpha virt. eigenvalues --    1.44405   1.44719   1.44919   1.45836   1.46160
 Alpha virt. eigenvalues --    1.46742   1.46942   1.47887   1.49963   1.54245
 Alpha virt. eigenvalues --    1.61966   1.64966   1.65661   1.68188   1.71290
 Alpha virt. eigenvalues --    1.76523   1.77134   1.78749   1.79498   1.79605
 Alpha virt. eigenvalues --    1.79808   1.81010   1.83112   1.84513   1.85736
 Alpha virt. eigenvalues --    1.88826   1.89361   1.94112   1.94196   1.95657
 Alpha virt. eigenvalues --    1.96691   1.97116   1.99083   2.01357   2.02937
 Alpha virt. eigenvalues --    2.06043   2.07197   2.08548   2.10063   2.10746
 Alpha virt. eigenvalues --    2.11649   2.12320   2.13245   2.14019   2.14654
 Alpha virt. eigenvalues --    2.16606   2.19553   2.23304   2.24733   2.25065
 Alpha virt. eigenvalues --    2.27141   2.27372   2.27809   2.29623   2.35795
 Alpha virt. eigenvalues --    2.40767   2.42532   2.45870   2.48902   2.57426
 Alpha virt. eigenvalues --    2.58502   2.60403   2.60879   2.61542   2.65194
 Alpha virt. eigenvalues --    2.69229   2.70636   2.71223   2.71716   2.76142
 Alpha virt. eigenvalues --    2.76441   2.77846   2.80122   2.81988   2.88377
 Alpha virt. eigenvalues --    2.91650   2.97492   2.98707   3.02288   3.04318
 Alpha virt. eigenvalues --    3.08347   3.16974   3.37902   3.39487   4.13634
 Alpha virt. eigenvalues --    4.20856   4.24180   4.25211   4.27073   4.28818
 Alpha virt. eigenvalues --    4.34075   4.35926   4.37489   4.39339   4.40632
 Alpha virt. eigenvalues --    4.42722   4.51180   4.54650   4.68477   4.74402
          Condensed to atoms (all electrons):
               1          2          3          4          5          6
     1  C   13.409822  -3.452326  -0.241967  -2.556114  -0.785077  -0.700272
     2  C   -3.452326  22.415384  -5.552402   1.830741  -0.840177  -7.938352
     3  C   -0.241967  -5.552402  12.983085  -0.963613  -1.307654   0.672980
     4  C   -2.556114   1.830741  -0.963613  11.175452  -2.540612  -0.843224
     5  C   -0.785077  -0.840177  -1.307654  -2.540612  11.806913   0.197328
     6  C   -0.700272  -7.938352   0.672980  -0.843224   0.197328  14.311963
     7  H   -0.007995   0.312155  -0.009604   0.025061  -0.029710   0.005637
     8  H    0.022065  -0.032977   0.064191   0.015270   0.308606  -0.077421
     9  H    0.004062  -0.002164   0.001511   0.018266  -0.094161   0.369214
    10  O   -0.021567   0.027105  -0.134969   0.316049  -0.196899   0.045905
    11  C   -0.058707  -0.115496  -0.143570  -0.409662   0.778922  -0.061333
    12  C   -0.020203   0.050743  -0.019356   0.315167  -0.592880   0.227252
    13  C   -0.006246  -0.365755  -0.351165   0.239268   0.431171  -0.060118
    14  C    0.085120   0.101051   0.440693  -0.369725  -0.658280   0.065344
    15  C    0.002802   0.015543   0.062125  -0.026314  -0.050201  -0.004630
    16  H    0.000059  -0.000149   0.003836  -0.000752  -0.003486  -0.000332
    17  C   -0.002597  -0.009655  -0.015272   0.008125   0.017672  -0.000102
    18  H    0.000212   0.003998  -0.002827  -0.003379  -0.000715   0.000033
    19  H   -0.000001   0.000048   0.000057   0.000252  -0.000072   0.000004
    20  H   -0.000003  -0.000104  -0.000307   0.000388   0.000032  -0.000001
    21  H   -0.010600   0.045543   0.077973   0.041164   0.042504   0.018908
    22  H   -0.001279  -0.003736  -0.043283   0.037976   0.012057   0.003986
    23  N   -0.324593   0.248362  -0.149142  -0.077538   0.145068  -0.257305
    24  O    0.283701  -0.169503   0.046007   0.003148  -0.028784  -0.107732
    25  O    0.272252  -0.171021   0.026546   0.001497  -0.020667  -0.084188
               7          8          9         10         11         12
     1  C   -0.007995   0.022065   0.004062  -0.021567  -0.058707  -0.020203
     2  C    0.312155  -0.032977  -0.002164   0.027105  -0.115496   0.050743
     3  C   -0.009604   0.064191   0.001511  -0.134969  -0.143570  -0.019356
     4  C    0.025061   0.015270   0.018266   0.316049  -0.409662   0.315167
     5  C   -0.029710   0.308606  -0.094161  -0.196899   0.778922  -0.592880
     6  C    0.005637  -0.077421   0.369214   0.045905  -0.061333   0.227252
     7  H    0.513143   0.000014  -0.000157  -0.000238  -0.002671  -0.001623
     8  H    0.000014   0.498107  -0.004961  -0.004114  -0.002731   0.001204
     9  H   -0.000157  -0.004961   0.501928  -0.000100   0.000555   0.000354
    10  O   -0.000238  -0.004114  -0.000100   8.375300   0.288358  -0.031722
    11  C   -0.002671  -0.002731   0.000555   0.288358   9.691567  -0.443820
    12  C   -0.001623   0.001204   0.000354  -0.031722  -0.443820  11.270912
    13  C   -0.000469   0.000104  -0.000069  -0.229582  -2.943000  -0.033325
    14  C    0.003125  -0.000118   0.000054   0.017815  -0.074312  -4.351332
    15  C    0.000010  -0.000147   0.000003   0.016402   0.207623  -0.889657
    16  H    0.000000   0.000000   0.000000  -0.001851  -0.008325   0.052501
    17  C    0.000161   0.000029  -0.000001  -0.015524  -0.705184  -0.000909
    18  H    0.000000   0.000000   0.000000  -0.000185   0.030560  -0.048178
    19  H    0.000000   0.000000   0.000000  -0.000131   0.031785  -0.015517
    20  H    0.000000   0.000000   0.000000   0.000048  -0.007991   0.042426
    21  H   -0.008366  -0.000192   0.000014  -0.011174   0.050647  -0.004674
    22  H    0.000303   0.000004   0.000000  -0.011351   0.019493   0.096170
    23  N   -0.001035   0.000612  -0.001746   0.000250   0.003550  -0.003519
    24  O    0.000075  -0.000063   0.000475  -0.000009   0.000771  -0.000174
    25  O    0.000308  -0.000061   0.000358  -0.000019   0.000061   0.000305
              13         14         15         16         17         18
     1  C   -0.006246   0.085120   0.002802   0.000059  -0.002597   0.000212
     2  C   -0.365755   0.101051   0.015543  -0.000149  -0.009655   0.003998
     3  C   -0.351165   0.440693   0.062125   0.003836  -0.015272  -0.002827
     4  C    0.239268  -0.369725  -0.026314  -0.000752   0.008125  -0.003379
     5  C    0.431171  -0.658280  -0.050201  -0.003486   0.017672  -0.000715
     6  C   -0.060118   0.065344  -0.004630  -0.000332  -0.000102   0.000033
     7  H   -0.000469   0.003125   0.000010   0.000000   0.000161   0.000000
     8  H    0.000104  -0.000118  -0.000147   0.000000   0.000029   0.000000
     9  H   -0.000069   0.000054   0.000003   0.000000  -0.000001   0.000000
    10  O   -0.229582   0.017815   0.016402  -0.001851  -0.015524  -0.000185
    11  C   -2.943000  -0.074312   0.207623  -0.008325  -0.705184   0.030560
    12  C   -0.033325  -4.351332  -0.889657   0.052501  -0.000909  -0.048178
    13  C   10.658106  -1.497370  -0.038433   0.302992   0.463123  -0.041460
    14  C   -1.497370  11.206483   0.712970  -0.024064   0.221369   0.372912
    15  C   -0.038433   0.712970   5.421810  -0.047485   0.397256   0.015141
    16  H    0.302992  -0.024064  -0.047485   0.507918   0.016543   0.000015
    17  C    0.463123   0.221369   0.397256   0.016543   5.377261  -0.031827
    18  H   -0.041460   0.372912   0.015141   0.000015  -0.031827   0.529171
    19  H   -0.036867   0.017244   0.320009  -0.005410  -0.017970  -0.000174
    20  H    0.013706  -0.017095  -0.033991  -0.000145   0.297337  -0.004544
    21  H    0.006393  -0.035244   0.001790   0.000004  -0.004690   0.000300
    22  H    0.027976   0.050824   0.010435  -0.000201   0.009146  -0.009010
    23  N    0.000359  -0.001017  -0.000023   0.000000   0.000007   0.000000
    24  O    0.000077  -0.000269  -0.000004   0.000000   0.000006   0.000000
    25  O    0.000009   0.000139   0.000004   0.000000  -0.000004   0.000000
              19         20         21         22         23         24
     1  C   -0.000001  -0.000003  -0.010600  -0.001279  -0.324593   0.283701
     2  C    0.000048  -0.000104   0.045543  -0.003736   0.248362  -0.169503
     3  C    0.000057  -0.000307   0.077973  -0.043283  -0.149142   0.046007
     4  C    0.000252   0.000388   0.041164   0.037976  -0.077538   0.003148
     5  C   -0.000072   0.000032   0.042504   0.012057   0.145068  -0.028784
     6  C    0.000004  -0.000001   0.018908   0.003986  -0.257305  -0.107732
     7  H    0.000000   0.000000  -0.008366   0.000303  -0.001035   0.000075
     8  H    0.000000   0.000000  -0.000192   0.000004   0.000612  -0.000063
     9  H    0.000000   0.000000   0.000014   0.000000  -0.001746   0.000475
    10  O   -0.000131   0.000048  -0.011174  -0.011351   0.000250  -0.000009
    11  C    0.031785  -0.007991   0.050647   0.019493   0.003550   0.000771
    12  C   -0.015517   0.042426  -0.004674   0.096170  -0.003519  -0.000174
    13  C   -0.036867   0.013706   0.006393   0.027976   0.000359   0.000077
    14  C    0.017244  -0.017095  -0.035244   0.050824  -0.001017  -0.000269
    15  C    0.320009  -0.033991   0.001790   0.010435  -0.000023  -0.000004
    16  H   -0.005410  -0.000145   0.000004  -0.000201   0.000000   0.000000
    17  C   -0.017970   0.297337  -0.004690   0.009146   0.000007   0.000006
    18  H   -0.000174  -0.004544   0.000300  -0.009010   0.000000   0.000000
    19  H    0.517738  -0.004617   0.000000   0.000013   0.000000   0.000000
    20  H   -0.004617   0.529713   0.000001  -0.000187   0.000000   0.000000
    21  H    0.000000   0.000001   0.644842  -0.001912   0.001296  -0.000060
    22  H    0.000013  -0.000187  -0.001912   0.652205   0.000070  -0.000004
    23  N    0.000000   0.000000   0.001296   0.000070   7.144867   0.253641
    24  O    0.000000   0.000000  -0.000060  -0.000004   0.253641   7.859964
    25  O    0.000000   0.000000  -0.000077  -0.000002   0.265179  -0.120895
              25
     1  C    0.272252
     2  C   -0.171021
     3  C    0.026546
     4  C    0.001497
     5  C   -0.020667
     6  C   -0.084188
     7  H    0.000308
     8  H   -0.000061
     9  H    0.000358
    10  O   -0.000019
    11  C    0.000061
    12  C    0.000305
    13  C    0.000009
    14  C    0.000139
    15  C    0.000004
    16  H    0.000000
    17  C   -0.000004
    18  H    0.000000
    19  H    0.000000
    20  H    0.000000
    21  H   -0.000077
    22  H   -0.000002
    23  N    0.265179
    24  O   -0.120895
    25  O    7.856019
 Mulliken charges:
               1
     1  C    0.109451
     2  C   -0.396856
     3  C    0.556126
     4  C   -0.236891
     5  C   -0.590900
     6  C    0.216457
     7  H    0.201876
     8  H    0.212577
     9  H    0.206563
    10  O   -0.427796
    11  C   -0.127090
    12  C    0.399859
    13  C   -0.539425
    14  C   -0.266317
    15  C   -0.093035
    16  H    0.208333
    17  C   -0.004300
    18  H    0.189958
    19  H    0.193609
    20  H    0.185335
    21  H    0.145612
    22  H    0.150307
    23  N   -0.247345
    24  O   -0.020366
    25  O   -0.025743
 Sum of Mulliken charges =   0.00000
 Mulliken charges with hydrogens summed into heavy atoms:
               1
     1  C    0.109451
     2  C   -0.194980
     3  C    0.701738
     4  C   -0.236891
     5  C   -0.378322
     6  C    0.423021
    10  O   -0.427796
    11  C   -0.127090
    12  C    0.550166
    13  C   -0.331092
    14  C   -0.076360
    15  C    0.100573
    17  C    0.181034
    23  N   -0.247345
    24  O   -0.020366
    25  O   -0.025743
 Electronic spatial extent (au):  <R**2>=           5392.0313
 Charge=              0.0000 electrons
 Dipole moment (field-independent basis, Debye):
    X=              5.2920    Y=             -0.2464    Z=              0.0906  Tot=              5.2985
 Quadrupole moment (field-independent basis, Debye-Ang):
   XX=            -99.7764   YY=            -82.5236   ZZ=           -101.4749
   XY=            -10.2855   XZ=              1.5997   YZ=              1.5083
 Traceless Quadrupole moment (field-independent basis, Debye-Ang):
   XX=             -5.1847   YY=             12.0680   ZZ=             -6.8833
   XY=            -10.2855   XZ=              1.5997   YZ=              1.5083
 Octapole moment (field-independent basis, Debye-Ang**2):
  XXX=            204.5372  YYY=             -4.3675  ZZZ=             -0.1848  XYY=             -9.7357
  XXY=             39.1563  XXZ=             10.5002  XZZ=             -6.3830  YZZ=              1.5619
  YYZ=              0.8836  XYZ=             -1.9700
 Hexadecapole moment (field-independent basis, Debye-Ang**3):
 XXXX=          -6409.4617 YYYY=           -699.3381 ZZZZ=           -199.1697 XXXY=           -167.4314
 XXXZ=             63.6165 YYYX=             -5.8133 YYYZ=              5.2473 ZZZX=             -1.2314
 ZZZY=             -0.6421 XXYY=          -1059.9504 XXZZ=          -1216.4036 YYZZ=           -175.4745
 XXYZ=             10.3745 YYXZ=              2.4801 ZZXY=              7.9646
 N-N= 9.530827436092D+02 E-N=-3.634286780179D+03  KE= 7.357749328274D+02
 Evaluate density.
 Using the total density.
 Monte-Carlo method of calculating molar volume:
 based on  0.001 e/bohr**3 density envelope.
 Number of points per bohr**3 =   20 CutOff= 1.00D-04
 Using the SCF density.
 There are       405 points.  Will hold       405 in memory.
 LenV=  4026295804 MDV=  4026531840.
 Box volume = 8312.439 fraction occupied=0.198
 Integrated density= 1.3419616927668886D+02 error= 2.2196169276688863D+01
 Molar volume = 1641.963 bohr**3/mol (146.527 cm**3/mol)
 Recommended a0 for SCRF calculation =  4.76 angstrom (  9.00 bohr)
 Calling FoFJK, ICntrl=      2127 FMM=F ISym2X=0 I1Cent= 0 IOpClX= 0 NMat=1 NMatS=1 NMatT=0.
 ***** Axes restored to original set *****
 -------------------------------------------------------------------
 Center     Atomic                   Forces (Hartrees/Bohr)
 Number     Number              X              Y              Z
 -------------------------------------------------------------------
      1        6           0.004516670    0.022998456   -0.006018752
      2        6           0.002596164    0.003485360    0.013642480
      3        6          -0.001156023   -0.013919235    0.019152052
      4        6           0.008180446    0.052853657   -0.041649123
      5        6          -0.000416188    0.004759266   -0.010090480
      6        6          -0.002137703    0.000528866   -0.015384041
      7        1          -0.002880365   -0.007136625   -0.008845820
      8        1           0.002814457    0.007330447    0.007783848
      9        1           0.000864462   -0.002847027    0.010993893
     10        8          -0.003734470   -0.010203428   -0.022249962
     11        6          -0.002770260   -0.057833479    0.026289661
     12        6           0.002604251    0.016375223   -0.003701171
     13        6          -0.004133617   -0.011636308    0.018953994
     14        6           0.003414209    0.014665099    0.013230045
     15        6          -0.010647413   -0.020543310   -0.001006283
     16        1           0.003699991    0.005873759    0.009898329
     17        6          -0.001488368   -0.004912066    0.011509745
     18        1          -0.003127813   -0.007752115   -0.008446171
     19        1           0.004040149    0.010764455    0.000774357
     20        1           0.002135535    0.004006874   -0.010998701
     21        1          -0.002412609   -0.022084666    0.012482694
     22        1           0.000673908    0.018424789   -0.017082512
     23        7           0.004613873    0.022915229   -0.004576082
     24        8           0.047250448   -0.024380569   -0.003716009
     25        8          -0.052499733   -0.001732653    0.009054007
 -------------------------------------------------------------------
 Cartesian Forces:  Max     0.057833479 RMS     0.016871815

 GradGradGradGradGradGradGradGradGradGradGradGradGradGradGradGradGradGrad
 Berny optimization.
 FormGI is forming the generalized inverse of G from B-inverse, IUseBI=4.
 Internal  Forces:  Max     0.166534293 RMS     0.025926570
 Search for a local minimum.
 Step number   1 out of a maximum of  132
 All quantities printed in internal units (Hartrees-Bohrs-Radians)
 Mixed Optimization -- RFO/linear search
 Second derivative matrix not updated -- first step.
 ITU=  0
     Eigenvalues ---    0.00230   0.00230   0.00766   0.00766   0.01655
     Eigenvalues ---    0.01752   0.01786   0.02070   0.02070   0.02070
     Eigenvalues ---    0.02070   0.02070   0.02070   0.02070   0.02070
     Eigenvalues ---    0.02070   0.02070   0.02070   0.02070   0.02070
     Eigenvalues ---    0.02070   0.02070   0.16000   0.16000   0.16000
     Eigenvalues ---    0.16000   0.16000   0.16000   0.16000   0.16000
     Eigenvalues ---    0.16000   0.18708   0.22000   0.22000   0.22000
     Eigenvalues ---    0.22981   0.23439   0.24000   0.24759   0.25000
     Eigenvalues ---    0.25000   0.25000   0.25000   0.25000   0.27457
     Eigenvalues ---    0.35740   0.37230   0.37230   0.37230   0.37230
     Eigenvalues ---    0.37230   0.37230   0.37230   0.37230   0.37230
     Eigenvalues ---    0.41268   0.41268   0.41450   0.41640   0.45389
     Eigenvalues ---    0.45389   0.45389   0.45389   0.45389   0.45389
     Eigenvalues ---    0.45389   0.45389   1.05155   1.05157
 RFO step:  Lambda=-1.82456128D-01 EMin= 2.30000000D-03
 Linear search not attempted -- first point.
 Maximum step size (   0.300) exceeded in Quadratic search.
    -- Step size scaled by   0.467
 Iteration  1 RMS(Cart)=  0.24968930 RMS(Int)=  0.01355756
 Iteration  2 RMS(Cart)=  0.13495739 RMS(Int)=  0.00289089
 Iteration  3 RMS(Cart)=  0.00687229 RMS(Int)=  0.00014491
 Iteration  4 RMS(Cart)=  0.00000414 RMS(Int)=  0.00014491
 Iteration  5 RMS(Cart)=  0.00000000 RMS(Int)=  0.00014491
 Variable       Old X    -DE/DX   Delta X   Delta X   Delta X     New X
                                 (Linear)    (Quad)   (Total)
    R1        2.64826  -0.01555   0.00000  -0.01160  -0.01161   2.63666
    R2        2.64826  -0.01526   0.00000  -0.01154  -0.01154   2.63672
    R3        2.77790   0.00335   0.00000   0.00290   0.00290   2.78079
    R4        2.64826  -0.00521   0.00000  -0.00367  -0.00367   2.64459
    R5        2.02201   0.01172   0.00000   0.00987   0.00987   2.03188
    R6        2.64826   0.00458   0.00000   0.00370   0.00371   2.65197
    R7        2.02201  -0.01902   0.00000  -0.01601  -0.01601   2.00600
    R8        2.64826  -0.00534   0.00000  -0.00374  -0.00373   2.64453
    R9        2.93342  -0.04632   0.00000  -0.04733  -0.04733   2.88609
   R10        2.64826  -0.00950   0.00000  -0.00712  -0.00712   2.64114
   R11        2.02201   0.01104   0.00000   0.00929   0.00929   2.03130
   R12        2.02201   0.01134   0.00000   0.00955   0.00955   2.03155
   R13        3.18558  -0.05001   0.00000  -0.06320  -0.06320   3.12238
   R14        2.64826  -0.00306   0.00000  -0.00223  -0.00223   2.64603
   R15        2.64826  -0.01248   0.00000  -0.00927  -0.00927   2.63899
   R16        2.64826  -0.00192   0.00000  -0.00128  -0.00128   2.64698
   R17        2.02201  -0.01968   0.00000  -0.01657  -0.01657   2.00544
   R18        2.64826  -0.00488   0.00000  -0.00371  -0.00371   2.64456
   R19        2.02201   0.01199   0.00000   0.01009   0.01009   2.03210
   R20        2.64826  -0.00924   0.00000  -0.00667  -0.00667   2.64159
   R21        2.02201   0.01181   0.00000   0.00994   0.00994   2.03195
   R22        2.64826  -0.00940   0.00000  -0.00692  -0.00692   2.64134
   R23        2.02201   0.01126   0.00000   0.00948   0.00948   2.03148
   R24        2.02201   0.01189   0.00000   0.01001   0.01001   2.03202
   R25        2.26643   0.05180   0.00000   0.01960   0.01960   2.28603
   R26        2.26642   0.05180   0.00000   0.01960   0.01960   2.28602
    A1        2.09440   0.00371   0.00000   0.00309   0.00308   2.09747
    A2        2.09440  -0.00178   0.00000  -0.00146  -0.00145   2.09294
    A3        2.09440  -0.00193   0.00000  -0.00163  -0.00162   2.09277
    A4        2.09440  -0.00016   0.00000  -0.00038  -0.00039   2.09401
    A5        2.09440   0.00033   0.00000   0.00054   0.00054   2.09494
    A6        2.09440  -0.00018   0.00000  -0.00016  -0.00015   2.09424
    A7        2.09440   0.00332   0.00000   0.00451   0.00451   2.09891
    A8        2.09440  -0.01879   0.00000  -0.02561  -0.02561   2.06879
    A9        2.09440   0.01546   0.00000   0.02110   0.02110   2.11549
   A10        2.09440  -0.01401   0.00000  -0.01448  -0.01446   2.07993
   A11        2.09440   0.10240   0.00000   0.11026   0.11025   2.20465
   A12        2.09440  -0.08839   0.00000  -0.09578  -0.09579   1.99861
   A13        2.09440   0.00972   0.00000   0.01119   0.01120   2.10560
   A14        2.09440  -0.00545   0.00000  -0.00640  -0.00641   2.08798
   A15        2.09440  -0.00427   0.00000  -0.00479  -0.00479   2.08960
   A16        2.09440  -0.00259   0.00000  -0.00394  -0.00394   2.09046
   A17        2.09440   0.00235   0.00000   0.00341   0.00341   2.09780
   A18        2.09440   0.00024   0.00000   0.00053   0.00053   2.09492
   A19        2.23319   0.16653   0.00000   0.17984   0.17984   2.41304
   A20        2.01758   0.10491   0.00000   0.11432   0.11440   2.13198
   A21        2.16295  -0.09803   0.00000  -0.10606  -0.10618   2.05678
   A22        2.09440  -0.00627   0.00000  -0.00665  -0.00665   2.08775
   A23        2.09440   0.00049   0.00000   0.00067   0.00065   2.09505
   A24        2.09440   0.01422   0.00000   0.01940   0.01939   2.11379
   A25        2.09440  -0.01471   0.00000  -0.02006  -0.02007   2.07433
   A26        2.09440   0.00472   0.00000   0.00493   0.00493   2.09933
   A27        2.09440  -0.00317   0.00000  -0.00357  -0.00357   2.09083
   A28        2.09440  -0.00155   0.00000  -0.00137  -0.00137   2.09303
   A29        2.09440   0.00413   0.00000   0.00502   0.00502   2.09942
   A30        2.09440  -0.00338   0.00000  -0.00431  -0.00430   2.09009
   A31        2.09440  -0.00075   0.00000  -0.00072  -0.00072   2.09368
   A32        2.09440   0.00328   0.00000   0.00341   0.00341   2.09781
   A33        2.09440  -0.00412   0.00000  -0.00508  -0.00508   2.08931
   A34        2.09440   0.00084   0.00000   0.00168   0.00167   2.09607
   A35        2.09440  -0.00635   0.00000  -0.00738  -0.00738   2.08701
   A36        2.09440   0.00333   0.00000   0.00390   0.00390   2.09829
   A37        2.09440   0.00303   0.00000   0.00349   0.00348   2.09788
   A38        2.06635  -0.00950   0.00000  -0.01026  -0.01026   2.05610
   A39        2.06634  -0.00948   0.00000  -0.01023  -0.01023   2.05611
   A40        2.15049   0.01898   0.00000   0.02049   0.02049   2.17098
    D1        0.00000  -0.00006   0.00000  -0.00013  -0.00013  -0.00013
    D2       -3.14159  -0.00010   0.00000  -0.00023  -0.00023   3.14137
    D3       -3.14159  -0.00001   0.00000  -0.00003  -0.00003   3.14157
    D4        0.00000  -0.00006   0.00000  -0.00013  -0.00013  -0.00012
    D5        0.00000   0.00000   0.00000   0.00001   0.00001   0.00001
    D6        3.14159   0.00005   0.00000   0.00012   0.00012  -3.14147
    D7        3.14159  -0.00004   0.00000  -0.00009  -0.00009   3.14150
    D8        0.00000   0.00001   0.00000   0.00002   0.00002   0.00002
    D9        1.57667  -0.00002   0.00000  -0.00005  -0.00005   1.57662
   D10       -1.56492   0.00008   0.00000   0.00019   0.00019  -1.56473
   D11       -1.56492   0.00002   0.00000   0.00005   0.00005  -1.56487
   D12        1.57667   0.00012   0.00000   0.00029   0.00029   1.57696
   D13        0.00000   0.00001   0.00000   0.00002   0.00002   0.00002
   D14       -3.14159  -0.00035   0.00000  -0.00079  -0.00078   3.14081
   D15        3.14159   0.00005   0.00000   0.00012   0.00012  -3.14148
   D16        0.00000  -0.00030   0.00000  -0.00069  -0.00068  -0.00068
   D17        0.00000   0.00009   0.00000   0.00021   0.00021   0.00021
   D18        3.14159   0.00016   0.00000   0.00038   0.00038  -3.14121
   D19        3.14159   0.00045   0.00000   0.00102   0.00103  -3.14056
   D20        0.00000   0.00052   0.00000   0.00119   0.00120   0.00120
   D21        0.00000  -0.00014   0.00000  -0.00033  -0.00033  -0.00033
   D22       -3.14159  -0.00006   0.00000  -0.00013  -0.00013   3.14146
   D23       -3.14159  -0.00021   0.00000  -0.00049  -0.00048   3.14111
   D24        0.00000  -0.00013   0.00000  -0.00029  -0.00028  -0.00028
   D25       -0.09171   0.00128   0.00000   0.00323   0.00323  -0.08848
   D26        3.04988   0.00135   0.00000   0.00339   0.00339   3.05327
   D27        0.00000   0.00009   0.00000   0.00022   0.00022   0.00022
   D28       -3.14159   0.00005   0.00000   0.00011   0.00011  -3.14148
   D29       -3.14159   0.00001   0.00000   0.00002   0.00002  -3.14157
   D30        0.00000  -0.00004   0.00000  -0.00009  -0.00009  -0.00009
   D31        0.07603   0.01148   0.00000   0.02854   0.02822   0.10425
   D32       -2.92738   0.00546   0.00000   0.01426   0.01459  -2.91280
   D33       -3.00924   0.00357   0.00000  -0.00113  -0.00199  -3.01123
   D34        0.13235   0.00561   0.00000   0.00513   0.00448   0.13684
   D35        0.00000   0.00104   0.00000   0.00355   0.00367   0.00367
   D36       -3.14159   0.00308   0.00000   0.00981   0.01014  -3.13145
   D37        2.99766   0.01146   0.00000   0.01781   0.01712   3.01478
   D38       -0.14393   0.01045   0.00000   0.01716   0.01660  -0.12733
   D39        0.00000  -0.00262   0.00000  -0.00556  -0.00553  -0.00553
   D40        3.14159  -0.00363   0.00000  -0.00622  -0.00604   3.13555
   D41        0.00000   0.00122   0.00000   0.00104   0.00087   0.00087
   D42        3.14159   0.00049   0.00000   0.00103   0.00100  -3.14059
   D43        3.14159  -0.00081   0.00000  -0.00522  -0.00545   3.13614
   D44        0.00000  -0.00155   0.00000  -0.00523  -0.00532  -0.00532
   D45        0.00000   0.00194   0.00000   0.00298   0.00286   0.00286
   D46        3.14159   0.00051   0.00000   0.00126   0.00128  -3.14032
   D47        3.14159   0.00295   0.00000   0.00363   0.00337  -3.13822
   D48        0.00000   0.00152   0.00000   0.00191   0.00179   0.00179
   D49        0.00000  -0.00190   0.00000  -0.00363  -0.00355  -0.00355
   D50       -3.14159  -0.00080   0.00000  -0.00100  -0.00092   3.14067
   D51       -3.14159  -0.00117   0.00000  -0.00362  -0.00369   3.13791
   D52        0.00000  -0.00007   0.00000  -0.00100  -0.00105  -0.00105
   D53        0.00000   0.00032   0.00000   0.00162   0.00170   0.00170
   D54       -3.14159  -0.00078   0.00000  -0.00101  -0.00093   3.14066
   D55       -3.14159   0.00175   0.00000   0.00334   0.00329  -3.13831
   D56        0.00000   0.00065   0.00000   0.00071   0.00066   0.00065
         Item               Value     Threshold  Converged?
 Maximum Force            0.166534     0.000450     NO 
 RMS     Force            0.025927     0.000300     NO 
 Maximum Displacement     1.225013     0.001800     NO 
 RMS     Displacement     0.377720     0.001200     NO 
 Predicted change in Energy=-7.369448D-02
 GradGradGradGradGradGradGradGradGradGradGradGradGradGradGradGradGradGrad

                          Input orientation:                          
 ---------------------------------------------------------------------
 Center     Atomic      Atomic             Coordinates (Angstroms)
 Number     Number       Type             X           Y           Z
 ---------------------------------------------------------------------
      1          6           0       -4.755690   -0.323483   -0.197378
      2          6           0       -4.889270   -0.084838   -1.565571
      3          6           0       -4.650005    1.194938   -2.078799
      4          6           0       -4.275559    2.241685   -1.222333
      5          6           0       -4.144979    1.988423    0.147777
      6          6           0       -4.383705    0.710925    0.661963
      7          1           0       -5.175842   -0.883720   -2.225697
      8          1           0       -3.858427    2.784736    0.810516
      9          1           0       -4.280585    0.527363    1.716197
     10          8           0       -3.982635    3.683839   -1.630853
     11          6           0       -3.860960    4.571437   -3.019173
     12          6           0       -4.168816    4.035558   -4.275627
     13          6           0       -3.292425    5.843982   -2.932053
     14          6           0       -3.902605    4.772638   -5.436604
     15          6           0       -3.024951    6.578378   -4.092892
     16          1           0       -3.060013    6.260561   -1.968308
     17          6           0       -3.328453    6.044094   -5.348321
     18          1           0       -4.141711    4.357088   -6.399067
     19          1           0       -2.586051    7.556633   -4.015150
     20          1           0       -3.123751    6.608680   -6.240287
     21          1           0       -4.757662    1.350655   -3.123311
     22          1           0       -4.609708    3.074760   -4.368900
     23          7           0       -5.007637   -1.669680    0.340843
     24          8           0       -4.072721   -2.434360    0.408704
     25          8           0       -6.135830   -1.937568    0.685544
 ---------------------------------------------------------------------
                    Distance matrix (angstroms):
                    1          2          3          4          5
     1  C    0.000000
     2  C    1.395259   0.000000
     3  C    2.420024   1.399456   0.000000
     4  C    2.803773   2.430466   1.403361   0.000000
     5  C    2.415990   2.790689   2.417087   1.399427   0.000000
     6  C    1.395292   2.418831   2.795882   2.430122   1.397633
     7  H    2.145803   1.075222   2.149163   3.403734   3.865911
     8  H    3.388504   3.865603   3.391489   2.145083   1.074918
     9  H    2.147425   3.393418   3.870932   3.402041   2.147795
    10  O    4.325632   3.876748   2.615466   1.527253   2.462583
    11  C    5.720429   4.985106   3.592721   2.971241   4.096609
    12  C    5.998147   4.984086   3.623081   3.542877   4.874200
    13  C    6.903420   6.290318   4.917792   4.106853   5.007748
    14  C    7.358511   6.289156   4.963205   4.930000   6.244671
    15  C    8.112100   7.366240   5.973173   5.348929   6.348655
    16  H    7.025748   6.616076   5.310444   4.264433   4.889389
    17  C    8.313558   7.369475   5.995881   5.690264   6.879119
    18  H    7.793950   6.606984   5.377943   5.593873   6.962166
    19  H    9.021027   8.348492   6.962795   6.237221   7.124968
    20  H    9.339960   8.353036   6.996859   6.751087   7.949657
    21  H    3.371026   2.122383   1.061528   2.154083   3.388532
    22  H    5.382468   4.233186   2.963093   3.272087   4.668670
    23  N    1.471532   2.481965   3.766777   4.275305   3.763399
    24  O    2.299910   3.175653   4.437649   4.956493   4.431063
    25  O    2.299915   3.170810   4.434170   4.956486   4.434646
                    6          7          8          9         10
     6  C    0.000000
     7  H    3.392485   0.000000
     8  H    2.144453   4.940825   0.000000
     9  H    1.075052   4.281492   2.468645   0.000000
    10  O    3.775722   4.758169   2.604630   4.610299   0.000000
    11  C    5.359811   5.667209   4.225971   6.241341   1.652291
    12  C    5.956438   5.423615   5.246880   6.944197   2.674546
    13  C    6.360512   7.021978   4.866844   7.130857   2.614523
    14  C    7.343125   6.627627   6.555930   8.326331   3.959246
    15  C    7.673452   7.987218   6.255383   8.481563   3.918820
    16  H    6.282431   7.455449   4.521137   6.923505   2.757644
    17  C    8.104305   7.820373   6.988245   9.013783   4.451778
    18  H    7.950548   6.778828   7.384486   8.974607   4.818135
    19  H    8.483552   9.008258   6.904852   9.226614   4.757504
    20  H    9.165809   8.744373   8.054572  10.080988   5.526234
    21  H    3.857122   2.443975   4.282547   4.932164   2.876081
    22  H    5.563126   4.536892   5.241650   6.604995   2.874213
    23  N    2.481872   2.689453   4.624187   2.692063   5.796411
    24  O    3.170752   3.249836   5.238926   3.244156   6.449827
    25  O    3.175691   3.241527   5.244267   3.252701   6.449973
                   11         12         13         14         15
    11  C    0.000000
    12  C    1.400221   0.000000
    13  C    1.396493   2.417365   0.000000
    14  C    2.426147   1.400723   2.791572   0.000000
    15  C    2.424788   2.794237   1.399438   2.415892   0.000000
    16  H    2.144521   3.391726   1.075341   3.866905   2.148510
    17  C    2.806638   2.427160   2.424808   1.397871   1.397740
    18  H    3.398301   2.147816   3.866823   1.075262   3.391124
    19  H    3.395402   3.869233   2.145981   3.391824   1.075015
    20  H    3.881934   3.401913   3.399651   2.150249   2.149881
    21  H    3.344901   2.980482   4.730063   4.218106   5.592090
    22  H    2.149984   1.061234   3.386496   2.126682   3.855254
    23  N    7.180259   7.386823   8.373107   8.723730   9.571809
    24  O    7.802332   7.988243   8.961053   9.281023  10.128753
    25  O    7.827331   8.010030   9.040159   9.353868  10.248530
                   16         17         18         19         20
    16  H    0.000000
    17  C    3.397559   0.000000
    18  H    4.942156   2.147427   0.000000
    19  H    2.468604   2.148553   4.282548   0.000000
    20  H    4.286614   1.075297   2.476109   2.477695   0.000000
    21  H    5.321957   5.387178   4.488721   6.635166   6.327088
    22  H    4.279454   3.379028   2.446418   4.930265   4.265999
    23  N    8.486114   9.730805   9.082849  10.486353  10.742046
    24  O    9.070690  10.275284   9.616354  11.027266  11.264378
    25  O    9.149475  10.392104   9.684571  11.173061  11.405179
                   21         22         23         24         25
    21  H    0.000000
    22  H    2.132117   0.000000
    23  N    4.602746   6.696995   0.000000
    24  O    5.222127   7.311926   1.209714   0.000000
    25  O    5.217195   7.280102   1.209711   2.140061   0.000000
 Stoichiometry    C12H9NO3
 Framework group  C1[X(C12H9NO3)]
 Deg. of freedom    69
 Full point group                 C1      NOp   1
 Largest Abelian subgroup         C1      NOp   1
 Largest concise Abelian subgroup C1      NOp   1
                         Standard orientation:                         
 ---------------------------------------------------------------------
 Center     Atomic      Atomic             Coordinates (Angstroms)
 Number     Number       Type             X           Y           Z
 ---------------------------------------------------------------------
      1          6           0       -2.994071   -0.024012    0.016470
      2          6           0       -2.070344   -1.068176   -0.040087
      3          6           0       -0.700732   -0.787542   -0.102408
      4          6           0       -0.250803    0.541726   -0.108290
      5          6           0       -1.188052    1.579350   -0.050887
      6          6           0       -2.556235    1.300794    0.011246
      7          1           0       -2.410315   -2.088226   -0.035719
      8          1           0       -0.851621    2.600255   -0.054846
      9          1           0       -3.267699    2.105561    0.054923
     10          8           0        1.203308    1.004194   -0.172982
     11          6           0        2.712641    0.332100   -0.156528
     12          6           0        2.911644   -1.053636   -0.183945
     13          6           0        3.803110    1.182231    0.039297
     14          6           0        4.197815   -1.580835   -0.011173
     15          6           0        5.087226    0.654068    0.213984
     16          1           0        3.654359    2.247114    0.055275
     17          6           0        5.287719   -0.729014    0.190212
     18          1           0        4.345554   -2.645655   -0.033969
     19          1           0        5.919913    1.316953    0.365225
     20          1           0        6.274505   -1.134883    0.323575
     21          1           0       -0.018160   -1.599461   -0.143945
     22          1           0        2.101423   -1.720970   -0.340229
     23          7           0       -4.433910   -0.320635    0.081935
     24          8           0       -4.936120   -0.440879    1.175889
     25          8           0       -5.035951   -0.428135   -0.961805
 ---------------------------------------------------------------------
 Rotational constants (GHZ):           2.0402373           0.1841728           0.1735517
 Standard basis: 6-31+G(d) (6D, 7F)
 There are   322 symmetry adapted cartesian basis functions of A   symmetry.
 There are   322 symmetry adapted basis functions of A   symmetry.
   322 basis functions,   548 primitive gaussians,   322 cartesian basis functions
    56 alpha electrons       56 beta electrons
       nuclear repulsion energy       941.6524203314 Hartrees.
 NAtoms=   25 NActive=   25 NUniq=   25 SFac= 1.00D+00 NAtFMM=   60 NAOKFM=F Big=F
 Integral buffers will be    131072 words long.
 Raffenetti 2 integral format.
 Two-electron integral symmetry is turned on.
 Nuclear repulsion after empirical dispersion term =      941.6338897837 Hartrees.
 One-electron integrals computed using PRISM.
 NBasis=   322 RedAO= T EigKep=  1.86D-06  NBF=   322
 NBsUse=   321 1.00D-06 EigRej=  6.58D-07 NBFU=   321
 Initial guess from the checkpoint file:  "molecule_71.chk"
 B after Tr=     0.000000    0.000000    0.000000
         Rot=    0.999538    0.029875    0.000283   -0.005589 Ang=   3.48 deg.
 ExpMin= 4.38D-02 ExpMax= 5.48D+03 ExpMxC= 8.25D+02 IAcc=3 IRadAn=         5 AccDes= 0.00D+00
 Harris functional with IExCor=  402 and IRadAn=       5 diagonalized for initial guess.
 HarFok:  IExCor=  402 AccDes= 0.00D+00 IRadAn=         5 IDoV= 1 UseB2=F ITyADJ=14
 ICtDFT=  3500011 ScaDFX=  1.000000  1.000000  1.000000  1.000000
 FoFCou: FMM=F IPFlag=           0 FMFlag=      100000 FMFlg1=           0
         NFxFlg=           0 DoJE=T BraDBF=F KetDBF=T FulRan=T
         wScrn=  0.000000 ICntrl=       500 IOpCl=  0 I1Cent=   200000004 NGrid=           0
         NMat0=    1 NMatS0=      1 NMatT0=    0 NMatD0=    1 NMtDS0=    0 NMtDT0=    0
 Petite list used in FoFCou.
 Requested convergence on RMS density matrix=1.00D-08 within 128 cycles.
 Requested convergence on MAX density matrix=1.00D-06.
 Requested convergence on             energy=1.00D-06.
 No special actions if energy rises.
 SCF Done:  E(RB3LYP) =  -742.988117614     A.U. after   17 cycles
            NFock= 17  Conv=0.52D-08     -V/T= 2.0100
 Calling FoFJK, ICntrl=      2127 FMM=F ISym2X=0 I1Cent= 0 IOpClX= 0 NMat=1 NMatS=1 NMatT=0.
 ***** Axes restored to original set *****
 -------------------------------------------------------------------
 Center     Atomic                   Forces (Hartrees/Bohr)
 Number     Number              X              Y              Z
 -------------------------------------------------------------------
      1        6           0.002544496    0.014765561   -0.007548563
      2        6           0.001673359    0.002377627    0.007995050
      3        6           0.003003279    0.005037135    0.012744591
      4        6           0.007793091    0.046917827   -0.035272127
      5        6           0.000059090    0.003085634   -0.004009074
      6        6          -0.001351283   -0.000561258   -0.007864670
      7        1          -0.002024411   -0.005249695   -0.005242807
      8        1           0.002019634    0.006071476    0.003503114
      9        1           0.000943262   -0.000604168    0.007581312
     10        8          -0.002961376   -0.001542069   -0.018080429
     11        6          -0.001542525   -0.052935425    0.024098937
     12        6           0.002942752    0.006597798    0.009635584
     13        6          -0.002937211   -0.008839281    0.016409733
     14        6           0.001954913    0.007917947    0.010679870
     15        6          -0.008227710   -0.012138052   -0.002954523
     16        1           0.002602409    0.001339478    0.007483638
     17        6          -0.001355854   -0.004514227    0.005886028
     18        1          -0.002365420   -0.004345138   -0.006301558
     19        1           0.003066119    0.006917521    0.002472871
     20        1           0.001869140    0.003947219   -0.006559694
     21        1          -0.001199418    0.003354772   -0.015473849
     22        1          -0.006069296   -0.015404166    0.000052333
     23        7           0.002789103    0.015057372   -0.006195356
     24        8           0.028644737   -0.015891428   -0.000534876
     25        8          -0.031870881   -0.001362459    0.007494464
 -------------------------------------------------------------------
 Cartesian Forces:  Max     0.052935425 RMS     0.012755965

 GradGradGradGradGradGradGradGradGradGradGradGradGradGradGradGradGradGrad
 Berny optimization.
 Using GEDIIS/GDIIS optimizer.
 FormGI is forming the generalized inverse of G from B-inverse, IUseBI=4.
 Internal  Forces:  Max     0.090299129 RMS     0.013989450
 Search for a local minimum.
 Step number   2 out of a maximum of  132
 All quantities printed in internal units (Hartrees-Bohrs-Radians)
 Mixed Optimization -- RFO/linear search
 Update second derivatives using D2CorX and points    1    2
 DE= -3.02D-02 DEPred=-7.37D-02 R= 4.10D-01
 Trust test= 4.10D-01 RLast= 3.03D-01 DXMaxT set to 3.00D-01
 ITU=  0  0
 Use linear search instead of GDIIS.
     Eigenvalues ---    0.00230   0.00232   0.00766   0.00766   0.01655
     Eigenvalues ---    0.01746   0.01778   0.02070   0.02070   0.02070
     Eigenvalues ---    0.02070   0.02070   0.02070   0.02070   0.02070
     Eigenvalues ---    0.02070   0.02070   0.02070   0.02070   0.02070
     Eigenvalues ---    0.02070   0.02073   0.15308   0.16000   0.16000
     Eigenvalues ---    0.16000   0.16000   0.16000   0.16000   0.16000
     Eigenvalues ---    0.16026   0.16117   0.21987   0.22000   0.22002
     Eigenvalues ---    0.22857   0.23001   0.23762   0.24242   0.24930
     Eigenvalues ---    0.25000   0.25000   0.25000   0.26266   0.35737
     Eigenvalues ---    0.36796   0.37023   0.37230   0.37230   0.37230
     Eigenvalues ---    0.37230   0.37230   0.37230   0.37230   0.41210
     Eigenvalues ---    0.41226   0.41323   0.41574   0.45195   0.45379
     Eigenvalues ---    0.45389   0.45389   0.45389   0.45389   0.45389
     Eigenvalues ---    0.45389   1.02319   1.05156   1.24037
 RFO step:  Lambda=-1.60366088D-01 EMin= 2.29997775D-03
 Quartic linear search produced a step of  0.76569.
 Maximum step size (   0.300) exceeded in Quadratic search.
    -- Step size scaled by   0.452
 Iteration  1 RMS(Cart)=  0.26547193 RMS(Int)=  0.01691108
 Iteration  2 RMS(Cart)=  0.07628178 RMS(Int)=  0.00094585
 Iteration  3 RMS(Cart)=  0.00172787 RMS(Int)=  0.00063993
 Iteration  4 RMS(Cart)=  0.00000162 RMS(Int)=  0.00063993
 Iteration  5 RMS(Cart)=  0.00000000 RMS(Int)=  0.00063993
 Variable       Old X    -DE/DX   Delta X   Delta X   Delta X     New X
                                 (Linear)    (Quad)   (Total)
    R1        2.63666  -0.00359  -0.00889  -0.00615  -0.01504   2.62162
    R2        2.63672  -0.00144  -0.00884  -0.00366  -0.01249   2.62423
    R3        2.78079   0.00236   0.00222   0.00397   0.00619   2.78698
    R4        2.64459  -0.00418  -0.00281  -0.00550  -0.00832   2.63627
    R5        2.03188   0.00766   0.00756   0.01259   0.02014   2.05202
    R6        2.65197  -0.00883   0.00284  -0.00974  -0.00691   2.64506
    R7        2.00600   0.01584  -0.01226   0.01774   0.00548   2.01148
    R8        2.64453  -0.00712  -0.00286  -0.00908  -0.01194   2.63260
    R9        2.88609  -0.08288  -0.03624  -0.15195  -0.18819   2.69790
   R10        2.64114  -0.00544  -0.00545  -0.00766  -0.01310   2.62804
   R11        2.03130   0.00720   0.00712   0.01183   0.01895   2.05025
   R12        2.03155   0.00763   0.00731   0.01247   0.01978   2.05134
   R13        3.12238  -0.09030  -0.04839  -0.21440  -0.26279   2.85958
   R14        2.64603  -0.01132  -0.00171  -0.01403  -0.01566   2.63037
   R15        2.63899  -0.01372  -0.00710  -0.01815  -0.02519   2.61380
   R16        2.64698  -0.00230  -0.00098  -0.00285  -0.00382   2.64316
   R17        2.00544   0.01646  -0.01268   0.01845   0.00577   2.01121
   R18        2.64456  -0.00249  -0.00284  -0.00364  -0.00648   2.63807
   R19        2.03210   0.00779   0.00773   0.01281   0.02054   2.05264
   R20        2.64159   0.00100  -0.00511   0.00046  -0.00472   2.63687
   R21        2.03195   0.00785   0.00761   0.01286   0.02047   2.05242
   R22        2.64134   0.00219  -0.00530   0.00174  -0.00363   2.63771
   R23        2.03148   0.00773   0.00726   0.01259   0.01984   2.05133
   R24        2.03202   0.00787   0.00766   0.01290   0.02057   2.05258
   R25        2.28603   0.03215   0.01501   0.01926   0.03427   2.32030
   R26        2.28602   0.03216   0.01501   0.01926   0.03427   2.32030
    A1        2.09747   0.00758   0.00236   0.01496   0.01732   2.11480
    A2        2.09294  -0.00391  -0.00111  -0.00766  -0.00878   2.08417
    A3        2.09277  -0.00367  -0.00124  -0.00730  -0.00855   2.08422
    A4        2.09401  -0.00421  -0.00030  -0.00746  -0.00776   2.08625
    A5        2.09494   0.00281   0.00042   0.00549   0.00590   2.10084
    A6        2.09424   0.00140  -0.00012   0.00197   0.00185   2.09609
    A7        2.09891  -0.00636   0.00345  -0.00989  -0.00645   2.09246
    A8        2.06879   0.00429  -0.01961  -0.00392  -0.02352   2.04527
    A9        2.11549   0.00207   0.01615   0.01381   0.02997   2.14546
   A10        2.07993   0.01388  -0.01108   0.01952   0.00843   2.08836
   A11        2.20465  -0.00444   0.08442   0.03006   0.11448   2.31913
   A12        1.99861  -0.00944  -0.07335  -0.04958  -0.12292   1.87569
   A13        2.10560  -0.00723   0.00858  -0.00916  -0.00058   2.10502
   A14        2.08798   0.00240  -0.00491   0.00146  -0.00345   2.08454
   A15        2.08960   0.00483  -0.00367   0.00770   0.00403   2.09363
   A16        2.09046  -0.00366  -0.00301  -0.00797  -0.01097   2.07949
   A17        2.09780   0.00258   0.00261   0.00636   0.00897   2.10677
   A18        2.09492   0.00108   0.00041   0.00161   0.00201   2.09693
   A19        2.41304  -0.05701   0.13770  -0.03804   0.09967   2.51271
   A20        2.13198   0.00355   0.08759   0.04708   0.13469   2.26667
   A21        2.05678  -0.02327  -0.08130  -0.07675  -0.15865   1.89812
[...]
 70,0.21694204,-0.00002493,0.00026045,-0.00005546,0.00000041,-0.0000648
 7,0.00011760,0.00004674,0.00042295,-0.00009870,0.00006669,-0.00145936,
 0.00098515,0.00003991,0.00026297,-0.00010759,0.00001361,-0.00015743,-0
 .00004763,0.00002550,0.00004181,-0.00001469,-0.00000692,-0.00001694,0.
 00003573,-0.00001133,0.00001312,-0.00000087,0.00118023,0.00091513,-0.0
 0263981,-0.01975121,-0.00302007,-0.00566994,0.03458130,0.00596417,0.00
 741614,-0.00482565,0.01728770,-0.04430068,0.06546731,0.03679210,-0.130
 53573,-0.13437450,0.03258721,-0.22122157,0.00177638,0.00393521,-0.0027
 3544,0.01221921,-0.19175074,0.66953697,0.00000818,0.00002738,-0.000024
 57,-0.00000679,-0.00003068,0.00001847,0.00001492,0.00005043,-0.0000200
 9,-0.00002631,-0.00002948,0.00008763,-0.00001662,-0.00001837,0.0000062
 8,-0.00001122,0.00000347,0.00000469,-0.00000336,0.00000146,-0.00000442
 ,0.00000114,-0.00000180,0.00000338,0.00000414,-0.00000090,0.00000220,0
 .00041414,-0.00012822,0.00046938,0.00077409,-0.00172441,0.00165675,0.0
 0949506,-0.00144678,0.00700558,-0.00017061,-0.00025576,0.00099546,-0.2
 0194073,0.02104800,-0.13945907,-0.00441731,-0.00286176,0.00237962,0.00
 002238,0.00018557,-0.00005642,-0.01569379,0.00477348,-0.02246656,0.211
 27507,0.00000019,-0.00011463,0.00006866,-0.00001375,0.00007864,-0.0000
 6426,-0.00002716,-0.00020999,0.00001081,0.00010129,0.00052657,-0.00000
 177,0.00001695,-0.00008630,0.00005711,-0.00002119,0.00002715,-0.000017
 22,0.00000259,-0.00001090,0.00000704,0.00001120,0.00000291,-0.00000887
 ,-0.00000248,-0.00000439,-0.00000094,0.00018013,-0.00059157,0.00084587
 ,-0.00218408,0.00586051,0.00324055,0.00909717,0.00199129,0.00814720,-0
 .00017332,-0.00073586,-0.00004462,0.02115193,-0.04426433,0.03104982,-0
 .00247364,0.00539707,0.00235995,0.00018738,-0.00074537,-0.00030050,-0.
 00577492,0.00454493,-0.00594952,-0.02121113,0.03480963,-0.00002208,0.0
 0017198,-0.00000993,0.00002894,-0.00003276,0.00003457,-0.00006134,0.00
 014062,0.00008744,-0.00001024,-0.00103555,0.00000868,0.00005054,0.0002
 7376,-0.00013822,0.00005832,-0.00013009,-0.00004381,-0.00000388,0.0000
 0740,-0.00000384,-0.00001862,-0.00000761,0.00001051,-0.00001001,0.0000
 1057,-0.00000370,-0.00097405,0.00116234,-0.00176661,0.00264323,0.00363
 681,-0.00137352,-0.02173319,0.00296264,-0.01536118,0.00088823,0.000055
 83,-0.00038175,-0.13938548,0.03094361,-0.19117686,0.00143475,0.0021486
 9,0.00146631,-0.00005074,-0.00030980,-0.00006802,0.00621666,-0.0007757
 8,0.00866942,0.15002653,-0.03612586,0.19925112,0.00000091,-0.00009996,
 0.00001501,0.00001573,0.00003405,-0.00001807,0.00000930,-0.00008977,-0
 .00003646,-0.00004067,0.00050606,-0.00009322,-0.00000322,-0.00011949,0
 .00006515,-0.00000483,0.00006464,0.00002635,-0.00000583,-0.00000448,0.
 00000172,-0.00000309,0.00000438,-0.00001037,-0.00000147,-0.00000464,-0
 .00000081,-0.00030933,-0.00047386,0.00030858,0.00223801,-0.00104012,0.
 00009581,0.00055257,0.00035022,-0.00035950,-0.00276964,-0.00107866,-0.
 00023737,-0.00108447,0.00014070,-0.00436886,-0.31118340,-0.06982137,0.
 05219527,0.00060617,0.00067593,0.00059137,-0.01611350,-0.00619279,0.00
 696750,-0.00090273,-0.00031582,0.00039438,0.32849923,-0.00002132,-0.00
 012598,0.00006555,0.00003629,0.00008729,-0.00005282,0.00004732,-0.0002
 1501,0.00003169,-0.00015778,0.00054755,-0.00009176,-0.00003408,-0.0000
 9787,0.00004626,0.00002223,0.00003505,-0.00000300,-0.00000527,-0.00001
 194,0.00000525,-0.00000496,0.00000218,-0.00001458,0.00000340,-0.000004
 19,0.00000069,-0.00050374,-0.00066510,0.00064852,-0.00047981,0.0060336
 6,0.00359173,0.00033922,-0.00065529,-0.00001259,-0.01156614,0.00052330
 ,0.00178066,-0.00026105,0.00577155,0.00242642,-0.06997268,-0.05743828,
 0.02116684,0.00092360,-0.00340685,-0.00143911,0.00429916,0.00447947,-0
 .00073889,0.00021915,0.00016020,-0.00000142,0.07639995,0.04894114,-0.0
 0000077,0.00013633,0.00000870,-0.00003349,-0.00001891,0.00000344,-0.00
 001059,0.00010327,0.00009809,0.00014241,-0.00086622,0.00000225,-0.0000
 1030,0.00023897,-0.00014010,-0.00001001,-0.00011752,-0.00005806,0.0000
 0109,0.00000608,-0.00000035,0.00001072,-0.00000346,0.00001545,0.000009
 72,0.00001108,0.00000171,0.00168002,0.00127796,-0.00096925,-0.00091656
 ,0.00353599,-0.00301042,-0.00027039,0.00013044,-0.00118544,0.02848656,
 0.00715348,-0.00162810,-0.00342026,0.00259067,-0.00224338,0.05213382,0
 .02112452,-0.06874913,-0.00004656,-0.00158565,0.00023897,-0.02170077,-
 0.00611468,0.00915155,-0.00117475,-0.00027796,0.00033841,-0.05554397,-
 0.02556405,0.06788784,-0.00001435,-0.00002397,0.00000412,0.00001644,0.
 00001542,-0.00000210,0.00000493,-0.00002280,-0.00001391,0.00002419,0.0
 0011728,-0.00003961,-0.00001198,-0.00001257,0.00000959,0.00000391,0.00
 000993,0.00000355,0.00000136,0.00000082,0.00000032,-0.00000463,-0.0000
 0042,-0.00000324,-0.00000030,-0.00000006,-0.00000036,0.00033153,0.0001
 1435,0.00023031,-0.00161035,-0.00002048,-0.00067695,-0.00511992,-0.002
 08406,-0.00017444,-0.00282674,-0.00060725,-0.00333384,-0.00229747,-0.0
 1122924,0.02840130,0.00967403,0.00905990,-0.02145744,0.00040360,0.0004
 2775,-0.00107838,-0.07494274,-0.02828964,0.05854580,0.00055623,0.00082
 765,-0.00003630,0.00058905,0.00063609,0.00054440,0.07539499,-0.0000013
 4,-0.00004774,0.00001301,0.00000482,0.00002378,-0.00001806,-0.00000444
 ,-0.00005893,0.00003013,-0.00003535,0.00004339,0.00011444,-0.00000031,
 -0.00007473,0.00001785,-0.00000589,0.00002818,0.00001419,-0.00000128,-
 0.00000734,0.00000664,0.00000032,0.00000460,-0.00000375,0.00000019,-0.
 00000341,0.00000014,0.00018419,-0.00108097,-0.00024266,0.00002735,0.00
 005475,-0.00057250,-0.00237713,0.00583705,0.00174069,-0.00034003,0.006
 08941,0.00204965,-0.00062994,0.00014431,0.00668105,-0.00147027,0.00154
 970,0.00238996,-0.00013484,0.00017358,0.00014142,-0.02831856,-0.077412
 99,0.10057128,0.00057993,-0.00328584,-0.00152107,0.00088197,-0.0032768
 8,-0.00138875,0.03165836,0.07111630,-0.00000174,0.00008968,-0.00003229
 ,0.00000065,-0.00005406,0.00002880,-0.00001859,0.00009220,0.00003842,-
 0.00000014,-0.00040311,0.00012631,0.00000642,0.00005907,-0.00004712,0.
 00000762,-0.00003942,-0.00000993,0.00000087,-0.00000051,-0.00000126,-0
 .00000344,-0.00000121,0.00000635,-0.00000043,0.00000096,0.00000076,0.0
 0021195,-0.00000521,-0.00031063,-0.00068941,-0.00041074,0.00063226,0.0
 0065011,0.00184147,0.00214467,-0.00415208,0.00186148,-0.00040223,-0.00
 053672,0.00149313,-0.00162875,0.00746582,0.00781452,-0.01501054,0.0004
 4021,0.00044210,-0.00074479,0.05855002,0.10047096,-0.28423971,0.000610
 46,-0.00140245,0.00023437,-0.00010098,-0.00151342,0.00019337,-0.062318
 38,-0.11038865,0.29916973,0.00657457,0.00062267,0.00138623,0.00241713,
 0.00023059,-0.00094999,-0.05432658,-0.01681210,0.07542199,0.00144670,-
 0.00274011,0.00724095,0.00438936,0.00161257,0.00185788,-0.00057199,0.0
 0025108,-0.00026194,-0.00410519,-0.00042126,-0.00143030,-0.00005188,-0
 .00016305,0.00030127,-0.00053744,-0.00005618,-0.00015256,-0.00229156,-
 0.00055945,-0.00091004,-0.00033575,-0.00014138,-0.00006480,0.00006857,
 -0.00012679,-0.00010140,0.00027239,-0.00008411,-0.00002377,0.00008690,
 0.00008638,-0.00047624,-0.00014787,-0.00010019,0.00037179,-0.00007655,
 -0.00009779,-0.00009765,-0.00020897,0.00000604,0.00000415,-0.00000134,
 0.00001889,-0.00001776,-0.00002097,-0.00002540,0.00002310,-0.00002792,
 -0.00000627,-0.00000027,0.04695650,0.00090728,-0.00463645,-0.00006518,
 -0.00817385,-0.00454533,0.02950169,-0.01709117,-0.07712375,0.06935780,
 0.00556145,0.01207793,-0.02114499,0.00133680,-0.00348890,-0.00233081,0
 .00014626,-0.00110386,-0.00037459,-0.00031747,0.00085993,-0.00032200,0
 .00031789,0.00039451,-0.00117567,-0.00005929,0.00004481,0.00003796,-0.
 00083125,0.00060387,0.00199194,0.00051365,-0.00249923,-0.00119224,0.00
 031254,-0.00088613,0.00039930,-0.00033273,-0.00093367,0.00021049,0.000
 11003,-0.00004394,-0.00002492,-0.00009620,-0.00007214,-0.00001667,0.00
 003157,0.00012275,0.00001706,-0.00002533,-0.00003077,0.00004138,-0.000
 02635,0.00001866,-0.00002626,0.00003126,0.00001980,-0.00000574,-0.0000
 0047,0.00005508,-0.00001984,0.01820684,0.08127508,0.00131284,0.0009006
 4,0.00233914,0.00122519,0.00095436,-0.00225365,0.07548950,0.06840894,-
 0.30751129,0.00509599,0.00705126,-0.01576466,0.00192954,-0.00326728,-0
 .00064990,-0.00023484,-0.00073070,0.00035656,-0.00145791,0.00002995,0.
 00038539,0.00017686,0.00045811,-0.00069494,-0.00015181,0.00002748,-0.0
 0007816,-0.00083997,0.00107066,-0.00002571,-0.00023257,0.00102846,0.00
 016022,0.00018747,0.00064667,0.00035660,-0.00036219,0.00061356,0.00019
 941,-0.00004363,0.00005244,0.00000510,-0.00006818,0.00000080,0.0002682
 5,-0.00004663,-0.00022185,-0.00014415,0.00001237,-0.00006604,-0.000232
 33,-0.00000690,0.00000902,-0.00002478,0.00000929,-0.00000234,-0.000006
 28,-0.00000173,-0.00000028,-0.00002250,-0.08227242,-0.07661685,0.32339
 159,-0.00003232,-0.00009142,0.00006655,0.00005237,0.00011848,-0.000060
 32,0.00017808,-0.00010634,0.00004923,-0.00013688,0.00038254,-0.0005484
 7,-0.00001592,0.00007364,0.00000518,0.00000694,-0.00000085,-0.00001066
 ,-0.00000935,0.00000229,0.00000014,-0.00001980,-0.00000344,-0.00000713
 ,0.00000179,0.00000506,-0.00000038,0.00198454,0.00065396,0.00105101,-0
 .01813628,-0.00724221,0.00886866,-0.31139020,-0.06927421,0.05669078,-0
 .00100885,0.00040511,-0.00417042,-0.00143452,-0.00067516,-0.00022681,0
 .00053724,0.00042662,-0.00050206,-0.00084855,-0.00038635,0.00034250,0.
 00192488,-0.00104381,0.00053518,0.00062359,0.00059864,0.00058395,-0.00
 006943,0.00010565,0.00010543,-0.00014332,-0.00001352,-0.00012272,-0.00
 017985,-0.00007600,0.00005614,0.32811910,0.00002645,0.00005012,-0.0000
 6177,-0.00002088,-0.00012298,-0.00001248,-0.00019076,0.00000398,0.0001
 2954,0.00014464,-0.00009866,0.00055516,-0.00006915,-0.00015710,0.00002
 283,-0.00000341,0.00005018,0.00002316,0.00000532,-0.00001662,0.0000040
 0,0.00000578,0.00001317,-0.00001331,0.00000892,-0.00000522,0.00000403,
 0.00077834,-0.00360282,-0.00175149,0.00344936,0.00558029,-0.00062848,-
 0.06958923,-0.05579249,0.02292659,-0.00005988,0.00460999,0.00218076,-0
 .01083680,0.00032745,0.00120128,0.00036662,-0.00079775,0.00011192,0.00
 023138,0.00043232,0.00004894,-0.00089403,0.00543125,0.00416057,0.00086
 024,-0.00341701,-0.00148379,0.00011246,-0.00075622,-0.00031735,-0.0005
 8679,0.00010937,0.00011264,0.00016371,0.00013507,-0.00013481,0.0760903
 8,0.04805832,0.00004861,-0.00015938,0.00002614,-0.00004363,0.00001089,
 -0.00009233,-0.00002434,-0.00012740,0.00006398,-0.00032945,0.00087208,
 0.00000177,0.00002431,-0.00018468,0.00014536,-0.00003043,0.00013361,0.
 00000863,0.00000120,-0.00001672,0.00000738,-0.00001405,0.00000425,-0.0
 0003406,0.00000064,-0.00000421,-0.00000080,0.00131524,-0.00251330,0.00
 177208,-0.02142222,-0.00490924,0.00802566,0.05873917,0.02303452,-0.070
 35840,-0.00320728,0.00234953,-0.00259206,0.02777405,0.00624679,-0.0006
 9275,-0.00024622,0.00003650,-0.00110102,-0.00114981,-0.00024620,0.0004
 2168,-0.00026929,0.00398293,-0.00404604,-0.00005786,-0.00158433,0.0002
 3216,0.00010983,-0.00030979,0.00003500,0.00139861,0.00037717,-0.000132
 76,0.00007856,0.00000098,-0.00005302,-0.06270121,-0.02705734,0.0684010
 6,-0.07605262,0.00259177,0.01005466,-0.00362443,-0.00873490,-0.0030875
 8,0.00687646,-0.00028304,0.00447658,-0.00186659,0.00022966,0.00091135,
 0.00646955,0.00246687,0.00357527,-0.00357374,0.00575979,-0.00712026,-0
 .00416605,-0.00026189,-0.00001491,0.00123991,0.00056276,0.00014101,-0.
 00389432,0.00026318,-0.00005485,-0.00042360,0.00002710,-0.00008569,-0.
 00040924,-0.00002631,-0.00013732,0.00010020,-0.00006303,-0.00002302,0.
 00006067,0.00007726,0.00005731,0.00000130,0.00004520,-0.00005600,-0.00
 002348,-0.00002463,0.00005060,0.00000060,-0.00001504,-0.00001587,-0.00
 005103,0.00000146,-0.00000071,0.00000489,0.00000074,-0.00000861,-0.000
 00227,-0.00002171,0.00000540,-0.00000057,-0.00000818,-0.00000003,0.001
 26987,-0.00041862,0.00041412,-0.00000903,0.00000017,-0.00000222,0.2846
 5908,0.00287077,-0.12092742,0.00266071,-0.00744129,-0.02554799,0.03052
 776,-0.00104439,0.01467696,0.00185433,0.00055597,-0.01486759,0.0015585
 6,0.00321922,0.00814546,-0.01104322,0.00428928,-0.04722878,-0.00370542
 ,0.00080054,-0.00004561,-0.00378372,-0.00006004,0.00000600,0.00054448,
 -0.00080129,0.00093207,0.00146921,0.00075688,0.01480517,-0.00652545,-0
 .00187241,-0.00296210,0.00700540,0.00047092,0.00049689,-0.00118415,0.0
 0018837,0.00048709,-0.00126129,-0.00019351,-0.00004319,0.00010548,0.00
 010664,-0.00002614,0.00020318,-0.00026679,-0.00019666,0.00007803,0.000
 09619,0.00006428,-0.00035747,-0.00005812,0.00013293,-0.00022579,0.0001
 5144,0.00014727,-0.00016285,0.00003940,0.00007554,-0.00015338,0.000208
 30,0.00052769,-0.00049097,0.00020521,-0.00015954,0.00021852,-0.0501440
 3,0.65697967,0.00999185,0.00359397,-0.10776053,-0.00342187,0.03494854,
 -0.00260512,0.00467440,-0.00072036,-0.00751460,0.00082441,0.00265507,-
 0.00507806,0.00338103,-0.00848870,-0.00158060,-0.00674064,-0.00872644,
 0.01991310,-0.00029225,-0.00018288,-0.00315420,0.00030245,-0.00157078,
 0.00070397,0.00021813,-0.00213617,-0.00407789,-0.00027362,-0.00403522,
 0.00153212,0.00033975,0.00073925,-0.00179736,-0.00010528,-0.00015302,0
 .00031897,-0.00002728,-0.00010508,0.00036919,0.00005623,-0.00001517,-0
 .00004511,-0.00003397,-0.00004194,-0.00003820,0.00005198,0.00007108,-0
 .00000140,-0.00002521,-0.00003492,0.00004356,0.00000381,0.00000410,0.0
 0005930,-0.00003652,-0.00000539,0.00005216,-0.00001231,0.00000789,0.00
 003852,0.00025202,0.00163732,0.00008058,-0.00005788,0.00006736,-0.0000
 2898,-0.19084042,0.05828649,0.85657867,0.01503887,-0.00857140,0.010832
 21,0.00394578,0.00034307,-0.00001040,-0.00088138,-0.00090959,-0.000718
 61,0.00028311,0.00115960,-0.00011616,-0.00059591,-0.00109409,0.0000434
 8,0.00088517,0.00348962,0.00185300,0.00043981,0.00029924,-0.00031697,-
 0.00004176,-0.00006848,-0.00000318,0.00022053,-0.00003751,-0.00092554,
 -0.00005033,-0.00100515,0.00024532,0.00019105,0.00018579,-0.00038882,-
 0.00007211,-0.00001947,0.00006494,-0.00001971,-0.00006090,0.00007081,0
 .00001137,-0.00001506,0.00001358,0.00000060,0.00001004,-0.00003829,0.0
 0001341,0.00002250,0.00000473,0.00001598,-0.00000447,0.00001967,0.0000
 0059,-0.00000681,0.00001826,-0.00000827,-0.00000049,0.00000890,-0.0000
 0172,0.00000089,0.00001024,-0.00055332,-0.00008529,-0.00015080,-0.0000
 1035,0.00001406,-0.00000889,-0.10359509,-0.02345727,0.10417624,0.07116
 276,-0.01196065,-0.01579686,0.04918236,0.00216888,-0.00472864,-0.00512
 645,-0.00037621,-0.00320221,0.00181089,-0.00058140,0.00361607,0.001126
 44,-0.00061851,0.00015078,0.00189105,-0.00005760,-0.00452395,0.0017894
 3,-0.00009695,0.00018788,0.00037480,0.00003084,-0.00008574,-0.00009577
 ,-0.00035399,-0.00439904,0.00231972,-0.00022599,-0.00366896,0.00170357
 ,0.00048423,0.00075344,-0.00181477,-0.00013632,-0.00018591,0.00028440,
 -0.00001808,-0.00018051,0.00031870,0.00003633,0.00001144,-0.00006082,0
 .00000216,0.00001092,-0.00007472,0.00007853,0.00007883,-0.00001109,-0.
 00002623,-0.00002288,0.00010069,0.00001821,-0.00002821,0.00006653,-0.0
 0004702,-0.00003265,0.00004680,-0.00001295,-0.00001859,0.00004907,-0.0
 0002842,-0.00069605,0.00012131,-0.00006964,0.00006705,-0.00005529,-0.0
 2492503,-0.16038354,0.10664838,0.02284404,0.15674549,0.01170484,0.0376
 8689,-0.03184439,-0.00047908,0.00107409,0.00532237,-0.00085900,0.00361
 492,0.00081228,0.00033562,-0.00478248,0.00043858,-0.00008061,0.0034999
 7,-0.00129755,0.00276775,-0.01023163,-0.00505860,-0.00021181,-0.000967
 31,0.00134692,-0.00002896,0.00024238,-0.00001256,-0.00084393,0.0012465
 9,0.00248852,0.00004283,0.00434474,-0.00132707,-0.00046553,-0.00080221
 ,0.00187911,0.00017087,0.00018979,-0.00030812,-0.00001593,0.00016259,-
 0.00036623,-0.00006160,-0.00000096,0.00005575,0.00002584,0.00001314,0.
 00006734,-0.00006212,-0.00008408,0.00000015,0.00002518,0.00002662,-0.0
 0007128,-0.00000957,0.00001724,-0.00006745,0.00004227,0.00002323,-0.00
 005417,0.00001381,0.00000214,-0.00004604,-0.00016546,0.00031273,-0.000
 12343,0.00006504,-0.00007633,0.00003575,0.10455763,0.10166654,-0.45540
 734,-0.15400137,-0.11082932,0.57822186,0.01514583,0.01245668,0.0046949
 1,0.00081727,-0.00217369,0.00339556,-0.00055702,0.00099227,-0.00050793
 ,0.00024323,-0.00114897,0.00031110,-0.00075808,0.00039919,-0.00102940,
 0.00390973,-0.00027821,0.00025905,0.00023690,-0.00045714,-0.00080781,-
 0.00055401,0.00000725,-0.00017476,0.00041357,-0.00041436,-0.00013047,0
 .00010900,0.00095836,-0.00056866,-0.00011056,-0.00019787,0.00051061,0.
 00002194,0.00002912,-0.00008868,0.00000996,0.00001946,-0.00010400,-0.0
 0001911,-0.00000733,0.00000821,0.00001971,-0.00000714,0.00000096,-0.00
 001748,0.00000225,0.00001752,0.00001606,0.00000195,-0.00002779,-0.0000
 0361,0.00000954,-0.00001146,0.00001213,0.00002237,-0.00001315,0.000001
 76,0.00000932,-0.00000944,-0.00004481,0.00005845,-0.00003973,0.0000161
 3,-0.00000688,0.00001667,-0.10299048,0.07138001,0.07759496,0.01362092,
 0.01387177,0.03753327,0.07046099,0.01565027,-0.05751791,-0.03368436,0.
 00149936,-0.00090757,-0.00442038,0.00049452,-0.00273694,-0.00113435,0.
 00048350,0.00476127,-0.00281650,-0.00010189,-0.00437564,0.00120385,-0.
 00210870,-0.00063178,0.00835570,-0.00014182,-0.00424697,0.00157410,-0.
 00006263,-0.00081395,0.00026618,-0.00001815,0.00072379,-0.00003158,-0.
 00044215,-0.00547961,0.00292687,0.00075047,0.00116457,-0.00284154,-0.0
 0019713,-0.00020523,0.00048846,-0.00007259,-0.00019662,0.00052450,0.00
 007491,0.00001767,-0.00005002,-0.00003724,0.00000914,-0.00008465,0.000
 11645,0.00007399,-0.00003979,-0.00004429,-0.00002256,0.00015853,0.0000
 2644,-0.00005608,0.00009501,-0.00006512,-0.00006219,0.00006757,-0.0000
 1625,-0.00003762,0.00006471,-0.00004455,-0.00007496,0.00015747,-0.0000
 8461,0.00005783,-0.00009989,0.07290045,-0.32508847,-0.18244338,0.00696
 714,0.03633184,-0.02634928,-0.09552640,0.35931399,0.00386775,-0.022848
 74,0.01027316,0.00244370,0.00803385,-0.00873155,-0.00037950,-0.0028200
 1,0.00138967,-0.00011087,0.00273141,-0.00008141,-0.00090169,-0.0004891
 9,0.00215419,0.00073456,0.00213541,0.00091702,-0.00088949,0.00264359,0
 .00229885,-0.00015677,0.00003009,-0.00008004,-0.00023038,0.00130654,0.
 00079428,-0.00020585,-0.00183110,0.00118769,0.00026536,0.00037634,-0.0
 0097278,-0.00006643,-0.00003258,0.00018365,-0.00004401,-0.00003373,0.0
 0018689,0.00003941,0.00002481,0.00001804,-0.00004386,0.00001785,-0.000
 01214,0.00003648,-0.00000455,-0.00002703,-0.00001571,0.00000131,0.0000
 6134,0.00000999,-0.00003905,0.00002738,-0.00001640,-0.00003766,0.00001
 775,-0.00000284,-0.00002195,0.00001497,-0.00001334,-0.00019288,0.00004
 199,-0.00001174,-0.00001163,-0.00004443,0.07720355,-0.17728498,-0.2906
 0074,0.03931764,-0.04976591,-0.09468441,-0.12082955,0.23811277,0.37566
 763\\0.00001328,0.00003372,-0.00003212,0.00000517,-0.00000392,-0.00000
 682,-0.00000893,-0.00000794,0.00000991,0.00000399,0.00001388,-0.000008
 21,0.00000086,-0.00000605,0.00000188,-0.00000890,0.00001925,0.00000837
 ,-0.00000477,-0.00000779,0.00000194,0.00000310,-0.00000086,0.00000079,
 0.00000173,-0.00000967,-0.00000052,0.00000229,-0.00000199,-0.00004111,
 -0.00002292,0.00000394,0.00001992,0.00000212,-0.00001718,0.00002924,-0
 .00000381,-0.00000796,0.00001947,0.00001274,0.00001573,-0.00001514,0.0
 0000079,-0.00000047,-0.00000097,0.00000378,0.00000490,-0.00000754,-0.0
 0001714,-0.00000403,-0.00000479,-0.00000042,-0.00000296,0.00000100,0.0
 0000177,0.00000196,-0.00000318,0.00000633,0.00000140,0.00000372,0.0000
 0240,-0.00000075,0.00000863,0.00001035,0.00000381,0.00000071,-0.000001
 48,-0.00007783,0.00002019,0.00000022,0.00001846,-0.00001261,-0.0000025
 6,0.00003233,0.00000723\\\@


 The chemist is a guest at the physicist's table and
 frequently dines well.
                   -- Richard Bersohn
 Job cpu time:       0 days  2 hours  4 minutes 17.4 seconds.
 Elapsed time:       0 days  0 hours  4 minutes  8.6 seconds.
 File lengths (MBytes):  RWF=    281 Int=      0 D2E=      0 Chk=     11 Scr=      1
 Normal termination of Gaussian 16 at Sat Sep 16 14:24:33 2023.
