 Entering Gaussian System, Link 0=/home/ubuntu/g16/g16
 Input=/home/ubuntu/products/molecule_49.gjf
 Output=/home/ubuntu/products/molecule_49.log
 Initial command:
 /home/ubuntu/g16/l1.exe "/home/ubuntu/Scratch/Gau-43478.inp" -scrdir="/home/ubuntu/Scratch/"
 Entering Link 1 = /home/ubuntu/g16/l1.exe PID=     43480.
  
 Copyright (c) 1988-2017, Gaussian, Inc.  All Rights Reserved.
  
 This is part of the Gaussian(R) 16 program.  It is based on
 the Gaussian(R) 09 system (copyright 2009, Gaussian, Inc.),
 the Gaussian(R) 03 system (copyright 2003, Gaussian, Inc.),
 the Gaussian(R) 98 system (copyright 1998, Gaussian, Inc.),
 the Gaussian(R) 94 system (copyright 1995, Gaussian, Inc.),
 the Gaussian 92(TM) system (copyright 1992, Gaussian, Inc.),
 the Gaussian 90(TM) system (copyright 1990, Gaussian, Inc.),
 the Gaussian 88(TM) system (copyright 1988, Gaussian, Inc.),
 the Gaussian 86(TM) system (copyright 1986, Carnegie Mellon
 University), and the Gaussian 82(TM) system (copyright 1983,
 Carnegie Mellon University). Gaussian is a federally registered
 trademark of Gaussian, Inc.
  
 This software contains proprietary and confidential information,
 including trade secrets, belonging to Gaussian, Inc.
  
 This software is provided under written license and may be
 used, copied, transmitted, or stored only in accord with that
 written license.
  
 The following legend is applicable only to US Government
 contracts under FAR:
  
                    RESTRICTED RIGHTS LEGEND
  
 Use, reproduction and disclosure by the US Government is
 subject to restrictions as set forth in subparagraphs (a)
 and (c) of the Commercial Computer Software - Restricted
 Rights clause in FAR 52.227-19.
  
 Gaussian, Inc.
 340 Quinnipiac St., Bldg. 40, Wallingford CT 06492
  
  
 ---------------------------------------------------------------
 Warning -- This program may not be used in any manner that
 competes with the business of Gaussian, Inc. or will provide
 assistance to any competitor of Gaussian, Inc.  The licensee
 of this program is prohibited from giving any competitor of
 Gaussian, Inc. access to this program.  By using this program,
 the user acknowledges that Gaussian, Inc. is engaged in the
 business of creating and licensing software in the field of
 computational chemistry and represents and warrants to the
 licensee that it is not a competitor of Gaussian, Inc. and that
 it will not use this program in any manner prohibited above.
 ---------------------------------------------------------------
  

 Cite this work as:
 Gaussian 16, Revision B.01,
 M. J. Frisch, G. W. Trucks, H. B. Schlegel, G. E. Scuseria, 
 M. A. Robb, J. R. Cheeseman, G. Scalmani, V. Barone, 
 G. A. Petersson, H. Nakatsuji, X. Li, M. Caricato, A. V. Marenich, 
 J. Bloino, B. G. Janesko, R. Gomperts, B. Mennucci, H. P. Hratchian, 
 J. V. Ortiz, A. F. Izmaylov, J. L. Sonnenberg, D. Williams-Young, 
 F. Ding, F. Lipparini, F. Egidi, J. Goings, B. Peng, A. Petrone, 
 T. Henderson, D. Ranasinghe, V. G. Zakrzewski, J. Gao, N. Rega, 
 G. Zheng, W. Liang, M. Hada, M. Ehara, K. Toyota, R. Fukuda, 
 J. Hasegawa, M. Ishida, T. Nakajima, Y. Honda, O. Kitao, H. Nakai, 
 T. Vreven, K. Throssell, J. A. Montgomery, Jr., J. E. Peralta, 
 F. Ogliaro, M. J. Bearpark, J. J. Heyd, E. N. Brothers, K. N. Kudin, 
 V. N. Staroverov, T. A. Keith, R. Kobayashi, J. Normand, 
 K. Raghavachari, A. P. Rendell, J. C. Burant, S. S. Iyengar, 
 J. Tomasi, M. Cossi, J. M. Millam, M. Klene, C. Adamo, R. Cammi, 
 J. W. Ochterski, R. L. Martin, K. Morokuma, O. Farkas, 
 J. B. Foresman, and D. J. Fox, Gaussian, Inc., Wallingford CT, 2016.
 
 ******************************************
 Gaussian 16:  EM64L-G16RevB.01 20-Dec-2017
                18-Sep-2023 
 ******************************************
 %nprocshared=30
 Will use up to   30 processors via shared memory.
 %mem=30GB
 %chk=molecule_49.chk
 ----------------------------------------------------------------------
 # opt freq b3lyp/6-31+g(d) geom=connectivity empiricaldispersion=gd3 v
 olume
 ----------------------------------------------------------------------
 1/18=20,19=15,26=3,38=1,57=2/1,3;
 2/9=110,12=2,17=6,18=5,40=1/2;
 3/5=1,6=6,7=11,11=2,25=1,30=1,71=1,74=-5,124=31/1,2,3;
 4//1;
 5/5=2,38=5/2;
 6/7=2,8=2,9=2,10=2,28=1,44=1/1,4;
 7//1,2,3,16;
 1/18=20,19=15,26=3/3(2);
 2/9=110/2;
 99//99;
 2/9=110/2;
 3/5=1,6=6,7=11,11=2,25=1,30=1,71=1,74=-5,124=31/1,2,3;
 4/5=5,16=3,69=1/1;
 5/5=2,38=5/2;
 7//1,2,3,16;
 1/18=20,19=15,26=3/3(-5);
 2/9=110/2;
 6/7=2,8=2,9=2,10=2,19=2,28=1,44=1/1,4;
 99/9=1/99;
 -------------------
 Title Card Required
 -------------------
 Symbolic Z-matrix:
 Charge =  0 Multiplicity = 1
 C                     5.43465  -1.21063  -0.00027 
 C                     3.32468  -0.00004  -0.00001 
 C                     4.04092   1.21627   0.0003 
 C                     5.43459   1.21067   0.00032 
 C                     6.13627   0.00003   0.00004 
 H                     5.97541  -2.15349  -0.00049 
 H                     3.49308   2.154     0.00051 
 H                     5.97531   2.15355   0.00056 
 C                     1.90254  -0.00003  -0.00005 
 C                     0.68022  -0.00002  -0.00005 
 C                    -0.68023   0.00001  -0.00005 
 C                    -1.90255   0.00005  -0.00005 
 C                    -3.32468   0.00006  -0.00001 
 C                    -4.04099   1.21631  -0.00031 
 C                    -5.43467   1.21062  -0.00027 
 H                    -3.49321   2.15408  -0.00056 
 C                    -5.43458  -1.21068   0.00032 
 C                    -6.13627  -0.00005   0.00005 
 H                    -5.97543   2.15348  -0.00049 
 H                    -5.97529  -2.15356   0.00056 
 C                     4.04098  -1.2163   -0.0003 
 H                     3.49318  -2.15406  -0.00055 
 H                    -7.22308  -0.0001    0.00008 
 H                     7.22308   0.00006   0.00007 
 C                    -4.04091  -1.21627   0.00029 
 H                    -3.49304  -2.15398   0.0005 
 

 GradGradGradGradGradGradGradGradGradGradGradGradGradGradGradGradGradGrad
 Berny optimization.
 Initialization pass.
                           ----------------------------
                           !    Initial Parameters    !
                           ! (Angstroms and Degrees)  !
 --------------------------                            --------------------------
 ! Name  Definition              Value          Derivative Info.                !
 --------------------------------------------------------------------------------
 ! R1    R(1,5)                  1.3993         estimate D2E/DX2                !
 ! R2    R(1,6)                  1.0869         estimate D2E/DX2                !
 ! R3    R(1,21)                 1.3937         estimate D2E/DX2                !
 ! R4    R(2,3)                  1.4115         estimate D2E/DX2                !
 ! R5    R(2,9)                  1.4221         estimate D2E/DX2                !
 ! R6    R(2,21)                 1.4115         estimate D2E/DX2                !
 ! R7    R(3,4)                  1.3937         estimate D2E/DX2                !
 ! R8    R(3,7)                  1.086          estimate D2E/DX2                !
 ! R9    R(4,5)                  1.3993         estimate D2E/DX2                !
 ! R10   R(4,8)                  1.0869         estimate D2E/DX2                !
 ! R11   R(5,24)                 1.0868         estimate D2E/DX2                !
 ! R12   R(9,10)                 1.2223         estimate D2E/DX2                !
 ! R13   R(10,11)                1.3605         estimate D2E/DX2                !
 ! R14   R(11,12)                1.2223         estimate D2E/DX2                !
 ! R15   R(12,13)                1.4221         estimate D2E/DX2                !
 ! R16   R(13,14)                1.4115         estimate D2E/DX2                !
 ! R17   R(13,25)                1.4115         estimate D2E/DX2                !
 ! R18   R(14,15)                1.3937         estimate D2E/DX2                !
 ! R19   R(14,16)                1.086          estimate D2E/DX2                !
 ! R20   R(15,18)                1.3993         estimate D2E/DX2                !
 ! R21   R(15,19)                1.0869         estimate D2E/DX2                !
 ! R22   R(17,18)                1.3993         estimate D2E/DX2                !
 ! R23   R(17,20)                1.0869         estimate D2E/DX2                !
 ! R24   R(17,25)                1.3937         estimate D2E/DX2                !
 ! R25   R(18,23)                1.0868         estimate D2E/DX2                !
 ! R26   R(21,22)                1.086          estimate D2E/DX2                !
 ! R27   R(25,26)                1.086          estimate D2E/DX2                !
 ! A1    A(5,1,6)              120.0704         estimate D2E/DX2                !
 ! A2    A(5,1,21)             120.3267         estimate D2E/DX2                !
 ! A3    A(6,1,21)             119.6029         estimate D2E/DX2                !
 ! A4    A(3,2,9)              120.4924         estimate D2E/DX2                !
 ! A5    A(3,2,21)             119.0123         estimate D2E/DX2                !
 ! A6    A(9,2,21)             120.4953         estimate D2E/DX2                !
 ! A7    A(2,3,4)              120.2622         estimate D2E/DX2                !
 ! A8    A(2,3,7)              119.2129         estimate D2E/DX2                !
 ! A9    A(4,3,7)              120.525          estimate D2E/DX2                !
 ! A10   A(3,4,5)              120.3266         estimate D2E/DX2                !
 ! A11   A(3,4,8)              119.6031         estimate D2E/DX2                !
 ! A12   A(5,4,8)              120.0703         estimate D2E/DX2                !
 ! A13   A(1,5,4)              119.8099         estimate D2E/DX2                !
 ! A14   A(1,5,24)             120.095          estimate D2E/DX2                !
 ! A15   A(4,5,24)             120.0951         estimate D2E/DX2                !
 ! A16   A(12,13,14)           120.4964         estimate D2E/DX2                !
 ! A17   A(12,13,25)           120.4913         estimate D2E/DX2                !
 ! A18   A(14,13,25)           119.0123         estimate D2E/DX2                !
 ! A19   A(13,14,15)           120.2623         estimate D2E/DX2                !
 ! A20   A(13,14,16)           119.2139         estimate D2E/DX2                !
 ! A21   A(15,14,16)           120.5238         estimate D2E/DX2                !
 ! A22   A(14,15,18)           120.3267         estimate D2E/DX2                !
 ! A23   A(14,15,19)           119.6022         estimate D2E/DX2                !
 ! A24   A(18,15,19)           120.0711         estimate D2E/DX2                !
 ! A25   A(18,17,20)           120.0697         estimate D2E/DX2                !
 ! A26   A(18,17,25)           120.3265         estimate D2E/DX2                !
 ! A27   A(20,17,25)           119.6037         estimate D2E/DX2                !
 ! A28   A(15,18,17)           119.81           estimate D2E/DX2                !
 ! A29   A(15,18,23)           120.0957         estimate D2E/DX2                !
 ! A30   A(17,18,23)           120.0944         estimate D2E/DX2                !
 ! A31   A(1,21,2)             120.2623         estimate D2E/DX2                !
 ! A32   A(1,21,22)            120.5244         estimate D2E/DX2                !
 ! A33   A(2,21,22)            119.2133         estimate D2E/DX2                !
 ! A34   A(13,25,17)           120.2621         estimate D2E/DX2                !
 ! A35   A(13,25,26)           119.2122         estimate D2E/DX2                !
 ! A36   A(17,25,26)           120.5256         estimate D2E/DX2                !
 ! A37   L(2,9,10,7,-1)        179.9996         estimate D2E/DX2                !
 ! A38   L(9,10,11,7,-1)       179.999          estimate D2E/DX2                !
 ! A39   L(10,11,12,26,-1)     180.0002         estimate D2E/DX2                !
 ! A40   L(11,12,13,26,-1)     179.9988         estimate D2E/DX2                !
 ! A41   L(2,9,10,7,-2)        180.0017         estimate D2E/DX2                !
 ! A42   L(9,10,11,7,-2)       180.0005         estimate D2E/DX2                !
 ! A43   L(10,11,12,26,-2)     180.0004         estimate D2E/DX2                !
 ! A44   L(11,12,13,26,-2)     179.9979         estimate D2E/DX2                !
 ! D1    D(6,1,5,4)            180.0            estimate D2E/DX2                !
 ! D2    D(6,1,5,24)             0.0001         estimate D2E/DX2                !
 ! D3    D(21,1,5,4)             0.0            estimate D2E/DX2                !
 ! D4    D(21,1,5,24)         -179.9999         estimate D2E/DX2                !
 ! D5    D(5,1,21,2)            -0.0005         estimate D2E/DX2                !
 ! D6    D(5,1,21,22)          179.9998         estimate D2E/DX2                !
 ! D7    D(6,1,21,2)           179.9995         estimate D2E/DX2                !
 ! D8    D(6,1,21,22)           -0.0002         estimate D2E/DX2                !
 ! D9    D(9,2,3,4)           -179.9996         estimate D2E/DX2                !
 ! D10   D(9,2,3,7)              0.0004         estimate D2E/DX2                !
 ! D11   D(21,2,3,4)            -0.0006         estimate D2E/DX2                !
 ! D12   D(21,2,3,7)           179.9994         estimate D2E/DX2                !
 ! D13   D(3,2,13,14)            0.0284         estimate D2E/DX2                !
 ! D14   D(3,2,13,25)         -179.9714         estimate D2E/DX2                !
 ! D15   D(21,2,13,14)        -179.9723         estimate D2E/DX2                !
 ! D16   D(21,2,13,25)           0.0279         estimate D2E/DX2                !
 ! D17   D(3,2,21,1)             0.0008         estimate D2E/DX2                !
 ! D18   D(3,2,21,22)         -179.9995         estimate D2E/DX2                !
 ! D19   D(9,2,21,1)           179.9998         estimate D2E/DX2                !
 ! D20   D(9,2,21,22)           -0.0005         estimate D2E/DX2                !
 ! D21   D(2,3,4,5)              0.0001         estimate D2E/DX2                !
 ! D22   D(2,3,4,8)            179.9997         estimate D2E/DX2                !
 ! D23   D(7,3,4,5)           -179.9999         estimate D2E/DX2                !
 ! D24   D(7,3,4,8)             -0.0003         estimate D2E/DX2                !
 ! D25   D(3,4,5,1)              0.0002         estimate D2E/DX2                !
 ! D26   D(3,4,5,24)          -179.9999         estimate D2E/DX2                !
 ! D27   D(8,4,5,1)           -179.9994         estimate D2E/DX2                !
 ! D28   D(8,4,5,24)             0.0005         estimate D2E/DX2                !
 ! D29   D(12,13,14,15)        179.9998         estimate D2E/DX2                !
 ! D30   D(12,13,14,16)         -0.0006         estimate D2E/DX2                !
 ! D31   D(25,13,14,15)          0.0014         estimate D2E/DX2                !
 ! D32   D(25,13,14,16)       -179.9989         estimate D2E/DX2                !
 ! D33   D(12,13,25,17)       -179.9997         estimate D2E/DX2                !
 ! D34   D(12,13,25,26)          0.0002         estimate D2E/DX2                !
 ! D35   D(14,13,25,17)         -0.0013         estimate D2E/DX2                !
 ! D36   D(14,13,25,26)        179.9985         estimate D2E/DX2                !
 ! D37   D(13,14,15,18)         -0.0005         estimate D2E/DX2                !
 ! D38   D(13,14,15,19)        179.9996         estimate D2E/DX2                !
 ! D39   D(16,14,15,18)        179.9998         estimate D2E/DX2                !
 ! D40   D(16,14,15,19)         -0.0001         estimate D2E/DX2                !
 ! D41   D(14,15,18,17)         -0.0005         estimate D2E/DX2                !
 ! D42   D(14,15,18,23)        179.9999         estimate D2E/DX2                !
 ! D43   D(19,15,18,17)        179.9994         estimate D2E/DX2                !
 ! D44   D(19,15,18,23)         -0.0002         estimate D2E/DX2                !
 ! D45   D(20,17,18,15)       -179.999          estimate D2E/DX2                !
 ! D46   D(20,17,18,23)          0.0006         estimate D2E/DX2                !
 ! D47   D(25,17,18,15)          0.0006         estimate D2E/DX2                !
 ! D48   D(25,17,18,23)       -179.9998         estimate D2E/DX2                !
 ! D49   D(18,17,25,13)          0.0003         estimate D2E/DX2                !
 ! D50   D(18,17,25,26)       -179.9995         estimate D2E/DX2                !
 ! D51   D(20,17,25,13)        179.9999         estimate D2E/DX2                !
 ! D52   D(20,17,25,26)          0.0001         estimate D2E/DX2                !
 --------------------------------------------------------------------------------
 Trust Radius=3.00D-01 FncErr=1.00D-07 GrdErr=1.00D-06 EigMax=2.50D+02 EigMin=1.00D-04
 Number of steps in this run=    133 maximum allowed number of steps=    156.
 GradGradGradGradGradGradGradGradGradGradGradGradGradGradGradGradGradGrad

                          Input orientation:                          
 ---------------------------------------------------------------------
 Center     Atomic      Atomic             Coordinates (Angstroms)
 Number     Number       Type             X           Y           Z
 ---------------------------------------------------------------------
      1          6           0        5.434651   -1.210633   -0.000268
      2          6           0        3.324678   -0.000035   -0.000011
      3          6           0        4.040923    1.216273    0.000296
      4          6           0        5.434594    1.210671    0.000323
      5          6           0        6.136273    0.000033    0.000044
      6          1           0        5.975412   -2.153487   -0.000486
      7          1           0        3.493077    2.154000    0.000511
      8          1           0        5.975314    2.153548    0.000556
      9          6           0        1.902542   -0.000033   -0.000048
     10          6           0        0.680223   -0.000023   -0.000051
     11          6           0       -0.680228    0.000013   -0.000047
     12          6           0       -1.902545    0.000049   -0.000049
     13          6           0       -3.324677    0.000060   -0.000009
     14          6           0       -4.040985    1.216305   -0.000305
     15          6           0       -5.434668    1.210622   -0.000269
     16          1           0       -3.493212    2.154076   -0.000555
     17          6           0       -5.434575   -1.210684    0.000323
     18          6           0       -6.136272   -0.000046    0.000050
     19          1           0       -5.975429    2.153475   -0.000492
     20          1           0       -5.975294   -2.153562    0.000555
     21          6           0        4.040976   -1.216299   -0.000302
     22          1           0        3.493182   -2.154057   -0.000547
     23          1           0       -7.223076   -0.000095    0.000079
     24          1           0        7.223077    0.000056    0.000068
     25          6           0       -4.040912   -1.216268    0.000292
     26          1           0       -3.493043   -2.153982    0.000496
 ---------------------------------------------------------------------
                    Distance matrix (angstroms):
                    1          2          3          4          5
     1  C    0.000000
     2  C    2.432598   0.000000
     3  C    2.798634   1.411528   0.000000
     4  C    2.421304   2.432602   1.393682   0.000000
     5  C    1.399280   2.811595   2.422753   1.399285   0.000000
     6  H    1.086920   3.415223   3.885554   3.407351   2.159520
     7  H    3.884645   2.160608   1.086033   2.158555   3.409701
     8  H    3.407350   3.415229   2.149501   1.086920   2.159522
     9  C    3.733811   1.422136   2.460096   3.733791   4.233731
    10  C    4.906135   2.644455   3.574029   4.906101   5.456050
    11  C    6.233571   4.004906   4.875301   6.233518   6.816501
    12  C    7.436410   5.227223   6.066631   7.436344   8.038818
    13  C    8.842602   6.649355   7.465336   8.842534   9.460950
    14  C    9.781498   7.465419   8.081908   9.475581  10.249678
    15  C   11.135734   8.842615   9.475593  10.869262  11.634097
    16  H    9.540860   7.150092   7.592277   8.977513   9.867466
    17  C   10.869226   8.842521   9.781369  11.135609  11.634017
    18  C   11.634078   9.460950  10.249621  11.634035  12.272545
    19  H   11.895678   9.546182  10.060102  11.448908  12.301652
    20  H   11.448841   9.546055  10.567894  11.895529  12.301546
    21  C    1.393687   1.411517   2.432572   2.798634   2.422753
    22  H    2.158553   2.160603   3.414549   3.884646   3.409697
    23  H   12.715481  10.547754  11.329485  12.715446  13.359349
    24  H    2.159684   3.898399   3.406653   2.159690   1.086804
    25  C    9.475565   7.465329   8.439983   9.781372  10.249609
    26  H    8.977395   7.149882   8.253439   9.540629   9.867295
                    6          7          8          9         10
     6  H    0.000000
     7  H    4.971562   0.000000
     8  H    4.307035   2.482237   0.000000
     9  C    4.607129   2.677622   4.607101   0.000000
    10  C    5.716330   3.542875   5.716280   1.222319   0.000000
    11  C    6.995363   4.696396   6.995281   2.582770   1.360451
    12  C    8.167002   5.809668   8.166898   3.805087   2.582768
    13  C    9.546173   7.149911   9.546064   5.227219   4.004900
    14  C   10.568051   7.592191  10.060053   6.066712   4.875373
    15  C   11.895678   8.977449  11.448878   7.436420   6.233583
    16  H   10.402401   6.986289   9.468526   5.809849   4.696563
    17  C   11.448872   9.540653  11.895530   7.436327   6.233495
    18  C   12.301634   9.867334  12.301564   8.038814   6.816495
    19  H   12.703248   9.468506  11.950743   8.167008   6.995374
    20  H   11.950706  10.402170  12.703079   8.166884   6.995258
    21  C    2.149503   3.414544   3.885554   2.460123   3.574072
    22  H    2.482230   4.308057   4.971563   2.677677   3.542965
    23  H   13.373002  10.930511  13.372946   9.125618   7.903299
    24  H    2.488858   4.307247   2.488863   5.320535   6.542854
    25  C   10.060076   8.253466  10.567897   6.066620   4.875281
    26  H    9.468455   8.207593  10.402144   5.809633   4.696348
                   11         12         13         14         15
    11  C    0.000000
    12  C    1.222317   0.000000
    13  C    2.644449   1.422132   0.000000
    14  C    3.574081   2.460123   1.411506   0.000000
    15  C    4.906147   3.733816   2.432596   1.393695   0.000000
    16  H    3.543002   2.677696   2.160599   1.086034   2.158554
    17  C    4.906078   3.733780   2.432606   2.798637   2.421306
    18  C    5.456044   4.233727   2.811595   2.422754   1.399273
    19  H    5.716341   4.607128   3.415213   2.149503   1.086920
    20  H    5.716258   4.607095   3.415239   3.885557   3.407347
    21  C    4.875365   6.066708   7.465412   8.440122   9.781502
    22  H    4.696527   5.809823   7.150064   8.253667   9.540837
    23  H    6.542848   5.320531   3.898399   3.406660   2.159685
    24  H    7.903305   9.125622  10.547754  11.329535  12.715502
    25  C    3.574008   2.460090   1.411540   2.432573   2.798634
    26  H    3.542827   2.677599   2.160612   3.414539   3.884645
                   16         17         18         19         20
    16  H    0.000000
    17  C    3.884649   0.000000
    18  C    3.409693   1.399294   0.000000
    19  H    2.482217   3.407358   2.159519   0.000000
    20  H    4.971567   1.086920   2.159524   4.307037   0.000000
    21  C    8.253691   9.475553  10.249666  10.568053  10.060026
    22  H    8.207905   8.977461   9.867429  10.402376   9.468476
    23  H    4.307243   2.159690   1.086804   2.488873   2.488851
    24  H   10.930629  12.715425  13.359349  13.373024  13.372923
    25  C    3.414556   1.393674   2.422752   3.885553   2.149501
    26  H    4.308058   2.158555   3.409707   4.971562   2.482251
                   21         22         23         24         25
    21  C    0.000000
    22  H    1.086033   0.000000
    23  H   11.329520  10.930587   0.000000
    24  H    3.406653   4.307240  14.446153   0.000000
    25  C    8.081888   7.592234   3.406647  11.329470   0.000000
    26  H    7.592147   6.986225   4.307247  10.930467   1.086033
                   26
    26  H    0.000000
 Stoichiometry    C16H10
 Framework group  C1[X(C16H10)]
 Deg. of freedom    72
 Full point group                 C1      NOp   1
 Largest Abelian subgroup         C1      NOp   1
 Largest concise Abelian subgroup C1      NOp   1
                         Standard orientation:                         
 ---------------------------------------------------------------------
 Center     Atomic      Atomic             Coordinates (Angstroms)
 Number     Number       Type             X           Y           Z
 ---------------------------------------------------------------------
      1          6           0       -5.434651    1.210633   -0.000268
      2          6           0       -3.324678    0.000035   -0.000011
      3          6           0       -4.040923   -1.216273    0.000296
      4          6           0       -5.434594   -1.210671    0.000323
      5          6           0       -6.136273   -0.000033    0.000044
      6          1           0       -5.975412    2.153487   -0.000486
      7          1           0       -3.493077   -2.154000    0.000511
      8          1           0       -5.975314   -2.153548    0.000556
      9          6           0       -1.902542    0.000033   -0.000048
     10          6           0       -0.680223    0.000023   -0.000051
     11          6           0        0.680228   -0.000013   -0.000047
     12          6           0        1.902545   -0.000049   -0.000049
     13          6           0        3.324677   -0.000060   -0.000009
     14          6           0        4.040985   -1.216305   -0.000305
     15          6           0        5.434668   -1.210622   -0.000269
     16          1           0        3.493212   -2.154076   -0.000555
     17          6           0        5.434575    1.210684    0.000323
     18          6           0        6.136272    0.000046    0.000050
     19          1           0        5.975429   -2.153475   -0.000492
     20          1           0        5.975294    2.153562    0.000555
     21          6           0       -4.040976    1.216299   -0.000302
     22          1           0       -3.493182    2.154057   -0.000547
     23          1           0        7.223076    0.000095    0.000079
     24          1           0       -7.223077   -0.000056    0.000068
     25          6           0        4.040912    1.216268    0.000292
     26          1           0        3.493043    2.153982    0.000496
 ---------------------------------------------------------------------
 Rotational constants (GHZ):           2.8271079           0.1341691           0.1280902
 Standard basis: 6-31+G(d) (6D, 7F)
 There are   324 symmetry adapted cartesian basis functions of A   symmetry.
 There are   324 symmetry adapted basis functions of A   symmetry.
   324 basis functions,   552 primitive gaussians,   324 cartesian basis functions
    53 alpha electrons       53 beta electrons
       nuclear repulsion energy       793.7308344368 Hartrees.
 NAtoms=   26 NActive=   26 NUniq=   26 SFac= 1.00D+00 NAtFMM=   60 NAOKFM=F Big=F
 Integral buffers will be    131072 words long.
 Raffenetti 2 integral format.
 Two-electron integral symmetry is turned on.
 Nuclear repulsion after empirical dispersion term =      793.7157730043 Hartrees.
 One-electron integrals computed using PRISM.
 NBasis=   324 RedAO= T EigKep=  2.23D-06  NBF=   324
 NBsUse=   318 1.00D-06 EigRej=  7.56D-07 NBFU=   318
 ExpMin= 4.38D-02 ExpMax= 3.05D+03 ExpMxC= 4.57D+02 IAcc=3 IRadAn=         5 AccDes= 0.00D+00
 Harris functional with IExCor=  402 and IRadAn=       5 diagonalized for initial guess.
 HarFok:  IExCor=  402 AccDes= 0.00D+00 IRadAn=         5 IDoV= 1 UseB2=F ITyADJ=14
 ICtDFT=  3500011 ScaDFX=  1.000000  1.000000  1.000000  1.000000
 FoFCou: FMM=F IPFlag=           0 FMFlag=      100000 FMFlg1=           0
         NFxFlg=           0 DoJE=T BraDBF=F KetDBF=T FulRan=T
         wScrn=  0.000000 ICntrl=       500 IOpCl=  0 I1Cent=   200000004 NGrid=           0
         NMat0=    1 NMatS0=      1 NMatT0=    0 NMatD0=    1 NMtDS0=    0 NMtDT0=    0
 Petite list used in FoFCou.
 Requested convergence on RMS density matrix=1.00D-08 within 128 cycles.
 Requested convergence on MAX density matrix=1.00D-06.
 Requested convergence on             energy=1.00D-06.
 No special actions if energy rises.
 SCF Done:  E(RB3LYP) =  -615.659652591     A.U. after   14 cycles
            NFock= 14  Conv=0.38D-08     -V/T= 2.0101

 **********************************************************************

            Population analysis using the SCF Density.

 **********************************************************************

 Orbital symmetries:
       Occupied  (A) (A) (A) (A) (A) (A) (A) (A) (A) (A) (A) (A)
                 (A) (A) (A) (A) (A) (A) (A) (A) (A) (A) (A) (A)
                 (A) (A) (A) (A) (A) (A) (A) (A) (A) (A) (A) (A)
                 (A) (A) (A) (A) (A) (A) (A) (A) (A) (A) (A) (A)
                 (A) (A) (A) (A) (A)
       Virtual   (A) (A) (A) (A) (A) (A) (A) (A) (A) (A) (A) (A)
                 (A) (A) (A) (A) (A) (A) (A) (A) (A) (A) (A) (A)
                 (A) (A) (A) (A) (A) (A) (A) (A) (A) (A) (A) (A)
                 (A) (A) (A) (A) (A) (A) (A) (A) (A) (A) (A) (A)
                 (A) (A) (A) (A) (A) (A) (A) (A) (A) (A) (A) (A)
                 (A) (A) (A) (A) (A) (A) (A) (A) (A) (A) (A) (A)
                 (A) (A) (A) (A) (A) (A) (A) (A) (A) (A) (A) (A)
                 (A) (A) (A) (A) (A) (A) (A) (A) (A) (A) (A) (A)
                 (A) (A) (A) (A) (A) (A) (A) (A) (A) (A) (A) (A)
                 (A) (A) (A) (A) (A) (A) (A) (A) (A) (A) (A) (A)
                 (A) (A) (A) (A) (A) (A) (A) (A) (A) (A) (A) (A)
                 (A) (A) (A) (A) (A) (A) (A) (A) (A) (A) (A) (A)
                 (A) (A) (A) (A) (A) (A) (A) (A) (A) (A) (A) (A)
                 (A) (A) (A) (A) (A) (A) (A) (A) (A) (A) (A) (A)
                 (A) (A) (A) (A) (A) (A) (A) (A) (A) (A) (A) (A)
                 (A) (A) (A) (A) (A) (A) (A) (A) (A) (A) (A) (A)
                 (A) (A) (A) (A) (A) (A) (A) (A) (A) (A) (A) (A)
                 (A) (A) (A) (A) (A) (A) (A) (A) (A) (A) (A) (A)
                 (A) (A) (A) (A) (A) (A) (A) (A) (A) (A) (A) (A)
                 (A) (A) (A) (A) (A) (A) (A) (A) (A) (A) (A) (A)
                 (A) (A) (A) (A) (A) (A) (A) (A) (A) (A) (A) (A)
                 (A) (A) (A) (A) (A) (A) (A) (A) (A) (A) (A) (A)
                 (A)
 The electronic state is 1-A.
 Alpha  occ. eigenvalues --  -10.23053 -10.23053 -10.21452 -10.21392 -10.21080
 Alpha  occ. eigenvalues --  -10.21073 -10.21031 -10.21031 -10.21030 -10.21030
 Alpha  occ. eigenvalues --  -10.20866 -10.20866 -10.20767 -10.20766 -10.20752
 Alpha  occ. eigenvalues --  -10.20752  -0.87474  -0.87432  -0.81082  -0.79276
 Alpha  occ. eigenvalues --   -0.76599  -0.76176  -0.76176  -0.72545  -0.65464
 Alpha  occ. eigenvalues --   -0.62989  -0.62059  -0.62055  -0.59181  -0.54903
 Alpha  occ. eigenvalues --   -0.54018  -0.49492  -0.49149  -0.46854  -0.46788
 Alpha  occ. eigenvalues --   -0.44848  -0.44712  -0.43667  -0.43664  -0.39568
 Alpha  occ. eigenvalues --   -0.38995  -0.37274  -0.37212  -0.36635  -0.36264
 Alpha  occ. eigenvalues --   -0.35141  -0.34224  -0.30966  -0.26932  -0.26817
 Alpha  occ. eigenvalues --   -0.26816  -0.25126  -0.21777
 Alpha virt. eigenvalues --   -0.07230  -0.02467  -0.02306  -0.02305  -0.02287
 Alpha virt. eigenvalues --    0.00076   0.00451   0.02125   0.02198   0.02460
 Alpha virt. eigenvalues --    0.03374   0.03912   0.04503   0.04545   0.05467
 Alpha virt. eigenvalues --    0.05471   0.05709   0.06063   0.06694   0.07201
 Alpha virt. eigenvalues --    0.07830   0.08550   0.08735   0.08909   0.09023
 Alpha virt. eigenvalues --    0.09472   0.10999   0.11211   0.11230   0.13016
 Alpha virt. eigenvalues --    0.13530   0.13622   0.13952   0.14401   0.14419
 Alpha virt. eigenvalues --    0.14860   0.14970   0.14998   0.15127   0.15253
 Alpha virt. eigenvalues --    0.15296   0.16103   0.16592   0.17067   0.17113
 Alpha virt. eigenvalues --    0.17181   0.18871   0.18911   0.19068   0.20244
 Alpha virt. eigenvalues --    0.20526   0.20870   0.20975   0.21215   0.22060
 Alpha virt. eigenvalues --    0.22258   0.22476   0.23059   0.23330   0.23934
 Alpha virt. eigenvalues --    0.24190   0.24265   0.24862   0.25593   0.25767
 Alpha virt. eigenvalues --    0.26539   0.26956   0.27600   0.27852   0.27924
 Alpha virt. eigenvalues --    0.28329   0.28530   0.29888   0.31457   0.31946
 Alpha virt. eigenvalues --    0.32415   0.32643   0.34097   0.34155   0.34512
 Alpha virt. eigenvalues --    0.34635   0.35001   0.35486   0.36893   0.37715
 Alpha virt. eigenvalues --    0.42749   0.44306   0.47147   0.49438   0.55566
 Alpha virt. eigenvalues --    0.56134   0.58851   0.59018   0.62855   0.64087
 Alpha virt. eigenvalues --    0.65186   0.66350   0.67710   0.68423   0.68848
 Alpha virt. eigenvalues --    0.70059   0.70778   0.70890   0.70900   0.71177
 Alpha virt. eigenvalues --    0.71453   0.71996   0.72790   0.73499   0.73564
 Alpha virt. eigenvalues --    0.73981   0.74586   0.74759   0.75201   0.76090
 Alpha virt. eigenvalues --    0.76904   0.77921   0.79240   0.80692   0.80769
 Alpha virt. eigenvalues --    0.81270   0.82181   0.83762   0.84805   0.84880
 Alpha virt. eigenvalues --    0.86368   0.87855   0.90573   0.90910   0.91725
 Alpha virt. eigenvalues --    0.92815   0.93705   0.95471   0.95991   0.96262
 Alpha virt. eigenvalues --    0.96999   0.98429   0.99894   1.00062   1.01250
 Alpha virt. eigenvalues --    1.01487   1.07782   1.08169   1.09595   1.10925
 Alpha virt. eigenvalues --    1.11249   1.13034   1.14039   1.14915   1.17391
 Alpha virt. eigenvalues --    1.17972   1.19562   1.20984   1.22800   1.23334
 Alpha virt. eigenvalues --    1.23350   1.24290   1.26274   1.29253   1.30046
 Alpha virt. eigenvalues --    1.30162   1.31664   1.32368   1.41249   1.42397
 Alpha virt. eigenvalues --    1.42706   1.43405   1.43413   1.43797   1.45269
 Alpha virt. eigenvalues --    1.45320   1.46556   1.47554   1.48614   1.48933
 Alpha virt. eigenvalues --    1.49356   1.49491   1.49555   1.58652   1.60259
 Alpha virt. eigenvalues --    1.61447   1.61994   1.66698   1.80147   1.80192
 Alpha virt. eigenvalues --    1.83482   1.84561   1.85989   1.87552   1.88164
 Alpha virt. eigenvalues --    1.88814   1.90060   1.90320   1.93355   1.94632
 Alpha virt. eigenvalues --    1.97982   1.98266   1.98521   2.00086   2.00909
 Alpha virt. eigenvalues --    2.04223   2.06838   2.07009   2.10783   2.12110
 Alpha virt. eigenvalues --    2.13918   2.14048   2.15468   2.16060   2.16201
 Alpha virt. eigenvalues --    2.18697   2.19058   2.19253   2.26074   2.28709
 Alpha virt. eigenvalues --    2.28956   2.29666   2.29752   2.33193   2.36264
 Alpha virt. eigenvalues --    2.37761   2.49555   2.52760   2.57438   2.58655
 Alpha virt. eigenvalues --    2.60879   2.60986   2.62501   2.62948   2.62984
 Alpha virt. eigenvalues --    2.64778   2.67644   2.70076   2.73463   2.73591
 Alpha virt. eigenvalues --    2.74334   2.74861   2.79551   2.84221   2.85864
 Alpha virt. eigenvalues --    2.95250   3.01302   3.12118   3.15955   3.29588
 Alpha virt. eigenvalues --    3.32633   3.38198   3.47691   3.71433   4.18454
 Alpha virt. eigenvalues --    4.22665   4.23191   4.23846   4.24182   4.25520
 Alpha virt. eigenvalues --    4.27821   4.35918   4.38009   4.38315   4.40364
 Alpha virt. eigenvalues --    4.54755   4.60113   4.77081   4.86057   5.57410
          Condensed to atoms (all electrons):
               1          2          3          4          5          6
     1  C    7.838898   0.643175   2.866116  -1.174218   0.580767   0.301030
     2  C    0.643175   9.284874  -1.847543   0.643129   0.088808   0.001335
     3  C    2.866116  -1.847543  19.491460  -4.722979  -0.309578   0.003487
     4  C   -1.174218   0.643129  -4.722979   7.838811   0.580760   0.002072
     5  C    0.580767   0.088808  -0.309578   0.580760   5.392709   0.026614
     6  H    0.301030   0.001335   0.003487   0.002072   0.026614   0.531887
     7  H   -0.006769  -0.018086   0.317343  -0.062844   0.008591   0.000016
     8  H    0.002071   0.001336  -0.035083   0.301032   0.026614  -0.000158
     9  C   -0.265109  -1.105629   0.620677  -0.265194  -0.193643  -0.006235
    10  C   -0.038922   0.093592  -0.047003  -0.038953   0.039895   0.000080
    11  C    0.083065   0.328730  -0.188965   0.083050  -0.020737  -0.000100
    12  C   -0.030096  -0.336906   0.087567  -0.030104   0.002229   0.000001
    13  C    0.006984   0.134726  -0.026106   0.006977  -0.000235   0.000000
    14  C    0.003871  -0.026136   0.032821  -0.005531  -0.000007   0.000000
    15  C   -0.000503   0.006982  -0.005531   0.000960  -0.000005   0.000000
    16  H    0.000000   0.000002   0.000002   0.000000   0.000000   0.000000
    17  C    0.000960   0.006979   0.003870  -0.000503  -0.000005   0.000000
    18  C   -0.000005  -0.000235  -0.000007  -0.000005   0.000002   0.000000
    19  H    0.000000   0.000000   0.000000   0.000000   0.000000   0.000000
    20  H    0.000000   0.000000   0.000000   0.000000   0.000000   0.000000
    21  C   -4.723016  -1.847979  -9.932755   2.866334  -0.309557  -0.035078
    22  H   -0.062854  -0.018078   0.024863  -0.006768   0.008589  -0.004530
    23  H    0.000000   0.000000   0.000000   0.000000   0.000000   0.000000
    24  H   -0.005917   0.001623   0.011600  -0.005917   0.279730  -0.004654
    25  C   -0.005531  -0.026118  -0.026263   0.003871  -0.000007   0.000000
    26  H    0.000000   0.000002   0.000000   0.000000   0.000000   0.000000
               7          8          9         10         11         12
     1  C   -0.006769   0.002071  -0.265109  -0.038922   0.083065  -0.030096
     2  C   -0.018086   0.001336  -1.105629   0.093592   0.328730  -0.336906
     3  C    0.317343  -0.035083   0.620677  -0.047003  -0.188965   0.087567
     4  C   -0.062844   0.301032  -0.265194  -0.038953   0.083050  -0.030104
     5  C    0.008591   0.026614  -0.193643   0.039895  -0.020737   0.002229
     6  H    0.000016  -0.000158  -0.006235   0.000080  -0.000100   0.000001
     7  H    0.524799  -0.004530   0.021950  -0.001538   0.000046   0.000359
     8  H   -0.004530   0.531888  -0.006235   0.000080  -0.000100   0.000001
     9  C    0.021950  -0.006235  10.363259  -0.999902  -1.648829   0.206076
    10  C   -0.001538   0.000080  -0.999902   9.148534  -1.629111  -1.648852
    11  C    0.000046  -0.000100  -1.648829  -1.629111   9.148550  -0.999938
    12  C    0.000359   0.000001   0.206076  -1.648852  -0.999938  10.363323
    13  C    0.000002   0.000000  -0.336907   0.328735   0.093576  -1.105623
    14  C    0.000002   0.000000   0.087544  -0.189069  -0.047382   0.620431
    15  C    0.000000   0.000000  -0.030101   0.083071  -0.038880  -0.265125
    16  H    0.000000   0.000000   0.000359   0.000046  -0.001541   0.021958
    17  C    0.000000   0.000000  -0.030099   0.083045  -0.038996  -0.265179
    18  C    0.000000   0.000000   0.002229  -0.020737   0.039895  -0.193641
    19  H    0.000000   0.000000   0.000001  -0.000100   0.000080  -0.006235
    20  H    0.000000   0.000000   0.000001  -0.000100   0.000080  -0.006235
    21  C    0.024860   0.003490   0.620600  -0.047277  -0.189031   0.087526
    22  H   -0.000140   0.000016   0.021954  -0.001539   0.000046   0.000359
    23  H    0.000000   0.000000   0.000002  -0.000024   0.000335  -0.000662
    24  H   -0.000139  -0.004654  -0.000662   0.000335  -0.000024   0.000002
    25  C    0.000000   0.000000   0.087550  -0.188929  -0.046893   0.620845
    26  H    0.000000   0.000000   0.000359   0.000046  -0.001537   0.021945
              13         14         15         16         17         18
     1  C    0.006984   0.003871  -0.000503   0.000000   0.000960  -0.000005
     2  C    0.134726  -0.026136   0.006982   0.000002   0.006979  -0.000235
     3  C   -0.026106   0.032821  -0.005531   0.000002   0.003870  -0.000007
     4  C    0.006977  -0.005531   0.000960   0.000000  -0.000503  -0.000005
     5  C   -0.000235  -0.000007  -0.000005   0.000000  -0.000005   0.000002
     6  H    0.000000   0.000000   0.000000   0.000000   0.000000   0.000000
     7  H    0.000002   0.000002   0.000000   0.000000   0.000000   0.000000
     8  H    0.000000   0.000000   0.000000   0.000000   0.000000   0.000000
     9  C   -0.336907   0.087544  -0.030101   0.000359  -0.030099   0.002229
    10  C    0.328735  -0.189069   0.083071   0.000046   0.083045  -0.020737
    11  C    0.093576  -0.047382  -0.038880  -0.001541  -0.038996   0.039895
    12  C   -1.105623   0.620431  -0.265125   0.021958  -0.265179  -0.193641
    13  C    9.284872  -1.848489   0.643426  -0.018079   0.642872   0.088807
    14  C   -1.848489  19.494099  -4.724162   0.317356   2.866058  -0.309467
    15  C    0.643426  -4.724162   7.839534  -0.062868  -1.174210   0.580766
    16  H   -0.018079   0.317356  -0.062868   0.524801  -0.006769   0.008587
    17  C    0.642872   2.866058  -1.174210  -0.006769   7.838142   0.580765
    18  C    0.088807  -0.309467   0.580766   0.008587   0.580765   5.392704
    19  H    0.001336  -0.035081   0.301032  -0.004530   0.002073   0.026615
    20  H    0.001336   0.003492   0.002070   0.000016   0.301031   0.026612
    21  C   -0.026148  -0.026266   0.003871   0.000000  -0.005530  -0.000007
    22  H    0.000002   0.000000   0.000000   0.000000   0.000000   0.000000
    23  H    0.001623   0.011594  -0.005916  -0.000139  -0.005918   0.279730
    24  H    0.000000   0.000000   0.000000   0.000000   0.000000   0.000000
    25  C   -1.847017  -9.932690   2.866349   0.024861  -4.721768  -0.309668
    26  H   -0.018085   0.024862  -0.006769  -0.000140  -0.062829   0.008592
              19         20         21         22         23         24
     1  C    0.000000   0.000000  -4.723016  -0.062854   0.000000  -0.005917
     2  C    0.000000   0.000000  -1.847979  -0.018078   0.000000   0.001623
     3  C    0.000000   0.000000  -9.932755   0.024863   0.000000   0.011600
     4  C    0.000000   0.000000   2.866334  -0.006768   0.000000  -0.005917
     5  C    0.000000   0.000000  -0.309557   0.008589   0.000000   0.279730
     6  H    0.000000   0.000000  -0.035078  -0.004530   0.000000  -0.004654
     7  H    0.000000   0.000000   0.024860  -0.000140   0.000000  -0.000139
     8  H    0.000000   0.000000   0.003490   0.000016   0.000000  -0.004654
     9  C    0.000001   0.000001   0.620600   0.021954   0.000002  -0.000662
    10  C   -0.000100  -0.000100  -0.047277  -0.001539  -0.000024   0.000335
    11  C    0.000080   0.000080  -0.189031   0.000046   0.000335  -0.000024
    12  C   -0.006235  -0.006235   0.087526   0.000359  -0.000662   0.000002
    13  C    0.001336   0.001336  -0.026148   0.000002   0.001623   0.000000
    14  C   -0.035081   0.003492  -0.026266   0.000000   0.011594   0.000000
    15  C    0.301032   0.002070   0.003871   0.000000  -0.005916   0.000000
    16  H   -0.004530   0.000016   0.000000   0.000000  -0.000139   0.000000
    17  C    0.002073   0.301031  -0.005530   0.000000  -0.005918   0.000000
    18  C    0.026615   0.026612  -0.000007   0.000000   0.279730   0.000000
    19  H    0.531887  -0.000158   0.000000   0.000000  -0.004654   0.000000
    20  H   -0.000158   0.531887   0.000000   0.000000  -0.004654   0.000000
    21  C    0.000000   0.000000  19.492093   0.317341   0.000000   0.011597
    22  H    0.000000   0.000000   0.317341   0.524801   0.000000  -0.000139
    23  H   -0.004654  -0.004654   0.000000   0.000000   0.534440   0.000000
    24  H    0.000000   0.000000   0.011597  -0.000139   0.000000   0.534440
    25  C    0.003486  -0.035081   0.032821   0.000002   0.011603   0.000000
    26  H    0.000016  -0.004530   0.000002   0.000000  -0.000139   0.000000
              25         26
     1  C   -0.005531   0.000000
     2  C   -0.026118   0.000002
     3  C   -0.026263   0.000000
     4  C    0.003871   0.000000
     5  C   -0.000007   0.000000
     6  H    0.000000   0.000000
     7  H    0.000000   0.000000
     8  H    0.000000   0.000000
     9  C    0.087550   0.000359
    10  C   -0.188929   0.000046
    11  C   -0.046893  -0.001537
    12  C    0.620845   0.021945
    13  C   -1.847017  -0.018085
    14  C   -9.932690   0.024862
    15  C    2.866349  -0.006769
    16  H    0.024861  -0.000140
    17  C   -4.721768  -0.062829
    18  C   -0.309668   0.008592
    19  H    0.003486   0.000016
    20  H   -0.035081  -0.004530
    21  C    0.032821   0.000002
    22  H    0.000002   0.000000
    23  H    0.011603  -0.000139
    24  H    0.000000   0.000000
    25  C   19.489280   0.317327
    26  H    0.317327   0.524799
 Mulliken charges:
               1
     1  C   -0.013998
     2  C   -0.008584
     3  C   -0.317993
     4  C   -0.013980
     5  C   -0.201533
     6  H    0.184232
     7  H    0.196078
     8  H    0.184232
     9  C   -1.144016
    10  C    1.074598
    11  C    1.074611
    12  C   -1.144029
    13  C   -0.008585
    14  C   -0.317849
    15  C   -0.013993
    16  H    0.196076
    17  C   -0.013988
    18  C   -0.201532
    19  H    0.184231
    20  H    0.184232
    21  C   -0.317892
    22  H    0.196077
    23  H    0.182778
    24  H    0.182778
    25  C   -0.318032
    26  H    0.196079
 Sum of Mulliken charges =   0.00000
 Mulliken charges with hydrogens summed into heavy atoms:
               1
     1  C    0.170234
     2  C   -0.008584
     3  C   -0.121914
     4  C    0.170251
     5  C   -0.018754
     9  C   -1.144016
    10  C    1.074598
    11  C    1.074611
    12  C   -1.144029
    13  C   -0.008585
    14  C   -0.121773
    15  C    0.170239
    17  C    0.170244
    18  C   -0.018754
    21  C   -0.121815
    25  C   -0.121953
 Electronic spatial extent (au):  <R**2>=           7818.1901
 Charge=              0.0000 electrons
 Dipole moment (field-independent basis, Debye):
    X=              0.0000    Y=              0.0000    Z=              0.0001  Tot=              0.0001
 Quadrupole moment (field-independent basis, Debye-Ang):
   XX=            -63.4540   YY=            -82.7023   ZZ=           -100.3951
   XY=              0.0000   XZ=              0.0000   YZ=              0.0000
 Traceless Quadrupole moment (field-independent basis, Debye-Ang):
   XX=             18.7298   YY=             -0.5185   ZZ=            -18.2113
   XY=              0.0000   XZ=              0.0000   YZ=              0.0000
 Octapole moment (field-independent basis, Debye-Ang**2):
  XXX=             -0.0002  YYY=             -0.0003  ZZZ=              0.0000  XYY=              0.0000
  XXY=              0.0003  XXZ=              0.0033  XZZ=              0.0000  YZZ=              0.0000
  YYZ=             -0.0001  XYZ=              0.0203
 Hexadecapole moment (field-independent basis, Debye-Ang**3):
 XXXX=          -8859.2286 YYYY=           -572.0838 ZZZZ=           -124.9936 XXXY=              0.0025
 XXXZ=              0.0008 YYYX=             -0.0016 YYYZ=              0.0000 ZZZX=             -0.0001
 ZZZY=              0.0000 XXYY=          -1623.9701 XXZZ=          -1966.1774 YYZZ=           -139.0126
 XXYZ=              0.0002 YYXZ=             -0.0006 ZZXY=             -0.0001
 N-N= 7.937157730043D+02 E-N=-3.011307592071D+03  KE= 6.095338186444D+02
 Evaluate density.
 Using the total density.
 Monte-Carlo method of calculating molar volume:
 based on  0.001 e/bohr**3 density envelope.
 Number of points per bohr**3 =   20 CutOff= 1.00D-04
 Using the SCF density.
 There are       405 points.  Will hold       405 in memory.
 LenV=  4026293700 MDV=  4026531840.
 Box volume = 8314.117 fraction occupied=0.185
 Integrated density= 8.9116873131188441D+01 error=-1.6883126868811559D+01
 Molar volume = 1539.651 bohr**3/mol (137.397 cm**3/mol)
 Recommended a0 for SCRF calculation =  4.67 angstrom (  8.83 bohr)
 Calling FoFJK, ICntrl=      2127 FMM=F ISym2X=0 I1Cent= 0 IOpClX= 0 NMat=1 NMatS=1 NMatT=0.
 ***** Axes restored to original set *****
 -------------------------------------------------------------------
 Center     Atomic                   Forces (Hartrees/Bohr)
 Number     Number              X              Y              Z
 -------------------------------------------------------------------
      1        6           0.000020362   -0.000017025    0.000000083
      2        6           0.000026731    0.000008076   -0.000002592
      3        6          -0.000026554    0.000015518    0.000000323
      4        6           0.000022768    0.000015992   -0.000000334
      5        6          -0.000005754    0.000001116    0.000000010
      6        1          -0.000004005    0.000002367   -0.000000142
      7        1           0.000003383   -0.000005130    0.000000043
      8        1          -0.000003808   -0.000002031    0.000000318
      9        6          -0.000000811   -0.000003497    0.000002125
     10        6           0.000001058    0.000001701   -0.000000127
     11        6           0.000002979   -0.000000864   -0.000002072
     12        6          -0.000000270    0.000004491    0.000003157
     13        6          -0.000029529   -0.000020088   -0.000003757
     14        6           0.000018404    0.000027324    0.000001246
     15        6          -0.000014373    0.000019509    0.000000198
     16        1          -0.000002421   -0.000006304    0.000000102
     17        6          -0.000028806   -0.000011741   -0.000000092
     18        6           0.000006190   -0.000008236   -0.000000382
     19        1           0.000002849   -0.000002389    0.000000015
     20        1           0.000004658    0.000001851    0.000000285
     21        6          -0.000024821   -0.000022062    0.000000890
     22        1           0.000002863    0.000005615    0.000000020
     23        1           0.000003263    0.000000837   -0.000000090
     24        1          -0.000003263    0.000000277   -0.000000038
     25        6           0.000033134   -0.000010294    0.000000419
     26        1          -0.000004226    0.000004988    0.000000391
 -------------------------------------------------------------------
 Cartesian Forces:  Max     0.000033134 RMS     0.000011280

 GradGradGradGradGradGradGradGradGradGradGradGradGradGradGradGradGradGrad
 Berny optimization.
 FormGI is forming the generalized inverse of G from B-inverse, IUseBI=4.
 Internal  Forces:  Max     0.000017474 RMS     0.000005931
 Search for a local minimum.
 Step number   1 out of a maximum of  133
 All quantities printed in internal units (Hartrees-Bohrs-Radians)
 Mixed Optimization -- En-DIIS/RFO-DIIS
 Second derivative matrix not updated -- first step.
 ITU=  0
     Eigenvalues ---    0.00230   0.00945   0.01317   0.01796   0.01884
     Eigenvalues ---    0.01961   0.01965   0.02042   0.02042   0.02062
     Eigenvalues ---    0.02062   0.02098   0.02098   0.02107   0.02107
     Eigenvalues ---    0.02120   0.02120   0.02137   0.02137   0.02142
     Eigenvalues ---    0.02142   0.02426   0.02612   0.03605   0.04285
     Eigenvalues ---    0.04439   0.04439   0.16000   0.16000   0.16000
     Eigenvalues ---    0.16000   0.16000   0.16000   0.16000   0.16000
     Eigenvalues ---    0.16000   0.16000   0.22000   0.22000   0.22000
     Eigenvalues ---    0.22000   0.23472   0.23472   0.25000   0.25000
     Eigenvalues ---    0.35171   0.35171   0.35171   0.35171   0.35185
     Eigenvalues ---    0.35185   0.35275   0.35275   0.35275   0.35275
     Eigenvalues ---    0.40758   0.40758   0.41445   0.41445   0.42140
     Eigenvalues ---    0.42141   0.44500   0.44500   0.44949   0.44949
     Eigenvalues ---    0.45985   0.45985   0.46683   0.46683   0.52856
     Eigenvalues ---    0.94363   0.94364
 RFO step:  Lambda=-1.47576375D-08 EMin= 2.30000000D-03
 Linear search not attempted -- first point.
 Iteration  1 RMS(Cart)=  0.00011131 RMS(Int)=  0.00000000
 Iteration  2 RMS(Cart)=  0.00000001 RMS(Int)=  0.00000000
 Variable       Old X    -DE/DX   Delta X   Delta X   Delta X     New X
                                 (Linear)    (Quad)   (Total)
    R1        2.64426   0.00001   0.00000   0.00003   0.00003   2.64428
    R2        2.05398   0.00000   0.00000  -0.00001  -0.00001   2.05397
    R3        2.63369   0.00001   0.00000   0.00003   0.00003   2.63371
    R4        2.66740   0.00000   0.00000   0.00001   0.00001   2.66741
    R5        2.68745   0.00001   0.00000   0.00002   0.00002   2.68747
    R6        2.66738   0.00001   0.00000   0.00002   0.00002   2.66740
    R7        2.63368   0.00001   0.00000   0.00003   0.00003   2.63371
    R8        2.05230  -0.00001   0.00000  -0.00002  -0.00002   2.05229
    R9        2.64426   0.00001   0.00000   0.00002   0.00002   2.64429
   R10        2.05398   0.00000   0.00000  -0.00001  -0.00001   2.05397
   R11        2.05376   0.00000   0.00000  -0.00001  -0.00001   2.05375
   R12        2.30985   0.00001   0.00000   0.00001   0.00001   2.30986
   R13        2.57088   0.00001   0.00000   0.00002   0.00002   2.57090
   R14        2.30984   0.00001   0.00000   0.00001   0.00001   2.30986
   R15        2.68744   0.00001   0.00000   0.00003   0.00003   2.68747
   R16        2.66736   0.00001   0.00000   0.00003   0.00003   2.66739
   R17        2.66742   0.00000   0.00000  -0.00001  -0.00001   2.66742
   R18        2.63370   0.00001   0.00000   0.00002   0.00002   2.63372
   R19        2.05231  -0.00001   0.00000  -0.00002  -0.00002   2.05229
   R20        2.64424   0.00001   0.00000   0.00003   0.00003   2.64428
   R21        2.05398   0.00000   0.00000  -0.00001  -0.00001   2.05397
   R22        2.64428   0.00001   0.00000   0.00001   0.00001   2.64430
   R23        2.05398   0.00000   0.00000  -0.00001  -0.00001   2.05397
   R24        2.63366   0.00002   0.00000   0.00004   0.00004   2.63370
   R25        2.05376   0.00000   0.00000  -0.00001  -0.00001   2.05375
   R26        2.05231  -0.00001   0.00000  -0.00002  -0.00002   2.05229
   R27        2.05231  -0.00001   0.00000  -0.00002  -0.00002   2.05229
    A1        2.09562   0.00001   0.00000   0.00003   0.00003   2.09565
    A2        2.10010  -0.00001   0.00000  -0.00003  -0.00003   2.10007
    A3        2.08746   0.00000   0.00000   0.00000   0.00000   2.08746
    A4        2.10299   0.00000   0.00000  -0.00002  -0.00002   2.10297
    A5        2.07716   0.00002   0.00000   0.00007   0.00007   2.07723
    A6        2.10304  -0.00001   0.00000  -0.00005  -0.00005   2.10299
    A7        2.09897  -0.00001   0.00000  -0.00003  -0.00003   2.09894
    A8        2.08066   0.00000   0.00000   0.00002   0.00002   2.08068
    A9        2.10356   0.00000   0.00000   0.00001   0.00001   2.10357
   A10        2.10010  -0.00001   0.00000  -0.00003  -0.00003   2.10007
   A11        2.08747   0.00000   0.00000   0.00000   0.00000   2.08747
   A12        2.09562   0.00001   0.00000   0.00003   0.00003   2.09565
   A13        2.09108   0.00001   0.00000   0.00006   0.00006   2.09114
   A14        2.09605  -0.00001   0.00000  -0.00003  -0.00003   2.09603
   A15        2.09606  -0.00001   0.00000  -0.00003  -0.00003   2.09602
   A16        2.10306  -0.00001   0.00000  -0.00006  -0.00006   2.10300
   A17        2.10297   0.00000   0.00000  -0.00001  -0.00001   2.10296
   A18        2.07716   0.00002   0.00000   0.00007   0.00007   2.07723
   A19        2.09897  -0.00001   0.00000  -0.00004  -0.00004   2.09894
   A20        2.08067   0.00000   0.00000   0.00001   0.00001   2.08069
   A21        2.10354   0.00001   0.00000   0.00002   0.00002   2.10356
   A22        2.10010  -0.00001   0.00000  -0.00003  -0.00003   2.10007
   A23        2.08745   0.00000   0.00000   0.00001   0.00001   2.08746
   A24        2.09564   0.00000   0.00000   0.00002   0.00002   2.09566
   A25        2.09561   0.00001   0.00000   0.00003   0.00003   2.09565
   A26        2.10009  -0.00001   0.00000  -0.00003  -0.00003   2.10007
   A27        2.08748   0.00000   0.00000  -0.00001  -0.00001   2.08747
   A28        2.09108   0.00001   0.00000   0.00006   0.00006   2.09114
   A29        2.09606  -0.00001   0.00000  -0.00003  -0.00003   2.09603
   A30        2.09604  -0.00001   0.00000  -0.00002  -0.00002   2.09602
   A31        2.09897  -0.00001   0.00000  -0.00004  -0.00004   2.09894
   A32        2.10355   0.00000   0.00000   0.00002   0.00002   2.10357
   A33        2.08066   0.00000   0.00000   0.00002   0.00002   2.08068
   A34        2.09897  -0.00001   0.00000  -0.00003  -0.00003   2.09894
   A35        2.08065   0.00000   0.00000   0.00002   0.00002   2.08067
   A36        2.10357   0.00000   0.00000   0.00001   0.00001   2.10358
   A37        3.14159   0.00000   0.00000   0.00001   0.00001   3.14159
   A38        3.14157   0.00000   0.00000   0.00008   0.00008   3.14166
   A39        3.14160   0.00000   0.00000   0.00000   0.00000   3.14160
   A40        3.14157   0.00000   0.00000   0.00002   0.00002   3.14159
   A41        3.14162   0.00000   0.00000  -0.00004  -0.00004   3.14158
   A42        3.14160   0.00000   0.00000  -0.00002  -0.00002   3.14158
   A43        3.14160   0.00000   0.00000  -0.00001  -0.00001   3.14159
   A44        3.14156   0.00000   0.00000   0.00012   0.00012   3.14168
    D1        3.14159   0.00000   0.00000   0.00000   0.00000  -3.14159
    D2        0.00000   0.00000   0.00000   0.00000   0.00000   0.00000
    D3        0.00000   0.00000   0.00000   0.00000   0.00000   0.00000
    D4       -3.14159   0.00000   0.00000   0.00000   0.00000   3.14159
    D5       -0.00001   0.00000   0.00000   0.00001   0.00001   0.00000
    D6        3.14159   0.00000   0.00000   0.00000   0.00000  -3.14159
    D7        3.14158   0.00000   0.00000   0.00001   0.00001  -3.14159
    D8        0.00000   0.00000   0.00000   0.00000   0.00000   0.00000
    D9       -3.14159   0.00000   0.00000  -0.00002  -0.00002   3.14158
   D10        0.00001   0.00000   0.00000  -0.00001  -0.00001  -0.00001
   D11       -0.00001   0.00000   0.00000   0.00001   0.00001   0.00000
   D12        3.14158   0.00000   0.00000   0.00002   0.00002  -3.14159
   D13        0.00050   0.00000   0.00000  -0.00003  -0.00003   0.00047
   D14       -3.14109   0.00000   0.00000  -0.00007  -0.00007  -3.14117
   D15       -3.14111   0.00000   0.00000   0.00001   0.00001  -3.14110
   D16        0.00049   0.00000   0.00000  -0.00004  -0.00004   0.00044
   D17        0.00001   0.00000   0.00000  -0.00002  -0.00002   0.00000
   D18       -3.14158   0.00000   0.00000  -0.00001  -0.00001   3.14159
   D19        3.14159   0.00000   0.00000   0.00001   0.00001  -3.14158
   D20       -0.00001   0.00000   0.00000   0.00002   0.00002   0.00001
   D21        0.00000   0.00000   0.00000   0.00000   0.00000   0.00000
   D22        3.14159   0.00000   0.00000   0.00000   0.00000   3.14159
   D23       -3.14159   0.00000   0.00000   0.00000   0.00000   3.14159
   D24       -0.00001   0.00000   0.00000   0.00000   0.00000   0.00000
   D25        0.00000   0.00000   0.00000  -0.00001  -0.00001   0.00000
   D26       -3.14159   0.00000   0.00000   0.00000   0.00000  -3.14159
   D27       -3.14158   0.00000   0.00000  -0.00001  -0.00001   3.14159
   D28        0.00001   0.00000   0.00000  -0.00001  -0.00001   0.00000
   D29        3.14159   0.00000   0.00000   0.00002   0.00002  -3.14158
   D30       -0.00001   0.00000   0.00000   0.00002   0.00002   0.00002
   D31        0.00002   0.00000   0.00000  -0.00003  -0.00003  -0.00001
   D32       -3.14157   0.00000   0.00000  -0.00003  -0.00003   3.14159
   D33       -3.14159   0.00000   0.00000  -0.00002  -0.00002   3.14158
   D34        0.00000   0.00000   0.00000  -0.00002  -0.00002  -0.00001
   D35       -0.00002   0.00000   0.00000   0.00003   0.00003   0.00001
   D36        3.14157   0.00000   0.00000   0.00004   0.00004  -3.14158
   D37       -0.00001   0.00000   0.00000   0.00001   0.00001   0.00000
   D38        3.14159   0.00000   0.00000   0.00001   0.00001  -3.14159
   D39        3.14159   0.00000   0.00000   0.00000   0.00000  -3.14159
   D40        0.00000   0.00000   0.00000   0.00000   0.00000   0.00000
   D41       -0.00001   0.00000   0.00000   0.00001   0.00001   0.00000
   D42        3.14159   0.00000   0.00000   0.00000   0.00000   3.14159
   D43        3.14158   0.00000   0.00000   0.00001   0.00001  -3.14159
   D44        0.00000   0.00000   0.00000   0.00000   0.00000   0.00000
   D45       -3.14158   0.00000   0.00000  -0.00002  -0.00002   3.14159
   D46        0.00001   0.00000   0.00000  -0.00001  -0.00001   0.00000
   D47        0.00001   0.00000   0.00000  -0.00002  -0.00002   0.00000
   D48       -3.14159   0.00000   0.00000   0.00000   0.00000  -3.14159
   D49        0.00001   0.00000   0.00000  -0.00001  -0.00001   0.00000
   D50       -3.14158   0.00000   0.00000  -0.00001  -0.00001   3.14159
   D51        3.14159   0.00000   0.00000   0.00000   0.00000   3.14159
   D52        0.00000   0.00000   0.00000   0.00000   0.00000   0.00000
         Item               Value     Threshold  Converged?
 Maximum Force            0.000017     0.000450     YES
 RMS     Force            0.000006     0.000300     YES
 Maximum Displacement     0.000340     0.001800     YES
 RMS     Displacement     0.000111     0.001200     YES
 Predicted change in Energy=-7.378814D-09
 Optimization completed.
    -- Stationary point found.
                           ----------------------------
                           !   Optimized Parameters   !
                           ! (Angstroms and Degrees)  !
 --------------------------                            --------------------------
 ! Name  Definition              Value          Derivative Info.                !
 --------------------------------------------------------------------------------
 ! R1    R(1,5)                  1.3993         -DE/DX =    0.0                 !
 ! R2    R(1,6)                  1.0869         -DE/DX =    0.0                 !
 ! R3    R(1,21)                 1.3937         -DE/DX =    0.0                 !
 ! R4    R(2,3)                  1.4115         -DE/DX =    0.0                 !
 ! R5    R(2,9)                  1.4221         -DE/DX =    0.0                 !
 ! R6    R(2,21)                 1.4115         -DE/DX =    0.0                 !
 ! R7    R(3,4)                  1.3937         -DE/DX =    0.0                 !
 ! R8    R(3,7)                  1.086          -DE/DX =    0.0                 !
 ! R9    R(4,5)                  1.3993         -DE/DX =    0.0                 !
 ! R10   R(4,8)                  1.0869         -DE/DX =    0.0                 !
 ! R11   R(5,24)                 1.0868         -DE/DX =    0.0                 !
 ! R12   R(9,10)                 1.2223         -DE/DX =    0.0                 !
 ! R13   R(10,11)                1.3605         -DE/DX =    0.0                 !
 ! R14   R(11,12)                1.2223         -DE/DX =    0.0                 !
 ! R15   R(12,13)                1.4221         -DE/DX =    0.0                 !
 ! R16   R(13,14)                1.4115         -DE/DX =    0.0                 !
 ! R17   R(13,25)                1.4115         -DE/DX =    0.0                 !
 ! R18   R(14,15)                1.3937         -DE/DX =    0.0                 !
 ! R19   R(14,16)                1.086          -DE/DX =    0.0                 !
 ! R20   R(15,18)                1.3993         -DE/DX =    0.0                 !
 ! R21   R(15,19)                1.0869         -DE/DX =    0.0                 !
 ! R22   R(17,18)                1.3993         -DE/DX =    0.0                 !
 ! R23   R(17,20)                1.0869         -DE/DX =    0.0                 !
 ! R24   R(17,25)                1.3937         -DE/DX =    0.0                 !
 ! R25   R(18,23)                1.0868         -DE/DX =    0.0                 !
 ! R26   R(21,22)                1.086          -DE/DX =    0.0                 !
 ! R27   R(25,26)                1.086          -DE/DX =    0.0                 !
 ! A1    A(5,1,6)              120.0704         -DE/DX =    0.0                 !
 ! A2    A(5,1,21)             120.3267         -DE/DX =    0.0                 !
 ! A3    A(6,1,21)             119.6029         -DE/DX =    0.0                 !
 ! A4    A(3,2,9)              120.4924         -DE/DX =    0.0                 !
 ! A5    A(3,2,21)             119.0123         -DE/DX =    0.0                 !
 ! A6    A(9,2,21)             120.4953         -DE/DX =    0.0                 !
 ! A7    A(2,3,4)              120.2622         -DE/DX =    0.0                 !
 ! A8    A(2,3,7)              119.2129         -DE/DX =    0.0                 !
 ! A9    A(4,3,7)              120.525          -DE/DX =    0.0                 !
 ! A10   A(3,4,5)              120.3266         -DE/DX =    0.0                 !
 ! A11   A(3,4,8)              119.6031         -DE/DX =    0.0                 !
 ! A12   A(5,4,8)              120.0703         -DE/DX =    0.0                 !
 ! A13   A(1,5,4)              119.8099         -DE/DX =    0.0                 !
 ! A14   A(1,5,24)             120.095          -DE/DX =    0.0                 !
 ! A15   A(4,5,24)             120.0951         -DE/DX =    0.0                 !
 ! A16   A(12,13,14)           120.4964         -DE/DX =    0.0                 !
 ! A17   A(12,13,25)           120.4913         -DE/DX =    0.0                 !
 ! A18   A(14,13,25)           119.0123         -DE/DX =    0.0                 !
 ! A19   A(13,14,15)           120.2623         -DE/DX =    0.0                 !
 ! A20   A(13,14,16)           119.2139         -DE/DX =    0.0                 !
 ! A21   A(15,14,16)           120.5238         -DE/DX =    0.0                 !
 ! A22   A(14,15,18)           120.3267         -DE/DX =    0.0                 !
 ! A23   A(14,15,19)           119.6022         -DE/DX =    0.0                 !
 ! A24   A(18,15,19)           120.0711         -DE/DX =    0.0                 !
 ! A25   A(18,17,20)           120.0697         -DE/DX =    0.0                 !
 ! A26   A(18,17,25)           120.3265         -DE/DX =    0.0                 !
 ! A27   A(20,17,25)           119.6037         -DE/DX =    0.0                 !
 ! A28   A(15,18,17)           119.81           -DE/DX =    0.0                 !
 ! A29   A(15,18,23)           120.0957         -DE/DX =    0.0                 !
 ! A30   A(17,18,23)           120.0944         -DE/DX =    0.0                 !
 ! A31   A(1,21,2)             120.2623         -DE/DX =    0.0                 !
 ! A32   A(1,21,22)            120.5244         -DE/DX =    0.0                 !
 ! A33   A(2,21,22)            119.2133         -DE/DX =    0.0                 !
 ! A34   A(13,25,17)           120.2621         -DE/DX =    0.0                 !
 ! A35   A(13,25,26)           119.2122         -DE/DX =    0.0                 !
 ! A36   A(17,25,26)           120.5256         -DE/DX =    0.0                 !
 ! A37   L(2,9,10,7,-1)        179.9996         -DE/DX =    0.0                 !
 ! A38   L(9,10,11,7,-1)       179.999          -DE/DX =    0.0                 !
 ! A39   L(10,11,12,26,-1)     180.0002         -DE/DX =    0.0                 !
 ! A40   L(11,12,13,26,-1)     179.9988         -DE/DX =    0.0                 !
 ! A41   L(2,9,10,7,-2)        180.0017         -DE/DX =    0.0                 !
 ! A42   L(9,10,11,7,-2)       180.0005         -DE/DX =    0.0                 !
 ! A43   L(10,11,12,26,-2)     180.0004         -DE/DX =    0.0                 !
 ! A44   L(11,12,13,26,-2)     179.9979         -DE/DX =    0.0                 !
 ! D1    D(6,1,5,4)           -180.0            -DE/DX =    0.0                 !
 ! D2    D(6,1,5,24)             0.0001         -DE/DX =    0.0                 !
 ! D3    D(21,1,5,4)             0.0            -DE/DX =    0.0                 !
 ! D4    D(21,1,5,24)          180.0001         -DE/DX =    0.0                 !
 ! D5    D(5,1,21,2)            -0.0005         -DE/DX =    0.0                 !
 ! D6    D(5,1,21,22)         -180.0002         -DE/DX =    0.0                 !
 ! D7    D(6,1,21,2)          -180.0005         -DE/DX =    0.0                 !
 ! D8    D(6,1,21,22)           -0.0002         -DE/DX =    0.0                 !
 ! D9    D(9,2,3,4)            180.0004         -DE/DX =    0.0                 !
 ! D10   D(9,2,3,7)              0.0004         -DE/DX =    0.0                 !
 ! D11   D(21,2,3,4)            -0.0006         -DE/DX =    0.0                 !
 ! D12   D(21,2,3,7)          -180.0006         -DE/DX =    0.0                 !
 ! D13   D(3,2,13,14)            0.0284         -DE/DX =    0.0                 !
 ! D14   D(3,2,13,25)         -179.9714         -DE/DX =    0.0                 !
 ! D15   D(21,2,13,14)        -179.9723         -DE/DX =    0.0                 !
 ! D16   D(21,2,13,25)           0.0279         -DE/DX =    0.0                 !
 ! D17   D(3,2,21,1)             0.0008         -DE/DX =    0.0                 !
 ! D18   D(3,2,21,22)          180.0005         -DE/DX =    0.0                 !
 ! D19   D(9,2,21,1)          -180.0002         -DE/DX =    0.0                 !
 ! D20   D(9,2,21,22)           -0.0005         -DE/DX =    0.0                 !
 ! D21   D(2,3,4,5)              0.0001         -DE/DX =    0.0                 !
 ! D22   D(2,3,4,8)            179.9997         -DE/DX =    0.0                 !
 ! D23   D(7,3,4,5)            180.0001         -DE/DX =    0.0                 !
 ! D24   D(7,3,4,8)             -0.0003         -DE/DX =    0.0                 !
 ! D25   D(3,4,5,1)              0.0002         -DE/DX =    0.0                 !
 ! D26   D(3,4,5,24)          -179.9999         -DE/DX =    0.0                 !
 ! D27   D(8,4,5,1)            180.0006         -DE/DX =    0.0                 !
 ! D28   D(8,4,5,24)             0.0005         -DE/DX =    0.0                 !
 ! D29   D(12,13,14,15)       -180.0002         -DE/DX =    0.0                 !
 ! D30   D(12,13,14,16)         -0.0006         -DE/DX =    0.0                 !
 ! D31   D(25,13,14,15)          0.0014         -DE/DX =    0.0                 !
 ! D32   D(25,13,14,16)        180.0011         -DE/DX =    0.0                 !
 ! D33   D(12,13,25,17)        180.0003         -DE/DX =    0.0                 !
 ! D34   D(12,13,25,26)          0.0002         -DE/DX =    0.0                 !
 ! D35   D(14,13,25,17)         -0.0013         -DE/DX =    0.0                 !
 ! D36   D(14,13,25,26)       -180.0015         -DE/DX =    0.0                 !
 ! D37   D(13,14,15,18)         -0.0005         -DE/DX =    0.0                 !
 ! D38   D(13,14,15,19)       -180.0004         -DE/DX =    0.0                 !
 ! D39   D(16,14,15,18)       -180.0002         -DE/DX =    0.0                 !
 ! D40   D(16,14,15,19)         -0.0001         -DE/DX =    0.0                 !
 ! D41   D(14,15,18,17)         -0.0005         -DE/DX =    0.0                 !
 ! D42   D(14,15,18,23)        179.9999         -DE/DX =    0.0                 !
 ! D43   D(19,15,18,17)       -180.0006         -DE/DX =    0.0                 !
 ! D44   D(19,15,18,23)         -0.0002         -DE/DX =    0.0                 !
 ! D45   D(20,17,18,15)        180.001          -DE/DX =    0.0                 !
 ! D46   D(20,17,18,23)          0.0006         -DE/DX =    0.0                 !
 ! D47   D(25,17,18,15)          0.0006         -DE/DX =    0.0                 !
 ! D48   D(25,17,18,23)       -179.9998         -DE/DX =    0.0                 !
 ! D49   D(18,17,25,13)          0.0003         -DE/DX =    0.0                 !
 ! D50   D(18,17,25,26)        180.0005         -DE/DX =    0.0                 !
 ! D51   D(20,17,25,13)        179.9999         -DE/DX =    0.0                 !
 ! D52   D(20,17,25,26)          0.0001         -DE/DX =    0.0                 !
 --------------------------------------------------------------------------------
 GradGradGradGradGradGradGradGradGradGradGradGradGradGradGradGradGradGrad

                          Input orientation:                          
 ---------------------------------------------------------------------
 Center     Atomic      Atomic             Coordinates (Angstroms)
 Number     Number       Type             X           Y           Z
 ---------------------------------------------------------------------
      1          6           0        5.434651   -1.210633   -0.000268
      2          6           0        3.324678   -0.000035   -0.000011
      3          6           0        4.040923    1.216273    0.000296
      4          6           0        5.434594    1.210671    0.000323
      5          6           0        6.136273    0.000033    0.000044
      6          1           0        5.975412   -2.153487   -0.000486
      7          1           0        3.493077    2.154000    0.000511
      8          1           0        5.975314    2.153548    0.000556
      9          6           0        1.902542   -0.000033   -0.000048
     10          6           0        0.680223   -0.000023   -0.000051
     11          6           0       -0.680228    0.000013   -0.000047
     12          6           0       -1.902545    0.000049   -0.000049
     13          6           0       -3.324677    0.000060   -0.000009
     14          6           0       -4.040985    1.216305   -0.000305
     15          6           0       -5.434668    1.210622   -0.000269
     16          1           0       -3.493212    2.154076   -0.000555
     17          6           0       -5.434575   -1.210684    0.000323
     18          6           0       -6.136272   -0.000046    0.000050
     19          1           0       -5.975429    2.153475   -0.000492
     20          1           0       -5.975294   -2.153562    0.000555
     21          6           0        4.040976   -1.216299   -0.000302
     22          1           0        3.493182   -2.154057   -0.000547
     23          1           0       -7.223076   -0.000095    0.000079
     24          1           0        7.223077    0.000056    0.000068
     25          6           0       -4.040912   -1.216268    0.000292
     26          1           0       -3.493043   -2.153982    0.000496
 ---------------------------------------------------------------------
                    Distance matrix (angstroms):
                    1          2          3          4          5
     1  C    0.000000
     2  C    2.432598   0.000000
     3  C    2.798634   1.411528   0.000000
     4  C    2.421304   2.432602   1.393682   0.000000
     5  C    1.399280   2.811595   2.422753   1.399285   0.000000
     6  H    1.086920   3.415223   3.885554   3.407351   2.159520
     7  H    3.884645   2.160608   1.086033   2.158555   3.409701
     8  H    3.407350   3.415229   2.149501   1.086920   2.159522
     9  C    3.733811   1.422136   2.460096   3.733791   4.233731
    10  C    4.906135   2.644455   3.574029   4.906101   5.456050
    11  C    6.233571   4.004906   4.875301   6.233518   6.816501
    12  C    7.436410   5.227223   6.066631   7.436344   8.038818
    13  C    8.842602   6.649355   7.465336   8.842534   9.460950
    14  C    9.781498   7.465419   8.081908   9.475581  10.249678
    15  C   11.135734   8.842615   9.475593  10.869262  11.634097
    16  H    9.540860   7.150092   7.592277   8.977513   9.867466
    17  C   10.869226   8.842521   9.781369  11.135609  11.634017
    18  C   11.634078   9.460950  10.249621  11.634035  12.272545
    19  H   11.895678   9.546182  10.060102  11.448908  12.301652
    20  H   11.448841   9.546055  10.567894  11.895529  12.301546
    21  C    1.393687   1.411517   2.432572   2.798634   2.422753
    22  H    2.158553   2.160603   3.414549   3.884646   3.409697
    23  H   12.715481  10.547754  11.329485  12.715446  13.359349
    24  H    2.159684   3.898399   3.406653   2.159690   1.086804
    25  C    9.475565   7.465329   8.439983   9.781372  10.249609
    26  H    8.977395   7.149882   8.253439   9.540629   9.867295
                    6          7          8          9         10
     6  H    0.000000
     7  H    4.971562   0.000000
     8  H    4.307035   2.482237   0.000000
     9  C    4.607129   2.677622   4.607101   0.000000
    10  C    5.716330   3.542875   5.716280   1.222319   0.000000
    11  C    6.995363   4.696396   6.995281   2.582770   1.360451
    12  C    8.167002   5.809668   8.166898   3.805087   2.582768
    13  C    9.546173   7.149911   9.546064   5.227219   4.004900
    14  C   10.568051   7.592191  10.060053   6.066712   4.875373
    15  C   11.895678   8.977449  11.448878   7.436420   6.233583
    16  H   10.402401   6.986289   9.468526   5.809849   4.696563
    17  C   11.448872   9.540653  11.895530   7.436327   6.233495
    18  C   12.301634   9.867334  12.301564   8.038814   6.816495
    19  H   12.703248   9.468506  11.950743   8.167008   6.995374
    20  H   11.950706  10.402170  12.703079   8.166884   6.995258
    21  C    2.149503   3.414544   3.885554   2.460123   3.574072
    22  H    2.482230   4.308057   4.971563   2.677677   3.542965
    23  H   13.373002  10.930511  13.372946   9.125618   7.903299
    24  H    2.488858   4.307247   2.488863   5.320535   6.542854
    25  C   10.060076   8.253466  10.567897   6.066620   4.875281
    26  H    9.468455   8.207593  10.402144   5.809633   4.696348
                   11         12         13         14         15
    11  C    0.000000
    12  C    1.222317   0.000000
    13  C    2.644449   1.422132   0.000000
    14  C    3.574081   2.460123   1.411506   0.000000
    15  C    4.906147   3.733816   2.432596   1.393695   0.000000
    16  H    3.543002   2.677696   2.160599   1.086034   2.158554
    17  C    4.906078   3.733780   2.432606   2.798637   2.421306
    18  C    5.456044   4.233727   2.811595   2.422754   1.399273
    19  H    5.716341   4.607128   3.415213   2.149503   1.086920
    20  H    5.716258   4.607095   3.415239   3.885557   3.407347
    21  C    4.875365   6.066708   7.465412   8.440122   9.781502
    22  H    4.696527   5.809823   7.150064   8.253667   9.540837
    23  H    6.542848   5.320531   3.898399   3.406660   2.159685
    24  H    7.903305   9.125622  10.547754  11.329535  12.715502
    25  C    3.574008   2.460090   1.411540   2.432573   2.798634
    26  H    3.542827   2.677599   2.160612   3.414539   3.884645
                   16         17         18         19         20
    16  H    0.000000
    17  C    3.884649   0.000000
    18  C    3.409693   1.399294   0.000000
    19  H    2.482217   3.407358   2.159519   0.000000
    20  H    4.971567   1.086920   2.159524   4.307037   0.000000
    21  C    8.253691   9.475553  10.249666  10.568053  10.060026
    22  H    8.207905   8.977461   9.867429  10.402376   9.468476
    23  H    4.307243   2.159690   1.086804   2.488873   2.488851
    24  H   10.930629  12.715425  13.359349  13.373024  13.372923
    25  C    3.414556   1.393674   2.422752   3.885553   2.149501
    26  H    4.308058   2.158555   3.409707   4.971562   2.482251
                   21         22         23         24         25
    21  C    0.000000
    22  H    1.086033   0.000000
    23  H   11.329520  10.930587   0.000000
    24  H    3.406653   4.307240  14.446153   0.000000
    25  C    8.081888   7.592234   3.406647  11.329470   0.000000
    26  H    7.592147   6.986225   4.307247  10.930467   1.086033
                   26
    26  H    0.000000
 Stoichiometry    C16H10
 Framework group  C1[X(C16H10)]
 Deg. of freedom    72
 Full point group                 C1      NOp   1
 Largest Abelian subgroup         C1      NOp   1
 Largest concise Abelian subgroup C1      NOp   1
[...]
 03393994,0.72059393,0.00000005,-0.00000012,0.00009227,0.00000002,0.000
 00002,-0.00005856,0.00000001,0.,0.00005646,0.00000006,0.00000010,-0.00
 005453,-0.00000006,0.,-0.00000690,0.,0.,0.00000252,0.,-0.00000002,0.00
 001284,0.,0.,-0.00000545,-0.00000006,0.00000029,0.00039703,0.00000004,
 -0.00000084,-0.00086308,0.00000012,0.00000033,-0.00073403,0.00000099,0
 .00000295,0.00821002,0.00000696,-0.00000474,0.00566149,-0.00000566,0.0
 0000175,-0.00619535,0.00000431,0.00001514,0.00753980,-0.00000019,-0.00
 000026,-0.00066478,-0.00002049,-0.00013974,0.13265626,-0.00003708,-0.0
 0009436,-0.00000007,-0.00008298,0.,0.00000002,-0.00000769,0.00014942,-
 0.00000003,-0.00003706,0.00009435,0.00000006,-0.00011302,0.,0.,-0.0000
 2245,0.00001991,0.,0.00001476,0.00000034,-0.00000001,-0.00002245,-0.00
 001991,0.,0.00069846,0.00000005,-0.00000002,-0.00134468,-0.00000009,-0
 .00000004,0.00272953,-0.00000009,0.00000025,-0.00415358,0.00000026,-0.
 00000020,0.00354779,0.00000169,-0.00000021,-0.02773130,-0.02944661,0.0
 0000831,-0.18019009,-0.12029653,0.00003296,-0.00550827,0.00065353,0.00
 000015,-0.18019109,0.12028262,-0.00002603,0.74076194,0.00000108,0.0000
 0052,0.,-0.00000005,-0.00000198,0.,-0.00000198,0.00000121,0.,-0.000001
 09,0.00000050,0.,0.00000002,-0.00000116,0.,0.00000048,-0.00000025,0.,0
 .00000021,-0.00000042,0.,-0.00000048,-0.00000025,0.,0.00000010,-0.0000
 1902,0.,-0.00000014,0.00001237,0.00000001,0.00000027,0.00075892,-0.000
 00001,-0.00000021,-0.00131939,-0.00000028,0.00000294,-0.06438633,0.000
 01436,-0.07556162,0.03233295,-0.00000445,-0.05520752,-0.28265158,0.000
 05681,0.00169379,0.00154502,0.00000131,0.05519302,-0.28260438,0.000050
 96,0.00002704,0.66015833,-0.00000001,0.00000002,-0.00000690,0.,0.,0.00
 000141,0.,-0.00000001,0.00000782,-0.00000001,0.,-0.00000691,0.,0.,0.00
 000347,0.,0.,-0.00000066,0.,0.,0.00000002,0.,0.,-0.00000066,-0.0000000
 3,-0.00000003,-0.00007111,0.00000006,0.00000006,0.00009699,-0.00000012
 ,-0.00000013,0.00056209,0.00000017,-0.00000011,-0.00208286,-0.00000035
 ,0.00001429,-0.00588753,0.00001941,-0.00000537,0.00715933,0.00001686,0
 .00005807,-0.06193553,-0.00000010,0.00000149,0.00731790,-0.00001020,0.
 00004982,-0.06193868,-0.00001671,-0.00012902,0.13221360,-0.00000156,-0
 .00000065,0.,0.00007491,0.00000590,0.,-0.00004207,0.00002514,0.0000000
 1,-0.00000031,-0.00000081,0.,-0.00002245,0.00000048,0.,-0.00000804,0.0
 0000415,0.,0.00000784,0.00000385,0.,-0.00000975,-0.00000477,0.,-0.0000
 5478,-0.00000875,0.00000005,0.00004041,-0.00009128,-0.00000004,-0.0003
 8335,0.00003186,0.00000004,-0.00034733,0.00124791,-0.00000032,-0.00502
 347,-0.00147552,0.00000072,-0.01123126,0.02929695,-0.00000705,-0.12902
 183,0.12042825,-0.00002780,0.00061084,-0.00036633,-0.00000003,-0.00119
 323,-0.00312284,0.00000096,0.01228734,-0.01526043,0.00000358,0.1337537
 5,-0.00000028,0.00000965,0.,-0.00003873,-0.00000135,0.00000001,0.00001
 921,-0.00001103,0.,0.00000095,-0.00000756,0.,0.00001991,-0.00000025,0.
 ,0.00000415,-0.00000357,0.,-0.00000414,-0.00000150,0.,0.00000477,0.000
 00397,0.,-0.00000008,-0.00000464,-0.00000004,0.00002673,0.00000400,0.0
 0000002,-0.00006340,-0.00003496,-0.00000001,0.00000196,0.00006446,0.00
 000008,-0.00099693,0.00185371,0.00000137,-0.00191281,0.00395578,-0.000
 00017,0.12046899,-0.27003796,0.00005558,0.00033182,0.00084742,-0.00000
 126,-0.00423212,-0.00297296,0.00000258,0.01610444,-0.01868708,0.000005
 06,-0.12942601,0.28512028,0.,0.,-0.00000545,-0.00000001,0.,-0.00000238
 ,0.,0.00000001,-0.00000170,0.,0.,0.00000253,0.,0.,-0.00000066,0.,0.,0.
 00000122,0.,0.,0.00000212,0.,0.,0.00000115,0.00000002,0.,0.00002212,-0
 .00000003,0.,-0.00005929,0.00000005,-0.00000003,-0.00013907,-0.0000000
 2,0.00000008,0.00046506,0.00000056,0.00000118,0.00723467,0.00000056,-0
 .00000084,0.00314500,-0.00002761,0.00005571,-0.03668644,-0.00000019,-0
 .00000127,-0.00415709,0.00000122,0.00000259,0.00688807,-0.00000436,0.0
 0000564,0.00317722,0.00002976,-0.00006186,0.02557247,-0.00000031,0.000
 00081,0.,0.00007491,-0.00000590,0.,-0.00004077,0.00002028,0.,-0.000001
 56,0.00000065,0.,-0.00002245,-0.00000048,0.,-0.00000975,0.00000477,0.,
 0.00000792,0.00000584,0.,-0.00000804,-0.00000415,0.,-0.00005477,0.0000
 0877,0.,0.00004041,0.00009123,-0.00000002,-0.00038334,-0.00003173,0.,-
 0.00034727,-0.00124802,0.00000029,-0.00502332,0.00147515,-0.00000004,-
 0.00073766,0.00083698,-0.00000020,-0.00119377,0.00312303,-0.00000059,0
 .00010661,-0.00009474,0.,-0.12901052,-0.12042134,0.00003027,0.01228719
 ,0.01526243,-0.00000381,0.00046744,0.00084341,-0.00000024,0.13374088,-
 0.00000095,-0.00000757,0.,0.00003874,-0.00000135,-0.00000002,-0.000016
 57,0.00000824,0.,0.00000028,0.00000965,0.,-0.00001991,-0.00000025,0.,-
 0.00000477,0.00000397,0.,0.00000412,0.00000225,0.,-0.00000415,-0.00000
 357,0.,0.00000009,-0.00000465,0.00000007,-0.00002674,0.00000402,-0.000
 00007,0.00006340,-0.00003497,0.,-0.00000207,0.00006437,0.00000010,0.00
 099657,0.00185398,0.00000123,0.00083831,0.00021836,-0.00000024,0.00423
 230,-0.00297272,0.00000221,-0.00010182,0.00000033,-0.00000026,-0.12046
 139,-0.27004764,0.00005720,-0.01610259,-0.01868729,0.00000553,-0.00084
 332,-0.00104429,0.00000035,0.12941811,0.28513133,0.,0.,0.00000252,0.,0
 .,-0.00000238,0.,0.,-0.00000099,0.,0.,-0.00000545,0.,0.,-0.00000066,0.
 ,0.,0.00000115,0.,0.,0.00000256,0.,0.,0.00000122,-0.00000002,0.0000000
 1,0.00002211,0.00000002,-0.00000006,-0.00005928,-0.00000002,0.00000004
 ,-0.00013907,0.00000003,0.00000008,0.00046499,0.00000005,0.00000147,0.
 00723545,-0.00000002,-0.00000030,-0.00065417,-0.00000088,0.00000222,0.
 00688741,0.,-0.00000029,-0.00113453,0.00003043,0.00005689,-0.03668683,
 0.00000352,0.00000513,0.00317701,0.00000018,0.00000026,0.00020005,-0.0
 0003267,-0.00006361,0.02557269,-0.34461939,0.03117859,0.00000086,-0.15
 237606,0.05066503,0.00001121,0.05930448,0.01889104,0.00000573,-0.04867
 543,0.02776324,0.00000581,-0.02773230,-0.07556086,-0.00001932,-0.01123
 083,-0.00191260,-0.00000065,-0.00153113,-0.00420246,-0.00000119,-0.000
 73763,0.00083832,0.00000014,-0.04327785,0.02976220,0.00000640,0.008573
 86,0.00130653,0.00000013,-0.00453970,-0.00125787,0.00000029,0.00223143
 ,-0.00007583,-0.00000058,-0.00056820,0.00009057,0.00000018,0.00002858,
 -0.00031099,0.00000006,-0.00013661,-0.00004536,-0.00000005,0.00003660,
 -0.00002019,0.00000002,-0.00013829,0.00004681,0.,-0.00000767,0.0000020
 1,0.00000001,-0.00004076,0.00001656,0.,-0.00004206,-0.00001921,0.,0.69
 588238,-0.03183363,-0.12998404,-0.00001772,0.09526213,-0.26340202,-0.0
 0004838,-0.01888593,-0.05310206,-0.00001579,0.02607041,-0.01613187,-0.
 00000185,-0.02944607,0.03233403,0.00000546,0.02929698,0.00395561,0.000
 00082,-0.00299344,-0.00277163,-0.00000219,0.00083702,0.00021833,0.0000
 0026,0.02160354,0.00607030,0.00000163,-0.01205724,-0.00190291,-0.00000
 142,0.00450563,-0.00014418,0.00000046,-0.00260732,-0.00001469,-0.00000
 045,0.00103268,0.00003021,0.00000019,-0.00031099,0.00016465,0.00000005
 ,0.00010749,0.00004938,-0.00000006,0.00001803,-0.00002136,0.,0.0001129
 3,-0.00006341,0.00000002,-0.00014943,0.00000120,0.,-0.00002028,0.00000
 824,0.,-0.00002515,-0.00001104,0.00000001,0.04686118,0.70042891,-0.000
 01443,-0.00001656,-0.06113351,0.00002219,-0.00004926,-0.06348854,-0.00
 000363,-0.00001482,0.00892237,0.00000558,-0.00000183,-0.00619529,-0.00
 000808,0.00000460,0.00715932,0.00000692,0.00000016,0.00314507,-0.00000
 088,-0.00000218,0.00600868,0.00000020,0.00000024,-0.00065417,0.0000041
 0,0.00000175,0.00111463,-0.00000265,-0.00000096,0.00228601,0.00000079,
 0.00000003,0.00052290,-0.00000030,-0.00000007,-0.00051387,0.,0.0000000
 2,0.00011409,-0.00000005,-0.00000005,0.00001997,-0.00000002,0.00000003
 ,0.00005647,0.00000001,-0.00000002,-0.00001559,-0.00000003,-0.00000004
 ,-0.00008437,0.00000002,0.,0.00000780,-0.00000002,0.,-0.00000099,-0.00
 000001,0.,-0.00000170,0.00002404,0.00014279,0.13218104,-0.01033625,-0.
 02874377,-0.00000742,0.01061220,0.01575214,0.00000402,-0.00153141,0.00
 299354,0.00000060,-0.00055224,0.00074470,0.00000018,-0.00550814,0.0016
 9392,0.00000012,0.00061087,0.00033185,0.00000019,0.00059688,0.00082275
 ,0.00000019,0.00010661,-0.00010182,0.,0.00108220,0.00092573,0.00000037
 ,0.00003922,-0.00000528,-0.00000001,-0.00010166,-0.00012191,-0.0000000
 8,0.00005755,0.00003622,0.00000008,-0.00006573,-0.00000089,-0.00000002
 ,0.00003660,0.00001803,-0.00000001,0.00000271,-0.00000533,0.00000001,-
 0.00000678,0.00000421,0.,0.00000367,0.00000149,0.,0.00001476,-0.000000
 21,0.,0.00000792,-0.00000412,0.,0.00000785,0.00000414,0.,-0.13112783,-
 0.12390426,-0.00003282,0.13666163,0.00238062,0.00461387,0.00000032,-0.
 01526661,-0.01893297,-0.00000581,0.00420253,-0.00277121,-0.00000212,0.
 00075450,0.00026501,0.00000025,0.00065365,0.00154500,-0.00000145,-0.00
 036635,0.00084739,0.00000124,-0.00082268,-0.00099549,-0.00000036,-0.00
 009473,0.00000033,0.00000028,-0.00124906,0.00045384,0.00000104,0.00086
 194,0.00001879,-0.00000005,-0.00006912,0.00009579,-0.00000003,0.000052
 83,-0.00003435,0.00000003,0.00001631,0.00000178,-0.00000002,-0.0000202
 0,-0.00002136,0.00000002,-0.00000400,0.00000921,-0.00000001,0.00000421
 ,-0.00000207,0.,-0.00000314,-0.00000219,0.00000002,-0.00000034,-0.0000
 0043,0.,-0.00000583,0.00000225,0.,-0.00000385,-0.00000150,0.,-0.122244
 39,-0.27078981,-0.00006099,0.13101366,0.28557230,0.00000029,-0.0000004
 1,0.00359843,-0.00000367,-0.00000537,0.00330055,0.00000099,-0.00000206
 ,0.00600895,0.00000018,0.00000029,-0.00066480,-0.00000015,-0.00000137,
 0.00731818,0.00000003,0.00000123,-0.00415729,-0.00000021,-0.00000034,0
 .00042563,0.,0.00000027,-0.00113452,-0.00000019,0.00000101,-0.00362041
 ,0.00000020,-0.00000003,0.00013668,0.,0.,0.00011808,0.,0.,0.00000531,0
 .00000001,0.,-0.00001615,-0.00000002,-0.00000001,-0.00001559,0.,0.0000
 0002,0.00001283,0.,0.,-0.00000054,0.,-0.00000002,-0.00002061,0.0000000
 1,0.,0.00000002,0.,0.,0.00000256,0.,0.,0.00000212,-0.00003248,-0.00006
 081,-0.03648092,0.00003497,0.00006765,0.02503594,0.00000057,-0.0000057
 5,0.,0.00005325,0.,0.,-0.00002425,0.00000994,0.,0.00000057,0.00000575,
 0.,-0.00001928,0.,0.,-0.00000554,0.00000417,0.,0.00000570,0.00000345,0
 .,-0.00000554,-0.00000417,0.,-0.00002969,0.,0.00000003,0.00004336,0.,-
 0.00000004,-0.00009088,0.,0.00000003,0.00012658,0.,-0.00000005,0.00073
 615,0.00000004,-0.00000001,0.00067358,-0.00315365,0.00000095,-0.011274
 14,0.00255776,-0.00000026,-0.00064065,0.00021811,-0.00000004,-0.011276
 20,-0.00255905,0.00000098,-0.33962728,-0.00001240,0.00000807,0.0007661
 8,-0.00043190,-0.00000002,0.00076618,0.00043190,-0.00000023,-0.0000242
 5,-0.00000994,0.,0.00000570,-0.00000344,0.,0.35981269,-0.00000058,0.00
 000131,0.,0.,0.00000012,0.,0.00000114,-0.00000201,0.,0.00000058,0.0000
 0131,0.,0.,-0.00000008,0.,-0.00000022,-0.00000004,0.,0.00000059,0.0000
 0066,0.,0.00000022,-0.00000004,0.,0.,-0.00000047,0.,0.,-0.00001815,0.0
 0000005,0.,0.00005495,-0.00000007,-0.00000002,0.00015288,-0.00000025,0
 .00000005,-0.00121058,0.00000008,-0.00210383,-0.00479712,0.00000297,-0
 .02875777,0.00493278,0.00000032,-0.00143655,0.00011035,0.00000004,0.02
 875661,0.00493453,-0.00000109,-0.00001256,-0.06033594,0.00000587,0.000
 32492,0.00071887,-0.00000115,-0.00032484,0.00071884,-0.00000110,-0.000
 00114,-0.00000201,0.,-0.00000059,0.00000066,0.,0.00001318,0.05942547,0
 .,0.,-0.00000050,0.,0.,0.00000120,0.,0.,-0.00000189,0.,0.,-0.00000050,
 0.,0.,-0.00000041,0.,0.,0.00000085,0.,0.,0.00000159,0.,0.,0.00000085,0
 .,0.,-0.00000971,0.,0.,0.00007910,0.,0.,-0.00002076,0.,-0.00000029,-0.
 00096588,-0.00000007,0.00000005,-0.00090116,0.00000065,0.00000304,0.00
 699839,0.00000748,-0.00000042,0.00333012,0.00000037,0.,0.00011803,-0.0
 0000667,-0.00000027,0.00332992,0.00000801,0.00000576,-0.03627124,-0.00
 000018,-0.00000114,-0.00387335,-0.00000001,-0.00000108,-0.00387282,0.,
 0.,-0.00000188,0.,0.,0.00000159,-0.00000891,-0.00000842,0.02494217,-0.
 01127472,0.00255804,0.00000030,0.00073615,0.00000002,0.00000002,0.0006
 7320,0.00315403,0.00000062,-0.01127566,-0.00255878,-0.00000094,-0.3396
 2724,-0.00000603,-0.00000667,0.00076619,-0.00043190,0.,-0.00064071,-0.
 00021817,-0.00000007,0.00076617,0.00043190,0.00000020,0.00012657,0.,0.
 00000003,-0.00009088,0.,-0.00000003,0.00004336,0.,0.00000005,-0.000029
 69,0.,-0.00000005,0.00005325,0.,0.00000002,-0.00002424,-0.00000994,0.,
 0.00000057,-0.00000575,0.,0.00000570,-0.00000344,0.,0.00000057,0.00000
 575,0.,-0.00001928,0.,0.,-0.00000554,0.00000417,0.,-0.00000554,-0.0000
 0417,0.,0.00067343,-0.00315379,-0.00000090,-0.00064067,0.00021812,0.00
 000003,-0.00000511,0.,0.,0.35981268,-0.02875767,0.00493303,-0.00000023
 ,0.00000004,-0.00121059,-0.00000008,0.00210421,-0.00479694,-0.00000280
 ,0.02875674,0.00493428,0.00000100,-0.00000584,-0.06033597,-0.00000584,
 0.00032486,0.00071885,0.00000114,0.00143650,0.00011045,0.00000002,-0.0
 0032489,0.00071887,0.00000111,-0.00000001,0.00015288,0.00000024,0.,0.0
 0005495,0.00000007,0.,-0.00001815,-0.00000005,0.,-0.00000047,0.,0.,0.0
 0000012,0.,-0.00000114,-0.00000201,0.,-0.00000058,0.00000131,0.,-0.000
 00059,0.00000066,0.,0.00000058,0.00000131,0.,0.,-0.00000008,0.,-0.0000
 0022,-0.00000004,0.,0.00000022,-0.00000004,0.,-0.00210395,-0.00479711,
 -0.00000293,-0.00143654,0.00011038,-0.00000004,0.,0.00000016,0.,0.0000
 0655,0.05942549,-0.00000739,0.00000038,0.00333011,0.00000004,-0.000000
 02,-0.00090116,0.00000032,-0.00000281,0.00699797,0.00000680,0.00000024
 ,0.00332995,-0.00000668,-0.00000568,-0.03627129,0.00000018,0.00000111,
 -0.00387315,0.00000033,0.,0.00011803,0.,0.00000110,-0.00387303,0.00000
 001,0.00000029,-0.00096588,0.,0.,-0.00002076,0.,0.,0.00007910,0.,0.,-0
 .00000971,0.,0.,0.00000120,0.,0.,-0.00000188,0.,0.,-0.00000050,0.,0.,0
 .00000159,0.,0.,-0.00000050,0.,0.,-0.00000041,0.,0.,0.00000085,0.,0.,0
 .00000085,-0.00000062,-0.00000297,0.00699812,-0.00000036,0.,0.00011803
 ,0.,0.,0.00000058,0.00000738,0.00000840,0.02494220,-0.00013829,-0.0000
 4683,0.00000002,-0.00056802,-0.00009060,-0.00000005,0.00002845,0.00031
 097,0.00000003,-0.00013658,0.00004533,-0.00000002,-0.00000770,-0.00000
 199,0.,-0.00004207,0.00001921,0.,0.00003661,0.00002021,0.00000002,-0.0
 0004077,-0.00001657,0.,0.00223108,0.00007583,0.00000016,-0.00453906,0.
 00125814,-0.00000044,0.00857265,-0.00130666,0.00000046,-0.04327716,-0.
 02976466,0.00000792,-0.15235610,-0.05063583,0.00001376,0.05930442,-0.0
 1888468,0.00000346,-0.04867220,-0.02776508,0.00000790,-0.00153147,0.00
 420255,-0.00000099,-0.34464929,-0.03119065,0.00001415,-0.02773795,0.07
 555714,-0.00001756,-0.00073750,-0.00083838,0.00000037,-0.01122915,0.00
 191159,-0.00000036,0.00004058,-0.00032056,-0.00000005,0.00003464,-0.00
 001222,0.,0.00067304,0.00210433,-0.00000032,-0.00002425,0.00000114,0.,
 0.69591344,-0.00011292,-0.00006342,-0.00000006,-0.00103263,0.00003024,
 0.00000019,0.00031098,0.00016463,0.,-0.00010748,0.00004939,0.00000001,
 0.00014941,0.00000120,0.00000001,0.00002514,-0.00001103,-0.00000001,-0
 .00001803,-0.00002136,-0.00000001,0.00002028,0.00000824,0.,0.00260729,
 -0.00001473,-0.00000060,-0.00450568,-0.00014410,0.00000061,0.01205739,
 -0.00190331,0.00000084,-0.02160697,0.00606828,-0.00000078,-0.09523235,
 -0.26337353,0.00004874,0.01889222,-0.05310200,0.00001466,-0.02607217,-
 0.01613511,0.00000314,0.00299355,-0.00277100,0.00000210,0.03182046,-0.
 12998322,0.00001563,0.02944297,0.03233972,-0.00000684,-0.00083711,0.00
 021820,-0.00000015,-0.02929790,0.00395418,0.00000041,0.00032055,-0.000
 12978,0.00000007,-0.00001000,0.00000707,0.,0.00315417,-0.00479695,0.00
 000275,0.00000994,-0.00000201,0.,-0.04688768,0.70038125,-0.00000006,0.
 00000009,-0.00008437,0.,-0.00000002,0.00011404,-0.00000002,0.,0.000019
 97,-0.00000007,-0.00000006,0.00005647,0.00000003,0.,0.00000781,-0.0000
 0001,0.,-0.00000170,0.,0.00000002,-0.00001559,0.,0.,-0.00000099,-0.000
 00034,-0.00000034,-0.00051373,0.00000092,0.00000081,0.00052281,-0.0000
 0275,0.00000048,0.00228582,0.00000599,-0.00000035,0.00111574,0.0000248
 3,0.00004741,-0.06349321,-0.00000594,0.00001588,0.00892236,0.00000712,
 0.00000307,-0.00619531,-0.00000059,0.00000216,0.00600920,-0.00000106,0
 .00001687,-0.06113155,-0.00000605,-0.00000773,0.00715920,0.00000020,-0
 .00000020,-0.00065418,0.00000721,-0.00000024,0.00314534,0.,-0.00000004
 ,0.00002235,0.,-0.00000001,0.00001200,-0.00000057,0.00000276,0.0069976
 9,0.,0.,-0.00000189,-0.00000224,-0.00013193,0.13218233,0.00000367,-0.0
 0000149,-0.00000001,-0.00006573,0.00000091,0.,0.00003661,-0.00001803,0
 .,0.00000271,0.00000533,0.,0.00001476,0.00000021,0.,0.00000785,-0.0000
 0414,0.,-0.00000678,-0.00000421,0.,0.00000792,0.00000412,0.,0.00005756
 ,-0.00003625,0.00000002,-0.00010169,0.00012192,-0.00000004,0.00003934,
 0.00000530,0.00000003,0.00108203,-0.00092629,0.00000007,0.01061166,-0.
 01575030,0.00000354,-0.00153108,-0.00299341,0.00000090,-0.00055214,-0.
 00074469,0.00000017,0.00059688,-0.00082266,0.00000024,-0.01033757,0.02
 874240,-0.00000642,-0.00550783,-0.00169441,0.00000073,0.00010659,0.000
 10184,-0.00000005,0.00061089,-0.00033190,-0.00000004,0.00003464,0.0000
 1001,0.00000001,-0.00001030,0.00000762,0.,-0.00064073,0.00143650,-0.00
 000033,0.00000570,0.00000059,0.,-0.13114735,0.12391657,-0.00002660,0.1
 3668240,0.00000314,-0.00000219,-0.00000002,-0.00001634,0.00000179,-0.0
 0000004,0.00002021,-0.00002136,-0.00000002,0.00000400,0.00000922,0.000
 00002,0.00000034,-0.00000042,0.,0.00000385,-0.00000150,0.,-0.00000421,
 -0.00000207,0.,0.00000584,0.00000225,0.,-0.00005281,-0.00003437,0.0000
 0011,0.00006907,0.00009581,-0.00000010,-0.00086190,0.00001896,0.000000
 03,0.00124918,0.00045348,-0.00000089,0.01526830,-0.01893271,0.00000490
 ,-0.00420245,-0.00277182,0.00000210,-0.00075457,0.00026494,-0.00000019
 ,0.00082277,-0.00099549,0.00000035,-0.00238170,0.00461584,-0.00000018,
 -0.00065413,0.00154486,0.00000132,0.00009473,0.00000035,-0.00000026,0.
 00036641,0.00084734,-0.00000116,0.00001223,0.00000708,0.00000001,-0.00
 000763,0.00000767,0.,-0.00021818,0.00011047,0.,0.00000345,0.00000066,0
 .,0.12225594,-0.27077086,0.00005137,-0.13102556,0.28555208,0.,0.000000
 02,-0.00002061,0.00000002,0.,-0.00001615,-0.00000002,0.00000001,-0.000
 01560,0.,-0.00000002,0.00001284,0.,0.,0.00000002,0.,0.,0.00000212,0.,0
 .,-0.00000054,0.,0.,0.00000256,0.,0.,0.00000531,0.00000001,0.00000002,
 0.00011806,0.00000017,0.00000003,0.00013663,-0.00000041,-0.00000098,-0
 .00361988,-0.00000365,0.00000566,0.00330015,0.00000116,0.00000217,0.00
 600842,0.00000008,-0.00000023,-0.00066484,-0.00000018,0.00000035,0.000
 42563,0.00000098,-0.00000093,0.00359854,0.00000041,0.00000152,0.007318
 61,-0.00000005,-0.00000029,-0.00113447,-0.00000019,-0.00000116,-0.0041
 5759,-0.00000001,0.,0.00001201,0.,0.,0.00001390,0.00000007,-0.00000002
 ,0.00011803,0.,0.,0.00000159,-0.00002619,0.00005123,-0.03648063,0.0000
 2780,-0.00005737,0.02503589\\-0.00002036,0.00001703,-0.00000008,-0.000
 02673,-0.00000808,0.00000259,0.00002655,-0.00001551,-0.00000032,-0.000
 02277,-0.00001600,0.00000033,0.00000575,-0.00000112,0.,0.00000401,-0.0
 0000237,0.00000014,-0.00000338,0.00000513,-0.00000004,0.00000381,0.000
 00203,-0.00000032,0.00000082,0.00000350,-0.00000213,-0.00000109,-0.000
 00170,0.00000013,-0.00000295,0.00000086,0.00000207,0.00000026,-0.00000
 449,-0.00000316,0.00002953,0.00002009,0.00000376,-0.00001840,-0.000027
 32,-0.00000125,0.00001438,-0.00001951,-0.00000020,0.00000242,0.0000063
 0,-0.00000010,0.00002881,0.00001175,0.00000009,-0.00000619,0.00000824,
 0.00000038,-0.00000285,0.00000239,-0.00000001,-0.00000466,-0.00000185,
 -0.00000028,0.00002482,0.00002206,-0.00000089,-0.00000286,-0.00000561,
 -0.00000002,-0.00000326,-0.00000084,0.00000009,0.00000326,-0.00000028,
 0.00000004,-0.00003313,0.00001029,-0.00000042,0.00000422,-0.00000498,-
 0.00000039\\\@


 Not by the face shall a man be known, but by the mask.
                               -- Karen Blixen
 Job cpu time:       0 days  1 hours 47 minutes  5.2 seconds.
 Elapsed time:       0 days  0 hours  3 minutes 34.2 seconds.
 File lengths (MBytes):  RWF=    279 Int=      0 D2E=      0 Chk=      9 Scr=      1
 Normal termination of Gaussian 16 at Mon Sep 18 06:43:15 2023.
