 Entering Gaussian System, Link 0=/home/ubuntu/g16/g16
 Input=/home/ubuntu/products/molecule_26.gjf
 Output=/home/ubuntu/products/molecule_26.log
 Initial command:
 /home/ubuntu/g16/l1.exe "/home/ubuntu/Scratch/Gau-12478.inp" -scrdir="/home/ubuntu/Scratch/"
 Entering Link 1 = /home/ubuntu/g16/l1.exe PID=     12480.
  
 Copyright (c) 1988-2017, Gaussian, Inc.  All Rights Reserved.
  
 This is part of the Gaussian(R) 16 program.  It is based on
 the Gaussian(R) 09 system (copyright 2009, Gaussian, Inc.),
 the Gaussian(R) 03 system (copyright 2003, Gaussian, Inc.),
 the Gaussian(R) 98 system (copyright 1998, Gaussian, Inc.),
 the Gaussian(R) 94 system (copyright 1995, Gaussian, Inc.),
 the Gaussian 92(TM) system (copyright 1992, Gaussian, Inc.),
 the Gaussian 90(TM) system (copyright 1990, Gaussian, Inc.),
 the Gaussian 88(TM) system (copyright 1988, Gaussian, Inc.),
 the Gaussian 86(TM) system (copyright 1986, Carnegie Mellon
 University), and the Gaussian 82(TM) system (copyright 1983,
 Carnegie Mellon University). Gaussian is a federally registered
 trademark of Gaussian, Inc.
  
 This software contains proprietary and confidential information,
 including trade secrets, belonging to Gaussian, Inc.
  
 This software is provided under written license and may be
 used, copied, transmitted, or stored only in accord with that
 written license.
  
 The following legend is applicable only to US Government
 contracts under FAR:
  
                    RESTRICTED RIGHTS LEGEND
  
 Use, reproduction and disclosure by the US Government is
 subject to restrictions as set forth in subparagraphs (a)
 and (c) of the Commercial Computer Software - Restricted
 Rights clause in FAR 52.227-19.
  
 Gaussian, Inc.
 340 Quinnipiac St., Bldg. 40, Wallingford CT 06492
  
  
 ---------------------------------------------------------------
 Warning -- This program may not be used in any manner that
 competes with the business of Gaussian, Inc. or will provide
 assistance to any competitor of Gaussian, Inc.  The licensee
 of this program is prohibited from giving any competitor of
 Gaussian, Inc. access to this program.  By using this program,
 the user acknowledges that Gaussian, Inc. is engaged in the
 business of creating and licensing software in the field of
 computational chemistry and represents and warrants to the
 licensee that it is not a competitor of Gaussian, Inc. and that
 it will not use this program in any manner prohibited above.
 ---------------------------------------------------------------
  

 Cite this work as:
 Gaussian 16, Revision B.01,
 M. J. Frisch, G. W. Trucks, H. B. Schlegel, G. E. Scuseria, 
 M. A. Robb, J. R. Cheeseman, G. Scalmani, V. Barone, 
 G. A. Petersson, H. Nakatsuji, X. Li, M. Caricato, A. V. Marenich, 
 J. Bloino, B. G. Janesko, R. Gomperts, B. Mennucci, H. P. Hratchian, 
 J. V. Ortiz, A. F. Izmaylov, J. L. Sonnenberg, D. Williams-Young, 
 F. Ding, F. Lipparini, F. Egidi, J. Goings, B. Peng, A. Petrone, 
 T. Henderson, D. Ranasinghe, V. G. Zakrzewski, J. Gao, N. Rega, 
 G. Zheng, W. Liang, M. Hada, M. Ehara, K. Toyota, R. Fukuda, 
 J. Hasegawa, M. Ishida, T. Nakajima, Y. Honda, O. Kitao, H. Nakai, 
 T. Vreven, K. Throssell, J. A. Montgomery, Jr., J. E. Peralta, 
 F. Ogliaro, M. J. Bearpark, J. J. Heyd, E. N. Brothers, K. N. Kudin, 
 V. N. Staroverov, T. A. Keith, R. Kobayashi, J. Normand, 
 K. Raghavachari, A. P. Rendell, J. C. Burant, S. S. Iyengar, 
 J. Tomasi, M. Cossi, J. M. Millam, M. Klene, C. Adamo, R. Cammi, 
 J. W. Ochterski, R. L. Martin, K. Morokuma, O. Farkas, 
 J. B. Foresman, and D. J. Fox, Gaussian, Inc., Wallingford CT, 2016.
 
 ******************************************
 Gaussian 16:  EM64L-G16RevB.01 20-Dec-2017
                18-Sep-2023 
 ******************************************
 %nprocshared=30
 Will use up to   30 processors via shared memory.
 %mem=30GB
 %chk=molecule_26.chk
 ---------------------------------------------------------
 # opt freq b3lyp/6-31+g(d) empiricaldispersion=gd3 volume
 ---------------------------------------------------------
 1/18=20,19=15,26=3,38=1/1,3;
 2/9=110,12=2,17=6,18=5,40=1/2;
 3/5=1,6=6,7=11,11=2,25=1,30=1,71=1,74=-5,124=31/1,2,3;
 4//1;
 5/5=2,38=5/2;
 6/7=2,8=2,9=2,10=2,28=1,44=1/1,4;
 7//1,2,3,16;
 1/18=20,19=15,26=3/3(2);
 2/9=110/2;
 99//99;
 2/9=110/2;
 3/5=1,6=6,7=11,11=2,25=1,30=1,71=1,74=-5,124=31/1,2,3;
 4/5=5,16=3,69=1/1;
 5/5=2,38=5/2;
 7//1,2,3,16;
 1/18=20,19=15,26=3/3(-5);
 2/9=110/2;
 6/7=2,8=2,9=2,10=2,19=2,28=1,44=1/1,4;
 99/9=1/99;
 -------------------
 Title Card Required
 -------------------
 Symbolic Z-matrix:
 Charge =  0 Multiplicity = 1
 C                     3.28314  -1.1965    0.00101 
 C                     2.55955   0.01912   0.00046 
 C                     3.30394   1.21913   0.00182 
 C                     4.69768   1.15712   0.00358 
 C                     5.32148  -0.09519   0.00391 
 H                     2.7529   -2.14298  -0.0001 
 H                     2.78586   2.17177   0.00149 
 H                     5.29296   2.06361   0.00465 
 H                     6.40239  -0.18464   0.0053 
 C                     1.13827   0.02086  -0.00138 
 C                    -0.08184   0.01877  -0.00275 
 C                    -1.50631   0.01156  -0.00377 
 C                    -2.22265  -1.20589  -0.00603 
 C                    -2.2361    1.22088  -0.00659 
 C                    -3.61658  -1.20629  -0.00938 
 H                    -1.67501  -2.14224  -0.00858 
 C                    -3.62998   1.20611  -0.00998 
 H                    -1.69905   2.16341  -0.0096 
 C                    -4.34595  -0.00408  -0.00834 
 H                    -4.15017  -2.1525   -0.01446 
 H                    -4.17404   2.14636  -0.01554 
 N                     4.62682  -1.25665   0.00268 
 C                    -5.85726  -0.01255   0.02207 
 H                    -6.2309   -0.01721   1.05534 
 H                    -6.27357   0.87273  -0.47048 
 H                    -6.26358  -0.90011  -0.47471 
 

 GradGradGradGradGradGradGradGradGradGradGradGradGradGradGradGradGradGrad
 Berny optimization.
 Initialization pass.
                           ----------------------------
                           !    Initial Parameters    !
                           ! (Angstroms and Degrees)  !
 --------------------------                            --------------------------
 ! Name  Definition              Value          Derivative Info.                !
 --------------------------------------------------------------------------------
 ! R1    R(1,2)                  1.4147         estimate D2E/DX2                !
 ! R2    R(1,6)                  1.0849         estimate D2E/DX2                !
 ! R3    R(1,22)                 1.345          estimate D2E/DX2                !
 ! R4    R(2,3)                  1.4121         estimate D2E/DX2                !
 ! R5    R(2,10)                 1.4213         estimate D2E/DX2                !
 ! R6    R(3,4)                  1.3951         estimate D2E/DX2                !
 ! R7    R(3,7)                  1.0844         estimate D2E/DX2                !
 ! R8    R(4,5)                  1.3991         estimate D2E/DX2                !
 ! R9    R(4,8)                  1.0845         estimate D2E/DX2                !
 ! R10   R(5,9)                  1.0846         estimate D2E/DX2                !
 ! R11   R(5,22)                 1.3533         estimate D2E/DX2                !
 ! R12   R(10,11)                1.2201         estimate D2E/DX2                !
 ! R13   R(11,12)                1.4245         estimate D2E/DX2                !
 ! R14   R(12,13)                1.4126         estimate D2E/DX2                !
 ! R15   R(12,14)                1.4125         estimate D2E/DX2                !
 ! R16   R(13,15)                1.3939         estimate D2E/DX2                !
 ! R17   R(13,16)                1.0847         estimate D2E/DX2                !
 ! R18   R(14,17)                1.394          estimate D2E/DX2                !
 ! R19   R(14,18)                1.0848         estimate D2E/DX2                !
 ! R20   R(15,19)                1.4062         estimate D2E/DX2                !
 ! R21   R(15,20)                1.0863         estimate D2E/DX2                !
 ! R22   R(17,19)                1.4061         estimate D2E/DX2                !
 ! R23   R(17,21)                1.0863         estimate D2E/DX2                !
 ! R24   R(19,23)                1.5116         estimate D2E/DX2                !
 ! R25   R(23,24)                1.0988         estimate D2E/DX2                !
 ! R26   R(23,25)                1.0953         estimate D2E/DX2                !
 ! R27   R(23,26)                1.0953         estimate D2E/DX2                !
 ! A1    A(2,1,6)              119.9784         estimate D2E/DX2                !
 ! A2    A(2,1,22)             123.3261         estimate D2E/DX2                !
 ! A3    A(6,1,22)             116.6955         estimate D2E/DX2                !
 ! A4    A(1,2,3)              117.4248         estimate D2E/DX2                !
 ! A5    A(1,2,10)             120.8331         estimate D2E/DX2                !
 ! A6    A(3,2,10)             121.7421         estimate D2E/DX2                !
 ! A7    A(2,3,4)              119.2646         estimate D2E/DX2                !
 ! A8    A(2,3,7)              119.649          estimate D2E/DX2                !
 ! A9    A(4,3,7)              121.0864         estimate D2E/DX2                !
 ! A10   A(3,4,5)              119.0265         estimate D2E/DX2                !
 ! A11   A(3,4,8)              120.7449         estimate D2E/DX2                !
 ! A12   A(5,4,8)              120.2286         estimate D2E/DX2                !
 ! A13   A(4,5,9)              121.2098         estimate D2E/DX2                !
 ! A14   A(4,5,22)             122.6377         estimate D2E/DX2                !
 ! A15   A(9,5,22)             116.1525         estimate D2E/DX2                !
 ! A16   A(11,12,13)           120.7626         estimate D2E/DX2                !
 ! A17   A(11,12,14)           120.8197         estimate D2E/DX2                !
 ! A18   A(13,12,14)           118.4174         estimate D2E/DX2                !
 ! A19   A(12,13,15)           120.4889         estimate D2E/DX2                !
 ! A20   A(12,13,16)           119.2058         estimate D2E/DX2                !
 ! A21   A(15,13,16)           120.305          estimate D2E/DX2                !
 ! A22   A(12,14,17)           120.503          estimate D2E/DX2                !
 ! A23   A(12,14,18)           119.2163         estimate D2E/DX2                !
 ! A24   A(17,14,18)           120.2804         estimate D2E/DX2                !
 ! A25   A(13,15,19)           121.2282         estimate D2E/DX2                !
 ! A26   A(13,15,20)           119.4362         estimate D2E/DX2                !
 ! A27   A(19,15,20)           119.3356         estimate D2E/DX2                !
 ! A28   A(14,17,19)           121.2157         estimate D2E/DX2                !
 ! A29   A(14,17,21)           119.4484         estimate D2E/DX2                !
 ! A30   A(19,17,21)           119.3359         estimate D2E/DX2                !
 ! A31   A(15,19,17)           118.1461         estimate D2E/DX2                !
 ! A32   A(15,19,23)           120.9176         estimate D2E/DX2                !
 ! A33   A(17,19,23)           120.9248         estimate D2E/DX2                !
 ! A34   A(1,22,5)             118.3203         estimate D2E/DX2                !
 ! A35   A(19,23,24)           111.0341         estimate D2E/DX2                !
 ! A36   A(19,23,25)           111.496          estimate D2E/DX2                !
 ! A37   A(19,23,26)           111.488          estimate D2E/DX2                !
 ! A38   A(24,23,25)           107.2815         estimate D2E/DX2                !
 ! A39   A(24,23,26)           107.2743         estimate D2E/DX2                !
 ! A40   A(25,23,26)           108.0596         estimate D2E/DX2                !
 ! A41   L(2,10,11,6,-1)       179.8318         estimate D2E/DX2                !
 ! A42   L(10,11,12,16,-1)     179.808          estimate D2E/DX2                !
 ! A43   L(2,10,11,6,-2)       179.9875         estimate D2E/DX2                !
 ! A44   L(10,11,12,16,-2)     179.9708         estimate D2E/DX2                !
 ! D1    D(6,1,2,3)           -179.9939         estimate D2E/DX2                !
 ! D2    D(6,1,2,10)             0.0073         estimate D2E/DX2                !
 ! D3    D(22,1,2,3)            -0.0033         estimate D2E/DX2                !
 ! D4    D(22,1,2,10)          179.9978         estimate D2E/DX2                !
 ! D5    D(2,1,22,5)             0.0006         estimate D2E/DX2                !
 ! D6    D(6,1,22,5)           179.9915         estimate D2E/DX2                !
 ! D7    D(1,2,3,4)              0.0021         estimate D2E/DX2                !
 ! D8    D(1,2,3,7)           -179.9979         estimate D2E/DX2                !
 ! D9    D(10,2,3,4)          -179.9991         estimate D2E/DX2                !
 ! D10   D(10,2,3,7)             0.0009         estimate D2E/DX2                !
 ! D11   D(1,2,12,13)           -0.062          estimate D2E/DX2                !
 ! D12   D(1,2,12,14)         -179.8927         estimate D2E/DX2                !
 ! D13   D(3,2,12,13)          179.957          estimate D2E/DX2                !
 ! D14   D(3,2,12,14)            0.1263         estimate D2E/DX2                !
 ! D15   D(2,3,4,5)              0.0015         estimate D2E/DX2                !
 ! D16   D(2,3,4,8)            179.9995         estimate D2E/DX2                !
 ! D17   D(7,3,4,5)           -179.9984         estimate D2E/DX2                !
 ! D18   D(7,3,4,8)             -0.0004         estimate D2E/DX2                !
 ! D19   D(3,4,5,9)           -179.9975         estimate D2E/DX2                !
 ! D20   D(3,4,5,22)            -0.0045         estimate D2E/DX2                !
 ! D21   D(8,4,5,9)              0.0045         estimate D2E/DX2                !
 ! D22   D(8,4,5,22)           179.9975         estimate D2E/DX2                !
 ! D23   D(4,5,22,1)             0.0034         estimate D2E/DX2                !
 ! D24   D(9,5,22,1)           179.9968         estimate D2E/DX2                !
 ! D25   D(11,12,13,15)       -179.8873         estimate D2E/DX2                !
 ! D26   D(11,12,13,16)         -0.0966         estimate D2E/DX2                !
 ! D27   D(14,12,13,15)         -0.0741         estimate D2E/DX2                !
 ! D28   D(14,12,13,16)        179.7167         estimate D2E/DX2                !
 ! D29   D(11,12,14,17)        179.8852         estimate D2E/DX2                !
 ! D30   D(11,12,14,18)          0.0976         estimate D2E/DX2                !
 ! D31   D(13,12,14,17)          0.0721         estimate D2E/DX2                !
 ! D32   D(13,12,14,18)       -179.7155         estimate D2E/DX2                !
 ! D33   D(12,13,15,19)         -0.1078         estimate D2E/DX2                !
 ! D34   D(12,13,15,20)        179.7952         estimate D2E/DX2                !
 ! D35   D(16,13,15,19)       -179.8963         estimate D2E/DX2                !
 ! D36   D(16,13,15,20)          0.0068         estimate D2E/DX2                !
 ! D37   D(12,14,17,19)          0.1118         estimate D2E/DX2                !
 ! D38   D(12,14,17,21)       -179.7929         estimate D2E/DX2                !
 ! D39   D(18,14,17,19)        179.8972         estimate D2E/DX2                !
 ! D40   D(18,14,17,21)         -0.0076         estimate D2E/DX2                !
 ! D41   D(13,15,19,17)          0.2855         estimate D2E/DX2                !
 ! D42   D(13,15,19,23)       -178.495          estimate D2E/DX2                !
 ! D43   D(20,15,19,17)       -179.6176         estimate D2E/DX2                !
 ! D44   D(20,15,19,23)          1.6018         estimate D2E/DX2                !
 ! D45   D(14,17,19,15)         -0.2875         estimate D2E/DX2                !
 ! D46   D(14,17,19,23)        178.493          estimate D2E/DX2                !
 ! D47   D(21,17,19,15)        179.6174         estimate D2E/DX2                !
 ! D48   D(21,17,19,23)         -1.6022         estimate D2E/DX2                !
 ! D49   D(15,19,23,24)         89.216          estimate D2E/DX2                !
 ! D50   D(15,19,23,25)       -151.2123         estimate D2E/DX2                !
 ! D51   D(15,19,23,26)        -30.3413         estimate D2E/DX2                !
 ! D52   D(17,19,23,24)        -89.5306         estimate D2E/DX2                !
 ! D53   D(17,19,23,25)         30.0411         estimate D2E/DX2                !
 ! D54   D(17,19,23,26)        150.9121         estimate D2E/DX2                !
 --------------------------------------------------------------------------------
 Trust Radius=3.00D-01 FncErr=1.00D-07 GrdErr=1.00D-06 EigMax=2.50D+02 EigMin=1.00D-04
 Number of steps in this run=    135 maximum allowed number of steps=    156.
 GradGradGradGradGradGradGradGradGradGradGradGradGradGradGradGradGradGrad

                          Input orientation:                          
 ---------------------------------------------------------------------
 Center     Atomic      Atomic             Coordinates (Angstroms)
 Number     Number       Type             X           Y           Z
 ---------------------------------------------------------------------
      1          6           0        3.283144   -1.196500    0.001005
      2          6           0        2.559550    0.019124    0.000455
      3          6           0        3.303939    1.219134    0.001823
      4          6           0        4.697678    1.157123    0.003583
      5          6           0        5.321484   -0.095190    0.003913
      6          1           0        2.752902   -2.142985   -0.000099
      7          1           0        2.785863    2.171772    0.001490
      8          1           0        5.292957    2.063611    0.004650
      9          1           0        6.402393   -0.184643    0.005303
     10          6           0        1.138274    0.020862   -0.001381
     11          6           0       -0.081842    0.018773   -0.002745
     12          6           0       -1.506305    0.011559   -0.003765
     13          6           0       -2.222651   -1.205894   -0.006026
     14          6           0       -2.236097    1.220881   -0.006590
     15          6           0       -3.616578   -1.206292   -0.009377
     16          1           0       -1.675011   -2.142245   -0.008582
     17          6           0       -3.629982    1.206114   -0.009979
     18          1           0       -1.699052    2.163412   -0.009602
     19          6           0       -4.345947   -0.004081   -0.008335
     20          1           0       -4.150165   -2.152502   -0.014460
     21          1           0       -4.174040    2.146363   -0.015537
     22          7           0        4.626824   -1.256649    0.002680
     23          6           0       -5.857260   -0.012553    0.022073
     24          1           0       -6.230901   -0.017209    1.055342
     25          1           0       -6.273571    0.872730   -0.470475
     26          1           0       -6.263577   -0.900112   -0.474710
 ---------------------------------------------------------------------
                    Distance matrix (angstroms):
                    1          2          3          4          5
     1  C    0.000000
     2  C    1.414684   0.000000
     3  C    2.415724   1.412141   0.000000
     4  C    2.745989   2.422115   1.395119   0.000000
     5  C    2.316835   2.764301   2.407891   1.399079   0.000000
     6  H    1.084892   2.170737   3.406977   3.830520   3.284980
     7  H    3.404783   2.164512   1.084399   2.164383   3.401249
     8  H    3.829841   3.413423   2.160866   1.084472   2.158990
     9  H    3.279266   3.848245   3.401620   2.169422   1.084605
    10  C    2.466261   1.421278   2.475070   3.736371   4.184823
    11  C    3.577713   2.641394   3.592270   4.913216   5.404532
    12  C    4.939459   4.065864   4.959508   6.308865   6.828628
    13  C    5.505808   4.936614   6.035232   7.312653   7.625466
    14  C    6.025430   4.943936   5.540043   6.934076   7.671322
    15  C    6.899737   6.296531   7.333238   8.643654   9.006868
    16  H    5.047556   4.754272   6.007405   7.176151   7.289824
    17  C    7.318742   6.302330   6.933943   8.327815   9.045570
    18  H    6.009276   4.767994   5.091337   6.475411   7.374916
    19  C    7.721721   6.905542   7.747071   9.117877   9.667868
    20  H    7.494549   7.052408   8.181189   9.446601   9.692523
    21  H    8.172185   7.061631   7.535265   8.926721   9.756532
    22  N    1.345027   2.429243   2.807050   2.414812   1.353344
    23  C    9.216787   8.416897   9.243648  10.619567  11.179064
    24  H    9.644657   8.853594   9.672209  11.041698  11.600396
    25  H    9.789525   8.886757   9.595403  10.985168  11.645051
    26  H    9.563160   8.883600   9.810996  11.162889  11.622849
                    6          7          8          9         10
     6  H    0.000000
     7  H    4.314883   0.000000
     8  H    4.913996   2.509428   0.000000
     9  H    4.141729   4.316480   2.507089   0.000000
    10  C    2.699863   2.709423   4.629714   5.268133   0.000000
    11  C    3.564965   3.585966   5.750642   6.487430   1.220119
    12  C    4.773145   4.805128   7.102179   7.911137   2.644596
    13  C    5.063033   6.041018   8.195983   8.685302   3.577816
    14  C    6.017121   5.111198   7.576079   8.752094   3.581404
    15  C    6.437993   7.238970   9.490642  10.070937   4.910661
    16  H    4.427921   6.205662   8.138917   8.311249   3.548754
    17  C    7.208174   6.488119   8.964059  10.128326   4.913366
    18  H    6.193952   4.484937   6.992736   8.434868   3.555419
    19  C    7.414084   7.456349   9.858194  10.749865   5.484282
    20  H    6.903088   8.173621  10.341592  10.734493   5.717628
    21  H    8.147470   6.959970   9.467380  10.830280   5.721769
    22  N    2.072965   3.891428   3.386423   2.074090   3.715109
    23  C    8.869843   8.914891  11.341874  12.260872   6.995653
    24  H    9.292018   9.338323  11.757256  12.677963   7.444653
    25  H    9.528536   9.164257  11.637376  12.728883   7.475371
    26  H    9.114103   9.568469  11.940139  12.695239   7.473930
                   11         12         13         14         15
    11  C    0.000000
    12  C    1.424482   0.000000
    13  C    2.466350   1.412568   0.000000
    14  C    2.466960   1.412467   2.426812   0.000000
    15  C    3.741014   2.436482   1.393931   2.792294   0.000000
    16  H    2.684813   2.160407   1.084744   3.409610   2.155387
    17  C    3.741541   2.436597   2.792558   1.393967   2.412443
    18  H    2.686055   2.160476   3.409749   1.084800   3.877088
    19  C    4.264170   2.839689   2.439825   2.439673   1.406162
    20  H    4.611488   3.416617   2.147428   3.878586   1.086303
    21  H    4.612254   3.416773   3.878871   2.147608   3.398691
    22  N    4.878347   6.262880   6.849669   7.296432   8.243565
    23  C    5.775556   4.351099   3.825603   3.825572   2.539027
    24  H    6.239533   4.841936   4.313414   4.314977   3.063043
    25  H    6.267816   4.866853   4.576718   4.078921   3.405078
    26  H    6.267451   4.866680   4.079491   4.575843   2.704974
                   16         17         18         19         20
    16  H    0.000000
    17  C    3.877296   0.000000
    18  H    4.305724   2.155205   0.000000
    19  C    3.421351   1.406123   3.421123   0.000000
    20  H    2.475182   3.398663   4.963375   2.157332   0.000000
    21  H    4.963603   1.086323   2.475054   2.157316   4.298931
    22  N    6.363767   8.616276   7.191222   9.059783   8.822606
    23  C    4.693371   2.539083   4.693242   1.511643   2.737680
    24  H    5.138467   3.065323   5.140707   2.164401   3.167557
    25  H    5.518168   2.704027   4.775404   2.167511   3.724088
    26  H    4.776516   3.404113   5.516919   2.167414   2.499364
                   21         22         23         24         25
    21  H    0.000000
    22  N    9.435891   0.000000
    23  C    2.737802  10.557659   0.000000
    24  H    3.171514  10.978821   1.098760   0.000000
    25  H    2.497427  11.116508   1.095283   1.766898   0.000000
    26  H    3.722635  10.906688   1.095284   1.766818   1.772875
                   26
    26  H    0.000000
 Stoichiometry    C14H11N
 Framework group  C1[X(C14H11N)]
 Deg. of freedom    72
 Full point group                 C1      NOp   1
 Largest Abelian subgroup         C1      NOp   1
 Largest concise Abelian subgroup C1      NOp   1
                         Standard orientation:                         
 ---------------------------------------------------------------------
 Center     Atomic      Atomic             Coordinates (Angstroms)
 Number     Number       Type             X           Y           Z
 ---------------------------------------------------------------------
      1          6           0        3.283144   -1.196500    0.001005
      2          6           0        2.559550    0.019124    0.000455
      3          6           0        3.303939    1.219134    0.001823
      4          6           0        4.697678    1.157123    0.003583
      5          6           0        5.321484   -0.095190    0.003913
      6          1           0        2.752902   -2.142985   -0.000099
      7          1           0        2.785863    2.171772    0.001490
      8          1           0        5.292957    2.063611    0.004650
      9          1           0        6.402393   -0.184643    0.005303
     10          6           0        1.138274    0.020862   -0.001381
     11          6           0       -0.081842    0.018773   -0.002745
     12          6           0       -1.506305    0.011559   -0.003765
     13          6           0       -2.222651   -1.205894   -0.006026
     14          6           0       -2.236097    1.220881   -0.006590
     15          6           0       -3.616578   -1.206292   -0.009377
     16          1           0       -1.675011   -2.142245   -0.008582
     17          6           0       -3.629982    1.206114   -0.009979
     18          1           0       -1.699052    2.163412   -0.009602
     19          6           0       -4.345947   -0.004081   -0.008335
     20          1           0       -4.150165   -2.152502   -0.014460
     21          1           0       -4.174040    2.146363   -0.015537
     22          7           0        4.626824   -1.256649    0.002680
     23          6           0       -5.857260   -0.012553    0.022073
     24          1           0       -6.230901   -0.017209    1.055342
     25          1           0       -6.273571    0.872730   -0.470475
     26          1           0       -6.263577   -0.900112   -0.474710
 ---------------------------------------------------------------------
 Rotational constants (GHZ):           2.8225710           0.1941048           0.1818224
 Standard basis: 6-31+G(d) (6D, 7F)
 There are   307 symmetry adapted cartesian basis functions of A   symmetry.
 There are   307 symmetry adapted basis functions of A   symmetry.
   307 basis functions,   524 primitive gaussians,   307 cartesian basis functions
    51 alpha electrons       51 beta electrons
       nuclear repulsion energy       784.2362693543 Hartrees.
 NAtoms=   26 NActive=   26 NUniq=   26 SFac= 1.00D+00 NAtFMM=   60 NAOKFM=F Big=F
 Integral buffers will be    131072 words long.
 Raffenetti 2 integral format.
 Two-electron integral symmetry is turned on.
 Nuclear repulsion after empirical dispersion term =      784.2197290324 Hartrees.
 One-electron integrals computed using PRISM.
 NBasis=   307 RedAO= T EigKep=  2.31D-06  NBF=   307
 NBsUse=   303 1.00D-06 EigRej=  6.84D-07 NBFU=   303
 ExpMin= 4.38D-02 ExpMax= 4.17D+03 ExpMxC= 6.27D+02 IAcc=3 IRadAn=         5 AccDes= 0.00D+00
 Harris functional with IExCor=  402 and IRadAn=       5 diagonalized for initial guess.
 HarFok:  IExCor=  402 AccDes= 0.00D+00 IRadAn=         5 IDoV= 1 UseB2=F ITyADJ=14
 ICtDFT=  3500011 ScaDFX=  1.000000  1.000000  1.000000  1.000000
 FoFCou: FMM=F IPFlag=           0 FMFlag=      100000 FMFlg1=           0
         NFxFlg=           0 DoJE=T BraDBF=F KetDBF=T FulRan=T
         wScrn=  0.000000 ICntrl=       500 IOpCl=  0 I1Cent=   200000004 NGrid=           0
         NMat0=    1 NMatS0=      1 NMatT0=    0 NMatD0=    1 NMtDS0=    0 NMtDT0=    0
 Petite list used in FoFCou.
 Requested convergence on RMS density matrix=1.00D-08 within 128 cycles.
 Requested convergence on MAX density matrix=1.00D-06.
 Requested convergence on             energy=1.00D-06.
 No special actions if energy rises.
 SCF Done:  E(RB3LYP) =  -594.854236088     A.U. after   15 cycles
            NFock= 15  Conv=0.38D-08     -V/T= 2.0101

 **********************************************************************

            Population analysis using the SCF Density.

 **********************************************************************

 Orbital symmetries:
       Occupied  (A) (A) (A) (A) (A) (A) (A) (A) (A) (A) (A) (A)
                 (A) (A) (A) (A) (A) (A) (A) (A) (A) (A) (A) (A)
                 (A) (A) (A) (A) (A) (A) (A) (A) (A) (A) (A) (A)
                 (A) (A) (A) (A) (A) (A) (A) (A) (A) (A) (A) (A)
                 (A) (A) (A)
       Virtual   (A) (A) (A) (A) (A) (A) (A) (A) (A) (A) (A) (A)
                 (A) (A) (A) (A) (A) (A) (A) (A) (A) (A) (A) (A)
                 (A) (A) (A) (A) (A) (A) (A) (A) (A) (A) (A) (A)
                 (A) (A) (A) (A) (A) (A) (A) (A) (A) (A) (A) (A)
                 (A) (A) (A) (A) (A) (A) (A) (A) (A) (A) (A) (A)
                 (A) (A) (A) (A) (A) (A) (A) (A) (A) (A) (A) (A)
                 (A) (A) (A) (A) (A) (A) (A) (A) (A) (A) (A) (A)
                 (A) (A) (A) (A) (A) (A) (A) (A) (A) (A) (A) (A)
                 (A) (A) (A) (A) (A) (A) (A) (A) (A) (A) (A) (A)
                 (A) (A) (A) (A) (A) (A) (A) (A) (A) (A) (A) (A)
                 (A) (A) (A) (A) (A) (A) (A) (A) (A) (A) (A) (A)
                 (A) (A) (A) (A) (A) (A) (A) (A) (A) (A) (A) (A)
                 (A) (A) (A) (A) (A) (A) (A) (A) (A) (A) (A) (A)
                 (A) (A) (A) (A) (A) (A) (A) (A) (A) (A) (A) (A)
                 (A) (A) (A) (A) (A) (A) (A) (A) (A) (A) (A) (A)
                 (A) (A) (A) (A) (A) (A) (A) (A) (A) (A) (A) (A)
                 (A) (A) (A) (A) (A) (A) (A) (A) (A) (A) (A) (A)
                 (A) (A) (A) (A) (A) (A) (A) (A) (A) (A) (A) (A)
                 (A) (A) (A) (A) (A) (A) (A) (A) (A) (A) (A) (A)
                 (A) (A) (A) (A) (A) (A) (A) (A) (A) (A) (A) (A)
                 (A) (A) (A) (A) (A) (A) (A) (A) (A) (A) (A) (A)
 The electronic state is 1-A.
 Alpha  occ. eigenvalues --  -14.34665 -10.23785 -10.23567 -10.23469 -10.22675
 Alpha  occ. eigenvalues --  -10.22359 -10.21604 -10.21355 -10.20908 -10.20881
 Alpha  occ. eigenvalues --  -10.20564 -10.20398 -10.20381 -10.20268 -10.19665
 Alpha  occ. eigenvalues --   -0.94761  -0.87433  -0.83031  -0.80376  -0.78613
 Alpha  occ. eigenvalues --   -0.75968  -0.74450  -0.70101  -0.65149  -0.64176
 Alpha  occ. eigenvalues --   -0.62197  -0.60776  -0.55656  -0.53687  -0.50734
 Alpha  occ. eigenvalues --   -0.49518  -0.47878  -0.47544  -0.45057  -0.43764
 Alpha  occ. eigenvalues --   -0.43412  -0.43146  -0.41535  -0.41132  -0.40066
 Alpha  occ. eigenvalues --   -0.38728  -0.38135  -0.36604  -0.35600  -0.33345
 Alpha  occ. eigenvalues --   -0.29427  -0.28855  -0.27894  -0.26656  -0.26215
 Alpha  occ. eigenvalues --   -0.22304
 Alpha virt. eigenvalues --   -0.06610  -0.03847  -0.02325  -0.01367  -0.00044
 Alpha virt. eigenvalues --    0.00597   0.01688   0.01879   0.03092   0.03221
 Alpha virt. eigenvalues --    0.03602   0.04361   0.04608   0.04793   0.05500
 Alpha virt. eigenvalues --    0.05658   0.06409   0.06594   0.06908   0.07633
 Alpha virt. eigenvalues --    0.07977   0.08399   0.09189   0.09436   0.09958
 Alpha virt. eigenvalues --    0.10210   0.10850   0.12081   0.12400   0.12779
 Alpha virt. eigenvalues --    0.13046   0.14045   0.14423   0.14510   0.14638
 Alpha virt. eigenvalues --    0.15055   0.15465   0.15877   0.16037   0.16361
 Alpha virt. eigenvalues --    0.17079   0.17554   0.18524   0.18577   0.19297
 Alpha virt. eigenvalues --    0.20104   0.20324   0.20476   0.20988   0.21539
 Alpha virt. eigenvalues --    0.21771   0.22143   0.22431   0.23248   0.23573
 Alpha virt. eigenvalues --    0.23810   0.23998   0.24362   0.25342   0.25521
 Alpha virt. eigenvalues --    0.25770   0.26079   0.26995   0.27434   0.27667
 Alpha virt. eigenvalues --    0.27975   0.28354   0.28809   0.29537   0.30396
 Alpha virt. eigenvalues --    0.31006   0.31526   0.31929   0.32570   0.33171
 Alpha virt. eigenvalues --    0.34514   0.35085   0.35237   0.36556   0.36797
 Alpha virt. eigenvalues --    0.38419   0.39531   0.41006   0.41483   0.45353
 Alpha virt. eigenvalues --    0.48178   0.54515   0.56281   0.56992   0.59151
 Alpha virt. eigenvalues --    0.64090   0.65657   0.66305   0.66820   0.67252
 Alpha virt. eigenvalues --    0.67904   0.68110   0.69469   0.70466   0.70510
 Alpha virt. eigenvalues --    0.71186   0.71296   0.71566   0.73051   0.73472
 Alpha virt. eigenvalues --    0.73886   0.75215   0.75509   0.76290   0.76429
 Alpha virt. eigenvalues --    0.77158   0.78210   0.78564   0.79289   0.81082
 Alpha virt. eigenvalues --    0.81423   0.83815   0.84735   0.85556   0.86343
 Alpha virt. eigenvalues --    0.90140   0.91182   0.92839   0.93497   0.95013
 Alpha virt. eigenvalues --    0.95794   0.96481   0.97405   0.97709   0.99309
 Alpha virt. eigenvalues --    0.99989   1.01501   1.02774   1.03371   1.06095
 Alpha virt. eigenvalues --    1.07942   1.09213   1.09823   1.11437   1.12429
 Alpha virt. eigenvalues --    1.13474   1.16012   1.16676   1.17501   1.19643
 Alpha virt. eigenvalues --    1.20382   1.21459   1.22047   1.23046   1.23743
 Alpha virt. eigenvalues --    1.25259   1.25505   1.26205   1.27804   1.31225
 Alpha virt. eigenvalues --    1.33683   1.38108   1.39148   1.41602   1.42271
 Alpha virt. eigenvalues --    1.43331   1.44530   1.44824   1.45912   1.46409
 Alpha virt. eigenvalues --    1.48384   1.48995   1.49780   1.50921   1.55532
 Alpha virt. eigenvalues --    1.55703   1.57180   1.59716   1.70955   1.74552
 Alpha virt. eigenvalues --    1.78151   1.82737   1.82933   1.85224   1.85954
 Alpha virt. eigenvalues --    1.88020   1.88852   1.90035   1.90052   1.91298
 Alpha virt. eigenvalues --    1.91611   1.92372   1.96398   1.99058   2.00305
 Alpha virt. eigenvalues --    2.06042   2.07662   2.08866   2.11146   2.13455
 Alpha virt. eigenvalues --    2.13664   2.15211   2.15975   2.18057   2.20511
 Alpha virt. eigenvalues --    2.21781   2.23535   2.23883   2.25061   2.26725
 Alpha virt. eigenvalues --    2.30077   2.30306   2.32313   2.36463   2.36618
 Alpha virt. eigenvalues --    2.37679   2.41750   2.44398   2.50499   2.53306
 Alpha virt. eigenvalues --    2.59739   2.60976   2.62256   2.63359   2.64993
 Alpha virt. eigenvalues --    2.66138   2.68451   2.73756   2.74903   2.76538
 Alpha virt. eigenvalues --    2.79846   2.81266   2.82308   2.90652   2.91459
 Alpha virt. eigenvalues --    2.94349   2.99997   3.06528   3.27761   3.31636
 Alpha virt. eigenvalues --    3.39145   3.59388   4.18515   4.21043   4.23715
 Alpha virt. eigenvalues --    4.23879   4.26161   4.27624   4.30897   4.35768
 Alpha virt. eigenvalues --    4.39455   4.40113   4.43091   4.53468   4.61822
 Alpha virt. eigenvalues --    4.75701   4.98175
          Condensed to atoms (all electrons):
               1          2          3          4          5          6
     1  C    8.616541  -0.630317  -3.615213   1.185842  -0.358953   0.565005
     2  C   -0.630317   7.643070  -0.961192   0.615423  -0.009706  -0.204645
     3  C   -3.615213  -0.961192  14.083944  -3.683957   0.830212  -0.056725
     4  C    1.185842   0.615423  -3.683957   7.785836  -0.448914   0.007990
     5  C   -0.358953  -0.009706   0.830212  -0.448914   5.736072   0.007033
     6  H    0.565005  -0.204645  -0.056725   0.007990   0.007033   0.541545
     7  H   -0.021886  -0.038498   0.333032  -0.022030  -0.008801  -0.000150
     8  H    0.014117   0.016090  -0.069394   0.330967   0.004738   0.000023
     9  H    0.014525  -0.012407   0.059671  -0.151631   0.446251  -0.000022
    10  C    0.546737  -0.591000  -0.409013   0.210402  -0.135027   0.025554
    11  C    0.005883  -0.411411   0.030238  -0.036717   0.012478   0.010406
    12  C    0.131162   0.144215  -0.335889   0.101440  -0.017109  -0.001660
    13  C    0.087346  -0.122651  -0.093056   0.017093  -0.005560   0.000018
    14  C   -0.049834  -0.042847   0.088162  -0.018559   0.004605   0.000197
    15  C   -0.080923   0.124387   0.070657  -0.014080   0.002337  -0.001000
    16  H    0.000312   0.001648   0.000391   0.000004   0.000014   0.000004
    17  C    0.030678   0.020733  -0.061881   0.011154  -0.001413   0.000178
    18  H   -0.000294  -0.000060   0.002550   0.000102   0.000027   0.000000
    19  C    0.008585   0.000338  -0.015062   0.003380  -0.000374  -0.000006
    20  H    0.000028  -0.000111  -0.000014  -0.000001   0.000000   0.000000
    21  H   -0.000010  -0.000096   0.000034   0.000000   0.000000   0.000000
    22  N    0.027149   0.148732   0.045256  -0.000014   0.263108  -0.087333
    23  C    0.000815   0.002390  -0.001187   0.000173  -0.000016  -0.000001
    24  H    0.000000   0.000001   0.000000   0.000000   0.000000   0.000000
    25  H   -0.000001   0.000004   0.000001   0.000000   0.000000   0.000000
    26  H    0.000001  -0.000001   0.000000   0.000000   0.000000   0.000000
               7          8          9         10         11         12
     1  C   -0.021886   0.014117   0.014525   0.546737   0.005883   0.131162
     2  C   -0.038498   0.016090  -0.012407  -0.591000  -0.411411   0.144215
     3  C    0.333032  -0.069394   0.059671  -0.409013   0.030238  -0.335889
     4  C   -0.022030   0.330967  -0.151631   0.210402  -0.036717   0.101440
     5  C   -0.008801   0.004738   0.446251  -0.135027   0.012478  -0.017109
     6  H   -0.000150   0.000023  -0.000022   0.025554   0.010406  -0.001660
     7  H    0.517790  -0.004279  -0.000139   0.029127   0.011364   0.002342
     8  H   -0.004279   0.517390  -0.001529  -0.001317  -0.000805   0.000024
     9  H   -0.000139  -0.001529   0.551204  -0.004281  -0.000102  -0.000052
    10  C    0.029127  -0.001317  -0.004281   6.549032   0.245399  -0.435712
    11  C    0.011364  -0.000805  -0.000102   0.245399   6.291078   0.430410
    12  C    0.002342   0.000024  -0.000052  -0.435712   0.430410   5.888160
    13  C    0.001277  -0.000042  -0.000016  -0.167295  -0.202781  -0.073473
    14  C   -0.001062   0.000115   0.000011   0.141468  -0.126229   0.235729
    15  C    0.000046  -0.000002   0.000000   0.018187   0.024905   0.272847
    16  H    0.000000   0.000000   0.000000  -0.003311   0.027869  -0.026926
    17  C   -0.000299   0.000007   0.000000  -0.080471  -0.005147   0.057530
    18  H    0.000002   0.000000   0.000000  -0.003033   0.031073  -0.024213
    19  C   -0.000010   0.000001   0.000000  -0.062314  -0.168565  -0.073868
    20  H    0.000000   0.000000   0.000000   0.000933  -0.006408   0.027593
    21  H    0.000000   0.000000   0.000000   0.001341  -0.006241   0.025115
    22  N    0.001359   0.004192  -0.087531   0.011032  -0.006220   0.004103
    23  C   -0.000001   0.000000   0.000000  -0.019420   0.031923  -0.208836
    24  H    0.000000   0.000000   0.000000  -0.000010   0.000140  -0.000088
    25  H    0.000000   0.000000   0.000000   0.000042   0.000475  -0.000054
    26  H    0.000000   0.000000   0.000000  -0.000024   0.000310  -0.002998
              13         14         15         16         17         18
     1  C    0.087346  -0.049834  -0.080923   0.000312   0.030678  -0.000294
     2  C   -0.122651  -0.042847   0.124387   0.001648   0.020733  -0.000060
     3  C   -0.093056   0.088162   0.070657   0.000391  -0.061881   0.002550
     4  C    0.017093  -0.018559  -0.014080   0.000004   0.011154   0.000102
     5  C   -0.005560   0.004605   0.002337   0.000014  -0.001413   0.000027
     6  H    0.000018   0.000197  -0.001000   0.000004   0.000178   0.000000
     7  H    0.001277  -0.001062   0.000046   0.000000  -0.000299   0.000002
     8  H   -0.000042   0.000115  -0.000002   0.000000   0.000007   0.000000
     9  H   -0.000016   0.000011   0.000000   0.000000   0.000000   0.000000
    10  C   -0.167295   0.141468   0.018187  -0.003311  -0.080471  -0.003033
    11  C   -0.202781  -0.126229   0.024905   0.027869  -0.005147   0.031073
    12  C   -0.073473   0.235729   0.272847  -0.026926   0.057530  -0.024213
    13  C    9.089862  -1.051583  -1.590183   0.355980  -0.499599   0.021455
    14  C   -1.051583   7.393833  -0.219023   0.023412  -0.351103   0.361332
    15  C   -1.590183  -0.219023   7.849406  -0.092537  -0.221447  -0.006590
    16  H    0.355980   0.023412  -0.092537   0.525649  -0.009248  -0.000154
    17  C   -0.499599  -0.351103  -0.221447  -0.009248   7.054104  -0.103765
    18  H    0.021455   0.361332  -0.006590  -0.000154  -0.103765   0.528665
    19  C    0.187460  -0.078113   0.094940   0.005111   0.147504   0.003286
    20  H   -0.082245   0.001001   0.283760  -0.004290   0.040133   0.000017
    21  H   -0.000250  -0.078048   0.042657   0.000017   0.275425  -0.004317
    22  N   -0.001257   0.000667   0.000194   0.000001   0.000217  -0.000001
    23  C    0.192449  -0.129453  -0.165079   0.002189   0.030873   0.002203
    24  H    0.000335  -0.000315  -0.015625   0.000001  -0.012310   0.000001
    25  H   -0.009199   0.006654   0.019339   0.000002   0.003563  -0.000004
    26  H    0.010737  -0.006282  -0.003980  -0.000004   0.017253   0.000002
              19         20         21         22         23         24
     1  C    0.008585   0.000028  -0.000010   0.027149   0.000815   0.000000
     2  C    0.000338  -0.000111  -0.000096   0.148732   0.002390   0.000001
     3  C   -0.015062  -0.000014   0.000034   0.045256  -0.001187   0.000000
     4  C    0.003380  -0.000001   0.000000  -0.000014   0.000173   0.000000
     5  C   -0.000374   0.000000   0.000000   0.263108  -0.000016   0.000000
     6  H   -0.000006   0.000000   0.000000  -0.087333  -0.000001   0.000000
     7  H   -0.000010   0.000000   0.000000   0.001359  -0.000001   0.000000
     8  H    0.000001   0.000000   0.000000   0.004192   0.000000   0.000000
     9  H    0.000000   0.000000   0.000000  -0.087531   0.000000   0.000000
    10  C   -0.062314   0.000933   0.001341   0.011032  -0.019420  -0.000010
    11  C   -0.168565  -0.006408  -0.006241  -0.006220   0.031923   0.000140
    12  C   -0.073868   0.027593   0.025115   0.004103  -0.208836  -0.000088
    13  C    0.187460  -0.082245  -0.000250  -0.001257   0.192449   0.000335
    14  C   -0.078113   0.001001  -0.078048   0.000667  -0.129453  -0.000315
    15  C    0.094940   0.283760   0.042657   0.000194  -0.165079  -0.015625
    16  H    0.005111  -0.004290   0.000017   0.000001   0.002189   0.000001
    17  C    0.147504   0.040133   0.275425   0.000217   0.030873  -0.012310
    18  H    0.003286   0.000017  -0.004317  -0.000001   0.002203   0.000001
    19  C    6.579647   0.038121   0.043925   0.000078  -0.853317  -0.041644
    20  H    0.038121   0.541881  -0.000162   0.000000  -0.022647   0.000330
    21  H    0.043925  -0.000162   0.542772   0.000000  -0.023812   0.000325
    22  N    0.000078   0.000000   0.000000   6.831754   0.000006   0.000000
    23  C   -0.853317  -0.022647  -0.023812   0.000006   6.607028   0.400677
    24  H   -0.041644   0.000330   0.000325   0.000000   0.400677   0.497011
    25  H   -0.144899   0.000066   0.002905   0.000000   0.462350  -0.029181
    26  H   -0.150486   0.002896   0.000067   0.000000   0.473742  -0.029158
              25         26
     1  C   -0.000001   0.000001
     2  C    0.000004  -0.000001
     3  C    0.000001   0.000000
     4  C    0.000000   0.000000
     5  C    0.000000   0.000000
     6  H    0.000000   0.000000
     7  H    0.000000   0.000000
     8  H    0.000000   0.000000
     9  H    0.000000   0.000000
    10  C    0.000042  -0.000024
    11  C    0.000475   0.000310
    12  C   -0.000054  -0.002998
    13  C   -0.009199   0.010737
    14  C    0.006654  -0.006282
    15  C    0.019339  -0.003980
    16  H    0.000002  -0.000004
    17  C    0.003563   0.017253
    18  H   -0.000004   0.000002
    19  C   -0.144899  -0.150486
    20  H    0.000066   0.002896
    21  H    0.002905   0.000067
    22  N    0.000000   0.000000
    23  C    0.462350   0.473742
    24  H   -0.029181  -0.029158
    25  H    0.503262  -0.025640
    26  H   -0.025640   0.502937
 Mulliken charges:
               1
     1  C   -0.477294
     2  C    0.307913
     3  C   -0.241565
     4  C    0.106097
     5  C   -0.321000
     6  H    0.193588
     7  H    0.200817
     8  H    0.189703
     9  H    0.186049
    10  C    0.132976
    11  C   -0.183325
    12  C   -0.119792
    13  C   -0.064822
    14  C   -0.104736
    15  C   -0.393190
    16  H    0.193866
    17  C   -0.342667
    18  H    0.191715
    19  C    0.476282
    20  H    0.179118
    21  H    0.178351
    22  N   -0.155490
    23  C   -0.783049
    24  H    0.229510
    25  H    0.210316
    26  H    0.210629
 Sum of Mulliken charges =   0.00000
 Mulliken charges with hydrogens summed into heavy atoms:
               1
     1  C   -0.283706
     2  C    0.307913
     3  C   -0.040748
     4  C    0.295800
     5  C   -0.134951
    10  C    0.132976
    11  C   -0.183325
    12  C   -0.119792
    13  C    0.129043
    14  C    0.086980
    15  C   -0.214072
    17  C   -0.164317
    19  C    0.476282
    22  N   -0.155490
    23  C   -0.132593
 Electronic spatial extent (au):  <R**2>=           5646.1803
 Charge=              0.0000 electrons
 Dipole moment (field-independent basis, Debye):
    X=             -2.3602    Y=              2.0182    Z=              0.0442  Tot=              3.1058
 Quadrupole moment (field-independent basis, Debye-Ang):
   XX=            -76.2815   YY=            -82.4112   ZZ=            -93.6277
   XY=             11.4308   XZ=             -0.2396   YZ=              0.0079
 Traceless Quadrupole moment (field-independent basis, Debye-Ang):
   XX=              7.8253   YY=              1.6956   ZZ=             -9.5209
   XY=             11.4308   XZ=             -0.2396   YZ=              0.0079
 Octapole moment (field-independent basis, Debye-Ang**2):
  XXX=            -54.9671  YYY=              9.7430  ZZZ=              0.7859  XYY=            -18.4964
  XXY=             59.7326  XXZ=              1.3897  XZZ=             -0.9515  YZZ=             -1.2108
  YYZ=             -0.6454  XYZ=              0.0572
 Hexadecapole moment (field-independent basis, Debye-Ang**3):
 XXXX=          -6664.8897 YYYY=           -577.5704 ZZZZ=           -119.5727 XXXY=            310.4562
 XXXZ=             -6.3321 YYYX=             55.4496 YYYZ=              0.0685 ZZZX=             -4.7114
 ZZZY=             -0.0174 XXYY=          -1313.1210 XXZZ=          -1301.6960 YYZZ=           -133.6454
 XXYZ=              0.1765 YYXZ=              3.8311 ZZXY=             -4.4089
 N-N= 7.842197290324D+02 E-N=-2.944913238829D+03  KE= 5.888835792976D+02
 Evaluate density.
 Using the total density.
 Monte-Carlo method of calculating molar volume:
 based on  0.001 e/bohr**3 density envelope.
 Number of points per bohr**3 =   20 CutOff= 1.00D-04
 Using the SCF density.
 There are       397 points.  Will hold       397 in memory.
 LenV=  4026313817 MDV=  4026531840.
 Box volume = 7870.766 fraction occupied=0.229
 Integrated density= 9.6669887566380268D+01 error=-5.3301124336197319D+00
 Molar volume = 1804.130 bohr**3/mol (160.999 cm**3/mol)
 Recommended a0 for SCRF calculation =  4.90 angstrom (  9.26 bohr)
 Calling FoFJK, ICntrl=      2127 FMM=F ISym2X=0 I1Cent= 0 IOpClX= 0 NMat=1 NMatS=1 NMatT=0.
 ***** Axes restored to original set *****
 -------------------------------------------------------------------
 Center     Atomic                   Forces (Hartrees/Bohr)
 Number     Number              X              Y              Z
 -------------------------------------------------------------------
      1        6           0.013042535    0.006772956    0.000007089
      2        6           0.002478197    0.001114503   -0.000008624
      3        6           0.001616626   -0.003930404    0.000000897
      4        6          -0.002092497   -0.001786144   -0.000007097
      5        6          -0.013106056   -0.007717870   -0.000005317
      6        1          -0.000490964   -0.001580862    0.000004940
      7        1          -0.000517615    0.001046589   -0.000000584
      8        1           0.000637403    0.001332729    0.000001173
      9        1           0.001797492   -0.000451494   -0.000001609
     10        6          -0.005458390    0.000057500    0.000024085
     11        6           0.004547614   -0.000116128   -0.000022988
     12        6          -0.002367509    0.000008825    0.000025955
     13        6          -0.000440144    0.002490364    0.000005015
     14        6          -0.000446491   -0.002465275    0.000008371
     15        6           0.000759527    0.003543079    0.000060779
     16        1           0.000444865   -0.000903174   -0.000010745
     17        6           0.000793599   -0.003551689    0.000061479
     18        1           0.000440927    0.000902226   -0.000011979
     19        6           0.001085589    0.000011311   -0.000008832
     20        1          -0.000310290   -0.001045942   -0.000005218
     21        1          -0.000322398    0.001040131   -0.000005643
     22        7          -0.002820323    0.005229722   -0.000004165
     23        6           0.000615637   -0.000000936    0.000165829
     24        1           0.000262533   -0.000001867    0.000054801
     25        1          -0.000074295    0.000224454   -0.000163487
     26        1          -0.000075572   -0.000222606   -0.000164128
 -------------------------------------------------------------------
 Cartesian Forces:  Max     0.013106056 RMS     0.002834603

 GradGradGradGradGradGradGradGradGradGradGradGradGradGradGradGradGradGrad
 Berny optimization.
 FormGI is forming the generalized inverse of G from B-inverse, IUseBI=4.
 Internal  Forces:  Max     0.011224038 RMS     0.001826130
 Search for a local minimum.
 Step number   1 out of a maximum of  135
 All quantities printed in internal units (Hartrees-Bohrs-Radians)
 Mixed Optimization -- RFO/linear search
 Second derivative matrix not updated -- first step.
 ITU=  0
     Eigenvalues ---    0.00230   0.00612   0.01008   0.01355   0.01450
     Eigenvalues ---    0.01765   0.01858   0.01943   0.01950   0.02025
     Eigenvalues ---    0.02029   0.02032   0.02064   0.02067   0.02074
     Eigenvalues ---    0.02103   0.02105   0.02114   0.02126   0.02173
     Eigenvalues ---    0.02289   0.03743   0.04468   0.07029   0.07131
     Eigenvalues ---    0.16000   0.16000   0.16000   0.16000   0.16000
     Eigenvalues ---    0.16000   0.16000   0.16000   0.16000   0.16000
     Eigenvalues ---    0.16000   0.22000   0.22000   0.22956   0.23200
     Eigenvalues ---    0.23443   0.23998   0.24994   0.25000   0.25000
     Eigenvalues ---    0.31186   0.33820   0.34209   0.34209   0.35241
     Eigenvalues ---    0.35243   0.35410   0.35421   0.35427   0.35444
     Eigenvalues ---    0.35459   0.35468   0.40622   0.40687   0.41141
     Eigenvalues ---    0.41793   0.42268   0.42388   0.44075   0.44174
     Eigenvalues ---    0.44701   0.45378   0.45674   0.46638   0.52772
     Eigenvalues ---    0.54856   0.95331
 RFO step:  Lambda=-9.17717237D-04 EMin= 2.30000000D-03
 Linear search not attempted -- first point.
 Iteration  1 RMS(Cart)=  0.01488464 RMS(Int)=  0.00006167
 Iteration  2 RMS(Cart)=  0.00010535 RMS(Int)=  0.00000043
 Iteration  3 RMS(Cart)=  0.00000001 RMS(Int)=  0.00000043
 Variable       Old X    -DE/DX   Delta X   Delta X   Delta X     New X
                                 (Linear)    (Quad)   (Total)
    R1        2.67336  -0.00147   0.00000  -0.00350  -0.00350   2.66987
    R2        2.05015   0.00162   0.00000   0.00456   0.00456   2.05471
    R3        2.54173  -0.01120   0.00000  -0.02072  -0.02072   2.52101
    R4        2.66856  -0.00465   0.00000  -0.00967  -0.00967   2.65889
    R5        2.68583   0.00054   0.00000   0.00129   0.00129   2.68711
    R6        2.63639  -0.00422   0.00000  -0.00812  -0.00812   2.62828
    R7        2.04922   0.00117   0.00000   0.00328   0.00328   2.05250
    R8        2.64388  -0.00108   0.00000  -0.00234  -0.00234   2.64154
    R9        2.04935   0.00146   0.00000   0.00412   0.00412   2.05347
   R10        2.04961   0.00183   0.00000   0.00515   0.00515   2.05475
   R11        2.55745  -0.01122   0.00000  -0.02139  -0.02139   2.53606
   R12        2.30569  -0.00491   0.00000  -0.00515  -0.00515   2.30054
   R13        2.69188  -0.00037   0.00000  -0.00087  -0.00087   2.69101
   R14        2.66937  -0.00237   0.00000  -0.00540  -0.00540   2.66397
   R15        2.66918  -0.00234   0.00000  -0.00533  -0.00533   2.66384
   R16        2.63415  -0.00137   0.00000  -0.00294  -0.00294   2.63121
   R17        2.04987   0.00100   0.00000   0.00283   0.00283   2.05270
   R18        2.63422  -0.00136   0.00000  -0.00290  -0.00290   2.63132
   R19        2.04997   0.00100   0.00000   0.00282   0.00282   2.05280
   R20        2.65726  -0.00232   0.00000  -0.00520  -0.00520   2.65206
   R21        2.05282   0.00106   0.00000   0.00301   0.00301   2.05583
   R22        2.65719  -0.00231   0.00000  -0.00519  -0.00519   2.65200
   R23        2.05285   0.00106   0.00000   0.00300   0.00300   2.05586
   R24        2.85659  -0.00073   0.00000  -0.00233  -0.00233   2.85426
   R25        2.07636  -0.00004   0.00000  -0.00011  -0.00011   2.07624
   R26        2.06978   0.00028   0.00000   0.00083   0.00083   2.07061
   R27        2.06979   0.00028   0.00000   0.00082   0.00082   2.07061
    A1        2.09402  -0.00142   0.00000  -0.00471  -0.00471   2.08931
    A2        2.15245   0.00355   0.00000   0.01381   0.01381   2.16625
    A3        2.03672  -0.00213   0.00000  -0.00910  -0.00910   2.02762
    A4        2.04945  -0.00089   0.00000  -0.00201  -0.00201   2.04744
    A5        2.10893   0.00027   0.00000   0.00028   0.00028   2.10922
    A6        2.12480   0.00063   0.00000   0.00173   0.00173   2.12653
    A7        2.08156  -0.00245   0.00000  -0.00714  -0.00714   2.07442
    A8        2.08827   0.00127   0.00000   0.00386   0.00386   2.09213
    A9        2.11336   0.00118   0.00000   0.00328   0.00328   2.11664
   A10        2.07740  -0.00111   0.00000  -0.00292  -0.00292   2.07448
   A11        2.10740   0.00035   0.00000   0.00019   0.00019   2.10759
   A12        2.09839   0.00076   0.00000   0.00273   0.00273   2.10111
   A13        2.11551  -0.00145   0.00000  -0.00509  -0.00509   2.11042
   A14        2.14043   0.00352   0.00000   0.01402   0.01402   2.15446
   A15        2.02724  -0.00207   0.00000  -0.00893  -0.00893   2.01831
   A16        2.10771  -0.00012   0.00000  -0.00050  -0.00050   2.10721
   A17        2.10870   0.00001   0.00000   0.00000   0.00000   2.10870
   A18        2.06677   0.00011   0.00000   0.00050   0.00050   2.06727
   A19        2.10293  -0.00017   0.00000  -0.00074  -0.00074   2.10219
   A20        2.08053   0.00016   0.00000   0.00083   0.00083   2.08136
   A21        2.09972   0.00001   0.00000  -0.00009  -0.00009   2.09963
   A22        2.10317  -0.00019   0.00000  -0.00083  -0.00083   2.10234
   A23        2.08072   0.00016   0.00000   0.00082   0.00082   2.08154
   A24        2.09929   0.00003   0.00000   0.00001   0.00001   2.09930
   A25        2.11583   0.00033   0.00000   0.00140   0.00140   2.11723
   A26        2.08455  -0.00041   0.00000  -0.00226  -0.00226   2.08230
   A27        2.08280   0.00009   0.00000   0.00085   0.00085   2.08365
   A28        2.11561   0.00034   0.00000   0.00145   0.00145   2.11707
   A29        2.08477  -0.00042   0.00000  -0.00227  -0.00227   2.08250
   A30        2.08280   0.00008   0.00000   0.00082   0.00082   2.08362
   A31        2.06204  -0.00042   0.00000  -0.00178  -0.00178   2.06026
   A32        2.11041   0.00020   0.00000   0.00084   0.00084   2.11125
   A33        2.11054   0.00021   0.00000   0.00089   0.00089   2.11143
   A34        2.06508  -0.00261   0.00000  -0.01576  -0.01576   2.04932
   A35        1.93791  -0.00038   0.00000  -0.00247  -0.00247   1.93544
   A36        1.94597   0.00002   0.00000   0.00020   0.00020   1.94617
   A37        1.94583   0.00003   0.00000   0.00024   0.00024   1.94607
   A38        1.87242   0.00017   0.00000   0.00091   0.00091   1.87333
   A39        1.87229   0.00016   0.00000   0.00088   0.00088   1.87317
   A40        1.88600   0.00002   0.00000   0.00035   0.00035   1.88635
   A41        3.13866  -0.00028   0.00000  -0.00609  -0.00609   3.13257
   A42        3.13824  -0.00005   0.00000  -0.00293  -0.00293   3.13531
   A43        3.14137   0.00002   0.00000   0.00056   0.00055   3.14193
   A44        3.14108  -0.00001   0.00000  -0.00026  -0.00026   3.14082
    D1       -3.14149   0.00000   0.00000  -0.00017  -0.00018   3.14152
    D2        0.00013   0.00000   0.00000  -0.00011  -0.00011   0.00001
    D3       -0.00006   0.00000   0.00000   0.00010   0.00010   0.00004
    D4        3.14156   0.00000   0.00000   0.00016   0.00016  -3.14147
    D5        0.00001   0.00000   0.00000  -0.00004  -0.00004  -0.00003
    D6        3.14144   0.00001   0.00000   0.00023   0.00023  -3.14151
    D7        0.00004   0.00000   0.00000  -0.00005  -0.00005  -0.00001
    D8       -3.14156   0.00000   0.00000  -0.00004  -0.00004   3.14159
    D9       -3.14158   0.00000   0.00000  -0.00011  -0.00011   3.14150
   D10        0.00001   0.00000   0.00000  -0.00010  -0.00010  -0.00008
   D11       -0.00108   0.00000   0.00000  -0.00049  -0.00049  -0.00157
   D12       -3.13972   0.00000   0.00000  -0.00015  -0.00015  -3.13987
   D13        3.14084  -0.00001   0.00000  -0.00069  -0.00069   3.14015
   D14        0.00220   0.00000   0.00000  -0.00035  -0.00035   0.00185
   D15        0.00003   0.00000   0.00000  -0.00006  -0.00006  -0.00003
   D16        3.14158   0.00000   0.00000  -0.00002  -0.00002   3.14157
   D17       -3.14156   0.00000   0.00000  -0.00007  -0.00007   3.14155
   D18       -0.00001   0.00000   0.00000  -0.00003  -0.00003  -0.00003
   D19       -3.14155   0.00000   0.00000  -0.00008  -0.00008   3.14156
   D20       -0.00008   0.00000   0.00000   0.00013   0.00013   0.00005
   D21        0.00008   0.00000   0.00000  -0.00012  -0.00012  -0.00004
   D22        3.14155   0.00000   0.00000   0.00009   0.00009  -3.14155
   D23        0.00006   0.00000   0.00000  -0.00008  -0.00008  -0.00002
   D24        3.14154   0.00000   0.00000   0.00011   0.00011  -3.14154
   D25       -3.13963   0.00001   0.00000   0.00030   0.00030  -3.13932
   D26       -0.00169   0.00000   0.00000   0.00027   0.00027  -0.00142
   D27       -0.00129   0.00000   0.00000   0.00000   0.00000  -0.00130
   D28        3.13665   0.00000   0.00000  -0.00004  -0.00004   3.13661
   D29        3.13959  -0.00001   0.00000  -0.00029  -0.00029   3.13930
   D30        0.00170   0.00000   0.00000  -0.00025  -0.00025   0.00145
   D31        0.00126   0.00000   0.00000   0.00002   0.00002   0.00128
   D32       -3.13663   0.00000   0.00000   0.00006   0.00006  -3.13657
   D33       -0.00188   0.00001   0.00000   0.00044   0.00044  -0.00144
   D34        3.13802   0.00000   0.00000   0.00034   0.00034   3.13835
   D35       -3.13978   0.00001   0.00000   0.00047   0.00047  -3.13931
   D36        0.00012   0.00001   0.00000   0.00037   0.00037   0.00049
   D37        0.00195  -0.00001   0.00000  -0.00048  -0.00048   0.00147
   D38       -3.13798   0.00000   0.00000  -0.00034  -0.00034  -3.13832
   D39        3.13980  -0.00001   0.00000  -0.00051  -0.00051   3.13929
   D40       -0.00013  -0.00001   0.00000  -0.00038  -0.00038  -0.00051
   D41        0.00498  -0.00001   0.00000  -0.00088  -0.00088   0.00411
   D42       -3.11533   0.00002   0.00000   0.00145   0.00145  -3.11388
   D43       -3.13492  -0.00001   0.00000  -0.00077  -0.00077  -3.13569
   D44        0.02796   0.00002   0.00000   0.00156   0.00156   0.02951
   D45       -0.00502   0.00001   0.00000   0.00090   0.00090  -0.00412
   D46        3.11529  -0.00002   0.00000  -0.00143  -0.00143   3.11386
   D47        3.13491   0.00001   0.00000   0.00076   0.00076   3.13567
   D48       -0.02796  -0.00002   0.00000  -0.00157  -0.00157  -0.02953
   D49        1.55711  -0.00002   0.00000  -0.00139  -0.00139   1.55572
   D50       -2.63915  -0.00005   0.00000  -0.00176  -0.00176  -2.64091
   D51       -0.52956   0.00001   0.00000  -0.00100  -0.00100  -0.53056
   D52       -1.56260   0.00002   0.00000   0.00104   0.00104  -1.56156
   D53        0.52432  -0.00001   0.00000   0.00067   0.00067   0.52498
   D54        2.63391   0.00005   0.00000   0.00142   0.00142   2.63534
         Item               Value     Threshold  Converged?
 Maximum Force            0.011224     0.000450     NO 
 RMS     Force            0.001826     0.000300     NO 
 Maximum Displacement     0.060169     0.001800     NO 
 RMS     Displacement     0.014892     0.001200     NO 
 Predicted change in Energy=-4.599591D-04
 GradGradGradGradGradGradGradGradGradGradGradGradGradGradGradGradGradGrad

                          Input orientation:                          
 ---------------------------------------------------------------------
 Center     Atomic      Atomic             Coordinates (Angstroms)
 Number     Number       Type             X           Y           Z
 ---------------------------------------------------------------------
      1          6           0        3.276272   -1.182597    0.001541
      2          6           0        2.558199    0.034147    0.000725
      3          6           0        3.306783    1.225505    0.001656
      4          6           0        4.695317    1.145747    0.003323
      5          6           0        5.298680   -0.115169    0.004051
      6          1           0        2.736831   -2.126651    0.000933
      7          1           0        2.797093    2.184623    0.001078
      8          1           0        5.303647    2.046160    0.004054
      9          1           0        6.381277   -0.216483    0.005321
     10          6           0        1.136260    0.041642   -0.000871
     11          6           0       -0.081124    0.037077   -0.002568
     12          6           0       -1.505071    0.022795   -0.003688
     13          6           0       -2.213321   -1.196081   -0.006334
     14          6           0       -2.239385    1.226072   -0.006601
     15          6           0       -3.605673   -1.203048   -0.010142
     16          1           0       -1.660589   -2.131174   -0.008864
     17          6           0       -3.631625    1.203256   -0.010426
     18          1           0       -1.707067    2.172995   -0.009375
     19          6           0       -4.340942   -0.007668   -0.009725
     20          1           0       -4.133420   -2.154349   -0.015210
     21          1           0       -4.179794    2.142957   -0.015732
     22          7           0        4.607746   -1.265663    0.003172
     23          6           0       -5.850927   -0.024071    0.022020
     24          1           0       -6.221025   -0.030972    1.056488
     25          1           0       -6.272693    0.859626   -0.469706
     26          1           0       -6.253421   -0.914072   -0.474468
 ---------------------------------------------------------------------
                    Distance matrix (angstroms):
                    1          2          3          4          5
     1  C    0.000000
     2  C    1.412833   0.000000
     3  C    2.408296   1.407023   0.000000
     4  C    2.726697   2.408928   1.390824   0.000000
     5  C    2.286820   2.744548   2.401056   1.397840   0.000000
     6  H    1.087306   2.168169   3.400264   3.813694   3.257167
     7  H    3.401144   2.163704   1.086136   2.163914   3.398086
     8  H    3.812497   3.403776   2.158923   1.086651   2.161335
     9  H    3.251838   3.831288   3.395859   2.167519   1.087328
    10  C    2.465444   1.421959   2.472389   3.726385   4.165375
    11  C    3.572076   2.639326   3.590305   4.903424   5.381962
    12  C    4.930946   4.063287   4.959886   6.301260   6.805154
    13  C    5.489615   4.927567   6.027910   7.294761   7.589377
    14  C    6.018656   4.943434   5.546174   6.935174   7.656466
    15  C    6.881985   6.286818   7.326667   8.626902   8.970573
    16  H    5.027176   4.742033   5.995180   7.150937   7.245403
    17  C    7.308315   6.299274   6.938454   8.327152   9.027115
    18  H    6.007811   4.771506   5.102603   6.484283   7.369964
    19  C    7.707304   6.899276   7.746519   9.109584   9.640232
    20  H    7.473160   7.040422   8.171923   9.425369   9.650034
    21  H    8.164099   7.060303   7.542602   8.930979   9.743767
    22  N    1.334063   2.426965   2.810414   2.413000   1.342024
    23  C    9.200454   8.409354   9.242592  10.610942  11.149994
    24  H    9.624853   8.842717   9.668015  11.029974  11.567986
    25  H    9.776271   8.881856   9.598042  10.981934  11.622020
    26  H    9.545352   8.875222   9.808261  11.151054  11.589576
                    6          7          8          9         10
     6  H    0.000000
     7  H    4.311695   0.000000
     8  H    4.899072   2.510377   0.000000
     9  H    4.114699   4.314128   2.506161   0.000000
    10  C    2.695055   2.711224   4.624417   5.251368   0.000000
    11  C    3.552829   3.591114   5.747366   6.467378   1.217394
    12  C    4.755404   4.814783   7.103007   7.889982   2.641400
    13  C    5.036866   6.044292   8.186394   8.650253   3.570950
    14  C    6.000294   5.126889   7.587489   8.740533   3.577414
    15  C    6.409408   7.243745   9.483329  10.035572   4.902578
    16  H    4.397432   6.204605   8.121014   8.266671   3.541688
    17  C    7.186489   6.503201   8.974953  10.113066   4.907359
    18  H    6.183469   4.504188   7.011875   8.433928   3.553485
    19  C    7.388171   7.467115   9.860857  10.724263   5.477432
    20  H    6.870326   8.176733  10.329709  10.691801   5.708951
    21  H    8.128316   6.977031   9.483955  10.821442   5.716308
    22  N    2.059521   3.896529   3.384147   2.060630   3.709484
    23  C    8.841429   8.925638  11.345074  12.233729   6.987534
    24  H    9.260088   9.346079  11.757557  12.647426   7.433231
    25  H    9.503203   9.178141  11.646629  12.708526   7.468701
    26  H    9.084106   9.578093  11.939757  12.663034   7.466263
                   11         12         13         14         15
    11  C    0.000000
    12  C    1.424019   0.000000
    13  C    2.463120   1.409712   0.000000
    14  C    2.464106   1.409645   2.422294   0.000000
    15  C    3.736364   2.432131   1.392374   2.787001   0.000000
    16  H    2.682548   2.159582   1.086240   3.406774   2.155173
    17  C    3.737124   2.432235   2.787189   1.392432   2.406443
    18  H    2.684378   2.159674   3.406902   1.086293   3.873289
    19  C    4.260060   2.836042   2.437029   2.436938   1.403408
    20  H    4.606910   3.412963   2.145958   3.874879   1.087896
    21  H    4.608036   3.413118   3.875084   2.146147   3.394907
    22  N    4.866483   6.247135   6.821428   7.286428   8.213668
    23  C    5.770180   4.346185   3.821856   3.821899   2.536175
    24  H    6.230940   4.833952   4.306827   4.308569   3.058027
    25  H    6.263413   4.862888   4.573745   4.076313   3.402766
    26  H    6.262957   4.862735   4.076897   4.572921   2.703642
                   16         17         18         19         20
    16  H    0.000000
    17  C    3.873423   0.000000
    18  H    4.304420   2.155068   0.000000
    19  C    3.419587   1.403377   3.419443   0.000000
    20  H    2.472949   3.394897   4.961162   2.156695   0.000000
    21  H    4.961314   1.087913   2.472917   2.156662   4.297556
    22  N    6.327817   8.601335   7.190368   9.036688   8.786244
    23  C    4.690391   2.536274   4.690379   1.510407   2.736658
    24  H    5.132582   3.060492   5.135109   2.161496   3.164705
    25  H    5.516227   2.702640   4.773027   2.166897   3.723855
    26  H    4.774121   3.401798   5.515037   2.166825   2.498721
                   21         22         23         24         25
    21  H    0.000000
    22  N    9.425492   0.000000
    23  C    2.736809  10.532129   0.000000
    24  H    3.168950  10.949712   1.098701   0.000000
    25  H    2.496650  11.096144   1.095719   1.767795   0.000000
    26  H    3.722338  10.877348   1.095721   1.767695   1.773809
                   26
    26  H    0.000000
 Stoichiometry    C14H11N
 Framework group  C1[X(C14H11N)]
 Deg. of freedom    72
 Full point group                 C1      NOp   1
 Largest Abelian subgroup         C1      NOp   1
 Largest concise Abelian subgroup C1      NOp   1
                         Standard orientation:                         
 ---------------------------------------------------------------------
 Center     Atomic      Atomic             Coordinates (Angstroms)
 Number     Number       Type             X           Y           Z
 ---------------------------------------------------------------------
      1          6           0        3.277802   -1.184149    0.001595
      2          6           0        2.559509    0.032466    0.000779
      3          6           0        3.307879    1.223958    0.001710
      4          6           0        4.696427    1.144451    0.003377
      5          6           0        5.300018   -0.116357    0.004105
      6          1           0        2.738531   -2.128300    0.000986
      7          1           0        2.798016    2.182984    0.001132
      8          1           0        5.304595    2.044973    0.004108
      9          1           0        6.382633   -0.217475    0.005375
     10          6           0        1.137570    0.039703   -0.000817
     11          6           0       -0.079813    0.034919   -0.002514
     12          6           0       -1.503758    0.020380   -0.003634
     13          6           0       -2.211789   -1.198624   -0.006280
     14          6           0       -2.238289    1.223524   -0.006547
     15          6           0       -3.604139   -1.205842   -0.010088
     16          1           0       -1.658887   -2.133617   -0.008810
     17          6           0       -3.630525    1.200457   -0.010372
     18          1           0       -1.706143    2.170544   -0.009321
     19          6           0       -4.339624   -0.010595   -0.009671
     20          1           0       -4.131715   -2.157238   -0.015156
     21          1           0       -4.178863    2.140059   -0.015678
     22          7           0        4.609291   -1.266975    0.003226
     23          6           0       -5.849605   -0.027270    0.022074
     24          1           0       -6.219702   -0.034237    1.056542
     25          1           0       -6.271531    0.856350   -0.469652
     26          1           0       -6.251939   -0.917344   -0.474414
 ---------------------------------------------------------------------
 Rotational constants (GHZ):           2.8303409           0.1947921           0.1824579
 Standard basis: 6-31+G(d) (6D, 7F)
 There are   307 symmetry adapted cartesian basis functions of A   symmetry.
 There are   307 symmetry adapted basis functions of A   symmetry.
   307 basis functions,   524 primitive gaussians,   307 cartesian basis functions
    51 alpha electrons       51 beta electrons
       nuclear repulsion energy       785.7386211469 Hartrees.
 NAtoms=   26 NActive=   26 NUniq=   26 SFac= 1.00D+00 NAtFMM=   60 NAOKFM=F Big=F
 Integral buffers will be    131072 words long.
 Raffenetti 2 integral format.
 Two-electron integral symmetry is turned on.
 Nuclear repulsion after empirical dispersion term =      785.7220762676 Hartrees.
 One-electron integrals computed using PRISM.
 NBasis=   307 RedAO= T EigKep=  2.25D-06  NBF=   307
 NBsUse=   303 1.00D-06 EigRej=  6.58D-07 NBFU=   303
 Initial guess from the checkpoint file:  "molecule_26.chk"
 B after Tr=     0.000000    0.000000    0.000000
         Rot=    1.000000    0.000013    0.000029    0.000009 Ang=   0.00 deg.
 ExpMin= 4.38D-02 ExpMax= 4.17D+03 ExpMxC= 6.27D+02 IAcc=3 IRadAn=         5 AccDes= 0.00D+00
 Harris functional with IExCor=  402 and IRadAn=       5 diagonalized for initial guess.
 HarFok:  IExCor=  402 AccDes= 0.00D+00 IRadAn=         5 IDoV= 1 UseB2=F ITyADJ=14
 ICtDFT=  3500011 ScaDFX=  1.000000  1.000000  1.000000  1.000000
 FoFCou: FMM=F IPFlag=           0 FMFlag=      100000 FMFlg1=           0
         NFxFlg=           0 DoJE=T BraDBF=F KetDBF=T FulRan=T
         wScrn=  0.000000 ICntrl=       500 IOpCl=  0 I1Cent=   200000004 NGrid=           0
         NMat0=    1 NMatS0=      1 NMatT0=    0 NMatD0=    1 NMtDS0=    0 NMtDT0=    0
 Petite list used in FoFCou.
 Requested convergence on RMS density matrix=1.00D-08 within 128 cycles.
 Requested convergence on MAX density matrix=1.00D-06.
 Requested convergence on             energy=1.00D-06.
 No special actions if energy rises.
 SCF Done:  E(RB3LYP) =  -594.854648124     A.U. after   12 cycles
            NFock= 12  Conv=0.43D-08     -V/T= 2.0099
 Calling FoFJK, ICntrl=      2127 FMM=F ISym2X=0 I1Cent= 0 IOpClX= 0 NMat=1 NMatS=1 NMatT=0.
 ***** Axes restored to original set *****
 -------------------------------------------------------------------
 Center     Atomic                   Forces (Hartrees/Bohr)
 Number     Number              X              Y              Z
 -------------------------------------------------------------------
      1        6           0.000044344   -0.001265960    0.000012826
      2        6          -0.000392891   -0.000013518   -0.000002839
      3        6          -0.000292576    0.000108902   -0.000000067
      4        6           0.000949853    0.000678618    0.000002319
      5        6           0.000757624   -0.001196561   -0.000007499
      6        1          -0.000931371   -0.000046159   -0.000005297
      7        1           0.000015054    0.000041964   -0.000000219
      8        1           0.000177173   -0.000310122    0.000000904
      9        1           0.000614188    0.000799956    0.000003523
     10        6          -0.000163601   -0.000491736   -0.000000841
     11        6           0.000299654   -0.000206086    0.000000094
     12        6          -0.000346322    0.000229535   -0.000003191
     13        6           0.000301522   -0.000153129    0.000007689
     14        6           0.000226472    0.000115873    0.000009518
     15        6          -0.000159463    0.000063607   -0.000010125
     16        1          -0.000062341   -0.000022489    0.000001741
     17        6          -0.000162697   -0.000062332   -0.000013393
     18        1          -0.000064468    0.000021677    0.000001870
     19        6          -0.000201084    0.000007253    0.000030419
     20        1           0.000047419   -0.000106251   -0.000008967
     21        1           0.000039902    0.000106803   -0.000008067
     22        7          -0.000607870    0.001701497   -0.000002156
     23        6          -0.000044720    0.000000352   -0.000020087
     24        1           0.000003743   -0.000001999    0.000000353
     25        1          -0.000023648   -0.000022898    0.000006606
     26        1          -0.000023895    0.000023206    0.000004888
 -------------------------------------------------------------------
 Cartesian Forces:  Max     0.001701497 RMS     0.000382316

 GradGradGradGradGradGradGradGradGradGradGradGradGradGradGradGradGradGrad
 Berny optimization.
 Using GEDIIS/GDIIS optimizer.
 FormGI is forming the generalized inverse of G from B-inverse, IUseBI=4.
 Internal  Forces:  Max     0.001391085 RMS     0.000306556
 Search for a local minimum.
 Step number   2 out of a maximum of  135
 All quantities printed in internal units (Hartrees-Bohrs-Radians)
 Mixed Optimization -- En-DIIS/RFO-DIIS
 Update second derivatives using D2CorX and points    1    2
 DE= -4.12D-04 DEPred=-4.60D-04 R= 8.96D-01
 TightC=F SS=  1.41D+00  RLast= 4.88D-02 DXNew= 5.0454D-01 1.4651D-01
 Trust test= 8.96D-01 RLast= 4.88D-02 DXMaxT set to 3.00D-01
 ITU=  1  0
 Use linear search instead of GDIIS.
     Eigenvalues ---    0.00230   0.00612   0.01006   0.01354   0.01449
     Eigenvalues ---    0.01768   0.01858   0.01943   0.01950   0.02025
     Eigenvalues ---    0.02029   0.02032   0.02064   0.02066   0.02074
     Eigenvalues ---    0.02103   0.02105   0.02114   0.02126   0.02173
     Eigenvalues ---    0.02287   0.03737   0.04484   0.07028   0.07147
     Eigenvalues ---    0.15876   0.16000   0.16000   0.16000   0.16000
     Eigenvalues ---    0.16000   0.16000   0.16000   0.16000   0.16000
     Eigenvalues ---    0.16119   0.21972   0.22000   0.22930   0.23423
     Eigenvalues ---    0.23979   0.24685   0.24992   0.25000   0.25649
     Eigenvalues ---    0.31197   0.33820   0.34207   0.34209   0.34753
     Eigenvalues ---    0.35242   0.35273   0.35423   0.35425   0.35434
     Eigenvalues ---    0.35466   0.35532   0.40607   0.40639   0.41126
     Eigenvalues ---    0.41777   0.42180   0.42518   0.44073   0.44302
     Eigenvalues ---    0.44936   0.45378   0.45556   0.46755   0.53308
     Eigenvalues ---    0.55778   0.95268
 RFO step:  Lambda=-3.63537157D-05 EMin= 2.29999225D-03
 Quartic linear search produced a step of -0.09780.
 Iteration  1 RMS(Cart)=  0.02038925 RMS(Int)=  0.00006722
 Iteration  2 RMS(Cart)=  0.00022970 RMS(Int)=  0.00000048
 Iteration  3 RMS(Cart)=  0.00000001 RMS(Int)=  0.00000048
 Variable       Old X    -DE/DX   Delta X   Delta X   Delta X     New X
                                 (Linear)    (Quad)   (Total)
    R1        2.66987  -0.00007   0.00034  -0.00064  -0.00030   2.66957
    R2        2.05471   0.00050  -0.00045   0.00192   0.00147   2.05618
    R3        2.52101   0.00059   0.00203  -0.00194   0.00008   2.52110
    R4        2.65889   0.00097   0.00095   0.00066   0.00161   2.66049
    R5        2.68711   0.00033  -0.00013   0.00089   0.00076   2.68787
    R6        2.62828   0.00119   0.00079   0.00119   0.00199   2.63026
    R7        2.05250   0.00003  -0.00032   0.00054   0.00022   2.05272
    R8        2.64154   0.00000   0.00023  -0.00031  -0.00008   2.64145
    R9        2.05347  -0.00016  -0.00040   0.00018  -0.00023   2.05325
   R10        2.05475   0.00054  -0.00050   0.00209   0.00159   2.05634
   R11        2.53606   0.00029   0.00209  -0.00251  -0.00042   2.53564
   R12        2.30054   0.00017   0.00050  -0.00055  -0.00005   2.30049
   R13        2.69101   0.00047   0.00009   0.00089   0.00097   2.69198
   R14        2.66397   0.00012   0.00053  -0.00051   0.00001   2.66398
   R15        2.66384   0.00013   0.00052  -0.00048   0.00004   2.66389
   R16        2.63121   0.00026   0.00029   0.00009   0.00038   2.63159
   R17        2.05270  -0.00001  -0.00028   0.00037   0.00009   2.05279
   R18        2.63132   0.00026   0.00028   0.00010   0.00039   2.63170
   R19        2.05280  -0.00001  -0.00028   0.00036   0.00009   2.05289
   R20        2.65206   0.00016   0.00051  -0.00040   0.00011   2.65216
   R21        2.05583   0.00007  -0.00029   0.00060   0.00031   2.05613
   R22        2.65200   0.00015   0.00051  -0.00042   0.00008   2.65208
   R23        2.05586   0.00007  -0.00029   0.00061   0.00031   2.05617
   R24        2.85426   0.00009   0.00023  -0.00007   0.00015   2.85441
[...]
 363,-0.00000044,0.00000525,-0.00000055,0.00000003,0.00302230,0.0000100
 0,-0.00001957,-0.00481641,-0.00002876,-0.00013997,0.00608724,0.0006198
 8,0.00034892,-0.02874726,0.02849140,0.00032061,-0.02692488,-0.02952805
 ,0.00030068,-0.17355657,0.11557986,0.00021029,-0.00526122,-0.00084644,
 -0.00020774,-0.17079542,-0.11401195,0.00011422,-0.00531144,0.00070896,
 -0.00020631,0.63921189,-0.00005334,0.00000671,-0.00000044,-0.00001975,
 0.00001672,0.00000146,0.00006170,0.00000349,-0.00000263,-0.00004890,0.
 00002136,0.00000030,-0.00000105,-0.00005429,-0.00000018,0.00000200,-0.
 00000026,-0.00000024,-0.00000173,-0.00000100,0.00000027,-0.00000077,0.
 00000170,0.00000002,0.00000049,-0.00000038,-0.00000002,0.00003536,0.00
 077434,0.00000151,-0.00004062,-0.00140469,-0.00000262,0.00065710,-0.06
 693776,-0.00001279,0.07604630,0.03472648,0.00027469,-0.07713714,0.0328
 3447,-0.00025686,0.04823418,-0.26651823,-0.00158223,-0.00185137,0.0016
 0578,0.00011050,-0.04664509,-0.26930864,0.00146161,0.00174366,0.001662
 88,-0.00011758,-0.00009526,0.66082963,-0.00003234,-0.00002728,0.000050
 92,0.00014361,0.00000485,0.00003056,-0.00003615,0.00003249,-0.00001035
 ,0.00000606,0.00003934,0.00001862,-0.00004258,-0.00000957,-0.00001291,
 0.00000742,-0.00000311,-0.00000818,0.00000755,0.00000092,0.00000336,-0
 .00000970,-0.00000836,-0.00000275,-0.00000892,-0.00000142,-0.00000500,
 -0.00008005,-0.00004682,0.00034440,-0.00004907,0.00002360,-0.00176582,
 -0.00026540,-0.00003464,-0.00521417,-0.00019291,-0.00069439,0.00548699
 ,-0.00024092,0.00070336,0.00543015,0.00046569,-0.00034756,-0.06576146,
 0.00009242,-0.00001972,0.00750330,0.00042238,0.00024461,-0.06566666,0.
 00008954,0.00002029,0.00749511,-0.00520617,0.00010555,0.17078921,-0.00
 008974,-0.00007913,0.00000110,0.00017184,0.00010073,0.00000417,-0.0000
 4981,0.00002246,-0.00000145,-0.00000941,0.00000855,0.00000098,-0.00001
 945,-0.00001173,-0.00000058,0.00001321,-0.00000359,0.00000012,0.000015
 29,0.00000965,-0.00000014,-0.00001295,-0.00000528,-0.00000003,-0.00000
 863,-0.00000118,0.00000025,-0.00044909,0.00003503,0.00000228,-0.000319
 06,-0.00137590,-0.00004346,-0.00503897,0.00158717,-0.00003592,-0.01140
 197,-0.02963239,0.00003558,-0.00066565,0.00073294,0.00001852,-0.124096
 85,-0.11667292,-0.00106431,0.00054767,0.00033874,0.00001919,-0.0013633
 9,0.00333757,-0.00004388,0.00007739,-0.00010008,-0.00000264,0.01057966
 ,0.01436716,0.00001781,0.13068877,-0.00001949,-0.00001839,0.00000068,0
 .00008977,-0.00001437,0.00000045,-0.00002322,0.00000375,-0.00000088,-0
 .00000304,0.00002066,0.00000065,-0.00002536,-0.00000967,-0.00000031,0.
 00000593,-0.00000238,0.00000006,0.00000721,0.00000349,-0.00000007,-0.0
 0000652,-0.00000481,-0.00000001,-0.00000636,-0.00000074,0.00000006,-0.
 00001428,-0.00003188,0.00000183,0.00002373,0.00006760,-0.00001087,0.00
 084863,0.00194930,-0.00004530,0.00181667,0.00344906,0.00004722,0.00091
 222,0.00015265,-0.00000623,-0.11643692,-0.26992202,-0.00140422,-0.0003
 2190,0.00090875,0.00003713,0.00420092,-0.00297843,-0.00008602,-0.00011
 595,-0.00000672,0.00001426,-0.01560065,-0.02007574,-0.00014880,0.12531
 250,0.28646833,-0.00000194,-0.00000046,0.00000646,0.00000678,0.0000000
 5,-0.00001250,-0.00000145,-0.00000002,-0.00001425,0.00000021,0.0000007
 2,-0.00000614,-0.00000117,-0.00000069,0.00000221,0.00000041,-0.0000003
 1,0.00000311,0.00000037,0.00000021,0.00000389,-0.00000038,-0.00000024,
 0.00000176,-0.00000035,-0.00000005,0.00000019,-0.00001310,0.00000413,-
 0.00017248,0.00000747,-0.00001630,0.00049944,-0.00004626,-0.00003272,0
 .00731531,0.00003691,-0.00008883,0.00291195,-0.00003519,0.00001427,-0.
 00061974,-0.00082768,-0.00170896,-0.03652929,-0.00000151,0.00001978,-0
 .00419484,0.00006981,0.00015308,0.00624287,-0.00000120,-0.00000628,-0.
 00105993,-0.00069715,0.00001492,0.00367266,0.00103280,0.00154806,0.025
 30141,-0.00004285,-0.00002672,-0.00000135,0.00017639,-0.00010473,0.000
 00391,-0.00008967,0.00005354,0.00000085,-0.00001263,-0.00000644,-0.000
 00174,-0.00001929,-0.00000835,0.00000058,0.00001332,-0.00001094,-0.000
 00004,0.00001264,0.00000509,0.00000028,-0.00001949,-0.00000591,-0.0000
 0011,-0.00000928,-0.00000202,-0.00000015,-0.00044972,-0.00004491,0.000
 00190,-0.00034137,0.00137297,-0.00004271,-0.00499282,-0.00172414,-0.00
 003736,-0.00063841,-0.00074317,0.00001868,-0.01186752,0.02937365,0.000
 05663,-0.00122970,-0.00330797,-0.00004826,0.00007313,0.00010055,-0.000
 00247,-0.12813563,0.11908953,-0.00101237,0.00054735,-0.00035174,0.0000
 1943,0.01052924,-0.01382052,0.00000756,0.00062429,-0.00079825,0.000042
 32,0.13504142,0.00002132,0.00000522,0.00000056,-0.00009022,-0.00000715
 ,0.00000043,0.00001955,-0.00001217,-0.00000082,0.00000665,-0.00001675,
 0.00000074,0.00002206,0.00000847,-0.00000030,-0.00000602,0.00000482,0.
 00000003,-0.00000691,-0.00000181,-0.00000012,0.00000733,0.00000505,0.0
 0000003,0.00000651,0.00000088,0.00000007,0.00001159,-0.00002918,-0.000
 00238,-0.00003434,0.00008503,0.00000996,-0.00096014,0.00190998,0.00003
 993,-0.00092929,0.00012201,0.00000807,-0.00209099,0.00390768,-0.000044
 44,-0.00418013,-0.00311441,0.00007864,0.00011645,-0.00000233,-0.000013
 68,0.11883790,-0.26575940,0.00123860,0.00032153,0.00091363,-0.00003355
 ,0.01614655,-0.02006564,0.00013288,0.00083219,-0.00114418,-0.00002510,
 -0.12789486,0.28203412,-0.00000130,-0.00000008,-0.00001198,0.00000716,
 -0.00000056,-0.00001101,-0.00000218,0.00000017,0.00000753,-0.00000010,
 0.00000061,0.00000639,-0.00000101,-0.00000034,-0.00000236,0.00000027,-
 0.00000024,0.00000340,0.00000044,0.00000025,0.00000296,-0.00000043,-0.
 00000025,0.00000119,-0.00000035,-0.00000004,0.00000147,-0.00001334,-0.
 00000430,-0.00018002,0.00000754,0.00001644,0.00050704,-0.00004743,0.00
 002785,0.00730568,-0.00003503,-0.00001391,-0.00062125,0.00003440,0.000
 09026,0.00288617,0.00006928,-0.00015741,0.00623986,-0.00000131,0.00000
 684,-0.00105797,-0.00078010,0.00154785,-0.03646334,-0.00000138,-0.0000
 1677,-0.00419151,-0.00068492,-0.00004122,0.00367087,0.00004230,0.00002
 492,0.00020602,0.00097424,-0.00136617,0.02527364,-0.35386804,-0.003762
 18,-0.00035685,-0.04463765,0.08943127,-0.00013821,-0.05988932,-0.03064
 919,-0.00004395,0.06999855,-0.04657636,0.00008951,-0.17957948,-0.07741
 406,-0.00009051,-0.02826645,-0.00258290,-0.00002831,-0.00015883,-0.000
 46995,0.00000546,0.00000114,0.00311756,-0.00001152,-0.01806109,-0.0365
 6685,0.00000623,0.00934455,0.00347535,-0.00000189,-0.00512869,-0.00089
 100,-0.00000410,0.00197428,-0.00019972,0.00000672,-0.00064675,-0.00035
 592,-0.00000104,-0.00048076,0.00029722,-0.00000192,0.00022884,-0.00014
 559,0.00000451,0.00006643,0.00007326,-0.00000002,0.00013193,0.00012013
 ,0.00000407,0.00004298,-0.00003897,-0.00000085,-0.00013251,0.00005091,
 -0.00002754,-0.00003878,-0.00001918,-0.00000092,-0.00003904,0.00001936
 ,-0.00000092,0.60915249,0.02617721,-0.12585242,0.00007509,0.02728147,0
 .03828783,0.00001854,-0.03430893,-0.01335593,-0.00003835,0.01665334,-0
 .07203736,0.00008200,-0.10797868,-0.28032853,0.00000833,-0.02907535,0.
 00941087,-0.00004525,-0.00037499,0.00026358,-0.00000300,0.00363241,-0.
 00527621,0.00001308,-0.00958612,-0.00112934,-0.00001448,0.00405539,-0.
 00559105,0.00001538,-0.00013034,0.00010712,-0.00000136,0.00031075,0.00
 037793,0.00000328,0.00014400,-0.00031594,-0.00000265,-0.00003710,0.000
 15106,-0.00000060,0.00013846,0.00008544,0.00000252,-0.00001623,-0.0000
 0406,0.00000020,0.00008070,-0.00001037,0.00000006,-0.00004489,0.000049
 44,-0.00000070,-0.00009319,0.00002027,-0.00000252,0.00005092,0.0000091
 8,0.00000083,0.00001954,-0.00000318,0.00000051,0.10308279,0.45513648,-
 0.00037777,0.00003764,-0.06426689,-0.00009911,0.00009767,0.02050062,-0
 .00004057,-0.00003434,-0.00794653,0.00004864,0.00000503,0.02194973,-0.
 00007094,0.00004364,-0.06582607,-0.00001030,-0.00001260,-0.00425843,0.
 00000492,-0.00000333,-0.00386995,-0.00001203,0.00001282,0.00767215,-0.
 00001098,-0.00004685,-0.00400831,-0.00000124,0.00001439,0.00826807,-0.
 00000524,-0.00000230,-0.00068880,0.00000239,0.00000295,-0.00032155,-0.
 00000358,-0.00000302,-0.00010647,0.00000075,-0.00000163,0.00007391,0.0
 0000154,-0.00000116,0.00014613,0.00000026,0.00000067,-0.00005136,-0.00
 000017,0.00000007,-0.00006791,0.00000043,0.00000056,0.00001509,-0.0000
 0034,0.00000097,-0.00002031,-0.00000144,-0.00000048,0.00000130,0.00000
 065,-0.00000025,-0.00000684,0.00057301,-0.00011101,0.09281229,-0.00006
 341,0.00006282,-0.00000151,0.00023326,-0.00000420,-0.00000763,-0.00006
 148,-0.00006339,0.00000043,0.00003828,-0.00001499,0.00000027,-0.000031
 08,0.00000010,0.00000008,-0.00000121,0.00000310,0.00000003,-0.00000287
 ,-0.00000155,-0.00000029,0.00000232,-0.00000060,0.00000016,0.00000173,
 -0.00000013,-0.00000021,-0.00065226,0.00000470,-0.00002965,0.00112838,
 0.00000401,0.00021432,-0.00197978,-0.00002899,-0.00016644,0.00293502,0
 .00133487,-0.00043607,0.00295038,-0.00118174,-0.00045835,-0.02248366,0
 .00432929,0.00049039,-0.00006618,-0.00017751,0.00012405,-0.02185234,-0
 .00475610,0.00046296,-0.00004347,0.00017693,0.00012624,-0.21192481,-0.
 00109021,0.00287459,0.00105022,-0.00150431,0.00042947,0.00104833,0.001
 51910,0.00044416,0.00005038,0.00001321,0.00000118,0.48758745,-0.000008
 06,-0.00001239,-0.00000410,0.00000270,-0.00001420,-0.00000112,-0.00000
 380,-0.00001281,-0.00000178,0.00000997,0.00000886,-0.00000136,-0.00000
 534,-0.00000011,-0.00000002,-0.00000378,0.00000278,0.00000056,0.000005
 05,0.00000341,0.00000047,0.00000077,-0.00000127,-0.00000019,-0.0000003
 0,0.00000083,-0.00000186,-0.00000640,0.00004805,-0.00000055,0.00000957
 ,0.00021684,0.00000487,-0.00002883,-0.00048373,-0.00000562,0.00170112,
 -0.00480058,-0.00116548,-0.00153350,-0.00483459,0.00115553,0.02918060,
 0.00374359,-0.00155926,0.00138927,0.00006084,0.00009883,-0.02961763,0.
 00312901,0.00156153,-0.00139362,0.00003455,-0.00009553,-0.00101737,-0.
 08972952,0.00002172,0.00120799,0.00062758,0.00085766,-0.00121229,0.000
 62631,-0.00085025,0.00000517,0.00000419,0.00000791,-0.00093794,0.58527
 070,0.00008429,0.00000844,-0.00001260,-0.00031827,0.00001219,0.0000522
 8,0.00007989,-0.00000423,0.00000420,-0.00001737,-0.00004763,-0.0000113
 4,0.00008622,0.00001617,0.00000576,-0.00000832,0.00000309,0.00000328,-
 0.00000902,-0.00000165,0.00000183,0.00001319,0.00001090,0.00000217,0.0
 0001133,0.00000214,0.00000234,0.00045013,0.00000765,-0.00002225,-0.000
 57741,-0.00000608,-0.00067784,0.00109816,0.00001950,-0.00107237,-0.001
 28939,0.00041447,0.00646186,-0.00127062,-0.00045104,0.00650395,-0.0002
 3303,-0.00034166,0.00471545,-0.00016159,0.00000140,-0.00000189,-0.0002
 7018,0.00033358,0.00471057,-0.00016298,-0.00000431,0.00000459,-0.00138
 941,-0.00002007,-0.07106812,0.00024142,-0.00055153,-0.00326964,0.00023
 238,0.00056039,-0.00329087,0.00000614,-0.00000391,0.00000072,0.0119563
 7,0.00014263,0.53800040,-0.00004199,-0.00004078,-0.00000085,0.00015749
 ,-0.00000969,-0.00000580,-0.00003994,0.00003406,-0.00000167,-0.0000094
 7,0.00004552,-0.00000147,-0.00005680,-0.00001458,0.00000056,0.00000900
 ,-0.00000425,0.00000287,0.00001051,0.00000279,0.00000278,-0.00001339,-
 0.00000936,0.00000080,-0.00001111,-0.00000190,0.00000080,-0.00007988,-
 0.00000164,-0.00001108,-0.00010003,-0.00000145,0.00014320,-0.00003717,
 -0.00001733,0.00025166,-0.00045348,-0.00020469,-0.00150628,-0.00048940
 ,0.00020814,-0.00150191,-0.00027014,-0.00130561,-0.00047914,-0.0001080
 6,0.00003649,0.00004407,-0.00028087,0.00131360,-0.00045965,-0.00010978
 ,-0.00003914,0.00004100,-0.01523134,-0.00026321,0.03125323,0.00003911,
 0.00036588,0.00068560,0.00004605,-0.00035990,0.00068022,-0.00003511,0.
 00000095,-0.00000279,-0.07172341,-0.00049884,0.08077141,0.08082955,0.0
 0000111,0.00000561,0.00000196,0.00000221,0.00000439,0.00000094,-0.0000
 0124,0.00000455,0.00000012,-0.00000138,-0.00000177,0.00000050,0.000001
 07,0.00000191,-0.00000050,-0.00000019,-0.00000119,-0.00000055,0.000000
 04,-0.00000075,0.00000035,-0.00000076,-0.00000025,0.00000018,-0.000000
 21,-0.00000013,0.00000057,0.00000027,-0.00003128,-0.00000235,-0.000002
 72,0.00001028,0.00000306,-0.00000566,0.00114341,0.00000167,-0.00115015
 ,-0.00058781,0.00037493,0.00113607,-0.00056183,-0.00040726,0.00186050,
 -0.00034567,0.00056175,0.00001389,-0.00001726,-0.00006125,-0.00184701,
 -0.00035531,-0.00057224,-0.00001578,-0.00001860,0.00006198,-0.00015669
 ,0.00035915,0.00026396,0.00006246,-0.00012893,-0.00029532,-0.00005931,
 -0.00013217,0.00031432,-0.00000185,-0.00000398,-0.00000198,-0.00048191
 ,-0.04665077,0.00156998,0.00062492,0.04572887,-0.00001144,0.00002091,0
 .00000004,0.00003386,0.00000083,0.00000365,-0.00001039,-0.00001987,-0.
 00000007,0.00001237,-0.00001037,0.00000024,-0.00000365,0.00000355,-0.0
 0000026,-0.00000252,0.00000229,-0.00000079,-0.00000328,-0.00000162,-0.
 00000086,0.00000277,0.00000173,-0.00000071,0.00000287,0.00000027,-0.00
 000007,-0.00014815,0.00000097,0.00001286,0.00030019,0.00000063,-0.0000
 8767,-0.00052219,-0.00000488,-0.00006035,0.00059400,0.00004040,0.00008
 574,0.00059115,-0.00003152,0.00008024,-0.00042457,0.00069414,0.0003071
 5,0.00004468,0.00000051,0.00003072,-0.00041460,-0.00070225,0.00029228,
 0.00004468,0.00000053,0.00003140,0.00186387,0.00000663,0.00376946,0.00
 005565,0.00004757,-0.00030389,0.00005415,-0.00005014,-0.00029879,0.000
 02163,0.00000068,0.00000091,0.07658091,0.00153411,-0.27711584,-0.08657
 542,-0.00171057,0.30121853,-0.00002094,-0.00000726,0.00000136,0.000091
 78,0.00000074,0.00000009,-0.00002290,0.00001707,-0.00000165,-0.0000020
 2,0.00001779,0.00000163,-0.00002580,-0.00000671,-0.00000028,0.00000502
 ,-0.00000441,-0.00000097,0.00000451,0.00000032,-0.00000136,-0.00000690
 ,-0.00000454,-0.00000028,-0.00000536,-0.00000120,0.00000005,-0.0000731
 7,-0.00000890,0.00001389,0.00004269,-0.00009630,-0.00005153,0.00006956
 ,-0.00016640,-0.00016096,-0.00013664,0.00144800,0.00087217,-0.00006620
 ,0.00008692,0.00040046,-0.00566138,-0.00200913,-0.00050196,-0.00046198
 ,-0.00000742,0.00003734,0.00122414,0.00171936,0.00056485,0.00003153,-0
 .00001785,-0.00001925,-0.01333228,0.02833435,-0.01448555,0.00004749,0.
 00003091,-0.00026897,-0.00026962,-0.00129676,-0.00041889,-0.00001593,-
 0.00000083,-0.00000020,-0.08441716,0.07710602,-0.04521751,0.00408922,-
 0.00926450,0.00392373,0.09429250,-0.00000035,0.00000672,0.00000007,-0.
 00001335,-0.00000062,-0.00000934,0.00000166,-0.00001307,0.00000241,0.0
 0000830,-0.00000765,-0.00000028,0.00000091,0.00000436,0.00000050,-0.00
 000315,0.00000399,0.00000091,-0.00000423,-0.00000181,0.00000040,0.0000
 0380,0.00000250,0.00000063,0.00000368,0.00000030,0.00000062,-0.0000291
 2,-0.00000232,-0.00001282,0.00011255,0.00005595,0.00015735,-0.00027861
 ,0.00028346,-0.00005145,-0.00012179,-0.00007730,0.00001237,0.00068515,
 0.00014171,-0.00059154,0.00031848,0.00044772,0.00059299,0.00005405,0.0
 0000127,-0.00000638,-0.00203908,0.00036778,-0.00034500,0.00006259,0.00
 000628,0.00003947,-0.00002582,0.00086983,-0.00216098,-0.00019335,0.000
 42922,0.00005738,-0.00007765,0.00023221,0.00048655,0.00001852,-0.00000
 088,-0.00000313,0.07910171,-0.22298135,0.09637868,-0.00087977,0.000604
 64,-0.00031757,-0.08647823,0.23956765,-0.00001933,0.00000025,-0.000000
 42,0.00007832,-0.00000434,0.00000638,-0.00001811,0.00000316,-0.0000016
 2,0.00000180,0.00001247,-0.00000005,-0.00002031,-0.00000469,-0.0000008
 6,0.00000211,-0.00000195,0.00000014,0.00000280,0.00000071,0.00000104,-
 0.00000421,-0.00000304,0.00000038,-0.00000347,-0.00000059,0.00000024,-
 0.00009776,0.00000238,-0.00000710,0.00012867,-0.00001251,0.00000922,-0
 .00015917,-0.00048199,-0.00002208,0.00089031,0.00011542,0.00011444,-0.
 00021848,-0.00002561,-0.00004491,0.00001582,-0.00009383,0.00053140,0.0
 0004114,-0.00001105,-0.00008048,0.00012663,0.00029757,0.00038880,-0.00
 001850,0.00000474,-0.00002687,0.00270750,-0.00283250,0.00061235,0.0000
 3894,0.00014278,-0.00003340,-0.00030936,-0.00039206,0.00005277,-0.0000
 0432,-0.00000049,-0.00000038,-0.04686345,0.09672910,-0.10126425,-0.011
 90446,0.02662422,-0.01387707,0.04832253,-0.10711479,0.10575337,-0.0000
 2466,-0.00002189,-0.00000114,0.00009166,-0.00000854,-0.00000320,-0.000
 02295,0.00000733,0.00000041,-0.00000025,0.00002160,0.00000146,-0.00002
 755,-0.00000742,-0.00000046,0.00000414,-0.00000052,-0.00000122,0.00000
 607,0.00000305,-0.00000075,-0.00000591,-0.00000418,-0.00000022,-0.0000
 0508,-0.00000055,-0.00000070,-0.00007320,0.00000244,0.00001390,0.00004
 168,0.00009635,-0.00004864,0.00005973,0.00015453,-0.00016071,-0.000049
 33,-0.00009293,0.00039379,-0.00011914,-0.00143500,0.00087766,0.0012131
 0,-0.00169490,0.00056493,0.00003241,0.00001854,-0.00001945,-0.00566299
 ,0.00190054,-0.00049444,-0.00046137,-0.00000296,0.00003912,-0.01286530
 ,-0.02846425,-0.01471058,-0.00029118,0.00128106,-0.00041491,0.00004487
 ,-0.00003853,-0.00027132,-0.00001312,0.00000550,0.00000293,-0.08172265
 ,-0.07435053,-0.04410582,0.00391043,0.00928680,0.00398971,0.00461985,0
 .00977312,0.00728436,0.09132076,0.00000019,-0.00001502,0.00000131,0.00
 001299,-0.00000489,0.00000843,-0.00000277,0.00000869,0.00000350,-0.000
 00790,0.00000937,-0.00000082,-0.00000173,-0.00000566,0.00000062,0.0000
 0342,-0.00000255,-0.00000069,0.00000446,0.00000298,-0.00000127,-0.0000
 0281,-0.00000228,-0.00000067,-0.00000353,-0.00000022,0.00000041,0.0000
 3091,-0.00000327,0.00001097,-0.00011652,0.00005627,-0.00015913,0.00027
 948,0.00029413,0.00005500,-0.00069758,0.00012249,0.00059476,0.00011788
 ,-0.00010186,0.00000367,0.00205801,0.00036739,0.00036217,-0.00006147,0
 .00000448,-0.00003950,-0.00043020,0.00047026,-0.00059898,-0.00006243,-
 0.00000055,0.00000620,-0.00025093,0.00036335,0.00191163,0.00006947,0.0
 0024868,-0.00049579,0.00018504,0.00043293,-0.00006506,-0.00001783,0.00
 000585,-0.00000223,-0.07630629,-0.22425621,-0.09804909,0.00101980,0.00
 097486,0.00049303,-0.00939101,-0.01994060,-0.01295334,0.08357133,0.240
 97135,-0.00001965,-0.00000641,-0.00000129,0.00007827,-0.00000326,0.000
 00462,-0.00001825,-0.00000064,0.00000061,0.00000229,0.00001388,-0.0000
 0129,-0.00002104,-0.00000557,0.00000039,0.00000251,-0.00000100,0.00000
 098,0.00000268,0.00000141,0.00000016,-0.00000330,-0.00000282,0.0000001
 6,-0.00000335,-0.00000056,0.00000018,-0.00009753,-0.00000208,-0.000005
 29,0.00012776,0.00001384,0.00000916,-0.00016629,0.00047762,-0.00002022
 ,-0.00021861,0.00002333,-0.00004292,0.00089010,-0.00009709,0.00010346,
 0.00013186,-0.00029874,0.00040044,-0.00001863,-0.00000534,-0.00002637,
 0.00001971,0.00009740,0.00051746,0.00004137,0.00001191,-0.00007814,0.0
 0266262,0.00289098,0.00065777,-0.00031726,0.00038904,0.00004750,0.0000
 4232,-0.00014130,-0.00002904,-0.00000442,0.00000384,-0.00000112,-0.045
 74201,-0.09842780,-0.10266238,-0.01142768,-0.02672845,-0.01408687,0.00
 699125,0.01288295,0.00788895,0.04706529,0.10891486,0.10732308\\0.00003
 894,0.00002090,-0.00000344,0.00001486,-0.00005193,0.00000118,-0.000022
 12,0.00001101,0.00000037,0.00005464,0.00000484,-0.00000067,-0.00002374
 ,-0.00002904,0.00000212,-0.00003926,-0.00002609,0.00000124,-0.00000319
 ,0.00000933,-0.00000012,0.00000016,-0.00000395,-0.00000026,0.00004164,
 0.00001873,-0.00000061,-0.00003415,0.00000972,0.00000053,0.00003818,-0
 .00002003,-0.00000140,-0.00002970,0.00001100,0.00000059,0.00000396,-0.
 00000611,0.00000070,-0.00000463,0.00000469,0.,0.00000035,0.00001304,-0
 .00000287,0.00000264,-0.00000354,0.00000051,0.00000311,-0.00000853,0.0
 0000012,0.00000226,0.00000391,0.00000021,-0.00000975,-0.00000288,0.000
 00559,-0.00000116,-0.00001087,-0.00000062,-0.00000236,0.00001067,-0.00
 000093,-0.00002712,0.00004448,0.00000033,-0.00000188,-0.00000033,-0.00
 000118,0.00000256,0.00000164,0.00000045,-0.00000236,-0.00000121,-0.000
 00207,-0.00000189,0.00000054,0.00000024\\\@


 Democracy is the recurrent suspicion that more than half of the people
 are right more than half of the time.
 -- E. B. White
 Job cpu time:       0 days  1 hours 42 minutes 48.7 seconds.
 Elapsed time:       0 days  0 hours  3 minutes 25.7 seconds.
 File lengths (MBytes):  RWF=    254 Int=      0 D2E=      0 Chk=      9 Scr=      1
 Normal termination of Gaussian 16 at Mon Sep 18 04:05:42 2023.
