 Entering Gaussian System, Link 0=/home/ubuntu/g16/g16
 Input=/home/ubuntu/ML products/molecule_99.gjf
 Output=/home/ubuntu/ML products/molecule_99.log
 Initial command:
 /home/ubuntu/g16/l1.exe "/home/ubuntu/Scratch/Gau-244471.inp" -scrdir="/home/ubuntu/Scratch/"
 Entering Link 1 = /home/ubuntu/g16/l1.exe PID=    244473.
  
 Copyright (c) 1988-2017, Gaussian, Inc.  All Rights Reserved.
  
 This is part of the Gaussian(R) 16 program.  It is based on
 the Gaussian(R) 09 system (copyright 2009, Gaussian, Inc.),
 the Gaussian(R) 03 system (copyright 2003, Gaussian, Inc.),
 the Gaussian(R) 98 system (copyright 1998, Gaussian, Inc.),
 the Gaussian(R) 94 system (copyright 1995, Gaussian, Inc.),
 the Gaussian 92(TM) system (copyright 1992, Gaussian, Inc.),
 the Gaussian 90(TM) system (copyright 1990, Gaussian, Inc.),
 the Gaussian 88(TM) system (copyright 1988, Gaussian, Inc.),
 the Gaussian 86(TM) system (copyright 1986, Carnegie Mellon
 University), and the Gaussian 82(TM) system (copyright 1983,
 Carnegie Mellon University). Gaussian is a federally registered
 trademark of Gaussian, Inc.
  
 This software contains proprietary and confidential information,
 including trade secrets, belonging to Gaussian, Inc.
  
 This software is provided under written license and may be
 used, copied, transmitted, or stored only in accord with that
 written license.
  
 The following legend is applicable only to US Government
 contracts under FAR:
  
                    RESTRICTED RIGHTS LEGEND
  
 Use, reproduction and disclosure by the US Government is
 subject to restrictions as set forth in subparagraphs (a)
 and (c) of the Commercial Computer Software - Restricted
 Rights clause in FAR 52.227-19.
  
 Gaussian, Inc.
 340 Quinnipiac St., Bldg. 40, Wallingford CT 06492
  
  
 ---------------------------------------------------------------
 Warning -- This program may not be used in any manner that
 competes with the business of Gaussian, Inc. or will provide
 assistance to any competitor of Gaussian, Inc.  The licensee
 of this program is prohibited from giving any competitor of
 Gaussian, Inc. access to this program.  By using this program,
 the user acknowledges that Gaussian, Inc. is engaged in the
 business of creating and licensing software in the field of
 computational chemistry and represents and warrants to the
 licensee that it is not a competitor of Gaussian, Inc. and that
 it will not use this program in any manner prohibited above.
 ---------------------------------------------------------------
  

 Cite this work as:
 Gaussian 16, Revision B.01,
 M. J. Frisch, G. W. Trucks, H. B. Schlegel, G. E. Scuseria, 
 M. A. Robb, J. R. Cheeseman, G. Scalmani, V. Barone, 
 G. A. Petersson, H. Nakatsuji, X. Li, M. Caricato, A. V. Marenich, 
 J. Bloino, B. G. Janesko, R. Gomperts, B. Mennucci, H. P. Hratchian, 
 J. V. Ortiz, A. F. Izmaylov, J. L. Sonnenberg, D. Williams-Young, 
 F. Ding, F. Lipparini, F. Egidi, J. Goings, B. Peng, A. Petrone, 
 T. Henderson, D. Ranasinghe, V. G. Zakrzewski, J. Gao, N. Rega, 
 G. Zheng, W. Liang, M. Hada, M. Ehara, K. Toyota, R. Fukuda, 
 J. Hasegawa, M. Ishida, T. Nakajima, Y. Honda, O. Kitao, H. Nakai, 
 T. Vreven, K. Throssell, J. A. Montgomery, Jr., J. E. Peralta, 
 F. Ogliaro, M. J. Bearpark, J. J. Heyd, E. N. Brothers, K. N. Kudin, 
 V. N. Staroverov, T. A. Keith, R. Kobayashi, J. Normand, 
 K. Raghavachari, A. P. Rendell, J. C. Burant, S. S. Iyengar, 
 J. Tomasi, M. Cossi, J. M. Millam, M. Klene, C. Adamo, R. Cammi, 
 J. W. Ochterski, R. L. Martin, K. Morokuma, O. Farkas, 
 J. B. Foresman, and D. J. Fox, Gaussian, Inc., Wallingford CT, 2016.
 
 ******************************************
 Gaussian 16:  EM64L-G16RevB.01 20-Dec-2017
                15-Sep-2023 
 ******************************************
 %nprocshared=30
 Will use up to   30 processors via shared memory.
 %mem=30GB
 %chk=molecule_99.chk
 ----------------------------------------------------------------------
 # opt freq b3lyp/6-31+g(d) geom=connectivity empiricaldispersion=gd3 v
 olume
 ----------------------------------------------------------------------
 1/18=20,19=15,26=3,38=1,57=2/1,3;
 2/9=110,12=2,17=6,18=5,40=1/2;
 3/5=1,6=6,7=11,11=2,25=1,30=1,71=1,74=-5,124=31/1,2,3;
 4//1;
 5/5=2,38=5/2;
 6/7=2,8=2,9=2,10=2,28=1,44=1/1,4;
 7//1,2,3,16;
 1/18=20,19=15,26=3/3(2);
 2/9=110/2;
 99//99;
 2/9=110/2;
 3/5=1,6=6,7=11,11=2,25=1,30=1,71=1,74=-5,124=31/1,2,3;
 4/5=5,16=3,69=1/1;
 5/5=2,38=5/2;
 7//1,2,3,16;
 1/18=20,19=15,26=3/3(-5);
 2/9=110/2;
 6/7=2,8=2,9=2,10=2,19=2,28=1,44=1/1,4;
 99/9=1/99;
 -------------
 ML molecule99
 -------------
 Symbolic Z-matrix:
 Charge =  0 Multiplicity = 1
 C                    -4.74942  -0.23058  -0.40002 
 C                    -4.8202    0.23854  -1.71867 
 C                    -4.55025   1.58484  -1.99888 
 C                    -4.20951   2.46203  -0.96044 
 C                    -4.13873   1.99291   0.35822 
 C                    -4.40868   0.64661   0.63842 
 H                    -5.08036  -0.43121  -2.51155 
 H                    -3.87857   2.66266   1.15109 
 O                    -3.91049   3.9533   -1.27081 
 C                    -3.81752   4.69985  -2.77936 
 C                    -4.13168   3.88761  -3.87731 
 C                    -3.30395   5.98751  -2.98454 
 C                    -3.93225   4.36302  -5.18043 
 C                    -3.10452   6.46292  -4.28767 
 C                    -3.41867   5.65068  -5.38561 
 H                    -4.17211   3.74285  -6.01874 
 H                    -2.7124    7.44608  -4.44432 
 H                    -4.60429   1.94302  -3.0057 
 H                    -4.5238    2.90445  -3.72065 
 H                    -4.95553  -1.25851  -0.18608 
 H                    -3.26641   6.01366  -6.38058 
 H                    -3.06408   6.60768  -2.14623 
 C                    -4.3309    0.13109   2.08749 
 F                    -4.68695  -1.17066   2.12174 
 F                    -5.16964   0.84765   2.86567 
 F                    -3.06793   0.26438   2.54535 
 

 GradGradGradGradGradGradGradGradGradGradGradGradGradGradGradGradGradGrad
 Berny optimization.
 Initialization pass.
                           ----------------------------
                           !    Initial Parameters    !
                           ! (Angstroms and Degrees)  !
 --------------------------                            --------------------------
 ! Name  Definition              Value          Derivative Info.                !
 --------------------------------------------------------------------------------
 ! R1    R(1,2)                  1.4014         estimate D2E/DX2                !
 ! R2    R(1,6)                  1.4014         estimate D2E/DX2                !
 ! R3    R(1,20)                 1.07           estimate D2E/DX2                !
 ! R4    R(2,3)                  1.4014         estimate D2E/DX2                !
 ! R5    R(2,7)                  1.07           estimate D2E/DX2                !
 ! R6    R(3,4)                  1.4014         estimate D2E/DX2                !
 ! R7    R(3,18)                 1.07           estimate D2E/DX2                !
 ! R8    R(4,5)                  1.4014         estimate D2E/DX2                !
 ! R9    R(4,9)                  1.5523         estimate D2E/DX2                !
 ! R10   R(5,6)                  1.4014         estimate D2E/DX2                !
 ! R11   R(5,8)                  1.07           estimate D2E/DX2                !
 ! R12   R(6,23)                 1.54           estimate D2E/DX2                !
 ! R13   R(9,10)                 1.6857         estimate D2E/DX2                !
 ! R14   R(10,11)                1.4014         estimate D2E/DX2                !
 ! R15   R(10,12)                1.4014         estimate D2E/DX2                !
 ! R16   R(11,13)                1.4014         estimate D2E/DX2                !
 ! R17   R(11,19)                1.07           estimate D2E/DX2                !
 ! R18   R(12,14)                1.4014         estimate D2E/DX2                !
 ! R19   R(12,22)                1.07           estimate D2E/DX2                !
 ! R20   R(13,15)                1.4014         estimate D2E/DX2                !
 ! R21   R(13,16)                1.07           estimate D2E/DX2                !
 ! R22   R(14,15)                1.4014         estimate D2E/DX2                !
 ! R23   R(14,17)                1.07           estimate D2E/DX2                !
 ! R24   R(15,21)                1.07           estimate D2E/DX2                !
 ! R25   R(23,24)                1.35           estimate D2E/DX2                !
 ! R26   R(23,25)                1.35           estimate D2E/DX2                !
 ! R27   R(23,26)                1.35           estimate D2E/DX2                !
 ! A1    A(2,1,6)              120.0            estimate D2E/DX2                !
 ! A2    A(2,1,20)             120.0            estimate D2E/DX2                !
 ! A3    A(6,1,20)             120.0            estimate D2E/DX2                !
 ! A4    A(1,2,3)              120.0            estimate D2E/DX2                !
 ! A5    A(1,2,7)              120.0            estimate D2E/DX2                !
 ! A6    A(3,2,7)              120.0            estimate D2E/DX2                !
 ! A7    A(2,3,4)              120.0            estimate D2E/DX2                !
 ! A8    A(2,3,18)             120.0            estimate D2E/DX2                !
 ! A9    A(4,3,18)             120.0            estimate D2E/DX2                !
 ! A10   A(3,4,5)              120.0            estimate D2E/DX2                !
 ! A11   A(3,4,9)              120.0            estimate D2E/DX2                !
 ! A12   A(5,4,9)              120.0            estimate D2E/DX2                !
 ! A13   A(4,5,6)              120.0            estimate D2E/DX2                !
 ! A14   A(4,5,8)              120.0            estimate D2E/DX2                !
 ! A15   A(6,5,8)              120.0            estimate D2E/DX2                !
 ! A16   A(1,6,5)              120.0            estimate D2E/DX2                !
 ! A17   A(1,6,23)             120.0            estimate D2E/DX2                !
 ! A18   A(5,6,23)             120.0            estimate D2E/DX2                !
 ! A19   A(4,9,10)             127.9526         estimate D2E/DX2                !
 ! A20   A(9,10,11)            115.5989         estimate D2E/DX2                !
 ! A21   A(9,10,12)            123.9281         estimate D2E/DX2                !
 ! A22   A(11,10,12)           120.0            estimate D2E/DX2                !
 ! A23   A(10,11,13)           120.0            estimate D2E/DX2                !
 ! A24   A(10,11,19)           120.0            estimate D2E/DX2                !
 ! A25   A(13,11,19)           120.0            estimate D2E/DX2                !
 ! A26   A(10,12,14)           120.0            estimate D2E/DX2                !
 ! A27   A(10,12,22)           120.0            estimate D2E/DX2                !
 ! A28   A(14,12,22)           120.0            estimate D2E/DX2                !
 ! A29   A(11,13,15)           120.0            estimate D2E/DX2                !
 ! A30   A(11,13,16)           120.0            estimate D2E/DX2                !
 ! A31   A(15,13,16)           120.0            estimate D2E/DX2                !
 ! A32   A(12,14,15)           120.0            estimate D2E/DX2                !
 ! A33   A(12,14,17)           120.0            estimate D2E/DX2                !
 ! A34   A(15,14,17)           120.0            estimate D2E/DX2                !
 ! A35   A(13,15,14)           120.0            estimate D2E/DX2                !
 ! A36   A(13,15,21)           120.0            estimate D2E/DX2                !
 ! A37   A(14,15,21)           120.0            estimate D2E/DX2                !
 ! A38   A(6,23,24)            109.4712         estimate D2E/DX2                !
 ! A39   A(6,23,25)            109.4712         estimate D2E/DX2                !
 ! A40   A(6,23,26)            109.4712         estimate D2E/DX2                !
 ! A41   A(24,23,25)           109.4712         estimate D2E/DX2                !
 ! A42   A(24,23,26)           109.4712         estimate D2E/DX2                !
 ! A43   A(25,23,26)           109.4713         estimate D2E/DX2                !
 ! D1    D(6,1,2,3)              0.0001         estimate D2E/DX2                !
 ! D2    D(6,1,2,7)           -179.9998         estimate D2E/DX2                !
 ! D3    D(20,1,2,3)          -179.9999         estimate D2E/DX2                !
 ! D4    D(20,1,2,7)             0.0002         estimate D2E/DX2                !
 ! D5    D(2,1,6,5)             -0.0001         estimate D2E/DX2                !
 ! D6    D(2,1,6,23)           179.9998         estimate D2E/DX2                !
 ! D7    D(20,1,6,5)           179.9999         estimate D2E/DX2                !
 ! D8    D(20,1,6,23)           -0.0002         estimate D2E/DX2                !
 ! D9    D(1,2,3,4)              0.0001         estimate D2E/DX2                !
 ! D10   D(1,2,3,18)          -179.9999         estimate D2E/DX2                !
 ! D11   D(7,2,3,4)            179.9999         estimate D2E/DX2                !
 ! D12   D(7,2,3,18)            -0.0001         estimate D2E/DX2                !
 ! D13   D(2,3,4,5)             -0.0002         estimate D2E/DX2                !
 ! D14   D(2,3,4,9)            179.9998         estimate D2E/DX2                !
 ! D15   D(18,3,4,5)           179.9998         estimate D2E/DX2                !
 ! D16   D(18,3,4,9)            -0.0002         estimate D2E/DX2                !
 ! D17   D(3,4,5,6)              0.0001         estimate D2E/DX2                !
 ! D18   D(3,4,5,8)           -180.0            estimate D2E/DX2                !
 ! D19   D(9,4,5,6)           -179.9999         estimate D2E/DX2                !
 ! D20   D(9,4,5,8)              0.0            estimate D2E/DX2                !
 ! D21   D(3,4,9,10)            -5.2547         estimate D2E/DX2                !
 ! D22   D(5,4,9,10)           174.7453         estimate D2E/DX2                !
 ! D23   D(4,5,6,1)              0.0            estimate D2E/DX2                !
 ! D24   D(4,5,6,23)          -179.9999         estimate D2E/DX2                !
 ! D25   D(8,5,6,1)           -179.9999         estimate D2E/DX2                !
 ! D26   D(8,5,6,23)             0.0002         estimate D2E/DX2                !
 ! D27   D(1,6,23,24)           -2.7452         estimate D2E/DX2                !
 ! D28   D(1,6,23,25)         -122.7452         estimate D2E/DX2                !
 ! D29   D(1,6,23,26)          117.2548         estimate D2E/DX2                !
 ! D30   D(5,6,23,24)          177.2547         estimate D2E/DX2                !
 ! D31   D(5,6,23,25)           57.2547         estimate D2E/DX2                !
 ! D32   D(5,6,23,26)          -62.7453         estimate D2E/DX2                !
 ! D33   D(4,9,10,11)            4.3564         estimate D2E/DX2                !
 ! D34   D(4,9,10,12)         -167.7268         estimate D2E/DX2                !
 ! D35   D(9,10,11,13)        -172.4167         estimate D2E/DX2                !
 ! D36   D(9,10,11,19)           7.5833         estimate D2E/DX2                !
 ! D37   D(12,10,11,13)          0.0002         estimate D2E/DX2                !
 ! D38   D(12,10,11,19)       -179.9998         estimate D2E/DX2                !
 ! D39   D(9,10,12,14)         171.7535         estimate D2E/DX2                !
 ! D40   D(9,10,12,22)          -8.2465         estimate D2E/DX2                !
 ! D41   D(11,10,12,14)          0.0            estimate D2E/DX2                !
 ! D42   D(11,10,12,22)        180.0            estimate D2E/DX2                !
 ! D43   D(10,11,13,15)         -0.0002         estimate D2E/DX2                !
 ! D44   D(10,11,13,16)        179.9998         estimate D2E/DX2                !
 ! D45   D(19,11,13,15)        179.9998         estimate D2E/DX2                !
 ! D46   D(19,11,13,16)         -0.0002         estimate D2E/DX2                !
 ! D47   D(10,12,14,15)         -0.0001         estimate D2E/DX2                !
 ! D48   D(10,12,14,17)        179.9999         estimate D2E/DX2                !
 ! D49   D(22,12,14,15)        179.9999         estimate D2E/DX2                !
 ! D50   D(22,12,14,17)         -0.0001         estimate D2E/DX2                !
 ! D51   D(11,13,15,14)          0.0001         estimate D2E/DX2                !
 ! D52   D(11,13,15,21)       -179.9999         estimate D2E/DX2                !
 ! D53   D(16,13,15,14)       -179.9999         estimate D2E/DX2                !
 ! D54   D(16,13,15,21)          0.0001         estimate D2E/DX2                !
 ! D55   D(12,14,15,13)          0.0001         estimate D2E/DX2                !
 ! D56   D(12,14,15,21)       -179.9999         estimate D2E/DX2                !
 ! D57   D(17,14,15,13)       -180.0            estimate D2E/DX2                !
 ! D58   D(17,14,15,21)          0.0            estimate D2E/DX2                !
 --------------------------------------------------------------------------------
 Trust Radius=3.00D-01 FncErr=1.00D-07 GrdErr=1.00D-06 EigMax=2.50D+02 EigMin=1.00D-04
 Number of steps in this run=    138 maximum allowed number of steps=    156.
 GradGradGradGradGradGradGradGradGradGradGradGradGradGradGradGradGradGrad

                          Input orientation:                          
 ---------------------------------------------------------------------
 Center     Atomic      Atomic             Coordinates (Angstroms)
 Number     Number       Type             X           Y           Z
 ---------------------------------------------------------------------
      1          6           0       -4.749416   -0.230579   -0.400021
      2          6           0       -4.820199    0.238538   -1.718672
      3          6           0       -4.550247    1.584841   -1.998879
      4          6           0       -4.209510    2.462026   -0.960435
      5          6           0       -4.138728    1.992910    0.358216
      6          6           0       -4.408682    0.646607    0.638423
      7          1           0       -5.080361   -0.431212   -2.511547
      8          1           0       -3.878568    2.662660    1.151091
      9          8           0       -3.910486    3.953296   -1.270814
     10          6           0       -3.817523    4.699853   -2.779363
     11          6           0       -4.131676    3.887607   -3.877310
     12          6           0       -3.303947    5.987511   -2.984541
     13          6           0       -3.932249    4.363019   -5.180435
     14          6           0       -3.104523    6.462923   -4.287666
     15          6           0       -3.418674    5.650677   -5.385613
     16          1           0       -4.172109    3.742850   -6.018741
     17          1           0       -2.712397    7.446079   -4.444324
     18          1           0       -4.604292    1.943023   -3.005698
     19          1           0       -4.523805    2.904453   -3.720651
     20          1           0       -4.955530   -1.258512   -0.186077
     21          1           0       -3.266408    6.013665   -6.380578
     22          1           0       -3.064084    6.607678   -2.146234
     23          6           0       -4.330903    0.131094    2.087491
     24          9           0       -4.686952   -1.170657    2.121737
     25          9           0       -5.169642    0.847653    2.865668
     26          9           0       -3.067931    0.264376    2.545354
 ---------------------------------------------------------------------
                    Distance matrix (angstroms):
                    1          2          3          4          5
     1  C    0.000000
     2  C    1.401400   0.000000
     3  C    2.427296   1.401400   0.000000
     4  C    2.802800   2.427296   1.401400   0.000000
     5  C    2.427296   2.802800   2.427296   1.401400   0.000000
     6  C    1.401400   2.427296   2.802800   2.427296   1.401400
     7  H    2.146700   1.070000   2.146700   3.396345   3.872800
     8  H    3.396345   3.872800   3.396345   2.146700   1.070000
     9  O    4.355100   3.850660   2.559092   1.552300   2.559092
    10  C    5.553274   4.694012   3.293833   2.910330   4.156335
    11  C    5.425182   4.295286   3.001072   3.247537   4.640001
    12  C    6.887218   6.078827   4.680630   4.164864   5.275199
    13  C    6.679914   5.457435   4.268781   4.636706   6.027993
    14  C    7.913434   6.948831   5.578920   5.319647   6.529535
    15  C    7.824077   6.685954   5.411233   5.511362   6.847577
    16  H    6.905899   5.584874   4.578131   5.218081   6.612790
    17  H    8.912739   7.988783   6.611506   6.262556   7.405125
    18  H    3.396345   2.146700   1.070000   2.146700   3.396345
    19  H    4.572298   3.347069   2.169464   2.813062   4.197184
    20  H    1.070000   2.146700   3.396345   3.872800   3.396345
    21  H    8.772511   7.582857   6.360975   6.548399   7.895490
    22  H    7.256126   6.620627   5.240161   4.461452   5.359405
    23  C    2.548270   3.838989   4.342800   3.838989   2.548270
    24  F    2.692009   4.092961   4.958925   4.787914   3.663155
    25  F    3.464665   4.637813   4.958923   4.262290   2.943078
    26  F    3.427479   4.610101   4.958926   4.292252   2.986303
                    6          7          8          9         10
     6  C    0.000000
     7  H    3.396345   0.000000
     8  H    2.146700   4.942800   0.000000
     9  O    3.850660   4.704459   2.744520   0.000000
    10  C    5.334748   5.290965   4.427454   1.685736   0.000000
    11  C    5.565309   4.627906   5.181638   2.616688   1.401400
    12  C    6.547638   6.676779   5.337441   2.728146   1.401400
    13  C    6.920825   5.605869   6.556091   3.931091   2.427296
    14  C    7.732834   7.388345   6.679913   4.006145   2.427296
    15  C    7.893659   6.928985   7.201962   4.478231   2.802800
    16  H    7.345783   5.527036   7.256685   4.759784   3.396345
    17  H    8.657051   8.449532   7.453169   4.868893   3.396345
    18  H    3.872800   2.471400   4.280590   2.744520   2.875821
    19  H    4.910464   3.591427   4.920231   2.734581   2.146700
    20  H    2.146700   2.471400   4.280590   5.425100   6.597143
    21  H    8.909348   7.732804   8.266197   5.547039   3.872800
    22  H    6.715403   7.331085   5.205661   2.920360   2.146700
    23  C    1.540000   4.693509   2.736837   5.105310   6.695026
    24  F    2.362224   4.708383   4.036082   6.194126   7.696725
    25  F    2.362223   5.527921   2.810853   5.323624   6.966637
    26  F    2.362223   5.486891   2.890133   5.374120   6.970506
                   11         12         13         14         15
    11  C    0.000000
    12  C    2.427296   0.000000
    13  C    1.401400   2.802800   0.000000
    14  C    2.802800   1.401400   2.427296   0.000000
    15  C    2.427296   2.427296   1.401400   1.401400   0.000000
    16  H    2.146700   3.872800   1.070000   3.396345   2.146700
    17  H    3.872800   2.146700   3.396345   1.070000   2.146700
    18  H    2.182769   4.248439   3.322273   4.931759   4.562498
    19  H    1.070000   3.396345   2.146700   3.872800   3.396345
    20  H    6.386429   7.941283   7.588960   8.936992   8.782596
    21  H    3.396345   3.396345   2.146700   2.146700   1.070000
    22  H    3.396345   1.070000   3.872800   2.146700   3.396345
    23  C    7.051945   7.815226   8.419670   9.068555   9.335161
    24  F    7.866570   8.900907   9.193087  10.092377  10.222496
    25  F    7.469032   8.007740   8.867283   9.325565   9.706625
    26  F    7.450501   7.961766   8.788272   9.225698   9.593513
                   16         17         18         19         20
    16  H    0.000000
    17  H    4.280590   0.000000
    18  H    3.536183   5.994376   0.000000
    19  H    2.471400   4.942800   1.200826   0.000000
    20  H    7.723169   9.946568   4.280590   5.478127   0.000000
    21  H    2.471400   2.471400   5.454344   4.280590   9.701006
    22  H    4.942800   2.471400   4.986976   4.280590   8.324466
    23  C    8.875866   9.939476   5.412800   6.439196   2.736837
    24  F    9.522342  11.011819   5.999369   7.125071   2.325050
    25  F    9.397338  10.149545   5.999366   6.930161   3.714152
    26  F    9.309281  10.027905   5.999370   6.953589   3.652798
                   21         22         23         24         25
    21  H    0.000000
    22  H    4.280590   0.000000
    23  C   10.365615   7.840625   0.000000
    24  F   11.221487   9.019522   1.350000   0.000000
    25  F   10.761182   7.920254   1.350000   2.204541   0.000000
    26  F   10.619133   7.889772   1.350000   2.204541   2.204541
                   26
    26  F    0.000000
 Stoichiometry    C13H9F3O
 Framework group  C1[X(C13H9F3O)]
 Deg. of freedom    72
 Full point group                 C1      NOp   1
 Largest Abelian subgroup         C1      NOp   1
 Largest concise Abelian subgroup C1      NOp   1
                         Standard orientation:                         
 ---------------------------------------------------------------------
 Center     Atomic      Atomic             Coordinates (Angstroms)
 Number     Number       Type             X           Y           Z
 ---------------------------------------------------------------------
      1          6           0        2.248315    1.579634    0.030458
      2          6           0        0.959823    2.127987   -0.024478
      3          6           0       -0.157230    1.285730   -0.106437
      4          6           0        0.014210   -0.104882   -0.133458
      5          6           0        1.302702   -0.653236   -0.078524
      6          6           0        2.419755    0.189022    0.003433
      7          1           0        0.828925    3.189750   -0.003848
      8          1           0        1.433600   -1.714998   -0.099156
      9          8           0       -1.223125   -1.037832   -0.224239
     10          6           0       -2.852168   -0.606740   -0.178569
     11          6           0       -3.113403    0.769487   -0.137603
     12          6           0       -3.899826   -1.523852   -0.019692
     13          6           0       -4.422294    1.228602    0.062244
     14          6           0       -5.208717   -1.064737    0.180152
     15          6           0       -5.469951    0.311490    0.221121
     16          1           0       -4.621752    2.279382    0.093526
     17          1           0       -6.008627   -1.764972    0.301458
     18          1           0       -1.141022    1.704410   -0.148383
     19          1           0       -2.313493    1.469722   -0.258913
     20          1           0        3.101209    2.222716    0.093036
     21          1           0       -6.469319    0.662035    0.373707
     22          1           0       -3.700367   -2.574632   -0.050970
     23          6           0        3.835680   -0.413564    0.063798
     24          9           0        4.747973    0.581438    0.077664
     25          9           0        4.038626   -1.195114   -1.018096
     26          9           0        3.961675   -1.155258    1.184742
 ---------------------------------------------------------------------
 Rotational constants (GHZ):           1.4500033           0.1746357           0.1607982
 Standard basis: 6-31+G(d) (6D, 7F)
 There are   341 symmetry adapted cartesian basis functions of A   symmetry.
 There are   341 symmetry adapted basis functions of A   symmetry.
   341 basis functions,   580 primitive gaussians,   341 cartesian basis functions
    61 alpha electrons       61 beta electrons
       nuclear repulsion energy      1101.0445539190 Hartrees.
 NAtoms=   26 NActive=   26 NUniq=   26 SFac= 1.00D+00 NAtFMM=   60 NAOKFM=F Big=F
 Integral buffers will be    131072 words long.
 Raffenetti 2 integral format.
 Two-electron integral symmetry is turned on.
 Nuclear repulsion after empirical dispersion term =     1101.0241797837 Hartrees.
 One-electron integrals computed using PRISM.
 NBasis=   341 RedAO= T EigKep=  1.01D-06  NBF=   341
 NBsUse=   340 1.00D-06 EigRej=  3.82D-07 NBFU=   340
 ExpMin= 4.38D-02 ExpMax= 7.00D+03 ExpMxC= 1.05D+03 IAcc=3 IRadAn=         5 AccDes= 0.00D+00
 Harris functional with IExCor=  402 and IRadAn=       5 diagonalized for initial guess.
 HarFok:  IExCor=  402 AccDes= 0.00D+00 IRadAn=         5 IDoV= 1 UseB2=F ITyADJ=14
 ICtDFT=  3500011 ScaDFX=  1.000000  1.000000  1.000000  1.000000
 FoFCou: FMM=F IPFlag=           0 FMFlag=      100000 FMFlg1=           0
         NFxFlg=           0 DoJE=T BraDBF=F KetDBF=T FulRan=T
         wScrn=  0.000000 ICntrl=       500 IOpCl=  0 I1Cent=   200000004 NGrid=           0
         NMat0=    1 NMatS0=      1 NMatT0=    0 NMatD0=    1 NMtDS0=    0 NMtDT0=    0
 Petite list used in FoFCou.
 Requested convergence on RMS density matrix=1.00D-08 within 128 cycles.
 Requested convergence on MAX density matrix=1.00D-06.
 Requested convergence on             energy=1.00D-06.
 No special actions if energy rises.
 SCF Done:  E(RB3LYP) =  -875.518716967     A.U. after   15 cycles
            NFock= 15  Conv=0.64D-08     -V/T= 2.0095

 **********************************************************************

            Population analysis using the SCF Density.

 **********************************************************************

 Orbital symmetries:
       Occupied  (A) (A) (A) (A) (A) (A) (A) (A) (A) (A) (A) (A)
                 (A) (A) (A) (A) (A) (A) (A) (A) (A) (A) (A) (A)
                 (A) (A) (A) (A) (A) (A) (A) (A) (A) (A) (A) (A)
                 (A) (A) (A) (A) (A) (A) (A) (A) (A) (A) (A) (A)
                 (A) (A) (A) (A) (A) (A) (A) (A) (A) (A) (A) (A)
                 (A)
       Virtual   (A) (A) (A) (A) (A) (A) (A) (A) (A) (A) (A) (A)
                 (A) (A) (A) (A) (A) (A) (A) (A) (A) (A) (A) (A)
                 (A) (A) (A) (A) (A) (A) (A) (A) (A) (A) (A) (A)
                 (A) (A) (A) (A) (A) (A) (A) (A) (A) (A) (A) (A)
                 (A) (A) (A) (A) (A) (A) (A) (A) (A) (A) (A) (A)
                 (A) (A) (A) (A) (A) (A) (A) (A) (A) (A) (A) (A)
                 (A) (A) (A) (A) (A) (A) (A) (A) (A) (A) (A) (A)
                 (A) (A) (A) (A) (A) (A) (A) (A) (A) (A) (A) (A)
                 (A) (A) (A) (A) (A) (A) (A) (A) (A) (A) (A) (A)
                 (A) (A) (A) (A) (A) (A) (A) (A) (A) (A) (A) (A)
                 (A) (A) (A) (A) (A) (A) (A) (A) (A) (A) (A) (A)
                 (A) (A) (A) (A) (A) (A) (A) (A) (A) (A) (A) (A)
                 (A) (A) (A) (A) (A) (A) (A) (A) (A) (A) (A) (A)
                 (A) (A) (A) (A) (A) (A) (A) (A) (A) (A) (A) (A)
                 (A) (A) (A) (A) (A) (A) (A) (A) (A) (A) (A) (A)
                 (A) (A) (A) (A) (A) (A) (A) (A) (A) (A) (A) (A)
                 (A) (A) (A) (A) (A) (A) (A) (A) (A) (A) (A) (A)
                 (A) (A) (A) (A) (A) (A) (A) (A) (A) (A) (A) (A)
                 (A) (A) (A) (A) (A) (A) (A) (A) (A) (A) (A) (A)
                 (A) (A) (A) (A) (A) (A) (A) (A) (A) (A) (A) (A)
                 (A) (A) (A) (A) (A) (A) (A) (A) (A) (A) (A) (A)
                 (A) (A) (A) (A) (A) (A) (A) (A) (A) (A) (A) (A)
                 (A) (A) (A) (A) (A) (A) (A) (A) (A) (A) (A) (A)
                 (A) (A) (A)
 The electronic state is 1-A.
 Alpha  occ. eigenvalues --  -24.75816 -24.75520 -24.75503 -19.19359 -10.45770
 Alpha  occ. eigenvalues --  -10.28833 -10.28369 -10.23610 -10.22402 -10.22306
 Alpha  occ. eigenvalues --  -10.22072 -10.21885 -10.21805 -10.21585 -10.21535
 Alpha  occ. eigenvalues --  -10.21479 -10.21351  -1.32606  -1.24469  -1.24202
 Alpha  occ. eigenvalues --   -0.97946  -0.88394  -0.87492  -0.79728  -0.77504
 Alpha  occ. eigenvalues --   -0.77461  -0.75754  -0.71906  -0.65299  -0.63471
 Alpha  occ. eigenvalues --   -0.63154  -0.61990  -0.60579  -0.60064  -0.57585
 Alpha  occ. eigenvalues --   -0.55428  -0.52579  -0.49146  -0.48958  -0.48265
 Alpha  occ. eigenvalues --   -0.47869  -0.47445  -0.46655  -0.45818  -0.45558
 Alpha  occ. eigenvalues --   -0.45163  -0.44015  -0.42704  -0.41522  -0.40844
 Alpha  occ. eigenvalues --   -0.40642  -0.39058  -0.38342  -0.38060  -0.35450
 Alpha  occ. eigenvalues --   -0.33986  -0.32603  -0.28146  -0.28007  -0.27642
 Alpha  occ. eigenvalues --   -0.24382
 Alpha virt. eigenvalues --   -0.04610  -0.04186  -0.03219  -0.02972  -0.01917
 Alpha virt. eigenvalues --   -0.00043   0.00657   0.01566   0.02581   0.02865
 Alpha virt. eigenvalues --    0.04407   0.04560   0.04728   0.05150   0.05686
 Alpha virt. eigenvalues --    0.06515   0.06609   0.07116   0.07489   0.08266
 Alpha virt. eigenvalues --    0.08874   0.09220   0.09745   0.10591   0.10671
 Alpha virt. eigenvalues --    0.11425   0.11561   0.11873   0.12677   0.12825
 Alpha virt. eigenvalues --    0.13150   0.13395   0.13875   0.14553   0.14759
 Alpha virt. eigenvalues --    0.15129   0.15484   0.15813   0.16386   0.17019
 Alpha virt. eigenvalues --    0.17223   0.18277   0.18516   0.18569   0.19235
 Alpha virt. eigenvalues --    0.19889   0.20065   0.20204   0.20570   0.21314
 Alpha virt. eigenvalues --    0.21461   0.21553   0.22155   0.23005   0.23487
 Alpha virt. eigenvalues --    0.23585   0.24443   0.24580   0.25070   0.25408
 Alpha virt. eigenvalues --    0.26304   0.26741   0.27144   0.27300   0.27855
 Alpha virt. eigenvalues --    0.28016   0.28954   0.29523   0.29678   0.30622
 Alpha virt. eigenvalues --    0.30729   0.31654   0.32276   0.33155   0.33607
 Alpha virt. eigenvalues --    0.34437   0.35137   0.35198   0.36149   0.36314
 Alpha virt. eigenvalues --    0.36845   0.37794   0.38279   0.38591   0.39155
 Alpha virt. eigenvalues --    0.39616   0.40398   0.41313   0.42729   0.42870
 Alpha virt. eigenvalues --    0.44264   0.44720   0.45823   0.48814   0.49531
 Alpha virt. eigenvalues --    0.51931   0.55093   0.58082   0.58851   0.60550
 Alpha virt. eigenvalues --    0.62812   0.64014   0.66035   0.66608   0.67474
 Alpha virt. eigenvalues --    0.68217   0.69004   0.70262   0.71556   0.72068
 Alpha virt. eigenvalues --    0.72195   0.72644   0.73376   0.73861   0.75796
 Alpha virt. eigenvalues --    0.76344   0.77203   0.77310   0.78988   0.79417
 Alpha virt. eigenvalues --    0.79901   0.80382   0.81200   0.83437   0.84740
 Alpha virt. eigenvalues --    0.86885   0.87819   0.89817   0.92189   0.92951
 Alpha virt. eigenvalues --    0.93196   0.93811   0.94573   0.96270   0.99508
 Alpha virt. eigenvalues --    1.01031   1.02501   1.07085   1.08669   1.09437
 Alpha virt. eigenvalues --    1.11726   1.12409   1.14507   1.15052   1.16282
 Alpha virt. eigenvalues --    1.16781   1.18088   1.19026   1.19846   1.20532
 Alpha virt. eigenvalues --    1.22401   1.22879   1.23278   1.24458   1.26931
 Alpha virt. eigenvalues --    1.28218   1.31524   1.32728   1.34594   1.37235
 Alpha virt. eigenvalues --    1.39811   1.41225   1.41388   1.42343   1.44520
 Alpha virt. eigenvalues --    1.45186   1.45357   1.46335   1.46952   1.47006
 Alpha virt. eigenvalues --    1.47762   1.49536   1.54817   1.56554   1.58564
 Alpha virt. eigenvalues --    1.59843   1.60601   1.60972   1.63461   1.65779
 Alpha virt. eigenvalues --    1.66689   1.67540   1.67850   1.70436   1.71526
 Alpha virt. eigenvalues --    1.74217   1.75327   1.76882   1.77731   1.79574
 Alpha virt. eigenvalues --    1.80247   1.81078   1.82116   1.82301   1.83359
 Alpha virt. eigenvalues --    1.84845   1.86156   1.89166   1.90550   1.94106
 Alpha virt. eigenvalues --    1.94536   1.96040   1.96109   1.96526   1.98954
 Alpha virt. eigenvalues --    1.99477   2.01025   2.01348   2.02106   2.03402
 Alpha virt. eigenvalues --    2.05099   2.05848   2.08712   2.08728   2.10010
 Alpha virt. eigenvalues --    2.11881   2.12671   2.14588   2.14873   2.15918
 Alpha virt. eigenvalues --    2.17900   2.19712   2.21088   2.23786   2.24852
 Alpha virt. eigenvalues --    2.25603   2.27326   2.27776   2.27931   2.30464
 Alpha virt. eigenvalues --    2.34282   2.36095   2.43112   2.46653   2.49256
 Alpha virt. eigenvalues --    2.50897   2.58298   2.60234   2.61486   2.61730
 Alpha virt. eigenvalues --    2.62202   2.65164   2.69345   2.71164   2.72339
 Alpha virt. eigenvalues --    2.72975   2.73964   2.76445   2.76713   2.79215
 Alpha virt. eigenvalues --    2.82746   2.87226   2.90724   2.95730   3.01006
 Alpha virt. eigenvalues --    3.04983   3.11392   3.12208   3.20614   3.28514
 Alpha virt. eigenvalues --    3.38389   3.40140   4.21035   4.23321   4.25403
 Alpha virt. eigenvalues --    4.27053   4.29752   4.32775   4.37152   4.39206
 Alpha virt. eigenvalues --    4.39953   4.41024   4.46121   4.58823   4.68978
 Alpha virt. eigenvalues --    4.75769   5.48669   5.98849   6.82529
          Condensed to atoms (all electrons):
               1          2          3          4          5          6
     1  C   14.989255  -2.378920   1.750760   1.232060  -7.572115  -1.741167
     2  C   -2.378920  11.576231  -4.248962  -1.993476   2.716950   0.299999
     3  C    1.750760  -4.248962  12.217790   0.207639  -2.219508  -1.664075
     4  C    1.232060  -1.993476   0.207639  13.923810  -6.851835   0.405100
     5  C   -7.572115   2.716950  -2.219508  -6.851835  20.977246  -1.585629
     6  C   -1.741167   0.299999  -1.664075   0.405100  -1.585629  12.092506
     7  H   -0.040476   0.364644  -0.052935   0.012538  -0.024674   0.034355
     8  H    0.087995  -0.046190   0.047796   0.031048   0.083663   0.085080
     9  O    0.016801  -0.039146  -0.220833   0.427555  -0.238868   0.062090
    10  C   -0.106295   0.425929   0.042407  -1.222302   1.349952  -0.261499
    11  C    0.209627  -0.243849   0.042582   1.114496  -1.342154   0.188636
    12  C    0.008531  -0.252055  -0.237978  -0.133521   0.566274  -0.057956
    13  C    0.069601  -0.501885   0.105216   0.537938  -0.842570   0.039323
    14  C   -0.002344   0.013846   0.048025  -0.011488  -0.041640  -0.009842
    15  C    0.000663  -0.028015   0.002047  -0.002780   0.015333   0.000829
    16  H    0.000138   0.004199  -0.002039  -0.003901  -0.000754   0.000049
    17  H   -0.000001   0.000009  -0.000371   0.000458  -0.000045   0.000010
    18  H    0.016712   0.045975   0.101502  -0.003399   0.059756   0.004942
    19  H   -0.003806  -0.026969  -0.048865   0.068379   0.014389   0.004086
    20  H    0.337082  -0.009926   0.050430   0.016732  -0.027307  -0.051631
    21  H    0.000000  -0.000030  -0.000159   0.000184   0.000011  -0.000004
    22  H    0.000052  -0.000169   0.003692  -0.001485  -0.003041   0.000042
    23  C   -0.530508   0.580928  -0.363674  -1.308691   1.089549  -1.277825
    24  F    0.049715   0.064455   0.011010   0.027874  -0.062432  -0.112018
    25  F    0.036661   0.006614  -0.000731   0.055401  -0.283472   0.212923
    26  F    0.049315   0.002881  -0.001355   0.045561  -0.309490   0.266306
               7          8          9         10         11         12
     1  C   -0.040476   0.087995   0.016801  -0.106295   0.209627   0.008531
     2  C    0.364644  -0.046190  -0.039146   0.425929  -0.243849  -0.252055
     3  C   -0.052935   0.047796  -0.220833   0.042407   0.042582  -0.237978
     4  C    0.012538   0.031048   0.427555  -1.222302   1.114496  -0.133521
     5  C   -0.024674   0.083663  -0.238868   1.349952  -1.342154   0.566274
     6  C    0.034355   0.085080   0.062090  -0.261499   0.188636  -0.057956
     7  H    0.525697   0.000016  -0.000287  -0.006679  -0.000556  -0.000795
     8  H    0.000016   0.500506  -0.003925  -0.008837   0.007831  -0.002146
     9  O   -0.000287  -0.003925   8.382889   0.236872   0.026047  -0.232007
    10  C   -0.006679  -0.008837   0.236872  10.386375  -0.384098  -2.831057
    11  C   -0.000556   0.007831   0.026047  -0.384098  11.410161  -0.135248
    12  C   -0.000795  -0.002146  -0.232007  -2.831057  -0.135248  10.581851
    13  C    0.004393   0.000627   0.037054  -1.079169  -4.317834  -1.451043
    14  C    0.000022  -0.000235   0.012962   0.198553  -0.828886  -0.007078
    15  C    0.000152   0.000004  -0.013749  -0.697432  -0.176961   0.427962
    16  H    0.000000   0.000000  -0.000190   0.031655  -0.047428  -0.041752
    17  H    0.000000   0.000000  -0.000125   0.035085  -0.018380  -0.039234
    18  H   -0.008235  -0.000182  -0.010950   0.069027  -0.031594   0.011200
    19  H    0.000289   0.000005  -0.011816   0.011196   0.099931   0.034375
    20  H   -0.004137  -0.000138   0.000064   0.000443  -0.000037   0.000037
    21  H    0.000000   0.000000   0.000049  -0.005865   0.039301   0.011543
    22  H    0.000000   0.000000  -0.001890  -0.007503   0.051643   0.305071
    23  C    0.005925  -0.001146  -0.002311   0.007017  -0.050406   0.006771
    24  F    0.000131   0.000438   0.000034  -0.000359   0.000371  -0.000010
    25  F    0.000009   0.001311   0.000004  -0.001670   0.001140  -0.000102
    26  F    0.000008   0.000927   0.000036  -0.001377   0.001158  -0.000301
              13         14         15         16         17         18
     1  C    0.069601  -0.002344   0.000663   0.000138  -0.000001   0.016712
     2  C   -0.501885   0.013846  -0.028015   0.004199   0.000009   0.045975
     3  C    0.105216   0.048025   0.002047  -0.002039  -0.000371   0.101502
     4  C    0.537938  -0.011488  -0.002780  -0.003901   0.000458  -0.003399
     5  C   -0.842570  -0.041640   0.015333  -0.000754  -0.000045   0.059756
     6  C    0.039323  -0.009842   0.000829   0.000049   0.000010   0.004942
     7  H    0.004393   0.000022   0.000152   0.000000   0.000000  -0.008235
     8  H    0.000627  -0.000235   0.000004   0.000000   0.000000  -0.000182
     9  O    0.037054   0.012962  -0.013749  -0.000190  -0.000125  -0.010950
    10  C   -1.079169   0.198553  -0.697432   0.031655   0.035085   0.069027
    11  C   -4.317834  -0.828886  -0.176961  -0.047428  -0.018380  -0.031594
    12  C   -1.451043  -0.007078   0.427962  -0.041752  -0.039234   0.011200
    13  C   12.177072   0.648945   0.388635   0.370119   0.022520  -0.045934
    14  C    0.648945   5.381429   0.432995   0.015494   0.322427   0.001834
    15  C    0.388635   0.432995   5.397530  -0.031845  -0.023872  -0.004340
    16  H    0.370119   0.015494  -0.031845   0.531715  -0.000175   0.000319
    17  H    0.022520   0.322427  -0.023872  -0.000175   0.519407   0.000000
    18  H   -0.045934   0.001834  -0.004340   0.000319   0.000000   0.657763
    19  H    0.049523   0.009227   0.010634  -0.009007   0.000013  -0.002550
    20  H   -0.000053  -0.000001   0.000000   0.000000   0.000000  -0.000177
    21  H   -0.013991  -0.032208   0.295139  -0.004574  -0.004647   0.000001
    22  H   -0.023251  -0.050195   0.016361   0.000015  -0.005411   0.000004
    23  C   -0.009628  -0.000594   0.000497   0.000000   0.000000  -0.000160
    24  F    0.000021  -0.000001   0.000000   0.000000   0.000000  -0.000001
    25  F    0.000071   0.000002  -0.000001   0.000000   0.000000  -0.000001
    26  F    0.000047  -0.000004  -0.000001   0.000000   0.000000   0.000001
              19         20         21         22         23         24
     1  C   -0.003806   0.337082   0.000000   0.000052  -0.530508   0.049715
     2  C   -0.026969  -0.009926  -0.000030  -0.000169   0.580928   0.064455
     3  C   -0.048865   0.050430  -0.000159   0.003692  -0.363674   0.011010
     4  C    0.068379   0.016732   0.000184  -0.001485  -1.308691   0.027874
     5  C    0.014389  -0.027307   0.000011  -0.003041   1.089549  -0.062432
     6  C    0.004086  -0.051631  -0.000004   0.000042  -1.277825  -0.112018
     7  H    0.000289  -0.004137   0.000000   0.000000   0.005925   0.000131
     8  H    0.000005  -0.000138   0.000000   0.000000  -0.001146   0.000438
     9  O   -0.011816   0.000064   0.000049  -0.001890  -0.002311   0.000034
    10  C    0.011196   0.000443  -0.005865  -0.007503   0.007017  -0.000359
    11  C    0.099931  -0.000037   0.039301   0.051643  -0.050406   0.000371
    12  C    0.034375   0.000037   0.011543   0.305071   0.006771  -0.000010
    13  C    0.049523  -0.000053  -0.013991  -0.023251  -0.009628   0.000021
    14  C    0.009227  -0.000001  -0.032208  -0.050195  -0.000594  -0.000001
    15  C    0.010634   0.000000   0.295139   0.016361   0.000497   0.000000
    16  H   -0.009007   0.000000  -0.004574   0.000015   0.000000   0.000000
    17  H    0.000013   0.000000  -0.004647  -0.005411   0.000000   0.000000
    18  H   -0.002550  -0.000177   0.000001   0.000004  -0.000160  -0.000001
    19  H    0.650166   0.000001  -0.000188  -0.000200   0.000087   0.000000
    20  H    0.000001   0.511157   0.000000   0.000000  -0.033310   0.005981
    21  H   -0.000188   0.000000   0.531969  -0.000145   0.000000   0.000000
    22  H   -0.000200   0.000000  -0.000145   0.508631   0.000012   0.000000
    23  C    0.000087  -0.033310   0.000000   0.000012   6.049896   0.103097
    24  F    0.000000   0.005981   0.000000   0.000000   0.103097   9.311079
    25  F    0.000000   0.000086   0.000000   0.000000   0.094728  -0.033124
    26  F    0.000000   0.000053   0.000000   0.000000   0.074042  -0.034543
              25         26
     1  C    0.036661   0.049315
     2  C    0.006614   0.002881
     3  C   -0.000731  -0.001355
     4  C    0.055401   0.045561
     5  C   -0.283472  -0.309490
     6  C    0.212923   0.266306
     7  H    0.000009   0.000008
     8  H    0.001311   0.000927
     9  O    0.000004   0.000036
    10  C   -0.001670  -0.001377
    11  C    0.001140   0.001158
    12  C   -0.000102  -0.000301
    13  C    0.000071   0.000047
    14  C    0.000002  -0.000004
    15  C   -0.000001  -0.000001
    16  H    0.000000   0.000000
    17  H    0.000000   0.000000
    18  H   -0.000001   0.000001
    19  H    0.000000   0.000000
    20  H    0.000086   0.000053
    21  H    0.000000   0.000000
    22  H    0.000000   0.000000
    23  C    0.094728   0.074042
    24  F   -0.033124  -0.034543
    25  F    9.226987  -0.055785
    26  F   -0.055785   9.219247
 Mulliken charges:
               1
     1  C   -0.479335
     2  C   -0.333067
     3  C    0.430588
     4  C   -0.573895
     5  C    0.532412
     6  C   -0.934631
     7  H    0.190594
     8  H    0.215552
     9  O   -0.426362
    10  C   -0.180370
    11  C    0.384508
    12  C   -0.531333
    13  C   -0.165746
    14  C   -0.101245
    15  C   -0.009785
    16  H    0.187963
    17  H    0.192332
    18  H    0.138483
    19  H    0.151100
    20  H    0.204650
    21  H    0.183615
    22  H    0.207765
    23  C    1.565706
    24  F   -0.331717
    25  F   -0.261053
    26  F   -0.256728
 Sum of Mulliken charges =   0.00000
 Mulliken charges with hydrogens summed into heavy atoms:
               1
     1  C   -0.274685
     2  C   -0.142473
     3  C    0.569071
     4  C   -0.573895
     5  C    0.747964
     6  C   -0.934631
     9  O   -0.426362
    10  C   -0.180370
    11  C    0.535608
    12  C   -0.323568
    13  C    0.022216
    14  C    0.091087
    15  C    0.173830
    23  C    1.565706
    24  F   -0.331717
    25  F   -0.261053
    26  F   -0.256728
 Electronic spatial extent (au):  <R**2>=           6112.3761
 Charge=              0.0000 electrons
 Dipole moment (field-independent basis, Debye):
    X=             -3.7572    Y=              2.2843    Z=              0.2363  Tot=              4.4034
 Quadrupole moment (field-independent basis, Debye-Ang):
   XX=            -88.5700   YY=            -87.8746   ZZ=           -103.7295
   XY=              2.5171   XZ=             -1.6002   YZ=             -0.2626
 Traceless Quadrupole moment (field-independent basis, Debye-Ang):
   XX=              4.8214   YY=              5.5168   ZZ=            -10.3381
   XY=              2.5171   XZ=             -1.6002   YZ=             -0.2626
 Octapole moment (field-independent basis, Debye-Ang**2):
  XXX=            -66.4323  YYY=             -4.0562  ZZZ=              1.1305  XYY=             10.6565
  XXY=             -2.5378  XXZ=             11.3660  XZZ=             37.7285  YZZ=             -6.0364
  YYZ=              1.3008  XYZ=              1.4713
 Hexadecapole moment (field-independent basis, Debye-Ang**3):
 XXXX=          -6260.5774 YYYY=           -786.4567 ZZZZ=           -196.8188 XXXY=             41.8662
 XXXZ=            -72.6759 YYYX=            -13.4118 YYYZ=              0.5648 ZZZX=              8.9337
 ZZZY=              0.3239 XXYY=          -1155.6840 XXZZ=          -1250.2603 YYZZ=           -193.2098
 XXYZ=             -1.0745 YYXZ=             -0.4055 ZZXY=            -13.2150
 N-N= 1.101024179784D+03 E-N=-4.250249804991D+03  KE= 8.673197722088D+02
 Evaluate density.
 Using the total density.
 Monte-Carlo method of calculating molar volume:
 based on  0.001 e/bohr**3 density envelope.
 Number of points per bohr**3 =   20 CutOff= 1.00D-04
 Using the SCF density.
 There are       406 points.  Will hold       406 in memory.
 LenV=  4026275148 MDV=  4026531840.
 Box volume = 8405.763 fraction occupied=0.212
 Integrated density= 6.0694717385387911D+01 error=-6.1305282614612089D+01
 Molar volume = 1780.531 bohr**3/mol (158.893 cm**3/mol)
 Recommended a0 for SCRF calculation =  4.88 angstrom (  9.22 bohr)
 Calling FoFJK, ICntrl=      2127 FMM=F ISym2X=0 I1Cent= 0 IOpClX= 0 NMat=1 NMatS=1 NMatT=0.
 ***** Axes restored to original set *****
 -------------------------------------------------------------------
 Center     Atomic                   Forces (Hartrees/Bohr)
 Number     Number              X              Y              Z
 -------------------------------------------------------------------
      1        6           0.001702351    0.008335675   -0.003432763
      2        6           0.005381794    0.013083166    0.017149807
      3        6          -0.001690017   -0.013354136    0.014666661
      4        6           0.007814989    0.049159727   -0.039353647
      5        6           0.001291533    0.009457749   -0.006470586
      6        6          -0.001987822   -0.003230757   -0.004510435
      7        1          -0.002822779   -0.006919758   -0.008781994
      8        1           0.002986375    0.008545199    0.007595024
      9        8          -0.003272196   -0.007883794   -0.022724977
     10        6          -0.002920539   -0.058486402    0.027411519
     11        6           0.002582757    0.016540605   -0.004216305
     12        6          -0.004107201   -0.011563270    0.018700537
     13        6           0.003430948    0.014803388    0.013348599
     14        6          -0.010642919   -0.020493034   -0.000946729
     15        6          -0.001436555   -0.004872873    0.011367204
     16        1          -0.003133578   -0.007768642   -0.008501859
     17        1           0.004054174    0.010789667    0.000743230
     18        1          -0.002199795   -0.021019385    0.012732644
     19        1           0.000764975    0.018419572   -0.016819154
     20        1          -0.002047253   -0.009750710    0.001885995
     21        1           0.002150159    0.004051984   -0.011041856
     22        1           0.003697026    0.005848064    0.009927801
     23        6          -0.003090366    0.014703030   -0.044702036
     24        9           0.001913119   -0.000747060    0.013348455
     25        9           0.002768277   -0.004343585    0.010967648
     26        9          -0.001187457   -0.003304420    0.011657216
 -------------------------------------------------------------------
 Cartesian Forces:  Max     0.058486402 RMS     0.014636177

 GradGradGradGradGradGradGradGradGradGradGradGradGradGradGradGradGradGrad
 Berny optimization.
 FormGI is forming the generalized inverse of G from B-inverse, IUseBI=4.
 Internal  Forces:  Max     0.167627269 RMS     0.024764205
 Search for a local minimum.
 Step number   1 out of a maximum of  138
 All quantities printed in internal units (Hartrees-Bohrs-Radians)
 Mixed Optimization -- RFO/linear search
 Second derivative matrix not updated -- first step.
 ITU=  0
     Eigenvalues ---    0.00230   0.00230   0.00237   0.01336   0.01737
     Eigenvalues ---    0.01786   0.02070   0.02070   0.02070   0.02070
     Eigenvalues ---    0.02070   0.02070   0.02070   0.02070   0.02070
     Eigenvalues ---    0.02070   0.02070   0.02070   0.02070   0.02070
     Eigenvalues ---    0.02070   0.11243   0.11243   0.16000   0.16000
     Eigenvalues ---    0.16000   0.16000   0.16000   0.16000   0.16000
     Eigenvalues ---    0.16000   0.16000   0.18708   0.22000   0.22000
     Eigenvalues ---    0.22000   0.23439   0.23478   0.23493   0.24759
     Eigenvalues ---    0.25000   0.25000   0.25000   0.25000   0.25000
     Eigenvalues ---    0.25000   0.27457   0.28519   0.37230   0.37230
     Eigenvalues ---    0.37230   0.37230   0.37230   0.37230   0.37230
     Eigenvalues ---    0.37230   0.37230   0.41268   0.41364   0.41450
     Eigenvalues ---    0.41554   0.45389   0.45389   0.45389   0.45389
     Eigenvalues ---    0.45389   0.45389   0.45389   0.45389   0.55021
     Eigenvalues ---    0.55021   0.55021
 RFO step:  Lambda=-1.82576309D-01 EMin= 2.30000000D-03
 Linear search not attempted -- first point.
 Maximum step size (   0.300) exceeded in Quadratic search.
    -- Step size scaled by   0.463
 Iteration  1 RMS(Cart)=  0.23332793 RMS(Int)=  0.01349743
 Iteration  2 RMS(Cart)=  0.14155368 RMS(Int)=  0.00327298
 Iteration  3 RMS(Cart)=  0.00767938 RMS(Int)=  0.00014312
 Iteration  4 RMS(Cart)=  0.00000479 RMS(Int)=  0.00014311
 Iteration  5 RMS(Cart)=  0.00000000 RMS(Int)=  0.00014311
 Variable       Old X    -DE/DX   Delta X   Delta X   Delta X     New X
                                 (Linear)    (Quad)   (Total)
    R1        2.64826  -0.01042   0.00000  -0.00760  -0.00761   2.64066
    R2        2.64826  -0.01045   0.00000  -0.00776  -0.00776   2.64050
    R3        2.02201   0.01014   0.00000   0.00846   0.00846   2.03047
    R4        2.64826  -0.00260   0.00000  -0.00175  -0.00176   2.64651
    R5        2.02201   0.01153   0.00000   0.00962   0.00962   2.03163
    R6        2.64826   0.00404   0.00000   0.00310   0.00310   2.65136
    R7        2.02201  -0.01891   0.00000  -0.01578  -0.01578   2.00623
    R8        2.64826  -0.00889   0.00000  -0.00646  -0.00645   2.64181
    R9        2.93342  -0.04417   0.00000  -0.04474  -0.04474   2.88868
   R10        2.64826  -0.00632   0.00000  -0.00474  -0.00474   2.64353
   R11        2.02201   0.01170   0.00000   0.00977   0.00977   2.03177
   R12        2.91018  -0.01030   0.00000  -0.01020  -0.01020   2.89998
   R13        3.18558  -0.05057   0.00000  -0.06335  -0.06335   3.12223
   R14        2.64826  -0.00299   0.00000  -0.00215  -0.00216   2.64611
   R15        2.64826  -0.01226   0.00000  -0.00903  -0.00903   2.63923
   R16        2.64826  -0.00177   0.00000  -0.00116  -0.00116   2.64710
   R17        2.02201  -0.01967   0.00000  -0.01641  -0.01641   2.00559
   R18        2.64826  -0.00483   0.00000  -0.00364  -0.00364   2.64462
   R19        2.02201   0.01200   0.00000   0.01001   0.01001   2.03202
   R20        2.64826  -0.00918   0.00000  -0.00657  -0.00657   2.64169
   R21        2.02201   0.01187   0.00000   0.00990   0.00990   2.03191
   R22        2.64826  -0.00942   0.00000  -0.00688  -0.00688   2.64139
   R23        2.02201   0.01129   0.00000   0.00942   0.00942   2.03143
   R24        2.02201   0.01195   0.00000   0.00997   0.00997   2.03198
   R25        2.55113   0.00055   0.00000   0.00035   0.00035   2.55148
   R26        2.55113   0.00230   0.00000   0.00145   0.00145   2.55258
   R27        2.55113   0.00252   0.00000   0.00159   0.00159   2.55272
    A1        2.09440  -0.00877   0.00000  -0.01050  -0.01050   2.08389
    A2        2.09440   0.00423   0.00000   0.00504   0.00504   2.09944
    A3        2.09440   0.00454   0.00000   0.00546   0.00546   2.09986
    A4        2.09440   0.00658   0.00000   0.00764   0.00763   2.10202
    A5        2.09440  -0.00291   0.00000  -0.00330  -0.00330   2.09110
    A6        2.09440  -0.00367   0.00000  -0.00434  -0.00433   2.09007
    A7        2.09440   0.00265   0.00000   0.00340   0.00340   2.09779
    A8        2.09440  -0.01733   0.00000  -0.02333  -0.02333   2.07106
    A9        2.09440   0.01468   0.00000   0.01993   0.01994   2.11433
   A10        2.09440  -0.01414   0.00000  -0.01500  -0.01499   2.07940
   A11        2.09440   0.10378   0.00000   0.11102   0.11102   2.20542
   A12        2.09440  -0.08964   0.00000  -0.09602  -0.09603   1.99837
   A13        2.09440   0.00893   0.00000   0.00993   0.00995   2.10434
   A14        2.09440  -0.00611   0.00000  -0.00720  -0.00721   2.08719
   A15        2.09440  -0.00281   0.00000  -0.00274  -0.00274   2.09165
   A16        2.09440   0.00475   0.00000   0.00453   0.00453   2.09892
   A17        2.09440   0.00523   0.00000   0.00588   0.00588   2.10027
   A18        2.09440  -0.00998   0.00000  -0.01041  -0.01041   2.08399
   A19        2.23319   0.16763   0.00000   0.17944   0.17944   2.41264
   A20        2.01758   0.10544   0.00000   0.11388   0.11396   2.13154
   A21        2.16295  -0.09823   0.00000  -0.10536  -0.10547   2.05748
   A22        2.09440  -0.00659   0.00000  -0.00694  -0.00693   2.08746
   A23        2.09440   0.00059   0.00000   0.00077   0.00076   2.09515
   A24        2.09440   0.01391   0.00000   0.01881   0.01881   2.11320
   A25        2.09440  -0.01449   0.00000  -0.01958  -0.01958   2.07481
   A26        2.09440   0.00496   0.00000   0.00516   0.00516   2.09956
   A27        2.09440  -0.00332   0.00000  -0.00372  -0.00372   2.09067
   A28        2.09440  -0.00164   0.00000  -0.00144  -0.00144   2.09296
   A29        2.09440   0.00424   0.00000   0.00511   0.00511   2.09950
   A30        2.09440  -0.00342   0.00000  -0.00431  -0.00430   2.09009
   A31        2.09440  -0.00083   0.00000  -0.00081  -0.00080   2.09359
   A32        2.09440   0.00328   0.00000   0.00336   0.00337   2.09776
   A33        2.09440  -0.00409   0.00000  -0.00500  -0.00500   2.08940
   A34        2.09440   0.00081   0.00000   0.00163   0.00163   2.09602
   A35        2.09440  -0.00648   0.00000  -0.00747  -0.00747   2.08692
   A36        2.09440   0.00342   0.00000   0.00398   0.00398   2.09837
   A37        2.09440   0.00306   0.00000   0.00349   0.00349   2.09789
   A38        1.91063   0.01885   0.00000   0.02057   0.02039   1.93103
   A39        1.91063   0.01428   0.00000   0.01511   0.01497   1.92560
   A40        1.91063   0.01428   0.00000   0.01508   0.01494   1.92557
   A41        1.91063  -0.01550   0.00000  -0.01617  -0.01634   1.89429
   A42        1.91063  -0.01565   0.00000  -0.01639  -0.01656   1.89407
   A43        1.91063  -0.01626   0.00000  -0.01820  -0.01830   1.89234
    D1        0.00000  -0.00007   0.00000  -0.00015  -0.00015  -0.00015
    D2       -3.14159  -0.00009   0.00000  -0.00020  -0.00019   3.14140
    D3       -3.14159  -0.00002   0.00000  -0.00005  -0.00005   3.14154
    D4        0.00000  -0.00004   0.00000  -0.00010  -0.00010  -0.00009
    D5        0.00000   0.00000   0.00000   0.00000   0.00000   0.00000
    D6        3.14159   0.00014   0.00000   0.00033   0.00033  -3.14126
    D7        3.14159  -0.00004   0.00000  -0.00010  -0.00010   3.14149
    D8        0.00000   0.00010   0.00000   0.00023   0.00023   0.00023
    D9        0.00000   0.00003   0.00000   0.00008   0.00008   0.00008
   D10       -3.14159  -0.00030   0.00000  -0.00069  -0.00067   3.14092
   D11        3.14159   0.00005   0.00000   0.00013   0.00012  -3.14147
   D12        0.00000  -0.00028   0.00000  -0.00064  -0.00063  -0.00063
   D13        0.00000   0.00006   0.00000   0.00014   0.00014   0.00014
   D14        3.14159   0.00019   0.00000   0.00043   0.00044  -3.14115
   D15        3.14159   0.00040   0.00000   0.00090   0.00091  -3.14069
   D16        0.00000   0.00052   0.00000   0.00119   0.00121   0.00121
   D17        0.00000  -0.00013   0.00000  -0.00029  -0.00029  -0.00029
   D18       -3.14159  -0.00002   0.00000  -0.00005  -0.00006   3.14154
   D19       -3.14159  -0.00025   0.00000  -0.00058  -0.00056   3.14104
   D20        0.00000  -0.00015   0.00000  -0.00034  -0.00033  -0.00032
   D21       -0.09171   0.00114   0.00000   0.00287   0.00287  -0.08885
   D22        3.04988   0.00127   0.00000   0.00316   0.00316   3.05304
   D23        0.00000   0.00009   0.00000   0.00022   0.00022   0.00022
   D24       -3.14159  -0.00005   0.00000  -0.00011  -0.00011   3.14149
   D25       -3.14159  -0.00001   0.00000  -0.00002  -0.00001   3.14158
   D26        0.00000  -0.00015   0.00000  -0.00035  -0.00034  -0.00034
   D27       -0.04791  -0.00003   0.00000  -0.00013  -0.00013  -0.04804
   D28       -2.14231  -0.00134   0.00000  -0.00218  -0.00221  -2.14452
   D29        2.04648   0.00109   0.00000   0.00163   0.00165   2.04814
   D30        3.09368   0.00011   0.00000   0.00020   0.00020   3.09388
   D31        0.99928  -0.00120   0.00000  -0.00185  -0.00188   0.99740
   D32       -1.09511   0.00123   0.00000   0.00196   0.00199  -1.09313
   D33        0.07603   0.01138   0.00000   0.02806   0.02774   0.10378
   D34       -2.92738   0.00539   0.00000   0.01394   0.01426  -2.91312
   D35       -3.00924   0.00358   0.00000  -0.00111  -0.00196  -3.01120
   D36        0.13235   0.00558   0.00000   0.00501   0.00436   0.13672
   D37        0.00000   0.00103   0.00000   0.00350   0.00362   0.00362
   D38       -3.14159   0.00303   0.00000   0.00962   0.00994  -3.13165
   D39        2.99766   0.01150   0.00000   0.01770   0.01702   3.01468
   D40       -0.14393   0.01048   0.00000   0.01705   0.01650  -0.12742
   D41        0.00000  -0.00262   0.00000  -0.00551  -0.00548  -0.00548
   D42        3.14159  -0.00364   0.00000  -0.00616  -0.00599   3.13560
   D43        0.00000   0.00123   0.00000   0.00106   0.00089   0.00089
   D44        3.14159   0.00048   0.00000   0.00101   0.00098  -3.14062
   D45        3.14159  -0.00076   0.00000  -0.00507  -0.00530   3.13629
   D46        0.00000  -0.00151   0.00000  -0.00511  -0.00521  -0.00521
   D47        0.00000   0.00195   0.00000   0.00295   0.00284   0.00284
   D48        3.14159   0.00051   0.00000   0.00125   0.00127  -3.14032
   D49        3.14159   0.00296   0.00000   0.00360   0.00335  -3.13824
   D50        0.00000   0.00153   0.00000   0.00190   0.00178   0.00178
   D51        0.00000  -0.00191   0.00000  -0.00361  -0.00354  -0.00354
   D52       -3.14159  -0.00081   0.00000  -0.00101  -0.00093   3.14067
   D53       -3.14159  -0.00116   0.00000  -0.00356  -0.00363   3.13797
   D54        0.00000  -0.00006   0.00000  -0.00096  -0.00102  -0.00102
   D55        0.00000   0.00032   0.00000   0.00160   0.00168   0.00169
   D56       -3.14159  -0.00078   0.00000  -0.00100  -0.00092   3.14067
   D57       -3.14159   0.00176   0.00000   0.00331   0.00326  -3.13834
   D58        0.00000   0.00065   0.00000   0.00070   0.00065   0.00065
         Item               Value     Threshold  Converged?
 Maximum Force            0.167627     0.000450     NO 
 RMS     Force            0.024764     0.000300     NO 
 Maximum Displacement     1.197665     0.001800     NO 
 RMS     Displacement     0.368429     0.001200     NO 
 Predicted change in Energy=-7.335401D-02
 GradGradGradGradGradGradGradGradGradGradGradGradGradGradGradGradGradGrad

                          Input orientation:                          
 ---------------------------------------------------------------------
 Center     Atomic      Atomic             Coordinates (Angstroms)
 Number     Number       Type             X           Y           Z
 ---------------------------------------------------------------------
      1          6           0       -4.777289   -0.386734   -0.176374
      2          6           0       -4.908009   -0.133218   -1.544328
      3          6           0       -4.665787    1.148250   -2.054709
      4          6           0       -4.288838    2.190713   -1.194651
      5          6           0       -4.159228    1.931724    0.173009
      6          6           0       -4.401836    0.650989    0.680712
      7          1           0       -5.196366   -0.926815   -2.209814
      8          1           0       -3.870690    2.725297    0.838573
      9          8           0       -3.991989    3.635205   -1.597164
     10          6           0       -3.867707    4.527925   -2.981868
     11          6           0       -4.176018    3.997020   -4.240363
     12          6           0       -3.296600    5.799157   -2.890436
     13          6           0       -3.907829    4.737541   -5.398769
     14          6           0       -3.027139    6.537023   -4.048654
     15          6           0       -3.331175    6.007606   -5.306040
     16          1           0       -4.147299    4.325730   -6.362723
     17          1           0       -2.586322    7.514102   -3.967454
     18          1           0       -4.772850    1.309246   -3.098605
     19          1           0       -4.618671    3.037235   -4.336591
     20          1           0       -4.963754   -1.370804    0.212649
     21          1           0       -3.124967    6.574791   -6.195983
     22          1           0       -3.063748    6.211995   -1.925236
     23          6           0       -4.251451    0.396511    2.186577
     24          9           0       -4.583742   -0.876571    2.489633
     25          9           0       -5.054507    1.227889    2.885494
     26          9           0       -2.975031    0.610572    2.573492
 ---------------------------------------------------------------------
                    Distance matrix (angstroms):
                    1          2          3          4          5
     1  C    0.000000
     2  C    1.397375   0.000000
     3  C    2.428322   1.400471   0.000000
     4  C    2.814019   2.430288   1.403040   0.000000
     5  C    2.424730   2.788173   2.415194   1.397987   0.000000
     6  C    1.397294   2.412881   2.792752   2.429096   1.398894
     7  H    2.145272   1.075090   2.147432   3.401933   3.863256
     8  H    3.396582   3.863335   3.389740   2.143508   1.075168
     9  O    4.337203   3.878517   2.616925   1.528624   2.462382
    10  C    5.731667   4.987484   3.594268   2.972214   4.096156
    11  C    6.007897   4.986309   3.623872   3.542857   4.872738
    12  C    6.915477   6.292990   4.919762   4.108661   5.008579
    13  C    7.368010   6.291372   4.963895   4.930123   6.243438
    14  C    8.123792   7.368951   5.974937   5.350480   6.349240
    15  C    8.324200   7.372015   5.997140   5.691161   6.878842
    16  H    7.802250   6.608920   5.378122   5.593505   6.960402
    17  H    9.033041   8.351243   6.964686   6.239028   7.126037
    18  H    3.378728   2.124793   1.061651   2.153206   3.386366
    19  H    5.390374   4.234645   2.962680   3.270654   4.665805
    20  H    1.074478   2.149813   3.402253   3.888497   3.399342
    21  H    9.350331   8.355508   6.997973   6.751893   7.949329
    22  H    7.038321   6.618770   5.312703   4.266768   4.891158
    23  C    2.544310   3.825093   4.327273   3.827957   2.533740
    24  F    2.717535   4.114677   4.975709   4.803036   3.665172
    25  F    3.472592   4.636529   4.956112   4.261556   2.941850
    26  F    3.435770   4.609346   4.956612   4.292067   2.984977
                    6          7          8          9         10
     6  C    0.000000
     7  H    3.387608   0.000000
     8  H    2.147042   4.938421   0.000000
     9  O    3.776538   4.757929   2.602972   0.000000
    10  C    5.360077   5.667062   4.224364   1.652211   0.000000
    11  C    5.955157   5.422950   5.244626   2.674187   1.400259
    12  C    6.362255   7.022184   4.866591   2.615112   1.396623
    13  C    7.341938   6.626816   6.554002   3.959095   2.426306
    14  C    7.674771   7.987225   6.255065   3.919349   2.425091
    15  C    8.104373   7.819958   6.987196   4.452047   2.806973
    16  H    7.948490   6.777641   7.382179   4.817831   3.398416
    17  H    8.485509   9.008369   6.905082   4.758153   3.395671
    18  H    3.854114   2.443212   4.280241   2.876483   3.345565
    19  H    5.560083   4.535483   5.238235   2.873110   2.149739
    20  H    2.149995   2.473775   4.285395   5.411088   6.797151
    21  H    9.165739   8.743817   8.053552   5.526485   3.882249
    22  H    6.285399   7.455981   4.521821   2.758462   2.144508
    23  C    1.534602   4.687463   2.717597   4.987299   6.627870
    24  F    2.374600   4.739477   4.025903   6.116225   7.723899
    25  F    2.370624   5.533989   2.798846   5.197916   6.835544
    26  F    2.370659   5.493442   2.878231   5.251379   6.855987
                   11         12         13         14         15
    11  C    0.000000
    12  C    2.417309   0.000000
    13  C    1.400786   2.791481   0.000000
    14  C    2.794333   1.399474   2.415897   0.000000
    15  C    2.427321   2.424828   1.397924   1.397762   0.000000
    16  H    2.147856   3.866711   1.075240   3.391090   2.147404
    17  H    3.869300   2.146042   3.391803   1.074986   2.148522
    18  H    2.980595   4.730957   4.218083   5.592831   5.387558
    19  H    1.061314   3.386363   2.127102   3.855438   3.379435
    20  H    7.018787   7.988547   8.361511   9.189283   9.357466
    21  H    3.402068   3.399663   2.150328   2.149888   1.075277
    22  H    3.391618   1.075298   3.866771   2.148462   3.397518
    23  C    7.367150   7.475050   8.746433   8.836455   9.405881
    24  F    8.319314   8.669904   9.705772  10.006678  10.475369
    25  F    7.695301   7.572852   9.069815   8.965464   9.639336
    26  F    7.703183   7.541839   9.025461   8.886978   9.557293
                   16         17         18         19         20
    16  H    0.000000
    17  H    4.282485   0.000000
    18  H    4.488313   6.635966   0.000000
    19  H    2.446961   4.930420   2.131274   0.000000
    20  H    8.737998  10.102821   4.264213   6.343932   0.000000
    21  H    2.476134   2.477657   6.327340   4.266473  10.372279
    22  H    4.942000   2.468618   5.323042   4.279197   8.104283
    23  C    9.409576   9.555357   5.388700   7.046985   2.743569
    24  F   10.277092  10.774371   6.003496   7.868700   2.360790
    25  F    9.795364   9.621398   5.991276   7.458029   3.729013
    26  F    9.748464   9.518078   5.991076   7.505965   3.668031
                   21         22         23         24         25
    21  H    0.000000
    22  H    4.286566   0.000000
    23  C   10.474131   7.220630   0.000000
    24  F   11.536497   8.488182   1.350185   0.000000
    25  F   10.713809   7.207465   1.350768   2.192505   0.000000
    26  F   10.606512   7.184871   1.350841   2.192391   2.191494
                   26
    26  F    0.000000
 Stoichiometry    C13H9F3O
 Framework group  C1[X(C13H9F3O)]
 Deg. of freedom    72
 Full point group                 C1      NOp   1
 Largest Abelian subgroup         C1      NOp   1
 Largest concise Abelian subgroup C1      NOp   1
                         Standard orientation:                         
 ---------------------------------------------------------------------
 Center     Atomic      Atomic             Coordinates (Angstroms)
 Number     Number       Type             X           Y           Z
 ---------------------------------------------------------------------
      1          6           0        2.513627    1.619032    0.079525
      2          6           0        1.320988    2.346891    0.057387
      3          6           0        0.088852    1.687290   -0.032526
      4          6           0        0.041580    0.286729   -0.101197
      5          6           0        1.237601   -0.436723   -0.078425
      6          6           0        2.467266    0.224177    0.011251
      7          1           0        1.348913    3.420343    0.109738
      8          1           0        1.209734   -1.510262   -0.130610
      9          8           0       -1.217838   -0.573678   -0.202476
     10          6           0       -2.856863   -0.367373   -0.173544
     11          6           0       -3.447209    0.901966   -0.142007
     12          6           0       -3.655764   -1.503616   -0.027724
     13          6           0       -4.830509    1.027757    0.039265
     14          6           0       -5.037350   -1.376460    0.155523
     15          6           0       -5.628222   -0.110212    0.190508
     16          1           0       -5.279065    2.004707    0.061837
     17          1           0       -5.643241   -2.257285    0.267940
     18          1           0       -0.799793    2.267992   -0.046574
     19          1           0       -2.863653    1.780640   -0.259405
     20          1           0        3.457639    2.127542    0.148517
     21          1           0       -6.689858   -0.012408    0.330448
     22          1           0       -3.206262   -2.480015   -0.057021
     23          6           0        3.763782   -0.596502    0.034360
     24          9           0        4.841278    0.216611    0.063554
     25          9           0        3.844649   -1.377195   -1.064982
     26          9           0        3.796474   -1.391590    1.125936
 ---------------------------------------------------------------------
 Rotational constants (GHZ):           1.3186672           0.1723675           0.1570233
 Standard basis: 6-31+G(d) (6D, 7F)
 There are   341 symmetry adapted cartesian basis functions of A   symmetry.
 There are   341 symmetry adapted basis functions of A   symmetry.
   341 basis functions,   580 primitive gaussians,   341 cartesian basis functions
    61 alpha electrons       61 beta electrons
       nuclear repulsion energy      1093.3136962941 Hartrees.
 NAtoms=   26 NActive=   26 NUniq=   26 SFac= 1.00D+00 NAtFMM=   60 NAOKFM=F Big=F
 Integral buffers will be    131072 words long.
 Raffenetti 2 integral format.
 Two-electron integral symmetry is turned on.
 Nuclear repulsion after empirical dispersion term =     1093.2939666494 Hartrees.
 One-electron integrals computed using PRISM.
 NBasis=   341 RedAO= T EigKep=  1.37D-06  NBF=   341
 NBsUse=   340 1.00D-06 EigRej=  6.31D-07 NBFU=   340
 Initial guess from the checkpoint file:  "molecule_99.chk"
 B after Tr=     0.000000    0.000000    0.000000
         Rot=    0.999767   -0.021311   -0.000267    0.003484 Ang=  -2.47 deg.
 ExpMin= 4.38D-02 ExpMax= 7.00D+03 ExpMxC= 1.05D+03 IAcc=3 IRadAn=         5 AccDes= 0.00D+00
 Harris functional with IExCor=  402 and IRadAn=       5 diagonalized for initial guess.
 HarFok:  IExCor=  402 AccDes= 0.00D+00 IRadAn=         5 IDoV= 1 UseB2=F ITyADJ=14
 ICtDFT=  3500011 ScaDFX=  1.000000  1.000000  1.000000  1.000000
 FoFCou: FMM=F IPFlag=           0 FMFlag=      100000 FMFlg1=           0
         NFxFlg=           0 DoJE=T BraDBF=F KetDBF=T FulRan=T
         wScrn=  0.000000 ICntrl=       500 IOpCl=  0 I1Cent=   200000004 NGrid=           0
         NMat0=    1 NMatS0=      1 NMatT0=    0 NMatD0=    1 NMtDS0=    0 NMtDT0=    0
 Petite list used in FoFCou.
 Requested convergence on RMS density matrix=1.00D-08 within 128 cycles.
 Requested convergence on MAX density matrix=1.00D-06.
 Requested convergence on             energy=1.00D-06.
 No special actions if energy rises.
 SCF Done:  E(RB3LYP) =  -875.548204482     A.U. after   16 cycles
            NFock= 16  Conv=0.47D-08     -V/T= 2.0095
 Calling FoFJK, ICntrl=      2127 FMM=F ISym2X=0 I1Cent= 0 IOpClX= 0 NMat=1 NMatS=1 NMatT=0.
 ***** Axes restored to original set *****
 -------------------------------------------------------------------
 Center     Atomic                   Forces (Hartrees/Bohr)
 Number     Number              X              Y              Z
 -------------------------------------------------------------------
      1        6           0.000598232    0.003571237   -0.003139328
      2        6           0.004107969    0.010724230    0.009697845
      3        6           0.002309214    0.004089026    0.009664235
      4        6           0.007672280    0.044382156   -0.033186699
      5        6           0.001605709    0.007122237   -0.001122211
      6        6          -0.000980179   -0.002091343    0.000773952
      7        1          -0.002037516   -0.005097017   -0.005469443
      8        1           0.002090549    0.006765405    0.003269479
      9        8          -0.002523478    0.000611681   -0.018708101
     10        6          -0.001833462   -0.053839789    0.024923851
     11        6           0.002956430    0.006673066    0.009362315
     12        6          -0.002948272   -0.008793794    0.016158859
     13        6           0.001954190    0.007862599    0.010781584
     14        6          -0.008280489   -0.012181024   -0.002919319
     15        6          -0.001371172   -0.004547603    0.005824507
     16        1          -0.002373670   -0.004326287   -0.006383349
     17        1           0.003103223    0.006943943    0.002496364
     18        1          -0.001032083    0.004397013   -0.015775603
     19        1          -0.006037539   -0.015325580    0.000068934
     20        1          -0.001267543   -0.006297724    0.002476999
     21        1           0.001886490    0.003995306   -0.006589801
     22        1           0.002598347    0.001277604    0.007542555
     23        6          -0.003991208    0.004654606   -0.033936392
     24        9           0.001230891   -0.000203522    0.008040879
     25        9           0.001219841   -0.000157755    0.008031289
     26        9           0.001343246   -0.000208673    0.008116597
 -------------------------------------------------------------------
 Cartesian Forces:  Max     0.053839789 RMS     0.011735469

 GradGradGradGradGradGradGradGradGradGradGradGradGradGradGradGradGradGrad
 Berny optimization.
 Using GEDIIS/GDIIS optimizer.
 FormGI is forming the generalized inverse of G from B-inverse, IUseBI=4.
 Internal  Forces:  Max     0.091169981 RMS     0.013191191
 Search for a local minimum.
 Step number   2 out of a maximum of  138
 All quantities printed in internal units (Hartrees-Bohrs-Radians)
 Mixed Optimization -- RFO/linear search
 Update second derivatives using D2CorX and points    1    2
 DE= -2.95D-02 DEPred=-7.34D-02 R= 4.02D-01
 Trust test= 4.02D-01 RLast= 3.03D-01 DXMaxT set to 3.00D-01
 ITU=  0  0
 Use linear search instead of GDIIS.
     Eigenvalues ---    0.00230   0.00232   0.00237   0.01340   0.01729
     Eigenvalues ---    0.01778   0.02070   0.02070   0.02070   0.02070
     Eigenvalues ---    0.02070   0.02070   0.02070   0.02070   0.02070
     Eigenvalues ---    0.02070   0.02070   0.02070   0.02070   0.02070
     Eigenvalues ---    0.02073   0.10902   0.10970   0.15252   0.16000
     Eigenvalues ---    0.16000   0.16000   0.16000   0.16000   0.16000
     Eigenvalues ---    0.16000   0.16030   0.16104   0.21978   0.22000
     Eigenvalues ---    0.22002   0.22810   0.23473   0.23486   0.24014
     Eigenvalues ---    0.24912   0.25000   0.25000   0.25000   0.25000
     Eigenvalues ---    0.26353   0.28507   0.36794   0.37033   0.37230
     Eigenvalues ---    0.37230   0.37230   0.37230   0.37230   0.37230
     Eigenvalues ---    0.37230   0.41218   0.41272   0.41333   0.41534
     Eigenvalues ---    0.45239   0.45380   0.45389   0.45389   0.45389
     Eigenvalues ---    0.45389   0.45389   0.45389   0.55007   0.55021
     Eigenvalues ---    0.55021   1.24652
 RFO step:  Lambda=-1.56314042D-01 EMin= 2.29998094D-03
 Quartic linear search produced a step of  0.72687.
 Maximum step size (   0.300) exceeded in Quadratic search.
    -- Step size scaled by   0.453
 Iteration  1 RMS(Cart)=  0.26288830 RMS(Int)=  0.01622958
 Iteration  2 RMS(Cart)=  0.08029440 RMS(Int)=  0.00092998
 Iteration  3 RMS(Cart)=  0.00165181 RMS(Int)=  0.00060615
 Iteration  4 RMS(Cart)=  0.00000156 RMS(Int)=  0.00060615
 Iteration  5 RMS(Cart)=  0.00000000 RMS(Int)=  0.00060615
 Variable       Old X    -DE/DX   Delta X   Delta X   Delta X     New X
                                 (Linear)    (Quad)   (Total)
[...]
 0052719,-0.00014281,-0.00063531,0.00023533,0.00041672,-0.00033340,-0.0
 0005865,-0.00029545,0.00005464,0.00000107,-0.00001072,-0.00001076,-0.0
 0004909,-0.00001171,-0.00000104,0.00077664,0.00192587,0.00116872,-0.01
 509154,-0.01566076,0.01168828,-0.21871262,-0.12827452,0.06585024,-0.00
 155935,-0.00144354,-0.00483462,0.00548093,0.00224052,-0.00156855,-0.00
 006432,0.00077674,-0.00067223,0.00256663,-0.00145847,-0.00184180,-0.00
 008687,0.00161931,0.00109434,-0.00017536,0.00027780,0.00024127,-0.0003
 5266,-0.00010097,0.00013853,0.22772714,0.00000780,-0.00001925,-0.00003
 250,0.00005864,-0.00010158,-0.00004857,0.00010826,-0.00026546,0.000380
 34,0.00058414,0.00024526,0.00045316,-0.00010715,-0.00008996,-0.0000132
 5,0.00003234,0.00010056,-0.00003741,-0.00001673,-0.00001574,-0.0000017
 9,-0.00002994,0.00001134,-0.00004578,0.00214953,-0.00259590,-0.0011061
 5,-0.00333541,0.00085725,0.00305990,-0.12943849,-0.13112332,0.05937226
 ,-0.00189680,0.00410389,0.00073441,-0.00975725,-0.00376174,0.00262153,
 0.00066828,-0.00036915,-0.00016490,-0.00120377,0.00437852,0.00422406,0
 .00185329,-0.00247419,-0.00145580,0.00028098,-0.00060889,-0.00029652,0
 .00013316,0.00008928,-0.00008814,0.14062946,0.13158134,0.00010035,-0.0
 0007214,-0.00020118,-0.00018386,-0.00026115,0.00008679,-0.00057016,0.0
 0054309,-0.00006421,-0.00040008,0.00077327,-0.00062412,0.00000119,-0.0
 0014642,0.00011812,-0.00000709,0.00026237,-0.00000824,0.00000883,-0.00
 004256,0.00000295,0.00000761,-0.00000447,-0.00001824,0.00193135,-0.001
 68620,0.00121119,-0.01450632,-0.01029288,0.00999013,0.06677335,0.05994
 247,-0.08649475,-0.00395895,0.00127021,-0.00138012,0.02333006,0.015709
 70,-0.00434466,-0.00043549,-0.00013541,-0.00093464,-0.00265730,0.00386
 005,-0.00352873,0.00061352,-0.00180541,-0.00000005,0.00024636,-0.00030
 606,-0.00003525,0.00026014,0.00002661,-0.00008091,-0.07085527,-0.06795
 578,0.08616124,-0.04410217,-0.04556247,0.01841941,0.00142263,-0.009965
 65,0.00131135,0.00534034,-0.00070303,0.00377925,-0.00062821,0.00021350
 ,0.00025074,0.00496829,0.00074267,0.00263053,0.00348290,0.00557555,-0.
 00178951,-0.00348584,0.00036855,-0.00144992,0.00072217,0.00029738,0.00
 010322,-0.00061571,0.00008499,-0.00017930,-0.00015904,-0.00001387,-0.0
 0000157,0.00007923,-0.00005683,-0.00000676,0.00004171,0.00001191,-0.00
 001379,0.00000070,0.00001270,-0.00005516,0.00002311,-0.00001802,0.0000
 3530,-0.00004161,-0.00001458,0.00001027,0.00000303,0.00000174,-0.00000
 759,-0.00000075,-0.00000560,0.00000189,0.00016086,-0.00043160,0.000099
 13,-0.00001269,0.00000244,0.00002498,0.03626733,-0.04432165,-0.3224486
 3,0.06387777,-0.00032062,-0.00192862,-0.00027387,-0.00068914,0.0014930
 0,0.00069470,0.00019460,0.00051923,-0.00043144,0.00074638,-0.00073050,
 -0.00383210,-0.00380342,-0.01694695,0.00631270,0.00026345,0.00072450,0
 .00042532,-0.00025441,-0.00072752,0.00045551,0.00009000,0.00001305,0.0
 0020154,-0.00003204,0.00003923,-0.00009223,-0.00000504,-0.00001588,0.0
 0001758,0.00001391,-0.00001573,0.00002960,-0.00000136,-0.00000059,-0.0
 0001289,-0.00000387,0.,-0.00000714,0.00000089,-0.00000234,0.00001002,0
 .00000232,-0.00000076,0.00000619,-0.00000245,-0.00000270,0.00000433,0.
 00001913,-0.00014646,-0.00012443,-0.00001384,0.00000354,-0.00000832,0.
 04880894,0.34033801,0.01828545,0.06482927,-0.07352460,0.00376006,0.028
 84524,-0.00210746,0.00375156,-0.00001809,-0.00399838,0.00023903,-0.000
 46286,-0.00124767,0.00277421,-0.00271378,-0.00255915,-0.00390549,-0.02
 079348,0.00945096,-0.00152218,-0.00020942,0.00021449,-0.00001633,-0.00
 106589,0.00052161,-0.00036419,0.00009827,0.00023585,-0.00004873,0.0000
 2852,-0.00007106,0.00003961,0.00002790,0.00001404,-0.00002381,-0.00002
 512,0.00002602,-0.00000555,0.00000195,0.00001891,-0.00000355,-0.000002
 87,0.00000134,0.00000622,-0.00000417,0.00000322,-0.00000135,0.00000079
 ,-0.00000403,0.00000069,0.00000010,0.00000038,0.00025343,0.00133247,-0
 .00010731,0.00001265,-0.00000991,-0.00000049,-0.02248444,-0.06900191,0
 .07437634,-0.00001803,0.00000768,0.00002184,0.00002236,0.00002928,-0.0
 0000443,0.00003913,-0.00001347,0.00000781,-0.00001801,-0.00001704,-0.0
 0001125,0.00001943,0.00004335,-0.00003057,0.00000673,-0.00003243,-0.00
 000039,0.00000297,0.00000416,-0.00000164,-0.00000808,-0.00000290,-0.00
 000285,0.00006443,0.00048103,0.00017538,-0.00150497,-0.00057195,-0.000
 12747,-0.00228301,-0.00476346,0.00003992,-0.00259688,-0.00337695,-0.00
 354409,0.00523143,-0.00994390,0.02318915,0.00330979,0.01216068,-0.0235
 5867,-0.05553771,-0.00394126,-0.01476814,-0.00013164,0.00173936,0.0005
 4243,-0.00017047,0.00151955,0.00107144,-0.00002764,-0.00001879,0.00000
 354,0.00021144,-0.00058408,0.00109610,-0.00000242,-0.00000031,0.000000
 15,0.05324749,0.00000148,-0.00001014,-0.00001219,-0.00000045,0.0000019
 8,0.00000159,-0.00004228,-0.00000646,0.00004420,0.00003019,0.00001759,
 0.00001023,-0.00002688,-0.00003534,-0.00000907,-0.00000355,0.00001948,
 0.00001551,-0.00000390,-0.00001188,0.00000054,0.00000176,0.00000476,-0
 .00000272,0.00063319,-0.00067367,-0.00020619,-0.00058375,-0.00019596,-
 0.00060570,-0.00510138,0.00292973,0.00198521,-0.00300038,0.00458537,0.
 00130289,0.00242752,-0.00442053,0.01625296,-0.00047135,0.00489124,-0.0
 0560215,-0.00377009,-0.09406367,0.11592582,0.00140928,-0.00229469,-0.0
 0167708,0.00180680,-0.00231813,-0.00135588,-0.00000799,0.00004178,0.00
 000116,0.00007244,-0.00009136,0.00089616,0.00000110,-0.00000201,0.0000
 0175,0.00677413,0.09128131,0.00001293,0.00003045,-0.00002123,-0.000012
 79,-0.00004623,-0.00000092,-0.00003483,0.00008102,0.00002142,-0.000015
 91,-0.00035527,0.00007268,-0.00001460,0.00004193,-0.00002690,0.0000096
 6,0.00000757,-0.00001770,-0.00000196,0.00000674,0.00000256,0.00000129,
 -0.00000157,0.00001206,0.00033674,0.00003268,-0.00034750,-0.00018021,-
 0.00055126,0.00073189,0.00067138,0.00264755,0.00199029,-0.00421694,0.0
 0064051,0.00088439,-0.00214526,0.00250271,-0.00502909,0.00159291,0.008
 19682,-0.01238258,-0.01462616,0.11588529,-0.28534428,0.00112556,-0.001
 31810,-0.00000532,0.00047333,-0.00170093,-0.00000600,0.00002232,-0.000
 01332,-0.00001806,-0.00021009,0.00017141,-0.00026436,0.00000312,0.0000
 0381,-0.00000185,0.01709714,-0.12678815,0.30031995,-0.00000110,0.00004
 114,0.00000479,-0.00001138,0.00002004,0.00004134,0.00009135,0.00014390
 ,-0.00008163,0.00003390,-0.00031324,0.00014777,0.00003232,0.00010008,-
 0.00009246,-0.00002107,-0.00004099,0.00000006,-0.00000195,0.00001763,-
 0.00000103,-0.00001597,-0.00001445,0.00001009,0.00085872,0.00266164,0.
 00034174,-0.01533785,-0.00233106,-0.01725532,-0.00117396,-0.00453892,0
 .00189257,-0.23296130,-0.03870415,-0.13721724,0.00010686,0.00004635,0.
 00093798,0.00388302,-0.00000197,0.00138405,0.00272368,-0.00211517,-0.0
 0049977,-0.00017712,0.00033768,0.00008454,-0.00017770,0.00187251,0.000
 55955,-0.00005633,0.00001003,0.00001582,-0.00071684,-0.00014484,-0.000
 80749,-0.00000273,0.00000181,0.00000336,0.00013964,-0.00014824,0.00012
 031,0.24278069,0.00001106,0.00004540,-0.00001505,-0.00000286,-0.000065
 80,-0.00003948,0.00001968,0.00010754,0.00020984,-0.00002326,-0.0008626
 8,0.00031167,0.00002654,0.00005018,-0.00009620,-0.00004029,0.00000573,
 -0.00003939,-0.00001241,0.00000121,0.00000147,-0.00000005,0.00000732,0
 .00001578,0.00271374,-0.00154536,-0.00187822,-0.01479677,0.00300155,-0
 .01213421,-0.00412621,0.00130380,0.00346342,-0.03830554,-0.04867928,-0
 .01383186,0.00008251,-0.00094140,0.00044033,0.01217950,0.00527678,0.00
 760168,-0.00233384,0.00339466,0.00466291,0.00032457,-0.00050078,-0.000
 34410,0.00157245,-0.00237270,-0.00177544,-0.00003629,0.00005915,-0.000
 09232,-0.00084758,0.00015208,-0.00056612,0.00000522,0.00000414,-0.0000
 0328,0.00050485,0.00035323,0.00052412,0.04309544,0.04120589,-0.0000106
 6,-0.00004214,-0.00001471,0.00002071,-0.00002484,-0.00002921,-0.000029
 84,-0.00006880,0.00010371,0.00007311,0.00023236,0.00014426,-0.00003050
 ,-0.00013953,0.00007912,-0.00000772,0.00005182,0.00000093,-0.00000347,
 -0.00001552,-0.00000180,0.00002485,0.00001207,-0.00001005,0.00067403,-
 0.00218007,0.00065920,0.00849883,0.00306351,0.00794952,0.00099246,0.00
 276018,0.00064854,-0.13933624,-0.01510999,-0.15557575,0.00070888,0.000
 22243,-0.00047038,-0.02272281,-0.00552175,-0.01118071,0.00027728,0.004
 91348,-0.00275845,0.00005713,-0.00033488,-0.00008422,0.00112823,-0.001
 39944,-0.00001001,-0.00000960,-0.00000255,-0.00005521,0.00047860,0.000
 20436,0.00041498,0.00000412,-0.00000196,-0.00000390,-0.00119178,-0.000
 17542,-0.00058388,0.15041006,0.01356648,0.16077790,-0.00279316,0.00266
 119,0.00702053,0.00498518,-0.00018933,0.00181652,-0.00042608,0.0004883
 9,-0.00073344,0.00579221,-0.00219216,0.00233344,-0.00168093,-0.0059315
 1,0.00416103,-0.07852785,-0.01024249,0.04019853,0.00052577,-0.00008487
 ,-0.00000463,-0.00198639,0.00136137,-0.00100549,0.00043633,0.00207876,
 -0.00109942,0.00000604,-0.00069555,0.00135097,-0.00006340,0.00022495,-
 0.00028654,0.00000865,0.00014886,-0.00018129,-0.00004687,0.00001746,0.
 00010591,-0.00002756,-0.00000779,0.00007652,-0.00000662,0.00003629,-0.
 00010143,-0.00002160,0.00000104,-0.00008049,0.00001667,0.00001018,-0.0
 0002266,-0.00054052,-0.00001627,-0.00012876,0.00015818,-0.00007478,-0.
 00001893,-0.00139208,-0.00083692,-0.00120520,0.00000692,-0.00000011,-0
 .00004090,-0.00002455,-0.00009530,0.00000672,0.46852986,0.00393602,0.0
 1670822,-0.01703808,0.00162312,-0.00346591,-0.00695434,0.00023554,-0.0
 0316775,-0.00135409,-0.00170338,-0.00629069,0.00198059,-0.00739261,-0.
 00275358,0.02925943,-0.00852837,-0.09817164,0.02317733,0.00077788,0.00
 040929,-0.00149957,-0.00068203,-0.00282426,0.00111784,0.00004793,-0.00
 001973,0.00009378,-0.00032662,-0.00073983,0.00105854,-0.00007571,0.000
 00940,-0.00024343,0.00005544,0.00009758,-0.00008756,0.00005791,-0.0000
 2979,0.00010900,-0.00002970,-0.00003223,0.00005143,0.00000394,0.000034
 06,-0.00009153,-0.00003518,0.00001439,-0.00002873,0.00002361,0.0000294
 0,-0.00001747,0.00007771,-0.00038123,-0.00011640,0.00008907,0.00003418
 ,0.00010178,0.00113531,-0.00306072,-0.00256311,0.00000126,0.00003119,-
 0.00003837,-0.00004349,-0.00001521,0.00003496,0.00970547,0.50463487,0.
 00655200,-0.00275651,-0.02310830,0.00157615,-0.00349195,0.00128465,-0.
 00094933,-0.00254104,0.00149160,0.00220945,0.00512664,0.00344823,0.003
 54546,0.01470247,-0.00501233,0.03475864,0.02437955,-0.18295769,-0.0000
 1378,0.00032435,0.00056875,-0.00118051,-0.00257145,0.00003780,-0.00142
 446,-0.00639012,0.00421317,-0.00004621,0.00153752,-0.00383533,0.000394
 04,-0.00046644,0.00078271,0.00021790,-0.00043167,0.00067042,-0.0000051
 6,0.00006439,-0.00048345,0.00000050,-0.00007223,-0.00005627,-0.0001453
 9,-0.00019006,0.00028533,0.00006650,0.00000913,0.00012217,-0.00009178,
 -0.00007597,0.00013420,-0.00033279,0.00003605,-0.00002708,-0.00046508,
 0.00022502,-0.00006482,-0.00054180,0.00111846,-0.00007875,-0.00003411,
 -0.00003590,0.00013122,0.00001323,0.00015887,-0.00002579,-0.04435982,-
 0.01417545,0.56276869,0.00071415,-0.00121041,-0.00018507,0.00017185,-0
 .00013156,0.00021607,-0.00014175,-0.00002437,0.00025746,0.00056544,-0.
 00033475,-0.00087312,-0.00176504,0.00171469,0.00461567,-0.00674122,-0.
 02459720,0.00283014,-0.00011171,0.00003524,0.00010259,-0.00014507,0.00
 015417,-0.00025780,-0.00022900,-0.00105716,0.00137115,-0.00011910,0.00
 028368,-0.00089577,0.00002777,-0.00008153,0.00018018,0.00002647,-0.000
 12092,0.00018102,0.00000527,0.00001246,-0.00006203,-0.00000906,0.00000
 345,-0.00003364,-0.00000157,-0.00002962,0.00006634,0.00001821,-0.00000
 740,0.00003730,-0.00001374,-0.00001290,0.00002358,-0.00005921,0.000066
 67,0.00003469,-0.00006830,0.00002300,-0.00002391,-0.00114169,0.0001949
 5,0.00076169,-0.00000186,-0.00000823,0.00002431,0.00002112,0.00003547,
 -0.00001541,-0.13214615,-0.07922843,0.02061848,0.17711380,0.00163531,-
 0.00303997,-0.00180241,0.00051070,0.00065239,0.00093090,-0.00021069,-0
 .00015424,0.00024325,0.00109238,0.00026912,-0.00009007,-0.00251959,0.0
 0253971,0.00334064,-0.02033326,-0.02111681,0.00420396,-0.00014768,0.00
 001322,0.00022870,-0.00009972,0.00070794,-0.00066259,-0.00009369,-0.00
 084187,0.00144806,-0.00013359,0.00034677,-0.00099128,0.00005283,-0.000
 07978,0.00020520,0.00003102,-0.00013441,0.00019633,-0.00001215,0.00002
 491,-0.00009187,-0.00000833,0.00000511,-0.00003266,-0.00001430,-0.0000
 3741,0.00007765,0.00002536,-0.00001063,0.00003569,-0.00001884,-0.00001
 960,0.00002830,-0.00008443,0.00020301,0.00003526,-0.00008377,0.0000147
 9,-0.00004495,-0.00082264,0.00200824,0.00051534,-0.00000218,-0.0000159
 6,0.00003088,0.00002570,0.00003203,-0.00002121,-0.08277387,-0.17628538
 ,0.02217164,0.13809532,0.26061611,0.00185889,0.00030159,-0.00209501,-0
 .00031669,0.00043707,0.00097802,0.00018896,0.00108093,-0.00023170,-0.0
 0101528,-0.00023132,-0.00060084,0.00269418,-0.00241895,-0.00384811,0.0
 1985070,0.02881052,0.00136364,0.00004622,-0.00007959,-0.00004028,0.000
 31968,0.00021735,0.00025289,0.00027058,0.00154448,-0.00140214,0.000051
 46,-0.00029695,0.00096337,-0.00007415,0.00011252,-0.00019586,-0.000057
 85,0.00011231,-0.00018295,-0.00000271,-0.00002483,0.00010615,0.0000043
 4,0.00001579,0.00001154,0.00003476,0.00004840,-0.00007084,-0.00001768,
 0.00000089,-0.00003053,0.00002182,0.00001755,-0.00003402,0.00001094,0.
 00004198,-0.00005004,0.00009632,-0.00005112,0.00001816,0.00078041,0.00
 104253,-0.00130667,0.00000646,0.00000888,-0.00003058,-0.00000745,-0.00
 003579,0.00001112,0.01541105,0.01572333,-0.08017935,0.00047187,0.00316
 103,0.07586974,-0.00090544,-0.00372801,0.00316198,0.00006468,0.0015308
 6,0.00031543,-0.00006360,-0.00045564,-0.00002377,0.00031496,0.00114901
 ,0.00000468,0.00041450,0.00100127,0.00058217,-0.00327069,0.01903242,0.
 01362667,-0.00019846,-0.00012345,0.00040623,-0.00111333,-0.00055077,0.
 00087894,-0.00020864,-0.00112055,0.00057356,0.00000022,0.00024582,-0.0
 0061143,0.00002750,-0.00010503,0.00012583,0.00001978,-0.00006868,0.000
 09550,0.00002380,-0.00000339,-0.00005764,0.00001184,-0.00001111,-0.000
 02198,-0.00001126,-0.00002337,0.00004610,0.00000683,0.00000298,0.00003
 069,-0.00001142,-0.00000353,0.00001699,-0.00006749,-0.00003211,0.00000
 143,-0.00007260,0.00005670,0.00001098,-0.00011701,0.00001600,-0.000220
 86,-0.00000458,0.00000188,0.00001839,0.00000440,0.00004061,-0.00000164
 ,-0.11689031,0.05414373,0.05421181,0.01993270,-0.00955756,-0.00785503,
 0.14867954,0.00098334,0.00165640,-0.00072571,-0.00035585,-0.00015626,0
 .00022532,0.00002073,0.00042445,0.00031625,-0.00029244,0.00062709,-0.0
 0059872,-0.00222532,-0.00365715,0.00163483,0.00689408,-0.00316835,-0.0
 0612894,0.00002280,0.00006104,-0.00018525,0.00000912,0.00189065,0.0014
 3441,0.00010870,0.00075143,-0.00016254,0.00001927,-0.00000673,0.000074
 97,-0.00001786,0.00008597,-0.00001333,-0.00003659,0.00001775,-0.000009
 28,-0.00002401,0.00001092,0.00003088,-0.00000687,0.00001889,-0.0000025
 6,0.00001388,0.00001132,-0.00000598,0.00000514,-0.00001007,-0.00001176
 ,0.00000460,-0.00000594,-0.00000858,0.00004820,0.00017905,0.00010648,0
 .00004618,-0.00006128,-0.00003486,-0.00015504,0.00051197,0.00064746,0.
 00000542,-0.00000883,-0.00000569,0.00001445,-0.00002818,-0.00001324,0.
 05986003,-0.14647202,-0.06450349,0.00126395,-0.07138089,-0.02866479,-0
 .10850638,0.23825781,0.00364211,0.00619698,-0.00340747,-0.00075405,-0.
 00149923,-0.00172036,0.00027186,0.00006038,-0.00032546,-0.00096562,-0.
 00227606,0.00051894,0.00092076,-0.00102916,-0.00189904,0.02389965,-0.0
 3339554,-0.01975679,0.00007008,0.00020201,-0.00078421,0.00124067,0.000
 81919,-0.00182541,0.00050873,0.00198759,-0.00108052,-0.00003675,-0.000
 49015,0.00114994,-0.00009981,0.00014087,-0.00022432,-0.00005486,0.0001
 3064,-0.00018289,-0.00000576,-0.00001087,0.00012453,-0.00000584,0.0000
 2171,0.00002679,0.00002949,0.00005531,-0.00008258,-0.00001617,-0.00000
 682,-0.00004021,0.00002628,0.00001719,-0.00003861,0.00011362,0.0000239
 3,-0.00002246,0.00013208,-0.00007715,0.00001109,0.00011639,-0.00011794
 ,0.00049198,0.00001056,0.00000583,-0.00003769,-0.00000167,-0.00005559,
 0.00000308,0.05168220,-0.05621685,-0.12993769,-0.00429993,-0.02024777,
 0.00728536,-0.06557552,0.09336996,0.13193701,0.00066348,0.00092620,0.0
 0033380,0.00069325,0.00002343,-0.00045841,-0.00010664,0.00008165,-0.00
 010350,0.00031646,-0.00033553,-0.00023543,0.00050958,-0.00082175,-0.00
 067540,0.00083264,0.00355118,-0.00919380,0.00001152,-0.00000446,-0.000
 18538,-0.00072541,-0.00008768,0.00001947,0.00020672,0.00055980,-0.0004
 6701,0.00000354,-0.00010519,0.00032467,-0.00006590,0.00000553,-0.00005
 857,-0.00003725,0.00001986,-0.00008602,0.00001858,-0.00001686,0.000048
 98,0.00001855,0.00001328,-0.00001063,0.00002347,0.00001792,-0.00001836
 ,-0.00000516,-0.00000111,0.00000342,0.00000888,0.00001662,-0.00001555,
 -0.00007364,-0.00000214,-0.00007217,0.00003396,0.00000125,0.00002005,-
 0.00081037,-0.00006730,-0.00008642,0.00000353,0.00000880,-0.00000974,0
 .00000414,0.00000876,0.00000463,-0.14389175,0.02613159,-0.07457394,-0.
 05590232,-0.02455231,-0.03277177,-0.04656594,0.04230048,-0.01084852,0.
 24483608,0.00075489,-0.00229969,0.00023974,-0.00130963,-0.00017968,0.0
 0099511,0.00001168,0.00070640,0.00051331,-0.00013915,0.00089032,-0.000
 96313,-0.00029264,0.00043875,-0.00045150,0.00936938,0.00695614,0.01338
 543,-0.00016740,-0.00002353,0.00018959,0.00036450,0.00021434,-0.000131
 22,-0.00009993,-0.00038387,0.00043417,0.00004799,0.00020523,-0.0004355
 7,0.00003638,-0.00002928,0.00008957,0.00000705,-0.00004570,0.00007463,
 -0.00000933,0.00000877,-0.00004765,-0.00000039,0.00000094,-0.00001465,
 -0.00000793,-0.00001491,0.00003403,0.00000954,-0.00000143,0.00001258,-
 0.00001050,-0.00001235,0.00001231,0.00008222,0.00005423,0.00006059,-0.
 00004482,0.00000578,-0.00002297,0.00048733,0.00037453,0.00054480,-0.00
 000204,-0.00000902,0.00001540,0.00000814,0.00001071,-0.00001030,0.0265
 4696,-0.07829261,0.02784818,-0.03503856,0.00568359,-0.02087380,0.04706
 831,-0.01954905,0.01239152,-0.04767203,0.08529137,-0.00024983,0.003075
 97,0.00035383,0.00166999,0.00028975,0.00046939,0.00001383,0.00099737,-
 0.00071879,0.00200133,-0.00231268,-0.00010319,-0.00086562,-0.00368741,
 -0.00229988,-0.03015802,0.01548866,-0.03207406,0.00010123,-0.00007731,
 -0.00030848,-0.00119827,0.00044949,-0.00032686,0.00051942,0.00220844,-
 0.00145601,0.00001825,-0.00061945,0.00141602,-0.00017831,0.00015965,-0
 .00028263,-0.00007890,0.00014270,-0.00025652,0.00001407,-0.00002276,0.
 00018137,0.00000736,0.00002421,0.00002002,0.00005341,0.00006335,-0.000
 10138,-0.00002456,-0.00000410,-0.00003913,0.00003294,0.00003622,-0.000
 04807,-0.00015829,-0.00001575,-0.00010291,0.00017421,-0.00006166,0.000
 03010,-0.00104026,-0.00029583,-0.00034381,0.00001344,0.00001774,-0.000
 04855,-0.00000322,-0.00004953,0.00001170,-0.07489442,0.02771699,-0.150
 17210,-0.02514588,-0.01286804,0.00343893,0.00026049,0.00323415,0.01981
 697,0.12911561,-0.03389017,0.16294405\\0.00000129,0.00000014,-0.000002
 01,-0.00000040,-0.00000133,0.00000164,0.00000013,0.00000155,0.,0.00000
 082,-0.00000053,-0.00000068,-0.00000057,-0.00000123,0.00000156,-0.0000
 0170,-0.00000201,-0.00000021,0.00000008,0.00000025,-0.00000021,-0.0000
 0029,0.00000033,-0.00000031,-0.00000017,-0.00000089,0.00000130,-0.0000
 0152,0.00000195,-0.00000019,0.00000095,-0.00000091,0.00000114,0.000000
 60,0.00000116,-0.00000265,0.00000092,0.00000070,-0.00000166,0.00000161
 ,-0.00000088,0.00000189,-0.00000213,-0.00000036,-0.00000015,-0.0000000
 2,-0.00000009,0.00000017,-0.00000024,0.00000009,-0.00000004,-0.0000000
 6,-0.00000016,0.,0.00000006,-0.00000009,-0.00000017,-0.00000044,0.0000
 0007,0.00000025,0.00000023,0.00000009,0.00000016,-0.00000019,-0.000000
 11,0.00000049,0.00000251,0.00000769,0.00000310,-0.00000070,-0.00000299
 ,-0.00000097,-0.00000002,-0.00000090,-0.00000126,-0.00000076,-0.000001
 55,-0.00000119\\\@


 MUD THROWN IS GROUND LOST -- FROM A TEA BAG
 Job cpu time:       0 days  2 hours 30 minutes 16.0 seconds.
 Elapsed time:       0 days  0 hours  5 minutes  0.6 seconds.
 File lengths (MBytes):  RWF=    329 Int=      0 D2E=      0 Chk=     12 Scr=      1
 Normal termination of Gaussian 16 at Fri Sep 15 08:29:41 2023.
