 Entering Gaussian System, Link 0=/home/ubuntu/g16/g16
 Input=/home/ubuntu/ml products/molecule_73.gjf
 Output=/home/ubuntu/ml products/molecule_73.log
 Initial command:
 /home/ubuntu/g16/l1.exe "/home/ubuntu/Scratch/Gau-91073.inp" -scrdir="/home/ubuntu/Scratch/"
 Entering Link 1 = /home/ubuntu/g16/l1.exe PID=     91075.
  
 Copyright (c) 1988-2017, Gaussian, Inc.  All Rights Reserved.
  
 This is part of the Gaussian(R) 16 program.  It is based on
 the Gaussian(R) 09 system (copyright 2009, Gaussian, Inc.),
 the Gaussian(R) 03 system (copyright 2003, Gaussian, Inc.),
 the Gaussian(R) 98 system (copyright 1998, Gaussian, Inc.),
 the Gaussian(R) 94 system (copyright 1995, Gaussian, Inc.),
 the Gaussian 92(TM) system (copyright 1992, Gaussian, Inc.),
 the Gaussian 90(TM) system (copyright 1990, Gaussian, Inc.),
 the Gaussian 88(TM) system (copyright 1988, Gaussian, Inc.),
 the Gaussian 86(TM) system (copyright 1986, Carnegie Mellon
 University), and the Gaussian 82(TM) system (copyright 1983,
 Carnegie Mellon University). Gaussian is a federally registered
 trademark of Gaussian, Inc.
  
 This software contains proprietary and confidential information,
 including trade secrets, belonging to Gaussian, Inc.
  
 This software is provided under written license and may be
 used, copied, transmitted, or stored only in accord with that
 written license.
  
 The following legend is applicable only to US Government
 contracts under FAR:
  
                    RESTRICTED RIGHTS LEGEND
  
 Use, reproduction and disclosure by the US Government is
 subject to restrictions as set forth in subparagraphs (a)
 and (c) of the Commercial Computer Software - Restricted
 Rights clause in FAR 52.227-19.
  
 Gaussian, Inc.
 340 Quinnipiac St., Bldg. 40, Wallingford CT 06492
  
  
 ---------------------------------------------------------------
 Warning -- This program may not be used in any manner that
 competes with the business of Gaussian, Inc. or will provide
 assistance to any competitor of Gaussian, Inc.  The licensee
 of this program is prohibited from giving any competitor of
 Gaussian, Inc. access to this program.  By using this program,
 the user acknowledges that Gaussian, Inc. is engaged in the
 business of creating and licensing software in the field of
 computational chemistry and represents and warrants to the
 licensee that it is not a competitor of Gaussian, Inc. and that
 it will not use this program in any manner prohibited above.
 ---------------------------------------------------------------
  

 Cite this work as:
 Gaussian 16, Revision B.01,
 M. J. Frisch, G. W. Trucks, H. B. Schlegel, G. E. Scuseria, 
 M. A. Robb, J. R. Cheeseman, G. Scalmani, V. Barone, 
 G. A. Petersson, H. Nakatsuji, X. Li, M. Caricato, A. V. Marenich, 
 J. Bloino, B. G. Janesko, R. Gomperts, B. Mennucci, H. P. Hratchian, 
 J. V. Ortiz, A. F. Izmaylov, J. L. Sonnenberg, D. Williams-Young, 
 F. Ding, F. Lipparini, F. Egidi, J. Goings, B. Peng, A. Petrone, 
 T. Henderson, D. Ranasinghe, V. G. Zakrzewski, J. Gao, N. Rega, 
 G. Zheng, W. Liang, M. Hada, M. Ehara, K. Toyota, R. Fukuda, 
 J. Hasegawa, M. Ishida, T. Nakajima, Y. Honda, O. Kitao, H. Nakai, 
 T. Vreven, K. Throssell, J. A. Montgomery, Jr., J. E. Peralta, 
 F. Ogliaro, M. J. Bearpark, J. J. Heyd, E. N. Brothers, K. N. Kudin, 
 V. N. Staroverov, T. A. Keith, R. Kobayashi, J. Normand, 
 K. Raghavachari, A. P. Rendell, J. C. Burant, S. S. Iyengar, 
 J. Tomasi, M. Cossi, J. M. Millam, M. Klene, C. Adamo, R. Cammi, 
 J. W. Ochterski, R. L. Martin, K. Morokuma, O. Farkas, 
 J. B. Foresman, and D. J. Fox, Gaussian, Inc., Wallingford CT, 2016.
 
 ******************************************
 Gaussian 16:  EM64L-G16RevB.01 20-Dec-2017
                16-Sep-2023 
 ******************************************
 %nprocshared=30
 Will use up to   30 processors via shared memory.
 %mem=30GB
 %chk=molecule_73.chk
 ----------------------------------------------------------------------
 # opt freq b3lyp/6-31+g(d) geom=connectivity empiricaldispersion=gd3 v
 olume
 ----------------------------------------------------------------------
 1/18=20,19=15,26=3,38=1,57=2/1,3;
 2/9=110,12=2,17=6,18=5,40=1/2;
 3/5=1,6=6,7=11,11=2,25=1,30=1,71=1,74=-5,124=31/1,2,3;
 4//1;
 5/5=2,38=5/2;
 6/7=2,8=2,9=2,10=2,28=1,44=1/1,4;
 7//1,2,3,16;
 1/18=20,19=15,26=3/3(2);
 2/9=110/2;
 99//99;
 2/9=110/2;
 3/5=1,6=6,7=11,11=2,25=1,30=1,71=1,74=-5,124=31/1,2,3;
 4/5=5,16=3,69=1/1;
 5/5=2,38=5/2;
 7//1,2,3,16;
 1/18=20,19=15,26=3/3(-5);
 2/9=110/2;
 6/7=2,8=2,9=2,10=2,19=2,28=1,44=1/1,4;
 99/9=1/99;
 -------------
 ML molecule73
 -------------
 Symbolic Z-matrix:
 Charge =  0 Multiplicity = 1
 C                    -4.74942  -0.23058  -0.40002 
 C                    -4.8202    0.23854  -1.71867 
 C                    -4.55025   1.58484  -1.99888 
 C                    -4.20951   2.46203  -0.96044 
 C                    -4.13873   1.99291   0.35822 
 C                    -4.40868   0.64661   0.63842 
 H                    -5.08036  -0.43121  -2.51155 
 H                    -3.87857   2.66266   1.15109 
 H                    -4.35464   0.28843   1.64524 
 O                    -3.91049   3.9533   -1.27081 
 C                    -3.81752   4.69985  -2.77936 
 C                    -4.13168   3.88761  -3.87731 
 C                    -3.30395   5.98751  -2.98454 
 C                    -3.93225   4.36302  -5.18043 
 C                    -3.10452   6.46292  -4.28767 
 C                    -3.41867   5.65068  -5.38561 
 H                    -4.17211   3.74285  -6.01874 
 H                    -2.7124    7.44608  -4.44432 
 H                    -4.60429   1.94302  -3.0057 
 H                    -4.5238    2.90445  -3.72065 
 N                    -5.03258  -1.64279  -0.1061 
 O                    -4.12167  -2.42275  -0.12371 
 O                    -6.16321  -1.95858   0.13958 
 H                    -3.26641   6.01366  -6.38058 
 C                    -2.95872   6.88009  -1.77801 
 H                    -3.81138   6.95775  -1.13625 
 H                    -2.14304   6.44823  -1.23667 
 H                    -2.6819    7.85445  -2.12279 
 

 GradGradGradGradGradGradGradGradGradGradGradGradGradGradGradGradGradGrad
 Berny optimization.
 Initialization pass.
                           ----------------------------
                           !    Initial Parameters    !
                           ! (Angstroms and Degrees)  !
 --------------------------                            --------------------------
 ! Name  Definition              Value          Derivative Info.                !
 --------------------------------------------------------------------------------
 ! R1    R(1,2)                  1.4014         estimate D2E/DX2                !
 ! R2    R(1,6)                  1.4014         estimate D2E/DX2                !
 ! R3    R(1,21)                 1.47           estimate D2E/DX2                !
 ! R4    R(2,3)                  1.4014         estimate D2E/DX2                !
 ! R5    R(2,7)                  1.07           estimate D2E/DX2                !
 ! R6    R(3,4)                  1.4014         estimate D2E/DX2                !
 ! R7    R(3,19)                 1.07           estimate D2E/DX2                !
 ! R8    R(4,5)                  1.4014         estimate D2E/DX2                !
 ! R9    R(4,10)                 1.5523         estimate D2E/DX2                !
 ! R10   R(5,6)                  1.4014         estimate D2E/DX2                !
 ! R11   R(5,8)                  1.07           estimate D2E/DX2                !
 ! R12   R(6,9)                  1.07           estimate D2E/DX2                !
 ! R13   R(10,11)                1.6857         estimate D2E/DX2                !
 ! R14   R(11,12)                1.4014         estimate D2E/DX2                !
 ! R15   R(11,13)                1.4014         estimate D2E/DX2                !
 ! R16   R(12,14)                1.4014         estimate D2E/DX2                !
 ! R17   R(12,20)                1.07           estimate D2E/DX2                !
 ! R18   R(13,15)                1.4014         estimate D2E/DX2                !
 ! R19   R(13,25)                1.54           estimate D2E/DX2                !
 ! R20   R(14,16)                1.4014         estimate D2E/DX2                !
 ! R21   R(14,17)                1.07           estimate D2E/DX2                !
 ! R22   R(15,16)                1.4014         estimate D2E/DX2                !
 ! R23   R(15,18)                1.07           estimate D2E/DX2                !
 ! R24   R(16,24)                1.07           estimate D2E/DX2                !
 ! R25   R(21,22)                1.1993         estimate D2E/DX2                !
 ! R26   R(21,23)                1.1993         estimate D2E/DX2                !
 ! R27   R(25,26)                1.07           estimate D2E/DX2                !
 ! R28   R(25,27)                1.07           estimate D2E/DX2                !
 ! R29   R(25,28)                1.07           estimate D2E/DX2                !
 ! A1    A(2,1,6)              120.0            estimate D2E/DX2                !
 ! A2    A(2,1,21)             120.0            estimate D2E/DX2                !
 ! A3    A(6,1,21)             120.0            estimate D2E/DX2                !
 ! A4    A(1,2,3)              120.0            estimate D2E/DX2                !
 ! A5    A(1,2,7)              120.0            estimate D2E/DX2                !
 ! A6    A(3,2,7)              120.0            estimate D2E/DX2                !
 ! A7    A(2,3,4)              120.0            estimate D2E/DX2                !
 ! A8    A(2,3,19)             120.0            estimate D2E/DX2                !
 ! A9    A(4,3,19)             120.0            estimate D2E/DX2                !
 ! A10   A(3,4,5)              120.0            estimate D2E/DX2                !
 ! A11   A(3,4,10)             120.0            estimate D2E/DX2                !
 ! A12   A(5,4,10)             120.0            estimate D2E/DX2                !
 ! A13   A(4,5,6)              120.0            estimate D2E/DX2                !
 ! A14   A(4,5,8)              120.0            estimate D2E/DX2                !
 ! A15   A(6,5,8)              120.0            estimate D2E/DX2                !
 ! A16   A(1,6,5)              120.0            estimate D2E/DX2                !
 ! A17   A(1,6,9)              120.0            estimate D2E/DX2                !
 ! A18   A(5,6,9)              120.0            estimate D2E/DX2                !
 ! A19   A(4,10,11)            127.9526         estimate D2E/DX2                !
 ! A20   A(10,11,12)           115.5989         estimate D2E/DX2                !
 ! A21   A(10,11,13)           123.9281         estimate D2E/DX2                !
 ! A22   A(12,11,13)           120.0            estimate D2E/DX2                !
 ! A23   A(11,12,14)           120.0            estimate D2E/DX2                !
 ! A24   A(11,12,20)           120.0            estimate D2E/DX2                !
 ! A25   A(14,12,20)           120.0            estimate D2E/DX2                !
 ! A26   A(11,13,15)           120.0            estimate D2E/DX2                !
 ! A27   A(11,13,25)           120.0            estimate D2E/DX2                !
 ! A28   A(15,13,25)           120.0            estimate D2E/DX2                !
 ! A29   A(12,14,16)           120.0            estimate D2E/DX2                !
 ! A30   A(12,14,17)           120.0            estimate D2E/DX2                !
 ! A31   A(16,14,17)           120.0            estimate D2E/DX2                !
 ! A32   A(13,15,16)           120.0            estimate D2E/DX2                !
 ! A33   A(13,15,18)           120.0            estimate D2E/DX2                !
 ! A34   A(16,15,18)           120.0            estimate D2E/DX2                !
 ! A35   A(14,16,15)           120.0            estimate D2E/DX2                !
 ! A36   A(14,16,24)           120.0            estimate D2E/DX2                !
 ! A37   A(15,16,24)           120.0            estimate D2E/DX2                !
 ! A38   A(1,21,22)            118.3934         estimate D2E/DX2                !
 ! A39   A(1,21,23)            118.3927         estimate D2E/DX2                !
 ! A40   A(22,21,23)           123.2139         estimate D2E/DX2                !
 ! A41   A(13,25,26)           109.4712         estimate D2E/DX2                !
 ! A42   A(13,25,27)           109.4712         estimate D2E/DX2                !
 ! A43   A(13,25,28)           109.4712         estimate D2E/DX2                !
 ! A44   A(26,25,27)           109.4713         estimate D2E/DX2                !
 ! A45   A(26,25,28)           109.4712         estimate D2E/DX2                !
 ! A46   A(27,25,28)           109.4712         estimate D2E/DX2                !
 ! D1    D(6,1,2,3)              0.0001         estimate D2E/DX2                !
 ! D2    D(6,1,2,7)           -179.9998         estimate D2E/DX2                !
 ! D3    D(21,1,2,3)          -179.9999         estimate D2E/DX2                !
 ! D4    D(21,1,2,7)             0.0002         estimate D2E/DX2                !
 ! D5    D(2,1,6,5)             -0.0001         estimate D2E/DX2                !
 ! D6    D(2,1,6,9)            179.9998         estimate D2E/DX2                !
 ! D7    D(21,1,6,5)           179.9999         estimate D2E/DX2                !
 ! D8    D(21,1,6,9)            -0.0002         estimate D2E/DX2                !
 ! D9    D(2,1,21,22)           90.3367         estimate D2E/DX2                !
 ! D10   D(2,1,21,23)          -89.6634         estimate D2E/DX2                !
 ! D11   D(6,1,21,22)          -89.6633         estimate D2E/DX2                !
 ! D12   D(6,1,21,23)           90.3367         estimate D2E/DX2                !
 ! D13   D(1,2,3,4)              0.0001         estimate D2E/DX2                !
 ! D14   D(1,2,3,19)          -179.9999         estimate D2E/DX2                !
 ! D15   D(7,2,3,4)            179.9999         estimate D2E/DX2                !
 ! D16   D(7,2,3,19)            -0.0001         estimate D2E/DX2                !
 ! D17   D(2,3,4,5)             -0.0002         estimate D2E/DX2                !
 ! D18   D(2,3,4,10)           179.9998         estimate D2E/DX2                !
 ! D19   D(19,3,4,5)           179.9998         estimate D2E/DX2                !
 ! D20   D(19,3,4,10)           -0.0002         estimate D2E/DX2                !
 ! D21   D(3,4,5,6)              0.0001         estimate D2E/DX2                !
 ! D22   D(3,4,5,8)           -180.0            estimate D2E/DX2                !
 ! D23   D(10,4,5,6)          -179.9999         estimate D2E/DX2                !
 ! D24   D(10,4,5,8)             0.0            estimate D2E/DX2                !
 ! D25   D(3,4,10,11)           -5.2547         estimate D2E/DX2                !
 ! D26   D(5,4,10,11)          174.7453         estimate D2E/DX2                !
 ! D27   D(4,5,6,1)              0.0            estimate D2E/DX2                !
 ! D28   D(4,5,6,9)           -179.9999         estimate D2E/DX2                !
 ! D29   D(8,5,6,1)           -179.9999         estimate D2E/DX2                !
 ! D30   D(8,5,6,9)              0.0002         estimate D2E/DX2                !
 ! D31   D(4,10,11,12)           4.3564         estimate D2E/DX2                !
 ! D32   D(4,10,11,13)        -167.7268         estimate D2E/DX2                !
 ! D33   D(10,11,12,14)       -172.4167         estimate D2E/DX2                !
 ! D34   D(10,11,12,20)          7.5833         estimate D2E/DX2                !
 ! D35   D(13,11,12,14)          0.0002         estimate D2E/DX2                !
 ! D36   D(13,11,12,20)       -179.9998         estimate D2E/DX2                !
 ! D37   D(10,11,13,15)        171.7535         estimate D2E/DX2                !
 ! D38   D(10,11,13,25)         -8.2465         estimate D2E/DX2                !
 ! D39   D(12,11,13,15)          0.0            estimate D2E/DX2                !
 ! D40   D(12,11,13,25)        180.0            estimate D2E/DX2                !
 ! D41   D(11,12,14,16)         -0.0002         estimate D2E/DX2                !
 ! D42   D(11,12,14,17)        179.9998         estimate D2E/DX2                !
 ! D43   D(20,12,14,16)        179.9998         estimate D2E/DX2                !
 ! D44   D(20,12,14,17)         -0.0002         estimate D2E/DX2                !
 ! D45   D(11,13,15,16)         -0.0001         estimate D2E/DX2                !
 ! D46   D(11,13,15,18)        179.9999         estimate D2E/DX2                !
 ! D47   D(25,13,15,16)        179.9999         estimate D2E/DX2                !
 ! D48   D(25,13,15,18)         -0.0001         estimate D2E/DX2                !
 ! D49   D(11,13,25,26)        -54.0092         estimate D2E/DX2                !
 ! D50   D(11,13,25,27)         65.9908         estimate D2E/DX2                !
 ! D51   D(11,13,25,28)       -174.0092         estimate D2E/DX2                !
 ! D52   D(15,13,25,26)        125.9908         estimate D2E/DX2                !
 ! D53   D(15,13,25,27)       -114.0092         estimate D2E/DX2                !
 ! D54   D(15,13,25,28)          5.9908         estimate D2E/DX2                !
 ! D55   D(12,14,16,15)          0.0001         estimate D2E/DX2                !
 ! D56   D(12,14,16,24)       -179.9999         estimate D2E/DX2                !
 ! D57   D(17,14,16,15)       -179.9999         estimate D2E/DX2                !
 ! D58   D(17,14,16,24)          0.0001         estimate D2E/DX2                !
 ! D59   D(13,15,16,14)          0.0001         estimate D2E/DX2                !
 ! D60   D(13,15,16,24)       -179.9999         estimate D2E/DX2                !
 ! D61   D(18,15,16,14)       -180.0            estimate D2E/DX2                !
 ! D62   D(18,15,16,24)          0.0            estimate D2E/DX2                !
 --------------------------------------------------------------------------------
 Trust Radius=3.00D-01 FncErr=1.00D-07 GrdErr=1.00D-06 EigMax=2.50D+02 EigMin=1.00D-04
 Number of steps in this run=    147 maximum allowed number of steps=    168.
 GradGradGradGradGradGradGradGradGradGradGradGradGradGradGradGradGradGrad

                          Input orientation:                          
 ---------------------------------------------------------------------
 Center     Atomic      Atomic             Coordinates (Angstroms)
 Number     Number       Type             X           Y           Z
 ---------------------------------------------------------------------
      1          6           0       -4.749416   -0.230579   -0.400021
      2          6           0       -4.820199    0.238538   -1.718672
      3          6           0       -4.550247    1.584841   -1.998879
      4          6           0       -4.209510    2.462026   -0.960435
      5          6           0       -4.138728    1.992910    0.358216
      6          6           0       -4.408682    0.646607    0.638423
      7          1           0       -5.080361   -0.431212   -2.511547
      8          1           0       -3.878568    2.662660    1.151091
      9          1           0       -4.354640    0.288426    1.645243
     10          8           0       -3.910486    3.953296   -1.270814
     11          6           0       -3.817523    4.699853   -2.779363
     12          6           0       -4.131676    3.887607   -3.877310
     13          6           0       -3.303947    5.987511   -2.984541
     14          6           0       -3.932249    4.363019   -5.180435
     15          6           0       -3.104523    6.462923   -4.287666
     16          6           0       -3.418674    5.650677   -5.385613
     17          1           0       -4.172109    3.742850   -6.018741
     18          1           0       -2.712397    7.446079   -4.444324
     19          1           0       -4.604292    1.943023   -3.005698
     20          1           0       -4.523805    2.904453   -3.720651
     21          7           0       -5.032581   -1.642786   -0.106098
     22          8           0       -4.121672   -2.422755   -0.123715
     23          8           0       -6.163210   -1.958585    0.139583
     24          1           0       -3.266408    6.013665   -6.380578
     25          6           0       -2.958724    6.880088   -1.778006
     26          1           0       -3.811378    6.957754   -1.136251
     27          1           0       -2.143036    6.448225   -1.236668
     28          1           0       -2.681896    7.854454   -2.122793
 ---------------------------------------------------------------------
                    Distance matrix (angstroms):
                    1          2          3          4          5
     1  C    0.000000
     2  C    1.401400   0.000000
     3  C    2.427296   1.401400   0.000000
     4  C    2.802800   2.427296   1.401400   0.000000
     5  C    2.427296   2.802800   2.427296   1.401400   0.000000
     6  C    1.401400   2.427296   2.802800   2.427296   1.401400
     7  H    2.146700   1.070000   2.146700   3.396345   3.872800
     8  H    3.396345   3.872800   3.396345   2.146700   1.070000
     9  H    2.146700   3.396345   3.872800   3.396345   2.146700
    10  O    4.355100   3.850660   2.559092   1.552300   2.559092
    11  C    5.553274   4.694012   3.293833   2.910330   4.156335
    12  C    5.425182   4.295286   3.001072   3.247537   4.640001
    13  C    6.887218   6.078827   4.680630   4.164864   5.275199
    14  C    6.679914   5.457435   4.268781   4.636706   6.027993
    15  C    7.913434   6.948831   5.578920   5.319647   6.529535
    16  C    7.824077   6.685954   5.411233   5.511362   6.847577
    17  H    6.905899   5.584874   4.578131   5.218081   6.612790
    18  H    8.912739   7.988783   6.611506   6.262556   7.405125
    19  H    3.396345   2.146700   1.070000   2.146700   3.396345
    20  H    4.572298   3.347069   2.169464   2.813062   4.197184
    21  N    1.470000   2.486942   3.772644   4.272800   3.772644
    22  O    2.296964   3.180300   4.445306   4.956703   4.441919
    23  O    2.296952   3.175553   4.441907   4.956691   4.445293
    24  H    8.772511   7.582857   6.360975   6.548399   7.895490
    25  C    7.461033   6.897739   5.533658   4.663921   5.462634
    26  H    7.286568   6.819442   5.491652   4.516745   5.195216
    27  H    7.218007   6.779362   5.479793   4.498488   5.135784
    28  H    8.521170   7.920722   6.543251   5.723893   6.529584
                    6          7          8          9         10
     6  C    0.000000
     7  H    3.396345   0.000000
     8  H    2.146700   4.942800   0.000000
     9  H    1.070000   4.280590   2.471400   0.000000
    10  O    3.850660   4.704459   2.744520   4.704459   0.000000
    11  C    5.334748   5.290965   4.427454   6.271070   1.685736
    12  C    5.565309   4.627906   5.181638   6.595635   2.616688
    13  C    6.547638   6.676779   5.337441   7.417441   2.728146
    14  C    6.920825   5.605869   6.556091   7.960565   3.931091
    15  C    7.732834   7.388345   6.679913   8.653706   4.006145
    16  C    7.893659   6.928985   7.201962   8.891721   4.478231
    17  H    7.345783   5.527036   7.256685   8.408509   4.759784
    18  H    8.657051   8.449532   7.453169   9.540010   4.868893
    19  H    3.872800   2.471400   4.280590   4.942800   2.744520
    20  H    4.910464   3.591427   4.920231   5.972021   2.734581
    21  N    2.486942   2.693767   4.631321   2.693766   5.825100
    22  O    3.175565   3.253778   5.248398   3.245611   6.481856
    23  O    3.180288   3.245600   5.253441   3.253766   6.481845
    24  H    8.909348   7.732804   8.266197   9.918488   5.547039
    25  C    6.840892   7.648172   5.216553   7.557594   3.119168
    26  H    6.583070   7.622242   4.866650   7.246501   3.009102
    27  H    6.504452   7.588139   4.800413   7.151205   3.057731
    28  H    7.909435   8.634583   6.253404   8.616319   4.177839
                   11         12         13         14         15
    11  C    0.000000
    12  C    1.401400   0.000000
    13  C    1.401400   2.427296   0.000000
    14  C    2.427296   1.401400   2.802800   0.000000
    15  C    2.427296   2.802800   1.401400   2.427296   0.000000
    16  C    2.802800   2.427296   2.427296   1.401400   1.401400
    17  H    3.396345   2.146700   3.872800   1.070000   3.396345
    18  H    3.396345   3.872800   2.146700   3.396345   1.070000
    19  H    2.875821   2.182769   4.248439   3.322273   4.931759
    20  H    2.146700   1.070000   3.396345   2.146700   3.872800
    21  N    6.989404   6.754177   8.336368   7.939100   9.322309
    22  O    7.607662   7.342360   8.921075   8.464811   9.865514
    23  O    7.639194   7.378382   9.004220   8.558180   9.993893
    24  H    3.872800   3.396345   3.396345   2.146700   2.146700
    25  C    2.548270   3.838989   1.540000   4.342800   2.548270
    26  H    2.792484   4.128170   2.148263   4.806525   3.267402
    27  H    2.870648   4.181440   2.148263   4.806523   3.198947
    28  H    3.416466   4.573408   2.148263   4.806525   2.607997
                   16         17         18         19         20
    16  C    0.000000
    17  H    2.146700   0.000000
    18  H    2.146700   4.280590   0.000000
    19  H    4.562498   3.536183   5.994376   0.000000
    20  H    3.396345   2.471400   4.942800   1.200826   0.000000
    21  N    9.147271   8.043931  10.334937   4.631321   5.831057
    22  O    9.662406   8.530449  10.864972   5.253453   6.440404
    23  O    9.795975   8.625300  11.016716   5.248386   6.421697
    24  H    1.070000   2.471400   2.471400   5.454344   4.280590
    25  C    3.838989   5.412800   2.736837   5.346937   4.693509
    26  H    4.463154   5.856999   3.519882   5.410274   4.859622
    27  H    4.413285   5.856998   3.407190   5.429926   4.939287
    28  H    4.005680   5.856999   2.357373   6.278547   5.517997
                   21         22         23         24         25
    21  N    0.000000
    22  O    1.199341   0.000000
    23  O    1.199337   2.110132   0.000000
    24  H   10.055332  10.538168  10.698632   0.000000
    25  C    8.929476   9.520085   9.595208   4.693509   0.000000
    26  H    8.747675   9.440098   9.309133   5.356422   1.070000
    27  H    8.665571   9.156853   9.419677   5.283050   1.070000
    28  H    9.989511  10.568363  10.655216   4.675350   1.070000
                   26         27         28
    26  H    0.000000
    27  H    1.747303   0.000000
    28  H    1.747303   1.747303   0.000000
 Stoichiometry    C13H11NO3
 Framework group  C1[X(C13H11NO3)]
 Deg. of freedom    78
 Full point group                 C1      NOp   1
 Largest Abelian subgroup         C1      NOp   1
 Largest concise Abelian subgroup C1      NOp   1
                         Standard orientation:                         
 ---------------------------------------------------------------------
 Center     Atomic      Atomic             Coordinates (Angstroms)
 Number     Number       Type             X           Y           Z
 ---------------------------------------------------------------------
      1          6           0       -3.132473    0.012156    0.015663
      2          6           0       -2.137041   -0.969107   -0.085131
      3          6           0       -0.787626   -0.595147   -0.141308
      4          6           0       -0.433644    0.760075   -0.096689
      5          6           0       -1.429076    1.741338    0.004104
      6          6           0       -2.778491    1.367378    0.060279
      7          1           0       -2.407314   -2.003849   -0.119200
      8          1           0       -1.158803    2.776080    0.038171
      9          1           0       -3.538526    2.116594    0.137235
     10          8           0        1.061074    1.174302   -0.158911
     11          6           0        2.415798    0.171092   -0.158343
     12          6           0        2.150511   -1.204614   -0.189623
     13          6           0        3.727166    0.627701    0.030720
     14          6           0        3.196592   -2.123711   -0.031836
     15          6           0        4.773247   -0.291397    0.188504
     16          6           0        4.507960   -1.667103    0.157226
     17          1           0        2.994040   -3.174093   -0.055716
     18          1           0        5.774506    0.057234    0.332857
     19          1           0       -0.027591   -1.344363   -0.218268
     20          1           0        1.149253   -1.553244   -0.333979
     21          7           0       -4.547943   -0.380109    0.074592
     22          8           0       -5.041163   -0.576010    1.150127
     23          8           0       -5.153027   -0.488577   -0.955223
     24          1           0        5.306667   -2.368854    0.277699
     25          6           0        4.018689    2.139465    0.065093
     26          1           0        3.628404    2.598163   -0.819312
     27          1           0        3.554367    2.572752    0.926236
     28          1           0        5.075849    2.297863    0.112238
 ---------------------------------------------------------------------
 Rotational constants (GHZ):           1.3449733           0.1839943           0.1661280
 Standard basis: 6-31+G(d) (6D, 7F)
 There are   345 symmetry adapted cartesian basis functions of A   symmetry.
 There are   345 symmetry adapted basis functions of A   symmetry.
   345 basis functions,   588 primitive gaussians,   345 cartesian basis functions
    60 alpha electrons       60 beta electrons
       nuclear repulsion energy      1065.6811948230 Hartrees.
 NAtoms=   28 NActive=   28 NUniq=   28 SFac= 1.00D+00 NAtFMM=   60 NAOKFM=F Big=F
 Integral buffers will be    131072 words long.
 Raffenetti 2 integral format.
 Two-electron integral symmetry is turned on.
 Nuclear repulsion after empirical dispersion term =     1065.6588800197 Hartrees.
 One-electron integrals computed using PRISM.
 NBasis=   345 RedAO= T EigKep=  1.66D-06  NBF=   345
 NBsUse=   343 1.00D-06 EigRej=  8.29D-07 NBFU=   343
 ExpMin= 4.38D-02 ExpMax= 5.48D+03 ExpMxC= 8.25D+02 IAcc=3 IRadAn=         5 AccDes= 0.00D+00
 Harris functional with IExCor=  402 and IRadAn=       5 diagonalized for initial guess.
 HarFok:  IExCor=  402 AccDes= 0.00D+00 IRadAn=         5 IDoV= 1 UseB2=F ITyADJ=14
 ICtDFT=  3500011 ScaDFX=  1.000000  1.000000  1.000000  1.000000
 FoFCou: FMM=F IPFlag=           0 FMFlag=      100000 FMFlg1=           0
         NFxFlg=           0 DoJE=T BraDBF=F KetDBF=T FulRan=T
         wScrn=  0.000000 ICntrl=       500 IOpCl=  0 I1Cent=   200000004 NGrid=           0
         NMat0=    1 NMatS0=      1 NMatT0=    0 NMatD0=    1 NMtDS0=    0 NMtDT0=    0
 Petite list used in FoFCou.
 Requested convergence on RMS density matrix=1.00D-08 within 128 cycles.
 Requested convergence on MAX density matrix=1.00D-06.
 Requested convergence on             energy=1.00D-06.
 No special actions if energy rises.
 SCF Done:  E(RB3LYP) =  -782.278275717     A.U. after   16 cycles
            NFock= 16  Conv=0.54D-08     -V/T= 2.0097

 **********************************************************************

            Population analysis using the SCF Density.

 **********************************************************************

 Orbital symmetries:
       Occupied  (A) (A) (A) (A) (A) (A) (A) (A) (A) (A) (A) (A)
                 (A) (A) (A) (A) (A) (A) (A) (A) (A) (A) (A) (A)
                 (A) (A) (A) (A) (A) (A) (A) (A) (A) (A) (A) (A)
                 (A) (A) (A) (A) (A) (A) (A) (A) (A) (A) (A) (A)
                 (A) (A) (A) (A) (A) (A) (A) (A) (A) (A) (A) (A)
       Virtual   (A) (A) (A) (A) (A) (A) (A) (A) (A) (A) (A) (A)
                 (A) (A) (A) (A) (A) (A) (A) (A) (A) (A) (A) (A)
                 (A) (A) (A) (A) (A) (A) (A) (A) (A) (A) (A) (A)
                 (A) (A) (A) (A) (A) (A) (A) (A) (A) (A) (A) (A)
                 (A) (A) (A) (A) (A) (A) (A) (A) (A) (A) (A) (A)
                 (A) (A) (A) (A) (A) (A) (A) (A) (A) (A) (A) (A)
                 (A) (A) (A) (A) (A) (A) (A) (A) (A) (A) (A) (A)
                 (A) (A) (A) (A) (A) (A) (A) (A) (A) (A) (A) (A)
                 (A) (A) (A) (A) (A) (A) (A) (A) (A) (A) (A) (A)
                 (A) (A) (A) (A) (A) (A) (A) (A) (A) (A) (A) (A)
                 (A) (A) (A) (A) (A) (A) (A) (A) (A) (A) (A) (A)
                 (A) (A) (A) (A) (A) (A) (A) (A) (A) (A) (A) (A)
                 (A) (A) (A) (A) (A) (A) (A) (A) (A) (A) (A) (A)
                 (A) (A) (A) (A) (A) (A) (A) (A) (A) (A) (A) (A)
                 (A) (A) (A) (A) (A) (A) (A) (A) (A) (A) (A) (A)
                 (A) (A) (A) (A) (A) (A) (A) (A) (A) (A) (A) (A)
                 (A) (A) (A) (A) (A) (A) (A) (A) (A) (A) (A) (A)
                 (A) (A) (A) (A) (A) (A) (A) (A) (A) (A) (A) (A)
                 (A) (A) (A) (A) (A) (A) (A) (A) (A) (A) (A) (A)
                 (A) (A) (A) (A) (A) (A) (A) (A) (A) (A) (A) (A)
                 (A) (A) (A) (A) (A) (A) (A) (A) (A) (A) (A) (A)
                 (A) (A) (A) (A) (A) (A) (A) (A) (A) (A) (A) (A)
                 (A) (A) (A) (A) (A) (A) (A) (A) (A) (A) (A) (A)
                 (A) (A) (A) (A) (A) (A) (A)
 The electronic state is 1-A.
 Alpha  occ. eigenvalues --  -19.20447 -19.20445 -19.19960 -14.59279 -10.29229
 Alpha  occ. eigenvalues --  -10.28638 -10.26902 -10.23864 -10.23699 -10.23372
 Alpha  occ. eigenvalues --  -10.23083 -10.22527 -10.21757 -10.21741 -10.21584
 Alpha  occ. eigenvalues --  -10.21337 -10.19266  -1.27422  -1.09002  -0.98578
 Alpha  occ. eigenvalues --   -0.90137  -0.88047  -0.81975  -0.79531  -0.78925
 Alpha  occ. eigenvalues --   -0.76847  -0.71149  -0.70431  -0.66503  -0.63348
 Alpha  occ. eigenvalues --   -0.61711  -0.60297  -0.57692  -0.56339  -0.53896
 Alpha  occ. eigenvalues --   -0.53206  -0.52167  -0.50092  -0.49090  -0.48272
 Alpha  occ. eigenvalues --   -0.46973  -0.45207  -0.44250  -0.44027  -0.42847
 Alpha  occ. eigenvalues --   -0.41656  -0.40978  -0.39968  -0.38540  -0.38100
 Alpha  occ. eigenvalues --   -0.35934  -0.35439  -0.33401  -0.33104  -0.32604
 Alpha  occ. eigenvalues --   -0.31620  -0.28995  -0.27876  -0.27113  -0.24741
 Alpha virt. eigenvalues --   -0.08210  -0.04852  -0.04554  -0.04067  -0.03016
 Alpha virt. eigenvalues --   -0.02235  -0.00287   0.00427   0.00961   0.02087
 Alpha virt. eigenvalues --    0.02643   0.04124   0.04186   0.04279   0.04557
 Alpha virt. eigenvalues --    0.05563   0.05798   0.06553   0.06714   0.07120
 Alpha virt. eigenvalues --    0.08099   0.08516   0.08724   0.09248   0.10016
 Alpha virt. eigenvalues --    0.10698   0.10931   0.11178   0.11523   0.12374
 Alpha virt. eigenvalues --    0.12424   0.12540   0.12908   0.12993   0.13708
 Alpha virt. eigenvalues --    0.13904   0.14514   0.14927   0.15762   0.15982
 Alpha virt. eigenvalues --    0.16186   0.16530   0.17023   0.17252   0.18566
 Alpha virt. eigenvalues --    0.19011   0.19185   0.19421   0.20000   0.20505
 Alpha virt. eigenvalues --    0.20731   0.21034   0.21414   0.22012   0.22112
 Alpha virt. eigenvalues --    0.22648   0.22813   0.23555   0.23749   0.24453
 Alpha virt. eigenvalues --    0.24746   0.25312   0.25781   0.26157   0.26420
 Alpha virt. eigenvalues --    0.26913   0.27170   0.27675   0.28143   0.28564
 Alpha virt. eigenvalues --    0.29044   0.29302   0.30098   0.30432   0.30853
 Alpha virt. eigenvalues --    0.31567   0.31856   0.32350   0.32973   0.33635
 Alpha virt. eigenvalues --    0.34005   0.34602   0.35424   0.35720   0.36515
 Alpha virt. eigenvalues --    0.36902   0.38279   0.39119   0.39612   0.40200
 Alpha virt. eigenvalues --    0.40616   0.40817   0.41560   0.43732   0.44726
 Alpha virt. eigenvalues --    0.46079   0.48903   0.49805   0.55065   0.56647
 Alpha virt. eigenvalues --    0.58371   0.59676   0.62383   0.64774   0.65274
 Alpha virt. eigenvalues --    0.66044   0.66685   0.67532   0.68468   0.69594
 Alpha virt. eigenvalues --    0.69923   0.70737   0.71948   0.72154   0.72624
 Alpha virt. eigenvalues --    0.74328   0.74534   0.74846   0.75804   0.76605
 Alpha virt. eigenvalues --    0.76945   0.77920   0.78477   0.79620   0.80316
 Alpha virt. eigenvalues --    0.81962   0.82760   0.83378   0.86479   0.88222
 Alpha virt. eigenvalues --    0.89304   0.91084   0.92618   0.93282   0.94105
 Alpha virt. eigenvalues --    0.95556   0.96165   0.98103   0.99608   0.99952
 Alpha virt. eigenvalues --    1.00234   1.03269   1.04944   1.07013   1.08214
 Alpha virt. eigenvalues --    1.09070   1.10422   1.11429   1.13714   1.14113
 Alpha virt. eigenvalues --    1.15559   1.16408   1.17285   1.17814   1.18423
 Alpha virt. eigenvalues --    1.18606   1.20153   1.21027   1.21843   1.22536
 Alpha virt. eigenvalues --    1.23045   1.24402   1.25553   1.26171   1.27362
 Alpha virt. eigenvalues --    1.28293   1.28620   1.29784   1.32602   1.33758
 Alpha virt. eigenvalues --    1.34461   1.37019   1.38660   1.39052   1.39967
 Alpha virt. eigenvalues --    1.40819   1.42974   1.44188   1.44755   1.45570
 Alpha virt. eigenvalues --    1.45996   1.46197   1.46708   1.48372   1.50336
 Alpha virt. eigenvalues --    1.53095   1.54475   1.64781   1.65327   1.65783
 Alpha virt. eigenvalues --    1.70048   1.71804   1.77230   1.78753   1.79636
 Alpha virt. eigenvalues --    1.79730   1.79870   1.80409   1.81546   1.83261
 Alpha virt. eigenvalues --    1.84640   1.84919   1.85882   1.86369   1.89463
 Alpha virt. eigenvalues --    1.90735   1.92170   1.95296   1.95542   1.97353
 Alpha virt. eigenvalues --    1.98811   2.00049   2.01877   2.03326   2.06156
 Alpha virt. eigenvalues --    2.07252   2.08337   2.10766   2.10833   2.12810
 Alpha virt. eigenvalues --    2.13447   2.13594   2.15817   2.16715   2.18415
 Alpha virt. eigenvalues --    2.22004   2.23859   2.25023   2.25354   2.26033
 Alpha virt. eigenvalues --    2.27859   2.28328   2.29145   2.30506   2.35495
 Alpha virt. eigenvalues --    2.38084   2.40465   2.41533   2.45967   2.49138
 Alpha virt. eigenvalues --    2.50494   2.57497   2.60718   2.61535   2.62456
 Alpha virt. eigenvalues --    2.65001   2.68507   2.70745   2.71262   2.73458
 Alpha virt. eigenvalues --    2.74395   2.77203   2.78054   2.78485   2.80725
 Alpha virt. eigenvalues --    2.84622   2.88419   2.95067   2.97896   2.98743
 Alpha virt. eigenvalues --    3.02936   3.07227   3.08655   3.17016   3.38520
 Alpha virt. eigenvalues --    3.39661   4.14077   4.21006   4.24431   4.26511
 Alpha virt. eigenvalues --    4.27220   4.29987   4.33909   4.35090   4.38318
 Alpha virt. eigenvalues --    4.38745   4.41356   4.43294   4.44944   4.51454
 Alpha virt. eigenvalues --    4.54854   4.71236   4.74598
          Condensed to atoms (all electrons):
               1          2          3          4          5          6
     1  C   12.779947  -3.778586   0.052630  -2.155535  -0.628053  -0.490664
     2  C   -3.778586  23.549597  -6.878879   1.922200  -0.719121  -7.641386
     3  C    0.052630  -6.878879  13.517408  -1.186094  -0.794849   0.913373
     4  C   -2.155535   1.922200  -1.186094  10.752394  -2.324963  -0.794892
     5  C   -0.628053  -0.719121  -0.794849  -2.324963  11.099062   0.082296
     6  C   -0.490664  -7.641386   0.913373  -0.794892   0.082296  13.519551
     7  H   -0.008268   0.321712  -0.023703   0.029670  -0.030706   0.006902
     8  H    0.018639  -0.030304   0.063646   0.023097   0.302134  -0.076364
     9  H    0.012144  -0.001355   0.000694   0.017496  -0.099214   0.366681
    10  O   -0.022277   0.031164  -0.181132   0.279331  -0.150360   0.046358
    11  C   -0.076050  -0.206107  -0.093515  -0.353450   0.957717  -0.080373
    12  C    0.007852   0.378989   0.018185  -0.160077  -0.705749   0.267181
    13  C    0.024908  -0.326602   0.066040   0.299360  -0.082229  -0.025623
    14  C   -0.015164  -0.091284   0.014632  -0.215956  -0.455565   0.056633
    15  C   -0.004385  -0.123363  -0.088824   0.313786   0.070213  -0.004871
    16  C    0.010954   0.047222   0.055806  -0.046454  -0.024476  -0.001275
    17  H    0.000087   0.001770  -0.004293  -0.001089  -0.000349   0.000032
    18  H    0.000003   0.000016   0.000220   0.000282  -0.000041  -0.000006
    19  H   -0.008705   0.061757   0.075398   0.022856   0.037677   0.019198
    20  H   -0.001338  -0.011724  -0.040190   0.037629   0.016519   0.003254
    21  N   -0.382604   0.295430  -0.117120  -0.090500   0.158199  -0.301175
    22  O    0.282170  -0.187719   0.027687   0.003912  -0.029850  -0.067431
    23  O    0.267808  -0.172315   0.035348   0.006098  -0.023932  -0.086620
    24  H    0.000001   0.000004   0.000104  -0.000125  -0.000023  -0.000003
    25  C   -0.010679   0.027740   0.015384  -0.145169  -0.073568   0.009267
    26  H   -0.000086  -0.000021   0.000463  -0.004819  -0.002793  -0.000210
    27  H    0.000098   0.000071   0.002566   0.002480  -0.002847  -0.000882
    28  H   -0.000005  -0.000039  -0.000805  -0.000114   0.001109   0.000093
               7          8          9         10         11         12
     1  C   -0.008268   0.018639   0.012144  -0.022277  -0.076050   0.007852
     2  C    0.321712  -0.030304  -0.001355   0.031164  -0.206107   0.378989
     3  C   -0.023703   0.063646   0.000694  -0.181132  -0.093515   0.018185
     4  C    0.029670   0.023097   0.017496   0.279331  -0.353450  -0.160077
     5  C   -0.030706   0.302134  -0.099214  -0.150360   0.957717  -0.705749
     6  C    0.006902  -0.076364   0.366681   0.046358  -0.080373   0.267181
     7  H    0.512890   0.000014  -0.000157  -0.000247  -0.004077  -0.000374
     8  H    0.000014   0.499873  -0.004983  -0.004579  -0.003788   0.001665
     9  H   -0.000157  -0.004983   0.502652  -0.000079   0.000867   0.000477
    10  O   -0.000247  -0.004579  -0.000079   8.378289   0.256634   0.020773
    11  C   -0.004077  -0.003788   0.000867   0.256634  10.657404   1.149286
    12  C   -0.000374   0.001665   0.000477   0.020773   1.149286  11.105527
    13  C   -0.000575  -0.000982  -0.000089  -0.170793  -1.299651  -2.528249
    14  C    0.003479   0.000030   0.000055  -0.019535  -3.035027  -3.022620
    15  C   -0.000035  -0.000073  -0.000006  -0.037738  -1.057737  -0.738719
    16  C    0.000207   0.000001   0.000000   0.000671  -0.213401  -0.128236
    17  H    0.000000   0.000000   0.000000  -0.000182   0.001928  -0.012109
    18  H    0.000000   0.000000   0.000000  -0.000159   0.053374  -0.000332
    19  H   -0.008334  -0.000191   0.000014  -0.010964   0.039598   0.013374
    20  H    0.000305   0.000004   0.000000  -0.009970  -0.005114   0.128014
    21  N   -0.001210   0.000627  -0.002372   0.000245   0.002789  -0.003188
    22  O    0.000095  -0.000063   0.000542  -0.000005   0.000300   0.000330
    23  O    0.000365  -0.000060   0.000481  -0.000005   0.000228   0.000503
    24  H    0.000000   0.000000   0.000000   0.000054   0.003741   0.036702
    25  C    0.000010   0.000290   0.000020   0.008740  -0.498604  -0.013707
    26  H    0.000000   0.000000   0.000000  -0.001149  -0.020124  -0.000219
    27  H    0.000000   0.000000   0.000000   0.001519   0.003727   0.000731
    28  H    0.000000   0.000000   0.000000   0.000723  -0.018572  -0.012099
              13         14         15         16         17         18
     1  C    0.024908  -0.015164  -0.004385   0.010954   0.000087   0.000003
     2  C   -0.326602  -0.091284  -0.123363   0.047222   0.001770   0.000016
     3  C    0.066040   0.014632  -0.088824   0.055806  -0.004293   0.000220
     4  C    0.299360  -0.215956   0.313786  -0.046454  -0.001089   0.000282
     5  C   -0.082229  -0.455565   0.070213  -0.024476  -0.000349  -0.000041
     6  C   -0.025623   0.056633  -0.004871  -0.001275   0.000032  -0.000006
     7  H   -0.000575   0.003479  -0.000035   0.000207   0.000000   0.000000
     8  H   -0.000982   0.000030  -0.000073   0.000001   0.000000   0.000000
     9  H   -0.000089   0.000055  -0.000006   0.000000   0.000000   0.000000
    10  O   -0.170793  -0.019535  -0.037738   0.000671  -0.000182  -0.000159
    11  C   -1.299651  -3.035027  -1.057737  -0.213401   0.001928   0.053374
    12  C   -2.528249  -3.022620  -0.738719  -0.128236  -0.012109  -0.000332
    13  C    9.460265   1.926896  -0.772485  -0.495672  -0.007751   0.018485
    14  C    1.926896  10.543893  -0.979389   0.484189   0.332453  -0.006319
    15  C   -0.772485  -0.979389  10.098583   0.441269   0.003041   0.225959
    16  C   -0.495672   0.484189   0.441269   5.859456  -0.019188   0.017888
    17  H   -0.007751   0.332453   0.003041  -0.019188   0.532012  -0.000176
    18  H    0.018485  -0.006319   0.225959   0.017888  -0.000176   0.528919
    19  H   -0.002402  -0.021266  -0.005048  -0.002220   0.000284   0.000000
    20  H    0.046917   0.024801   0.001633   0.013042  -0.008718   0.000016
    21  N   -0.000411  -0.000392  -0.000095  -0.000014   0.000000   0.000000
    22  O   -0.000050  -0.000108   0.000000   0.000000   0.000000   0.000000
    23  O    0.000078   0.000201   0.000000  -0.000005   0.000000   0.000000
    24  H    0.026199  -0.011784  -0.046613   0.285560  -0.004375  -0.004213
    25  C   -0.258576   0.487333  -0.746170  -0.135640   0.001223  -0.027371
    26  H   -0.067725   0.008310  -0.018831  -0.006808   0.000000   0.000201
    27  H   -0.050081   0.000501  -0.025521  -0.003502   0.000000   0.000246
    28  H   -0.115065  -0.001029   0.027787   0.009391   0.000000   0.004171
              19         20         21         22         23         24
     1  C   -0.008705  -0.001338  -0.382604   0.282170   0.267808   0.000001
     2  C    0.061757  -0.011724   0.295430  -0.187719  -0.172315   0.000004
     3  C    0.075398  -0.040190  -0.117120   0.027687   0.035348   0.000104
     4  C    0.022856   0.037629  -0.090500   0.003912   0.006098  -0.000125
     5  C    0.037677   0.016519   0.158199  -0.029850  -0.023932  -0.000023
     6  C    0.019198   0.003254  -0.301175  -0.067431  -0.086620  -0.000003
     7  H   -0.008334   0.000305  -0.001210   0.000095   0.000365   0.000000
     8  H   -0.000191   0.000004   0.000627  -0.000063  -0.000060   0.000000
     9  H    0.000014   0.000000  -0.002372   0.000542   0.000481   0.000000
    10  O   -0.010964  -0.009970   0.000245  -0.000005  -0.000005   0.000054
    11  C    0.039598  -0.005114   0.002789   0.000300   0.000228   0.003741
    12  C    0.013374   0.128014  -0.003188   0.000330   0.000503   0.036702
    13  C   -0.002402   0.046917  -0.000411  -0.000050   0.000078   0.026199
    14  C   -0.021266   0.024801  -0.000392  -0.000108   0.000201  -0.011784
    15  C   -0.005048   0.001633  -0.000095   0.000000   0.000000  -0.046613
    16  C   -0.002220   0.013042  -0.000014   0.000000  -0.000005   0.285560
    17  H    0.000284  -0.008718   0.000000   0.000000   0.000000  -0.004375
    18  H    0.000000   0.000016   0.000000   0.000000   0.000000  -0.004213
    19  H    0.641979  -0.001808   0.001307  -0.000056  -0.000073   0.000001
    20  H   -0.001808   0.653849   0.000069  -0.000004  -0.000002  -0.000199
    21  N    0.001307   0.000069   7.196302   0.251045   0.256749   0.000000
    22  O   -0.000056  -0.000004   0.251045   7.856182  -0.118888   0.000000
    23  O   -0.000073  -0.000002   0.256749  -0.118888   7.854175   0.000000
    24  H    0.000001  -0.000199   0.000000   0.000000   0.000000   0.531771
    25  C    0.000845   0.003472   0.000080   0.000001   0.000008  -0.000815
    26  H   -0.000001   0.000006   0.000000   0.000000   0.000000   0.000002
    27  H    0.000001  -0.000005   0.000000   0.000000   0.000000   0.000002
    28  H    0.000000   0.000003   0.000000   0.000000   0.000000  -0.000006
              25         26         27         28
     1  C   -0.010679  -0.000086   0.000098  -0.000005
     2  C    0.027740  -0.000021   0.000071  -0.000039
     3  C    0.015384   0.000463   0.002566  -0.000805
     4  C   -0.145169  -0.004819   0.002480  -0.000114
     5  C   -0.073568  -0.002793  -0.002847   0.001109
     6  C    0.009267  -0.000210  -0.000882   0.000093
     7  H    0.000010   0.000000   0.000000   0.000000
     8  H    0.000290   0.000000   0.000000   0.000000
     9  H    0.000020   0.000000   0.000000   0.000000
    10  O    0.008740  -0.001149   0.001519   0.000723
    11  C   -0.498604  -0.020124   0.003727  -0.018572
    12  C   -0.013707  -0.000219   0.000731  -0.012099
    13  C   -0.258576  -0.067725  -0.050081  -0.115065
    14  C    0.487333   0.008310   0.000501  -0.001029
    15  C   -0.746170  -0.018831  -0.025521   0.027787
    16  C   -0.135640  -0.006808  -0.003502   0.009391
    17  H    0.001223   0.000000   0.000000   0.000000
    18  H   -0.027371   0.000201   0.000246   0.004171
    19  H    0.000845  -0.000001   0.000001   0.000000
    20  H    0.003472   0.000006  -0.000005   0.000003
    21  N    0.000080   0.000000   0.000000   0.000000
    22  O    0.000001   0.000000   0.000000   0.000000
    23  O    0.000008   0.000000   0.000000   0.000000
    24  H   -0.000815   0.000002   0.000002  -0.000006
    25  C    6.841703   0.454116   0.409599   0.447366
    26  H    0.454116   0.476499  -0.026445  -0.027360
    27  H    0.409599  -0.026445   0.475544  -0.027196
    28  H    0.447366  -0.027360  -0.027196   0.508244
 Mulliken charges:
               1
     1  C    0.125158
     2  C   -0.468868
     3  C    0.549818
     4  C   -0.231357
     5  C   -0.576238
     6  C    0.280957
     7  H    0.202040
     8  H    0.211370
     9  H    0.206131
    10  O   -0.415329
    11  C   -0.162001
    12  C    0.196090
    13  C    0.335865
    14  C   -0.007968
    15  C   -0.532367
    16  C   -0.148765
    17  H    0.185400
    18  H    0.188837
    19  H    0.146779
    20  H    0.149537
    21  N   -0.263761
    22  O   -0.018092
    23  O   -0.020143
    24  H    0.184015
    25  C   -0.796897
    26  H    0.236992
    27  H    0.239390
    28  H    0.203405
 Sum of Mulliken charges =   0.00000
 Mulliken charges with hydrogens summed into heavy atoms:
               1
     1  C    0.125158
     2  C   -0.266829
     3  C    0.696598
     4  C   -0.231357
     5  C   -0.364868
     6  C    0.487088
    10  O   -0.415329
    11  C   -0.162001
    12  C    0.345627
    13  C    0.335865
    14  C    0.177432
    15  C   -0.343530
    16  C    0.035251
    21  N   -0.263761
    22  O   -0.018092
    23  O   -0.020143
    25  C   -0.117110
 Electronic spatial extent (au):  <R**2>=           6088.5822
 Charge=              0.0000 electrons
 Dipole moment (field-independent basis, Debye):
    X=              5.2868    Y=             -0.0625    Z=              0.0863  Tot=              5.2879
 Quadrupole moment (field-independent basis, Debye-Ang):
   XX=           -111.2741   YY=            -87.2907   ZZ=           -107.6666
   XY=             -7.7118   XZ=              1.6853   YZ=              1.1538
 Traceless Quadrupole moment (field-independent basis, Debye-Ang):
   XX=             -9.1969   YY=             14.7864   ZZ=             -5.5895
   XY=             -7.7118   XZ=              1.6853   YZ=              1.1538
 Octapole moment (field-independent basis, Debye-Ang**2):
  XXX=            217.4777  YYY=             -5.0757  ZZZ=             -0.0466  XYY=            -14.1426
  XXY=             36.3446  XXZ=              7.7273  XZZ=             -2.3095  YZZ=              5.1803
  YYZ=              0.8055  XYZ=             -3.2771
 Hexadecapole moment (field-independent basis, Debye-Ang**3):
 XXXX=          -7403.3439 YYYY=           -961.1910 ZZZZ=           -212.4075 XXXY=           -167.4680
 XXXZ=             54.2137 YYYX=            -18.4312 YYYZ=              2.2135 ZZZX=             -1.1051
 ZZZY=             -0.3250 XXYY=          -1201.3227 XXZZ=          -1326.3697 YYZZ=           -221.6173
 XXYZ=              2.6806 YYXZ=              2.1643 ZZXY=             19.6337
 N-N= 1.065658880020D+03 E-N=-3.950283986737D+03  KE= 7.747636728350D+02
 Evaluate density.
 Using the total density.
 Monte-Carlo method of calculating molar volume:
 based on  0.001 e/bohr**3 density envelope.
 Number of points per bohr**3 =   20 CutOff= 1.00D-04
 Using the SCF density.
 There are       415 points.  Will hold       415 in memory.
 LenV=  4026267635 MDV=  4026531840.
 Box volume = 8935.308 fraction occupied=0.246
 Integrated density= 7.9490076700217145D+01 error=-4.0509923299782855D+01
 Molar volume = 2196.148 bohr**3/mol (195.982 cm**3/mol)
 Recommended a0 for SCRF calculation =  5.20 angstrom (  9.82 bohr)
 Calling FoFJK, ICntrl=      2127 FMM=F ISym2X=0 I1Cent= 0 IOpClX= 0 NMat=1 NMatS=1 NMatT=0.
 ***** Axes restored to original set *****
 -------------------------------------------------------------------
 Center     Atomic                   Forces (Hartrees/Bohr)
 Number     Number              X              Y              Z
 -------------------------------------------------------------------
      1        6           0.004547559    0.022981423   -0.005997613
      2        6           0.002576789    0.003538198    0.013703350
      3        6          -0.001126272   -0.013953470    0.019098860
      4        6           0.008240888    0.053233491   -0.041639442
      5        6          -0.000410804    0.004700232   -0.010136078
      6        6          -0.002151804    0.000504934   -0.015312373
      7        1          -0.002878364   -0.007129130   -0.008856014
      8        1           0.002810906    0.007327025    0.007803769
      9        1           0.000860991   -0.002860812    0.010995487
     10        8          -0.003587079   -0.010300093   -0.021201418
     11        6          -0.003916604   -0.060466367    0.019843946
     12        6           0.003050128    0.016851010   -0.003095376
     13        6           0.003871245    0.009700785    0.043619524
     14        6           0.003202052    0.014056052    0.011947385
     15        6          -0.012638693   -0.026007663   -0.004216901
     16        6          -0.001475790   -0.005284135    0.011784202
     17        1          -0.003186100   -0.007720362   -0.008424870
     18        1           0.004022537    0.010925140    0.001100818
     19        1          -0.002356656   -0.021909366    0.012437114
     20        1           0.000584066    0.018385009   -0.017234174
     21        7           0.004628297    0.022976117   -0.004577598
     22        8           0.047252948   -0.024416022   -0.003704933
     23        8          -0.052514946   -0.001760187    0.009062488
     24        1           0.002092499    0.004008632   -0.011165448
     25        6          -0.006949650   -0.018920628   -0.026489589
     26        1          -0.011625245    0.001643989    0.012628881
     27        1           0.012327524   -0.005826174    0.011570986
     28        1           0.004749576    0.015722372   -0.003544984
 -------------------------------------------------------------------
 Cartesian Forces:  Max     0.060466367 RMS     0.017260519

 GradGradGradGradGradGradGradGradGradGradGradGradGradGradGradGradGradGrad
 Berny optimization.
 FormGI is forming the generalized inverse of G from B-inverse, IUseBI=4.
 Internal  Forces:  Max     0.166454374 RMS     0.024636826
 Search for a local minimum.
 Step number   1 out of a maximum of  147
 All quantities printed in internal units (Hartrees-Bohrs-Radians)
 Mixed Optimization -- RFO/linear search
 Second derivative matrix not updated -- first step.
 ITU=  0
     Eigenvalues ---    0.00230   0.00230   0.00237   0.00766   0.00766
     Eigenvalues ---    0.01337   0.01655   0.01752   0.01788   0.02070
     Eigenvalues ---    0.02070   0.02070   0.02070   0.02070   0.02070
     Eigenvalues ---    0.02070   0.02070   0.02070   0.02070   0.02070
     Eigenvalues ---    0.02070   0.02070   0.02070   0.07243   0.07243
     Eigenvalues ---    0.16000   0.16000   0.16000   0.16000   0.16000
     Eigenvalues ---    0.16000   0.16000   0.16000   0.16000   0.16000
     Eigenvalues ---    0.16000   0.18708   0.22000   0.22000   0.22486
     Eigenvalues ---    0.22981   0.24000   0.24447   0.24758   0.25000
     Eigenvalues ---    0.25000   0.25000   0.25000   0.25000   0.25000
     Eigenvalues ---    0.27457   0.28519   0.35740   0.37230   0.37230
     Eigenvalues ---    0.37230   0.37230   0.37230   0.37230   0.37230
     Eigenvalues ---    0.37230   0.37230   0.37230   0.37230   0.41268
     Eigenvalues ---    0.41367   0.41533   0.41640   0.45389   0.45389
     Eigenvalues ---    0.45389   0.45389   0.45389   0.45389   0.45389
     Eigenvalues ---    0.45389   1.05155   1.05157
 RFO step:  Lambda=-1.84089856D-01 EMin= 2.30000000D-03
 Linear search not attempted -- first point.
 Maximum step size (   0.300) exceeded in Quadratic search.
    -- Step size scaled by   0.466
 Iteration  1 RMS(Cart)=  0.25019235 RMS(Int)=  0.01280395
 Iteration  2 RMS(Cart)=  0.14407012 RMS(Int)=  0.00284644
 Iteration  3 RMS(Cart)=  0.00706146 RMS(Int)=  0.00014202
 Iteration  4 RMS(Cart)=  0.00000338 RMS(Int)=  0.00014202
 Iteration  5 RMS(Cart)=  0.00000000 RMS(Int)=  0.00014202
 Variable       Old X    -DE/DX   Delta X   Delta X   Delta X     New X
                                 (Linear)    (Quad)   (Total)
    R1        2.64826  -0.01547   0.00000  -0.01149  -0.01150   2.63677
    R2        2.64826  -0.01527   0.00000  -0.01149  -0.01149   2.63677
    R3        2.77790   0.00335   0.00000   0.00289   0.00289   2.78078
    R4        2.64826  -0.00520   0.00000  -0.00364  -0.00365   2.64461
    R5        2.02201   0.01172   0.00000   0.00982   0.00982   2.03183
    R6        2.64826   0.00445   0.00000   0.00359   0.00359   2.65185
    R7        2.02201  -0.01892   0.00000  -0.01585  -0.01585   2.00616
    R8        2.64826  -0.00530   0.00000  -0.00369  -0.00368   2.64458
    R9        2.93342  -0.04678   0.00000  -0.04755  -0.04755   2.88587
   R10        2.64826  -0.00948   0.00000  -0.00708  -0.00707   2.64119
   R11        2.02201   0.01105   0.00000   0.00926   0.00926   2.03127
   R12        2.02201   0.01135   0.00000   0.00951   0.00951   2.03151
   R13        3.18558  -0.04920   0.00000  -0.06180  -0.06180   3.12378
   R14        2.64826  -0.00302   0.00000  -0.00216  -0.00216   2.64610
   R15        2.64826  -0.00984   0.00000  -0.00721  -0.00721   2.64105
   R16        2.64826  -0.00268   0.00000  -0.00190  -0.00190   2.64636
   R17        2.02201  -0.01963   0.00000  -0.01645  -0.01645   2.00556
   R18        2.64826  -0.00281   0.00000  -0.00211  -0.00211   2.64615
   R19        2.91018  -0.00919   0.00000  -0.00912  -0.00912   2.90105
   R20        2.64826  -0.01028   0.00000  -0.00750  -0.00750   2.64077
   R21        2.02201   0.01179   0.00000   0.00988   0.00988   2.03188
   R22        2.64826  -0.00861   0.00000  -0.00633  -0.00633   2.64193
   R23        2.02201   0.01135   0.00000   0.00951   0.00951   2.03152
   R24        2.02201   0.01204   0.00000   0.01009   0.01009   2.03209
   R25        2.26643   0.05182   0.00000   0.01955   0.01955   2.28598
   R26        2.26642   0.05183   0.00000   0.01955   0.01955   2.28597
   R27        2.02201   0.01696   0.00000   0.01421   0.01421   2.03621
   R28        2.02201   0.01760   0.00000   0.01475   0.01475   2.03676
   R29        2.02201   0.01669   0.00000   0.01398   0.01398   2.03599
    A1        2.09440   0.00372   0.00000   0.00308   0.00307   2.09747
    A2        2.09440  -0.00175   0.00000  -0.00143  -0.00142   2.09297
    A3        2.09440  -0.00197   0.00000  -0.00166  -0.00165   2.09274
    A4        2.09440  -0.00013   0.00000  -0.00034  -0.00035   2.09405
    A5        2.09440   0.00033   0.00000   0.00053   0.00054   2.09493
    A6        2.09440  -0.00020   0.00000  -0.00019  -0.00019   2.09421
    A7        2.09440   0.00327   0.00000   0.00441   0.00441   2.09881
    A8        2.09440  -0.01860   0.00000  -0.02519  -0.02519   2.06921
    A9        2.09440   0.01533   0.00000   0.02077   0.02077   2.11517
   A10        2.09440  -0.01394   0.00000  -0.01433  -0.01431   2.08008
   A11        2.09440   0.10211   0.00000   0.10933   0.10933   2.20372
   A12        2.09440  -0.08817   0.00000  -0.09501  -0.09501   1.99938
   A13        2.09440   0.00973   0.00000   0.01113   0.01115   2.10554
   A14        2.09440  -0.00544   0.00000  -0.00635  -0.00635   2.08804
   A15        2.09440  -0.00429   0.00000  -0.00479  -0.00479   2.08960
   A16        2.09440  -0.00264   0.00000  -0.00397  -0.00397   2.09043
   A17        2.09440   0.00236   0.00000   0.00340   0.00340   2.09779
   A18        2.09440   0.00028   0.00000   0.00057   0.00057   2.09497
   A19        2.23319   0.16645   0.00000   0.17876   0.17876   2.41195
   A20        2.01758   0.10455   0.00000   0.11319   0.11328   2.13086
   A21        2.16295  -0.10107   0.00000  -0.10886  -0.10898   2.05398
   A22        2.09440  -0.00284   0.00000  -0.00274  -0.00274   2.09166
   A23        2.09440   0.00108   0.00000   0.00128   0.00127   2.09567
   A24        2.09440   0.01409   0.00000   0.01918   0.01918   2.11357
   A25        2.09440  -0.01517   0.00000  -0.02046  -0.02046   2.07393
   A26        2.09440  -0.00159   0.00000  -0.00194  -0.00195   2.09245
   A27        2.09440  -0.00245   0.00000  -0.00251  -0.00251   2.09188
   A28        2.09440   0.00404   0.00000   0.00446   0.00446   2.09885
   A29        2.09440   0.00255   0.00000   0.00293   0.00293   2.09732
   A30        2.09440  -0.00260   0.00000  -0.00326  -0.00326   2.09114
   A31        2.09440   0.00005   0.00000   0.00033   0.00033   2.09472
   A32        2.09440   0.00640   0.00000   0.00710   0.00710   2.10149
   A33        2.09440  -0.00603   0.00000  -0.00738  -0.00738   2.08702
   A34        2.09440  -0.00038   0.00000   0.00028   0.00028   2.09467
   A35        2.09440  -0.00560   0.00000  -0.00663  -0.00663   2.08777
   A36        2.09440   0.00288   0.00000   0.00342   0.00341   2.09781
   A37        2.09440   0.00272   0.00000   0.00321   0.00321   2.09761
   A38        2.06635  -0.00948   0.00000  -0.01018  -0.01018   2.05618
   A39        2.06634  -0.00946   0.00000  -0.01016  -0.01016   2.05618
   A40        2.15049   0.01894   0.00000   0.02034   0.02034   2.17083
   A41        1.91063   0.00274   0.00000   0.00363   0.00362   1.91425
   A42        1.91063   0.00269   0.00000   0.00354   0.00353   1.91416
   A43        1.91063   0.00208   0.00000   0.00302   0.00301   1.91365
   A44        1.91063  -0.00380   0.00000  -0.00555  -0.00555   1.90508
   A45        1.91063  -0.00182   0.00000  -0.00224  -0.00225   1.90838
   A46        1.91063  -0.00190   0.00000  -0.00240  -0.00240   1.90823
    D1        0.00000  -0.00005   0.00000  -0.00011  -0.00011  -0.00011
    D2       -3.14159  -0.00010   0.00000  -0.00024  -0.00023   3.14136
    D3       -3.14159  -0.00001   0.00000  -0.00002  -0.00002   3.14157
    D4        0.00000  -0.00006   0.00000  -0.00014  -0.00014  -0.00014
    D5        0.00000   0.00000   0.00000   0.00000   0.00000   0.00000
    D6        3.14159   0.00005   0.00000   0.00012   0.00012  -3.14148
    D7        3.14159  -0.00004   0.00000  -0.00009  -0.00009   3.14150
    D8        0.00000   0.00001   0.00000   0.00002   0.00003   0.00002
    D9        1.57667  -0.00001   0.00000  -0.00003  -0.00003   1.57664
   D10       -1.56492   0.00008   0.00000   0.00019   0.00019  -1.56473
   D11       -1.56492   0.00003   0.00000   0.00006   0.00006  -1.56486
   D12        1.57667   0.00011   0.00000   0.00028   0.00028   1.57695
   D13        0.00000  -0.00001   0.00000  -0.00001  -0.00001  -0.00001
   D14       -3.14159  -0.00036   0.00000  -0.00082  -0.00081   3.14079
   D15        3.14159   0.00005   0.00000   0.00011   0.00011  -3.14149
   D16        0.00000  -0.00031   0.00000  -0.00070  -0.00069  -0.00069
   D17        0.00000   0.00011   0.00000   0.00025   0.00024   0.00024
   D18        3.14159   0.00016   0.00000   0.00037   0.00038  -3.14122
   D19        3.14159   0.00046   0.00000   0.00105   0.00106  -3.14054
   D20        0.00000   0.00052   0.00000   0.00118   0.00119   0.00119
   D21        0.00000  -0.00016   0.00000  -0.00036  -0.00036  -0.00035
   D22       -3.14159  -0.00006   0.00000  -0.00014  -0.00014   3.14145
   D23       -3.14159  -0.00021   0.00000  -0.00049  -0.00047   3.14112
   D24        0.00000  -0.00012   0.00000  -0.00027  -0.00026  -0.00026
   D25       -0.09171   0.00134   0.00000   0.00335   0.00335  -0.08836
   D26        3.04988   0.00139   0.00000   0.00348   0.00348   3.05336
   D27        0.00000   0.00010   0.00000   0.00023   0.00023   0.00023
   D28       -3.14159   0.00005   0.00000   0.00012   0.00012  -3.14147
   D29       -3.14159   0.00001   0.00000   0.00001   0.00002  -3.14157
   D30        0.00000  -0.00004   0.00000  -0.00010  -0.00010  -0.00009
   D31        0.07603   0.01173   0.00000   0.02863   0.02828   0.10431
   D32       -2.92738   0.00535   0.00000   0.01410   0.01445  -2.91294
   D33       -3.00924   0.00378   0.00000  -0.00090  -0.00180  -3.01104
   D34        0.13235   0.00583   0.00000   0.00540   0.00472   0.13707
   D35        0.00000   0.00105   0.00000   0.00347   0.00359   0.00360
   D36       -3.14159   0.00310   0.00000   0.00977   0.01011  -3.13148
   D37        2.99766   0.01134   0.00000   0.01759   0.01690   3.01457
   D38       -0.14393   0.01092   0.00000   0.01763   0.01703  -0.12690
   D39        0.00000  -0.00280   0.00000  -0.00565  -0.00559  -0.00559
   D40        3.14159  -0.00322   0.00000  -0.00560  -0.00546   3.13613
   D41        0.00000   0.00134   0.00000   0.00119   0.00102   0.00101
   D42        3.14159   0.00055   0.00000   0.00116   0.00114  -3.14046
   D43        3.14159  -0.00072   0.00000  -0.00511  -0.00536   3.13623
   D44        0.00000  -0.00151   0.00000  -0.00514  -0.00524  -0.00524
   D45        0.00000   0.00217   0.00000   0.00316   0.00301   0.00301
   D46        3.14159   0.00068   0.00000   0.00139   0.00138  -3.14021
   D47        3.14159   0.00260   0.00000   0.00311   0.00288  -3.13872
   D48        0.00000   0.00111   0.00000   0.00135   0.00125   0.00125
   D49       -0.94264   0.00083   0.00000   0.00105   0.00101  -0.94163
   D50        1.15176  -0.00049   0.00000  -0.00135  -0.00140   1.15036
   D51       -3.03703   0.00010   0.00000  -0.00027  -0.00032  -3.03735
   D52        2.19895   0.00040   0.00000   0.00110   0.00114   2.20010
   D53       -1.98984  -0.00092   0.00000  -0.00131  -0.00127  -1.99110
   D54        0.10456  -0.00032   0.00000  -0.00023  -0.00019   0.10437
   D55        0.00000  -0.00197   0.00000  -0.00368  -0.00360  -0.00360
   D56       -3.14159  -0.00087   0.00000  -0.00103  -0.00094   3.14065
   D57       -3.14159  -0.00118   0.00000  -0.00365  -0.00372   3.13787
   D58        0.00000  -0.00008   0.00000  -0.00100  -0.00106  -0.00106
   D59        0.00000   0.00021   0.00000   0.00150   0.00159   0.00159
   D60       -3.14159  -0.00089   0.00000  -0.00114  -0.00106   3.14053
   D61       -3.14159   0.00170   0.00000   0.00327   0.00322  -3.13837
   D62        0.00000   0.00060   0.00000   0.00062   0.00057   0.00057
         Item               Value     Threshold  Converged?
 Maximum Force            0.166454     0.000450     NO 
 RMS     Force            0.024637     0.000300     NO 
 Maximum Displacement     1.280513     0.001800     NO 
 RMS     Displacement     0.387974     0.001200     NO 
 Predicted change in Energy=-7.427139D-02
 GradGradGradGradGradGradGradGradGradGradGradGradGradGradGradGradGradGrad

                          Input orientation:                          
 ---------------------------------------------------------------------
 Center     Atomic      Atomic             Coordinates (Angstroms)
 Number     Number       Type             X           Y           Z
 ---------------------------------------------------------------------
      1          6           0       -4.731801   -0.245313   -0.186288
      2          6           0       -4.859795   -0.025382   -1.558205
      3          6           0       -4.630036    1.250045   -2.086417
      4          6           0       -4.270796    2.311121   -1.241244
      5          6           0       -4.145635    2.076698    0.132745
      6          6           0       -4.374876    0.803552    0.661887
      7          1           0       -5.134741   -0.835346   -2.209676
      8          1           0       -3.870695    2.884152    0.786838
      9          1           0       -4.276076    0.634415    1.718922
     10          8           0       -3.989821    3.750334   -1.667703
     11          6           0       -3.869534    4.619140   -3.068856
     12          6           0       -4.165882    4.060599   -4.318225
     13          6           0       -3.313272    5.899037   -2.993522
     14          6           0       -3.901451    4.781132   -5.489555
     15          6           0       -3.048321    6.614920   -4.167449
     16          6           0       -3.340161    6.058800   -5.416489
     17          1           0       -4.131635    4.348647   -6.446679
     18          1           0       -2.619199    7.598530   -4.103723
     19          1           0       -4.733056    1.391813   -3.133465
     20          1           0       -4.596976    3.094109   -4.398270
     21          7           0       -4.973733   -1.586947    0.367678
     22          8           0       -4.031902   -2.341542    0.450649
     23          8           0       -6.101182   -1.861547    0.709420
     24          1           0       -3.136122    6.612130   -6.315682
     25          6           0       -2.994920    6.514565   -1.623657
     26          1           0       -3.875095    6.492356   -1.002493
     27          1           0       -2.210573    5.950509   -1.145846
     28          1           0       -2.673651    7.535040   -1.750957
 ---------------------------------------------------------------------
                    Distance matrix (angstroms):
                    1          2          3          4          5
     1  C    0.000000
     2  C    1.395317   0.000000
     3  C    2.420112   1.399469   0.000000
     4  C    2.803714   2.430356   1.403301   0.000000
     5  C    2.416011   2.790713   2.417164   1.399452   0.000000
     6  C    1.395318   2.418902   2.796004   2.430124   1.397657
     7  H    2.145833   1.075198   2.149135   3.403604   3.865912
     8  H    3.388514   3.865609   3.391533   2.145124   1.074900
     9  H    2.147425   3.393468   3.871033   3.402051   2.147825
    10  O    4.325543   3.876194   2.614697   1.527138   2.463118
    11  C    5.719755   4.983399   3.590870   2.971217   4.097620
    12  C    5.994501   4.979404   3.618786   3.541115   4.873131
    13  C    6.902596   6.288928   4.916282   4.106151   5.007660
    14  C    7.353862   6.283034   4.957899   4.928035   6.243705
    15  C    8.108424   7.360924   5.967779   5.346009   6.347537
    16  C    8.308641   7.362942   5.989765   5.687166   6.877495
    17  H    7.788271   6.599964   5.372301   5.591729   6.960659
    18  H    9.018606   8.344098   6.958178   6.235243   7.125187
    19  H    3.371356   2.122722   1.061612   2.153907   3.388549
    20  H    5.376868   4.226851   2.957419   3.268987   4.665719
    21  N    1.471527   2.482034   3.766861   4.275241   3.763407
    22  O    2.299940   3.175767   4.437788   4.956495   4.431122
    23  O    2.299936   3.170909   4.434296   4.956466   4.434691
    24  H    9.334891   8.346328   6.990737   6.748043   7.948048
    25  C    7.125920   6.800952   5.531990   4.409426   4.909558
    26  H    6.840784   6.615087   5.406168   4.206698   4.567275
    27  H    6.757629   6.549786   5.369621   4.183153   4.515049
    28  H    8.198662   7.872507   6.590989   5.486348   5.958907
                    6          7          8          9         10
     6  C    0.000000
     7  H    3.392530   0.000000
     8  H    2.144460   4.940807   0.000000
     9  H    1.075031   4.281517   2.468690   0.000000
    10  O    3.776081   4.757420   2.605615   4.610870   0.000000
    11  C    5.360273   5.664835   4.228068   6.242285   1.653034
    12  C    5.954288   5.418020   5.247173   6.942480   2.674422
    13  C    6.360267   7.020263   4.867379   7.130945   2.613894
    14  C    7.340676   6.619928   6.556874   8.324527   3.959408
    15  C    7.671651   7.980757   6.256188   8.480754   3.916759
    16  C    8.101539   7.812389   6.988643   9.011880   4.450222
    17  H    7.947237   6.769949   7.384890   8.971813   4.818372
    18  H    8.483229   9.002535   6.907184   9.227531   4.756197
    19  H    3.857336   2.444377   4.282466   4.932357   2.874627
    20  H    5.558882   4.529874   5.239934   6.600993   2.873198
    21  N    2.481869   2.689532   4.624188   2.692032   5.796329
    22  O    3.170783   3.249955   5.238977   3.244142   6.449817
    23  O    3.175711   3.241638   5.244304   3.252681   6.449943
    24  H    9.163000   8.736055   8.055011  10.079059   5.524707
    25  C    6.304258   7.677464   4.444926   6.884066   2.938152
    26  H    5.948314   7.532545   4.027513   6.471658   2.823889
    27  H    5.868840   7.465275   3.986705   6.382323   2.877295
    28  H    7.350437   8.736748   5.431765   7.888374   4.007896
                   11         12         13         14         15
    11  C    0.000000
    12  C    1.400255   0.000000
    13  C    1.397584   2.421082   0.000000
    14  C    2.426324   1.400395   2.797472   0.000000
    15  C    2.421660   2.792173   1.400282   2.416314   0.000000
    16  C    2.804326   2.425038   2.428378   1.397434   1.398049
    17  H    3.398757   2.148130   3.872689   1.075227   3.391821
    18  H    3.392794   3.867195   2.145357   3.391523   1.075033
    19  H    3.341479   2.974518   4.727625   4.210726   5.584648
    20  H    2.149937   1.061297   3.389518   2.126195   3.853273
    21  N    7.179452   7.382756   8.372262   8.718338   9.567926
    22  O    7.801562   7.984204   8.960239   9.275534  10.124844
    23  O    7.826552   8.005898   9.039407   9.348331  10.244720
    24  H    3.879663   3.400081   3.402444   2.149596   2.150028
    25  C    2.538934   3.828028   1.535172   4.332638   2.546330
    26  H    2.789055   4.122146   2.152178   4.802365   3.273458
    27  H    2.867519   4.178395   2.152325   4.805655   3.205207
    28  H    3.416061   4.570489   2.151648   4.802981   2.612745
                   16         17         18         19         20
    16  C    0.000000
    17  H    2.147637   0.000000
    18  H    2.148001   4.282364   0.000000
    19  H    5.378952   4.481290   6.628206   0.000000
    20  H    3.377240   2.446710   4.928302   2.125102   0.000000
    21  N    9.725359   9.076116  10.483809   4.603145   6.690926
    22  O   10.269740   9.609459  11.024657   5.222588   7.305999
    23  O   10.386621   9.677570  11.170658   5.217651   7.273902
    24  H    1.075338   2.476198   2.476481   6.318892   4.264626
    25  C    3.835686   5.407851   2.732558   5.616335   4.686637
    26  H    4.467381   5.856660   3.523992   5.593986   4.858034
    27  H    4.418834   5.861337   3.410570   5.576312   4.942894
    28  H    4.007450   5.859064   2.354253   6.625082   5.516277
                   21         22         23         24         25
    21  N    0.000000
    22  O    1.209687   0.000000
    23  O    1.209683   2.139925   0.000000
    24  H   10.736339  11.258503  11.399422   0.000000
    25  C    8.574125   9.154709   9.233166   4.695162   0.000000
    26  H    8.267982   8.953992   8.813274   5.365669   1.077518
    27  H    8.169397   8.638526   8.922279   5.293542   1.077805
    28  H    9.643114  10.209739  10.300353   4.679996   1.077399
                   26         27         28
    26  H    0.000000
    27  H    1.756354   0.000000
    28  H    1.758083   1.758220   0.000000
 Stoichiometry    C13H11NO3
 Framework group  C1[X(C13H11NO3)]
 Deg. of freedom    78
 Full point group                 C1      NOp   1
 Largest Abelian subgroup         C1      NOp   1
 Largest concise Abelian subgroup C1      NOp   1
                         Standard orientation:                         
 ---------------------------------------------------------------------
 Center     Atomic      Atomic             Coordinates (Angstroms)
 Number     Number       Type             X           Y           Z
 ---------------------------------------------------------------------
      1          6           0       -3.237347   -0.029492    0.016302
      2          6           0       -2.374628   -1.125046   -0.032550
      3          6           0       -0.991312   -0.923450   -0.098202
      4          6           0       -0.466509    0.377913   -0.115191
      5          6           0       -1.342979    1.467771   -0.065427
      6          6           0       -2.724758    1.268160    0.000030
      7          1           0       -2.772137   -2.123981   -0.019668
      8          1           0       -0.948920    2.467757   -0.077904
      9          1           0       -3.389168    2.112452    0.037762
     10          8           0        1.011717    0.754949   -0.184766
     11          6           0        2.479514   -0.005092   -0.163989
     12          6           0        2.594950   -1.400483   -0.180512
     13          6           0        3.617059    0.784682    0.024395
     14          6           0        3.846672   -2.003202   -0.004358
     15          6           0        4.866291    0.177657    0.202527
     16          6           0        4.984407   -1.215335    0.189659
     17          1           0        3.930675   -3.075045   -0.018830
     18          1           0        5.737817    0.789937    0.348305
     19          1           0       -0.355770   -1.773065   -0.133714
     20          1           0        1.745798   -2.019031   -0.331135
     21          7           0       -4.691663   -0.243028    0.085287
     22          8           0       -5.198632   -0.325671    1.180502
     23          8           0       -5.300207   -0.324408   -0.957011
     24          1           0        5.945668   -1.677703    0.325836
     25          6           0        3.491926    2.314706    0.035375
     26          1           0        2.997321    2.644773   -0.863216
     27          1           0        2.915012    2.625457    0.891102
     28          1           0        4.472602    2.757954    0.086305
 ---------------------------------------------------------------------
 Rotational constants (GHZ):           1.4619697           0.1726088           0.1583983
 Standard basis: 6-31+G(d) (6D, 7F)
 There are   345 symmetry adapted cartesian basis functions of A   symmetry.
 There are   345 symmetry adapted basis functions of A   symmetry.
   345 basis functions,   588 primitive gaussians,   345 cartesian basis functions
    60 alpha electrons       60 beta electrons
       nuclear repulsion energy      1057.1265664698 Hartrees.
 NAtoms=   28 NActive=   28 NUniq=   28 SFac= 1.00D+00 NAtFMM=   60 NAOKFM=F Big=F
 Integral buffers will be    131072 words long.
 Raffenetti 2 integral format.
 Two-electron integral symmetry is turned on.
 Nuclear repulsion after empirical dispersion term =     1057.1045939622 Hartrees.
 One-electron integrals computed using PRISM.
 NBasis=   345 RedAO= T EigKep=  1.11D-06  NBF=   345
 NBsUse=   344 1.00D-06 EigRej=  4.58D-07 NBFU=   344
 Initial guess from the checkpoint file:  "molecule_73.chk"
 B after Tr=     0.000000    0.000000    0.000000
         Rot=    0.999626    0.022088    0.000257   -0.016141 Ang=   3.14 deg.
 ExpMin= 4.38D-02 ExpMax= 5.48D+03 ExpMxC= 8.25D+02 IAcc=3 IRadAn=         5 AccDes= 0.00D+00
 Harris functional with IExCor=  402 and IRadAn=       5 diagonalized for initial guess.
 HarFok:  IExCor=  402 AccDes= 0.00D+00 IRadAn=         5 IDoV= 1 UseB2=F ITyADJ=14
 ICtDFT=  3500011 ScaDFX=  1.000000  1.000000  1.000000  1.000000
 FoFCou: FMM=F IPFlag=           0 FMFlag=      100000 FMFlg1=           0
         NFxFlg=           0 DoJE=T BraDBF=F KetDBF=T FulRan=T
[...]
 0008028,-0.00006289,-0.00002519,0.00005113,0.00005279,0.00156622,0.000
 13391,-0.00007328,0.00005913,-0.00007390,-0.27237933,-0.00274340,0.770
 08831,0.01614809,-0.00717059,0.00829757,0.00289993,0.00199757,0.000609
 56,-0.00014255,-0.00098253,-0.00122404,0.00011261,0.00115877,-0.000510
 55,0.00002010,-0.00175167,-0.00006480,-0.00148832,0.00620318,0.0016958
 4,0.00047026,0.00048034,-0.00058507,-0.00002649,-0.00009621,0.00002241
 ,0.00059147,0.00073511,-0.00181164,0.00021011,-0.00086428,0.00017509,0
 .00015791,0.00016750,-0.00027270,-0.00007212,-0.00001365,0.00003433,-0
 .00002904,-0.00003361,0.00004954,0.00001280,-0.00002557,0.00001520,-0.
 00000213,-0.00000581,-0.00002794,0.00001271,0.00000422,0.00001400,-0.0
 0000300,-0.00000248,0.00001381,-0.00000738,0.00000309,0.00000551,-0.00
 045425,-0.00010295,-0.00023084,-0.00000638,0.00001099,-0.00000600,-0.1
 3456344,-0.02290300,0.13633447,0.12562295,-0.01222793,-0.01428214,0.04
 805553,0.00471269,-0.00382295,-0.00375206,-0.00013117,-0.00312068,0.00
 179739,-0.00150175,0.00340449,0.00062103,-0.00105290,-0.00004341,0.001
 63323,0.00082856,-0.00376319,0.00229721,-0.00011777,0.00021227,0.00032
 715,0.00005399,-0.00008671,-0.00008338,0.00025496,-0.00405953,0.002443
 04,0.00029586,-0.00343234,0.00191743,0.00068568,0.00074777,-0.00166008
 ,-0.00017181,-0.00019115,0.00018172,-0.00005116,-0.00014329,0.00026446
 ,0.00001241,-0.00001051,-0.00001391,-0.00002406,0.00003094,-0.00010422
 ,0.00000196,-0.00002049,0.00010071,0.00000766,-0.00001855,0.00007029,-
 0.00005244,-0.00003330,0.00002734,-0.00001794,-0.00068621,0.00011193,-
 0.00005919,0.00004721,-0.00006793,-0.02516048,-0.15624988,0.11058637,0
 .01606335,0.14882077,0.01203699,0.03788808,-0.03440910,-0.00140382,0.0
 0175755,0.00543520,-0.00184971,0.00339754,0.00003722,0.00146354,-0.004
 62761,0.00084455,-0.00050623,0.00310530,-0.00171700,0.00566113,-0.0084
 0156,-0.00347660,-0.00011457,-0.00085031,0.00128933,-0.00008734,0.0002
 2049,-0.00002868,-0.00148486,0.00148987,0.00176565,-0.00074929,0.00425
 500,-0.00184495,-0.00066836,-0.00081151,0.00190563,0.00020337,0.000204
 05,-0.00021697,0.00002323,0.00008668,-0.00037041,-0.00003292,0.0000221
 9,0.00002132,0.00005205,0.00001465,0.00012273,-0.00000202,0.00002351,-
 0.00008413,0.00000095,0.00000981,-0.00007309,0.00005655,0.00002679,-0.
 00004077,-0.00029134,0.00027311,-0.00022959,0.00006706,-0.00006085,0.0
 0006050,0.13796720,0.10611696,-0.42845831,-0.20755467,-0.12181510,0.53
 157771,0.00132151,0.03127887,0.00915421,-0.00026911,-0.00292702,0.0060
 2108,-0.00096820,0.00187232,-0.00074107,0.00060419,-0.00255682,0.00123
 725,-0.00051854,0.00125339,-0.00184694,0.00435147,0.00036232,-0.001101
 22,0.00066848,0.00008626,-0.00144864,-0.00047536,0.00005444,-0.0003020
 9,0.00064244,-0.00067583,-0.00011473,-0.00009573,0.00242340,-0.0016073
 5,-0.00047457,-0.00051181,0.00126193,0.00011302,0.00008125,-0.00017255
 ,0.00005691,0.00002683,-0.00025179,-0.00001859,-0.00000061,-0.00000622
 ,0.00005406,-0.00000346,0.00006679,0.00001309,0.00000532,-0.00007714,-
 0.00000605,0.00002188,-0.00004081,0.00003341,0.00004279,-0.00002372,-0
 .00003901,0.00008754,-0.00009754,0.00003079,-0.00001130,0.00005552,-0.
 19323446,0.14626112,0.12797226,-0.00948180,0.01755076,0.05729190,0.197
 76416,0.03604257,-0.04933156,-0.02241739,0.00261834,-0.00070642,-0.003
 48823,0.00113098,-0.00248628,-0.00084682,-0.00011606,0.00436334,-0.002
 99619,0.00037671,-0.00410759,0.00133016,-0.00234149,-0.00034931,0.0079
 5686,0.00055282,-0.00393721,0.00178234,-0.00005697,-0.00080146,0.00024
 250,-0.00007187,0.00066793,-0.00006735,0.00031602,-0.00496609,0.003147
 12,0.00100711,0.00110266,-0.00253182,-0.00024751,-0.00021405,0.0003379
 6,-0.00012304,-0.00012487,0.00042971,0.00003290,-0.00000660,0.00000653
 ,-0.00006321,0.00001720,-0.00012855,-0.00001754,-0.00002010,0.00015155
 ,0.00001420,-0.00003995,0.00009667,-0.00006978,-0.00006068,0.00004205,
 -0.00005474,-0.00006718,0.00014791,-0.00006367,0.00003700,-0.00011032,
 0.14864797,-0.29430039,-0.13363908,0.00711151,0.03669672,-0.02230147,-
 0.19476606,0.31865210,0.00558821,-0.01283027,0.01590740,0.00189628,0.0
 0757420,-0.00784285,-0.00017810,-0.00233849,0.00151056,-0.00063192,0.0
 0200111,0.00001170,-0.00130248,-0.00016354,0.00163953,0.00096784,0.002
 42828,0.00022593,-0.00181950,0.00273342,0.00154505,-0.00022760,0.00004
 065,-0.00017575,-0.00054252,0.00112021,0.00061961,-0.00001839,-0.00110
 313,0.00088298,0.00023780,0.00024365,-0.00056927,-0.00006029,-0.000012
 06,0.00008980,-0.00004810,-0.00002683,0.00009214,0.00000904,0.00001462
 ,0.00003398,-0.00004369,0.00002247,-0.00001853,-0.00000475,0.00000224,
 0.00004500,0.00000678,-0.00002583,0.00001844,-0.00000867,-0.00002604,0
 .00000822,0.00002195,-0.00017315,0.00003331,0.00000511,-0.00001531,-0.
 00003106,0.12631032,-0.12900853,-0.23096234,0.06498203,-0.04309808,-0.
 07192990,-0.19516815,0.17268618,0.28885748,0.00000104,-0.00003875,0.00
 001076,0.00000397,0.00002087,-0.00000764,0.00003963,-0.00002697,-0.000
 01813,-0.00003609,0.00021722,-0.00012222,-0.00000149,-0.00002148,0.000
 02921,-0.00000842,0.00001712,0.00000135,0.00000057,0.00000143,-0.00000
 040,-0.00000271,-0.00000157,-0.00000506,0.00000011,-0.00000033,-0.0000
 0041,0.00014620,0.00025983,0.00037187,-0.00118757,-0.00014373,-0.00095
 912,-0.00411180,-0.00393734,-0.00154961,-0.00094865,-0.00209772,-0.003
 55806,-0.00539771,-0.01100442,0.02654084,0.01039164,0.00791355,-0.0167
 0097,-0.09187373,-0.04627639,0.08224155,0.00010293,0.00158874,0.000104
 56,0.00011642,0.00144727,0.00064469,-0.00002299,-0.00000818,-0.0000031
 1,-0.00027559,-0.00059869,0.00131754,-0.00000896,0.00005863,-0.0000276
 2,-0.00000384,-0.00001974,0.00002427,0.00000871,-0.00002332,-0.0000001
 5,0.09269024,0.00000516,-0.00004934,0.00001527,0.00000373,0.00002504,-
 0.00001839,0.00000508,-0.00005442,0.00003092,-0.00007697,0.00005105,0.
 00010353,0.00001066,-0.00007023,0.00002438,-0.00001027,0.00002784,0.00
 001213,-0.00000066,-0.00000631,0.00000674,-0.00000012,0.00000352,-0.00
 000400,0.00000097,-0.00000275,0.00000053,0.00043103,-0.00096946,-0.000
 14147,-0.00012892,-0.00002045,-0.00068551,-0.00418767,0.00492497,0.000
 94012,-0.00191194,0.00581000,0.00088534,-0.00273255,-0.00133406,0.0104
 6836,-0.00017769,0.00290871,-0.00094586,-0.04642218,-0.08273835,0.0981
 2740,0.00138846,-0.00303849,-0.00122320,0.00164856,-0.00297430,-0.0009
 7323,-0.00001901,0.00004495,-0.00000021,-0.00015591,0.00003690,0.00057
 254,-0.00002720,0.00007579,-0.00000286,0.00000433,-0.00001926,0.000006
 28,0.00002169,-0.00003686,-0.00001637,0.05237499,0.07731115,-0.0000169
 6,0.00007461,-0.00003657,0.00000837,-0.00004647,0.00002994,-0.00002899
 ,0.00008141,0.00002230,0.00004449,-0.00031091,0.00012189,0.00000384,0.
 00005031,-0.00004140,0.00001765,-0.00003425,-0.00000200,0.00000084,-0.
 00000055,-0.00000171,-0.00000643,-0.00000294,0.00000436,-0.00000125,0.
 00000017,0.00000046,0.00025697,0.00006613,-0.00021962,-0.00099435,-0.0
 0054049,0.00028460,-0.00070416,0.00112912,0.00195186,-0.00438603,0.000
 70357,-0.00167833,-0.00136013,-0.00064287,0.00324719,0.01135022,0.0103
 9546,-0.01730718,0.08222331,0.09806612,-0.26119950,0.00077597,-0.00096
 109,0.00044233,0.00003566,-0.00122150,0.00035771,-0.00000093,-0.000025
 44,-0.00001959,-0.00016839,-0.00001586,0.00007944,0.00002566,-0.000135
 76,0.00004501,0.00000615,0.00004405,-0.00004203,-0.00002440,0.00005745
 ,0.00000763,-0.08758758,-0.10720902,0.27483736,-0.00013124,0.00006161,
 0.00023375,-0.00009562,0.00033230,-0.00032073,-0.00058372,-0.00023869,
 0.00039617,-0.00019025,-0.00170997,0.00025202,0.00005911,0.00038066,-0
 .00060456,0.00010859,-0.00025521,-0.00003699,0.00004089,0.00001834,0.0
 0002807,-0.00000576,0.00000317,0.00002457,-0.00000262,-0.00000199,-0.0
 0000544,0.00020007,0.00260289,-0.00314985,-0.01995545,-0.00273891,-0.0
 2614992,-0.00285793,-0.00360544,0.00221328,-0.12712016,-0.00442224,-0.
 06193327,-0.00018812,0.00018557,0.00029213,0.00989828,0.00013875,0.004
 44496,0.00040360,-0.00425463,0.00209064,-0.00005420,0.00039182,0.00002
 771,-0.00014199,0.00150423,0.00237644,0.00006686,0.00010670,-0.0000338
 5,-0.00046094,0.00006425,-0.00105779,-0.00003770,0.00011362,-0.0000473
 0,0.00000537,-0.00004189,0.00004517,0.00001093,-0.00003808,0.00000240,
 0.00049692,-0.00001693,0.00080018,0.55761444,0.00002983,-0.00005109,0.
 00008020,0.00004803,-0.00003257,-0.00006726,-0.00013753,-0.00028965,0.
 00007649,-0.00123430,0.00052738,0.00037721,0.00000827,-0.00009133,0.00
 015577,-0.00004542,0.00005203,-0.00003878,-0.00003510,-0.00004323,-0.0
 0003089,0.00008786,0.00001166,-0.00003409,0.00000308,-0.00000495,-0.00
 000002,0.00063138,-0.00425822,-0.00351895,-0.00724230,0.00486105,-0.00
 936645,-0.00455348,0.00310631,0.00183897,-0.00765664,-0.07523933,0.001
 01576,0.00063509,-0.00092049,0.00060556,0.00640601,0.00489764,0.010792
 20,-0.00373060,0.00540297,0.00267755,0.00030812,-0.00068359,-0.0002628
 4,0.00183648,-0.00341715,-0.00028665,-0.00003255,-0.00007537,-0.000121
 30,-0.00046055,0.00024108,-0.00061173,0.00000223,-0.00009440,0.0000928
 4,0.00001365,0.00005966,-0.00007687,0.00002413,0.00002735,-0.00003995,
 0.00027429,0.00009191,0.00043326,0.02014494,0.55131531,-0.00007871,0.0
 0008872,-0.00005180,0.00004383,0.00001878,-0.00006252,-0.00028582,0.00
 008253,0.00022289,0.00085842,-0.00055348,0.00100532,-0.00005683,0.0000
 8649,-0.00010533,-0.00000146,-0.00005149,-0.00000998,0.00005243,0.0000
 4083,0.00002829,0.00006585,0.00003155,-0.00000262,-0.00001742,0.000001
 91,-0.00000858,0.00160465,0.00080555,-0.00208847,-0.00874417,-0.004143
 60,0.00269002,0.00278815,0.00253921,0.00134420,-0.05623861,0.00526164,
 -0.16967490,-0.00081345,-0.00022147,-0.00120957,-0.01706102,0.00256860
 ,-0.02722311,0.00248239,0.00323189,0.00061439,0.00004234,-0.00031304,-
 0.00001682,-0.00071881,-0.00179834,0.00076186,0.00006282,0.00013457,-0
 .00016898,0.00051120,0.00010573,0.00062319,-0.00000227,-0.00006890,-0.
 00000675,0.00001799,0.00001587,-0.00001369,-0.00001123,0.00001642,0.00
 001266,-0.00049396,-0.00004737,-0.00047702,-0.04139732,-0.00494516,0.5
 1059398,-0.00004774,0.00013341,-0.00002529,0.00000282,-0.00003183,0.00
 007062,-0.00005637,0.00014167,-0.00003215,0.00012309,-0.00045868,0.000
 53874,0.00005241,0.00009324,-0.00016324,0.00001967,-0.00008624,0.00000
 887,-0.00000228,-0.00000085,-0.00000464,-0.00000379,-0.00001667,0.0000
 3101,0.00000273,0.00000077,0.00000036,-0.00025518,-0.00010371,-0.00044
 646,-0.00059436,-0.00046711,-0.00104573,0.00019610,0.00089651,0.000276
 02,0.01175964,-0.00914669,-0.01545833,-0.00013182,-0.00003476,-0.00033
 233,-0.00169869,-0.00013837,-0.00131822,0.00001248,0.00080607,-0.00007
 038,0.00003387,-0.00007031,-0.00000518,0.00022710,0.00004133,-0.000222
 49,-0.00003159,0.00004873,-0.00002432,0.00001043,-0.00003068,0.0000545
 5,0.00001399,-0.00016456,0.00009786,0.00001316,0.00004890,-0.00007481,
 -0.00002025,0.00006279,-0.00000157,-0.00008284,0.00001962,-0.00014037,
 -0.11582360,0.05256040,0.10192849,0.12341529,-0.00010548,0.00019538,0.
 00003564,-0.00004209,0.00010238,-0.00003448,-0.00010744,-0.00006806,-0
 .00010182,0.00017552,-0.00096658,0.00004648,0.00013833,0.00020221,-0.0
 0006698,0.00012402,-0.00026268,0.00008644,0.00001328,0.00002747,0.0000
 0183,-0.00012326,-0.00001157,0.00002185,-0.00002012,-0.00001069,-0.000
 00315,0.00014011,0.00052045,0.00072512,-0.00033509,0.00094569,-0.00144
 051,0.00010351,-0.00002134,0.00005008,-0.00108229,0.00035951,0.0030895
 9,-0.00017440,-0.00006771,-0.00009840,0.00013705,-0.00023736,0.0006242
 5,0.00026938,-0.00036386,0.00028233,-0.00000490,0.00004877,0.00002667,
 0.00004053,0.00030805,-0.00000783,0.00005925,0.00009970,0.00009179,-0.
 00001995,0.00000131,-0.00001904,0.00005320,-0.00025219,0.00005272,0.00
 000305,0.00006201,-0.00003299,-0.00006466,0.00011961,0.00004058,0.0000
 1299,0.00001846,0.00005377,0.05166810,-0.08864112,-0.08262955,-0.05921
 799,0.09268839,-0.00000900,0.00004557,-0.00001540,-0.00000604,-0.00001
 984,0.00004897,-0.00004104,0.00012406,-0.00004810,-0.00009530,-0.00067
 731,0.00018112,0.00004136,-0.00002235,-0.00006558,0.00000814,-0.000030
 49,0.00003225,-0.00000475,0.00000024,-0.00000576,-0.00001516,-0.000007
 08,0.00001863,0.00000216,-0.00000423,0.00000079,0.00019948,-0.00021821
 ,0.00178897,0.00170814,0.00183303,-0.00134014,-0.00023135,0.00057744,-
 0.00030717,0.01105598,-0.00922314,-0.02324512,0.00000367,-0.00017451,-
 0.00006449,-0.00291330,-0.00139477,-0.00170123,-0.00025482,0.00136207,
 -0.00036898,-0.00001610,-0.00010876,-0.00002167,0.00015544,-0.00056775
 ,-0.00003231,-0.00001671,0.00006611,-0.00001414,-0.00005466,-0.0000302
 4,0.00000614,0.00001740,-0.00005418,0.00002222,-0.00000135,0.00000925,
 -0.00001223,-0.00001331,0.00002405,0.00000944,-0.00017992,0.00004824,-
 0.00024954,0.10248908,-0.08250667,-0.20077670,-0.10934412,0.08891262,0
 .22149768,0.00001597,0.00017553,-0.00031440,0.00012359,-0.00036728,0.0
 0036194,0.00016347,0.00007623,-0.00011595,-0.00110470,-0.00009306,-0.0
 0026911,0.00002862,-0.00009314,0.00029938,0.00000547,0.00006292,0.0000
 2371,0.00001977,0.00001330,0.00000102,-0.00002994,0.00000784,-0.000042
 62,-0.00000589,-0.00000445,0.00000339,0.00011582,0.00014997,0.00143713
 ,-0.00001257,0.00020502,-0.00253313,0.00064452,-0.00070643,0.00018575,
 -0.00487723,0.01668502,-0.00509269,0.00010379,0.00033615,-0.00048849,-
 0.00122347,-0.00025337,0.00049698,-0.00023470,-0.00046711,-0.00047878,
 -0.00000409,0.00002400,0.00001249,0.00016236,0.00009410,-0.00006062,-0
 .00017940,-0.00003929,-0.00023334,-0.00006498,0.00000898,0.00000466,0.
 00011709,-0.00053133,0.00012755,0.00001124,0.00017193,-0.00013948,-0.0
 0011232,0.00022172,0.00004000,-0.00003378,-0.00005106,-0.00011085,-0.0
 6349974,0.05898699,-0.01669516,-0.00451422,0.01660844,-0.00413984,0.06
 568825,-0.00000810,0.00001238,0.00003772,-0.00005216,-0.00000215,-0.00
 009781,-0.00035728,-0.00023424,0.00021344,-0.00062353,-0.00048157,0.00
 006770,0.00003867,0.00008337,-0.00028070,0.00003411,-0.00001915,-0.000
 03351,0.00005716,0.00002586,0.00003620,0.00003764,0.00000314,0.0000090
 2,0.00000133,-0.00000290,-0.00000515,-0.00001598,0.00009532,-0.0002073
 4,-0.00131358,-0.00038621,0.00034578,0.00034818,0.00003817,0.00032475,
 0.00059116,0.00453164,0.00182594,-0.00002540,-0.00000309,-0.00023573,0
 .00049646,0.00000081,-0.00059805,0.00010215,0.00006247,0.00012886,0.00
 003903,-0.00002809,-0.00000604,0.00019234,-0.00011193,-0.00015477,-0.0
 0002540,0.00011248,-0.00017425,0.00002854,0.00000691,0.00005044,-0.000
 00599,0.00001347,-0.00000455,-0.00000096,0.00000185,-0.00000676,-0.000
 00302,-0.00000241,-0.00000906,0.00000957,0.00001970,0.00002291,0.05812
 108,-0.27524003,0.06048686,0.00268326,-0.01285406,0.00293368,-0.064504
 14,0.29903223,0.00008290,-0.00008206,-0.00019827,0.00010419,-0.0002513
 9,0.00018378,0.00035982,0.00022864,0.00024075,-0.00039800,0.00080989,-
 0.00025899,-0.00003938,-0.00027809,0.00012896,-0.00009335,0.00028348,-
 0.00006238,-0.00000869,-0.00004207,0.00000677,0.00002596,-0.00000681,-
 0.00003281,0.00001528,0.00000122,0.00000310,-0.00066075,-0.00038520,0.
 00149663,0.00177559,0.00043476,-0.00068525,0.00029098,-0.00062267,-0.0
 0081105,-0.00816501,0.02628081,-0.01062101,-0.00019719,0.00005925,-0.0
 0001790,-0.00237576,-0.00068849,-0.00119604,0.00060359,-0.00124303,-0.
 00094898,-0.00009732,0.00014020,0.00004601,-0.00024658,0.00071501,0.00
 017415,-0.00026180,-0.00007586,-0.00035890,-0.00004573,-0.00002019,0.0
 0000073,-0.00001431,-0.00001013,0.00003114,0.00001194,0.00003269,-0.00
 005535,0.00002321,-0.00000954,-0.00002876,-0.00011439,0.00001935,-0.00
 021360,-0.01619718,0.06261266,-0.06097046,0.00591527,-0.02474526,0.007
 16864,0.02077815,-0.06764193,0.06882424,0.00005224,-0.00015989,0.00001
 781,0.00001472,0.00001369,-0.00001135,0.00016972,-0.00008988,-0.000010
 23,-0.00010564,0.00101443,-0.00028446,-0.00001126,-0.00017763,0.000188
 87,-0.00005997,0.00012512,0.00000413,-0.00000634,-0.00000969,-0.000000
 96,0.00001681,0.00000837,-0.00002158,0.00000056,-0.00000534,0.,0.00007
 260,-0.00059977,-0.00029919,-0.00020260,0.00015968,-0.00321134,-0.0007
 7186,-0.00052969,0.00071080,-0.01643850,-0.00884336,0.00263539,0.00034
 199,0.00008553,-0.00000598,0.00074965,-0.00010042,0.00237738,-0.000138
 09,0.00032912,-0.00029075,0.00006174,-0.00001023,-0.00004426,0.0008215
 4,0.00023570,-0.00083181,-0.00002893,0.00002302,-0.00000197,-0.0001722
 6,0.00007693,-0.00024895,-0.00003966,0.00019636,-0.00007698,-0.0000079
 8,-0.00005845,0.00006602,0.00004083,-0.00008228,-0.00001190,-0.0000022
 1,0.00000479,-0.00001847,-0.23775602,-0.11687231,0.03215770,-0.0126200
 5,-0.00824910,0.00165592,0.00869707,0.00415484,-0.00107143,0.25732191,
 -0.00003397,-0.00011019,0.00019056,-0.00006150,0.00026146,-0.00021452,
 -0.00024577,-0.00024859,0.00003700,0.00015950,-0.00018560,0.00004564,0
 .00001541,0.00004293,-0.00019090,0.00003021,-0.00006523,0.00001200,-0.
 00000045,-0.00000086,0.00000627,-0.00000331,0.00000017,0.00001716,-0.0
 0000294,-0.00000339,-0.00000369,0.00035498,0.00014587,0.00015182,0.000
 07414,0.00081018,0.00017952,0.00002276,0.00022614,0.00032118,0.0020207
 7,-0.00003297,0.00018122,0.00013964,0.00014356,-0.00008653,0.00076692,
 0.00000647,0.00069352,0.00000249,-0.00001264,-0.00023651,0.00001512,0.
 00000952,-0.00000660,0.00008809,0.00034345,-0.00018366,0.00004461,0.00
 007743,0.00010231,0.00006287,-0.00010751,-0.00002162,-0.00007532,0.000
 30900,-0.00007722,-0.00000336,-0.00010008,0.00008716,0.00006628,-0.000
 12490,-0.00002099,0.00000213,-0.00003571,-0.00003119,-0.11851405,-0.12
 151185,0.01925525,0.01243175,0.00805785,-0.00089683,-0.02671746,-0.014
 67398,0.00448478,0.12936047,0.12677948,-0.00003932,0.00008371,-0.00002
 022,-0.00000582,-0.00002334,0.00005059,0.00004080,-0.00001107,-0.00008
 751,0.00002589,-0.00033496,0.00010601,0.00004200,0.00000159,0.00001577
 ,0.00003693,-0.00008526,0.00003021,0.00000125,0.00000061,-0.00000176,-
 0.00005036,-0.00001084,0.00001069,-0.00000294,-0.00000496,0.00000104,0
 .00080380,0.00041677,0.00052726,-0.00182479,0.00125933,-0.00581807,-0.
 00119908,-0.00040844,0.00085552,-0.02545486,-0.01582280,0.00329519,0.0
 0015334,0.00002563,-0.00005127,-0.00139733,-0.00089704,0.00114658,-0.0
 0002969,-0.00012016,0.00009869,0.00004556,0.00004026,-0.00000501,0.000
 51182,0.00051205,-0.00085229,-0.00002758,0.00004504,-0.00000171,-0.000
 24830,0.00000833,-0.00035810,0.00003269,-0.00018488,0.00007248,0.00000
 416,0.00005806,-0.00005701,-0.00003524,0.00008134,0.00000759,0.0000417
 0,0.00000640,0.00005600,0.03521763,0.02114914,-0.05502950,0.01978783,0
 .01503829,-0.00250628,0.00694231,0.00297235,-0.00184515,-0.03337241,-0
 .02379512,0.06036025\\-0.00000346,0.00002819,-0.00002025,0.00000717,-0
 .00000942,0.00000060,-0.00000899,0.00000263,0.00000003,-0.00000455,0.0
 0000059,-0.00000004,0.00000528,-0.00001178,0.00000946,-0.00000579,0.00
 001306,0.00001001,-0.00000301,-0.00000142,0.00000287,0.,0.00000190,-0.
 00000301,0.00000270,0.00000200,-0.00000501,0.00000847,0.00001719,-0.00
 002358,-0.00003347,-0.00002587,0.00000724,0.00000202,0.00000178,0.0000
 0771,0.00002683,0.00000848,-0.00000663,0.00000562,0.00000430,0.0000003
 3,-0.00000070,-0.00000236,0.00001466,-0.00001050,-0.00000194,-0.000011
 09,-0.00000121,-0.00000066,0.00000468,0.00000081,0.00000244,-0.0000031
 1,0.00000256,0.00000085,0.00000275,0.00000177,0.00000105,0.00000312,0.
 00000392,-0.00005628,0.00002164,0.00000731,0.00000871,-0.00002149,-0.0
 0000835,0.00001770,0.00000505,0.00000396,-0.00000028,0.00000474,-0.000
 00601,0.00000397,0.00000920,0.00000566,-0.00000301,-0.00000566,0.00000
 046,0.00000002,-0.00000365,0.00000151,-0.00000185,-0.00000058\\\@


 NOTHING PUZZLES ME MORE THAN TIME AND SPACE; AND YET NOTHING TROUBLES ME LESS
                                                          -- CHARLES LAMB (1810)
 Job cpu time:       0 days  2 hours 47 minutes 24.5 seconds.
 Elapsed time:       0 days  0 hours  5 minutes 34.9 seconds.
 File lengths (MBytes):  RWF=    352 Int=      0 D2E=      0 Chk=     13 Scr=      1
 Normal termination of Gaussian 16 at Sat Sep 16 15:18:25 2023.
