 Entering Gaussian System, Link 0=/home/ubuntu/g16/g16
 Input=/home/ubuntu/products/molecule_28.gjf
 Output=/home/ubuntu/products/molecule_28.log
 Initial command:
 /home/ubuntu/g16/l1.exe "/home/ubuntu/Scratch/Gau-15016.inp" -scrdir="/home/ubuntu/Scratch/"
 Entering Link 1 = /home/ubuntu/g16/l1.exe PID=     15018.
  
 Copyright (c) 1988-2017, Gaussian, Inc.  All Rights Reserved.
  
 This is part of the Gaussian(R) 16 program.  It is based on
 the Gaussian(R) 09 system (copyright 2009, Gaussian, Inc.),
 the Gaussian(R) 03 system (copyright 2003, Gaussian, Inc.),
 the Gaussian(R) 98 system (copyright 1998, Gaussian, Inc.),
 the Gaussian(R) 94 system (copyright 1995, Gaussian, Inc.),
 the Gaussian 92(TM) system (copyright 1992, Gaussian, Inc.),
 the Gaussian 90(TM) system (copyright 1990, Gaussian, Inc.),
 the Gaussian 88(TM) system (copyright 1988, Gaussian, Inc.),
 the Gaussian 86(TM) system (copyright 1986, Carnegie Mellon
 University), and the Gaussian 82(TM) system (copyright 1983,
 Carnegie Mellon University). Gaussian is a federally registered
 trademark of Gaussian, Inc.
  
 This software contains proprietary and confidential information,
 including trade secrets, belonging to Gaussian, Inc.
  
 This software is provided under written license and may be
 used, copied, transmitted, or stored only in accord with that
 written license.
  
 The following legend is applicable only to US Government
 contracts under FAR:
  
                    RESTRICTED RIGHTS LEGEND
  
 Use, reproduction and disclosure by the US Government is
 subject to restrictions as set forth in subparagraphs (a)
 and (c) of the Commercial Computer Software - Restricted
 Rights clause in FAR 52.227-19.
  
 Gaussian, Inc.
 340 Quinnipiac St., Bldg. 40, Wallingford CT 06492
  
  
 ---------------------------------------------------------------
 Warning -- This program may not be used in any manner that
 competes with the business of Gaussian, Inc. or will provide
 assistance to any competitor of Gaussian, Inc.  The licensee
 of this program is prohibited from giving any competitor of
 Gaussian, Inc. access to this program.  By using this program,
 the user acknowledges that Gaussian, Inc. is engaged in the
 business of creating and licensing software in the field of
 computational chemistry and represents and warrants to the
 licensee that it is not a competitor of Gaussian, Inc. and that
 it will not use this program in any manner prohibited above.
 ---------------------------------------------------------------
  

 Cite this work as:
 Gaussian 16, Revision B.01,
 M. J. Frisch, G. W. Trucks, H. B. Schlegel, G. E. Scuseria, 
 M. A. Robb, J. R. Cheeseman, G. Scalmani, V. Barone, 
 G. A. Petersson, H. Nakatsuji, X. Li, M. Caricato, A. V. Marenich, 
 J. Bloino, B. G. Janesko, R. Gomperts, B. Mennucci, H. P. Hratchian, 
 J. V. Ortiz, A. F. Izmaylov, J. L. Sonnenberg, D. Williams-Young, 
 F. Ding, F. Lipparini, F. Egidi, J. Goings, B. Peng, A. Petrone, 
 T. Henderson, D. Ranasinghe, V. G. Zakrzewski, J. Gao, N. Rega, 
 G. Zheng, W. Liang, M. Hada, M. Ehara, K. Toyota, R. Fukuda, 
 J. Hasegawa, M. Ishida, T. Nakajima, Y. Honda, O. Kitao, H. Nakai, 
 T. Vreven, K. Throssell, J. A. Montgomery, Jr., J. E. Peralta, 
 F. Ogliaro, M. J. Bearpark, J. J. Heyd, E. N. Brothers, K. N. Kudin, 
 V. N. Staroverov, T. A. Keith, R. Kobayashi, J. Normand, 
 K. Raghavachari, A. P. Rendell, J. C. Burant, S. S. Iyengar, 
 J. Tomasi, M. Cossi, J. M. Millam, M. Klene, C. Adamo, R. Cammi, 
 J. W. Ochterski, R. L. Martin, K. Morokuma, O. Farkas, 
 J. B. Foresman, and D. J. Fox, Gaussian, Inc., Wallingford CT, 2016.
 
 ******************************************
 Gaussian 16:  EM64L-G16RevB.01 20-Dec-2017
                18-Sep-2023 
 ******************************************
 %nprocshared=30
 Will use up to   30 processors via shared memory.
 %mem=30GB
 %chk=molecule_28.chk
 ---------------------------------------------------------
 # opt freq b3lyp/6-31+g(d) empiricaldispersion=gd3 volume
 ---------------------------------------------------------
 1/18=20,19=15,26=3,38=1/1,3;
 2/9=110,12=2,17=6,18=5,40=1/2;
 3/5=1,6=6,7=11,11=2,25=1,30=1,71=1,74=-5,124=31/1,2,3;
 4//1;
 5/5=2,38=5/2;
 6/7=2,8=2,9=2,10=2,28=1,44=1/1,4;
 7//1,2,3,16;
 1/18=20,19=15,26=3/3(2);
 2/9=110/2;
 99//99;
 2/9=110/2;
 3/5=1,6=6,7=11,11=2,25=1,30=1,71=1,74=-5,124=31/1,2,3;
 4/5=5,16=3,69=1/1;
 5/5=2,38=5/2;
 7//1,2,3,16;
 1/18=20,19=15,26=3/3(-5);
 2/9=110/2;
 6/7=2,8=2,9=2,10=2,19=2,28=1,44=1/1,4;
 99/9=1/99;
 -------------------
 Title Card Required
 -------------------
 Symbolic Z-matrix:
 Charge =  0 Multiplicity = 1
 C                     4.10068   1.41287   0.00013 
 C                     2.71301   1.37222   0.00014 
 C                     2.02361   0.13444  -0.00002 
 C                     2.7833   -1.05349  -0.0002 
 C                     4.17925  -1.01864  -0.00022 
 C                     4.83993   0.21837  -0.00005 
 H                     4.64028   2.35235   0.00026 
 H                     2.14331   2.29493   0.00027 
 H                     2.27029  -2.00914  -0.00034 
 H                     4.73315  -1.94898  -0.00038 
 C                     0.60076   0.09211  -0.00002 
 C                    -0.61908   0.05717  -0.00003 
 C                    -2.04209   0.01736  -0.00002 
 C                    -2.79721   1.21233  -0.00013 
 C                    -2.72978  -1.21764   0.00012 
 C                    -4.19239   1.1768   -0.00012 
 H                    -2.28161   2.16604  -0.00024 
 C                    -4.12482  -1.2594    0.00013 
 H                    -2.16217  -2.14138   0.00022 
 C                    -4.83516  -0.06007   0.00001 
 H                    -4.77015   2.09288  -0.00021 
 H                    -4.65104  -2.20605   0.00024 
 O                     6.21906   0.37127  -0.00006 
 C                     7.0564   -0.8168    0.00018 
 H                     6.88225  -1.42458   0.8963 
 H                     6.88275  -1.42457  -0.89605 
 H                     8.07995  -0.44427   0.00047 
 Cl                   -6.66223  -0.11077   0.00004 
 

 GradGradGradGradGradGradGradGradGradGradGradGradGradGradGradGradGradGrad
 Berny optimization.
 Initialization pass.
                           ----------------------------
                           !    Initial Parameters    !
                           ! (Angstroms and Degrees)  !
 --------------------------                            --------------------------
 ! Name  Definition              Value          Derivative Info.                !
 --------------------------------------------------------------------------------
 ! R1    R(1,2)                  1.3883         estimate D2E/DX2                !
 ! R2    R(1,6)                  1.4047         estimate D2E/DX2                !
 ! R3    R(1,7)                  1.0834         estimate D2E/DX2                !
 ! R4    R(2,3)                  1.4168         estimate D2E/DX2                !
 ! R5    R(2,8)                  1.0844         estimate D2E/DX2                !
 ! R6    R(3,4)                  1.4101         estimate D2E/DX2                !
 ! R7    R(3,11)                 1.4235         estimate D2E/DX2                !
 ! R8    R(4,5)                  1.3964         estimate D2E/DX2                !
 ! R9    R(4,9)                  1.0846         estimate D2E/DX2                !
 ! R10   R(5,6)                  1.4024         estimate D2E/DX2                !
 ! R11   R(5,10)                 1.0827         estimate D2E/DX2                !
 ! R12   R(6,23)                 1.3876         estimate D2E/DX2                !
 ! R13   R(11,12)                1.2203         estimate D2E/DX2                !
 ! R14   R(12,13)                1.4236         estimate D2E/DX2                !
 ! R15   R(13,14)                1.4136         estimate D2E/DX2                !
 ! R16   R(13,15)                1.4136         estimate D2E/DX2                !
 ! R17   R(14,16)                1.3956         estimate D2E/DX2                !
 ! R18   R(14,17)                1.0842         estimate D2E/DX2                !
 ! R19   R(15,18)                1.3957         estimate D2E/DX2                !
 ! R20   R(15,19)                1.0842         estimate D2E/DX2                !
 ! R21   R(16,20)                1.3939         estimate D2E/DX2                !
 ! R22   R(16,21)                1.0831         estimate D2E/DX2                !
 ! R23   R(18,20)                1.3939         estimate D2E/DX2                !
 ! R24   R(18,22)                1.0831         estimate D2E/DX2                !
 ! R25   R(20,28)                1.8278         estimate D2E/DX2                !
 ! R26   R(23,24)                1.4535         estimate D2E/DX2                !
 ! R27   R(24,25)                1.0967         estimate D2E/DX2                !
 ! R28   R(24,26)                1.0967         estimate D2E/DX2                !
 ! R29   R(24,27)                1.0892         estimate D2E/DX2                !
 ! A1    A(2,1,6)              120.0746         estimate D2E/DX2                !
 ! A2    A(2,1,7)              121.5491         estimate D2E/DX2                !
 ! A3    A(6,1,7)              118.3762         estimate D2E/DX2                !
 ! A4    A(1,2,3)              120.7941         estimate D2E/DX2                !
 ! A5    A(1,2,8)              120.0139         estimate D2E/DX2                !
 ! A6    A(3,2,8)              119.1919         estimate D2E/DX2                !
 ! A7    A(2,3,4)              118.2842         estimate D2E/DX2                !
 ! A8    A(2,3,11)             120.8201         estimate D2E/DX2                !
 ! A9    A(4,3,11)             120.8958         estimate D2E/DX2                !
 ! A10   A(3,4,5)              121.1694         estimate D2E/DX2                !
 ! A11   A(3,4,9)              119.1726         estimate D2E/DX2                !
 ! A12   A(5,4,9)              119.658          estimate D2E/DX2                !
 ! A13   A(4,5,6)              119.5363         estimate D2E/DX2                !
 ! A14   A(4,5,10)             119.3382         estimate D2E/DX2                !
 ! A15   A(6,5,10)             121.1255         estimate D2E/DX2                !
 ! A16   A(1,6,5)              120.1413         estimate D2E/DX2                !
 ! A17   A(1,6,23)             115.4265         estimate D2E/DX2                !
 ! A18   A(5,6,23)             124.4322         estimate D2E/DX2                !
 ! A19   A(12,13,14)           120.687          estimate D2E/DX2                !
 ! A20   A(12,13,15)           120.7133         estimate D2E/DX2                !
 ! A21   A(14,13,15)           118.5997         estimate D2E/DX2                !
 ! A22   A(13,14,16)           120.8309         estimate D2E/DX2                !
 ! A23   A(13,14,17)           119.3138         estimate D2E/DX2                !
 ! A24   A(16,14,17)           119.8553         estimate D2E/DX2                !
 ! A25   A(13,15,18)           120.8251         estimate D2E/DX2                !
 ! A26   A(13,15,19)           119.3195         estimate D2E/DX2                !
 ! A27   A(18,15,19)           119.8554         estimate D2E/DX2                !
 ! A28   A(14,16,20)           118.9184         estimate D2E/DX2                !
 ! A29   A(14,16,21)           120.7809         estimate D2E/DX2                !
 ! A30   A(20,16,21)           120.3007         estimate D2E/DX2                !
 ! A31   A(15,18,20)           118.9233         estimate D2E/DX2                !
 ! A32   A(15,18,22)           120.7829         estimate D2E/DX2                !
 ! A33   A(20,18,22)           120.2939         estimate D2E/DX2                !
 ! A34   A(16,20,18)           121.9025         estimate D2E/DX2                !
 ! A35   A(16,20,28)           119.0493         estimate D2E/DX2                !
 ! A36   A(18,20,28)           119.0482         estimate D2E/DX2                !
 ! A37   A(6,23,24)            118.8496         estimate D2E/DX2                !
 ! A38   A(23,24,25)           111.2013         estimate D2E/DX2                !
 ! A39   A(23,24,26)           111.2002         estimate D2E/DX2                !
 ! A40   A(23,24,27)           105.1763         estimate D2E/DX2                !
 ! A41   A(25,24,26)           109.6018         estimate D2E/DX2                !
 ! A42   A(25,24,27)           109.7879         estimate D2E/DX2                !
 ! A43   A(26,24,27)           109.7876         estimate D2E/DX2                !
 ! A44   L(3,11,12,8,-1)       179.937          estimate D2E/DX2                !
 ! A45   L(11,12,13,17,-1)     179.9618         estimate D2E/DX2                !
 ! A46   L(3,11,12,8,-2)       179.9992         estimate D2E/DX2                !
 ! A47   L(11,12,13,17,-2)     180.0008         estimate D2E/DX2                !
 ! D1    D(6,1,2,3)              0.001          estimate D2E/DX2                !
 ! D2    D(6,1,2,8)           -179.9994         estimate D2E/DX2                !
 ! D3    D(7,1,2,3)           -179.9994         estimate D2E/DX2                !
 ! D4    D(7,1,2,8)              0.0002         estimate D2E/DX2                !
 ! D5    D(2,1,6,5)             -0.0007         estimate D2E/DX2                !
 ! D6    D(2,1,6,23)           179.9992         estimate D2E/DX2                !
 ! D7    D(7,1,6,5)            179.9997         estimate D2E/DX2                !
 ! D8    D(7,1,6,23)            -0.0004         estimate D2E/DX2                !
 ! D9    D(1,2,3,4)             -0.0007         estimate D2E/DX2                !
 ! D10   D(1,2,3,11)           180.0            estimate D2E/DX2                !
 ! D11   D(8,2,3,4)            179.9997         estimate D2E/DX2                !
 ! D12   D(8,2,3,11)             0.0004         estimate D2E/DX2                !
 ! D13   D(2,3,4,5)              0.0001         estimate D2E/DX2                !
 ! D14   D(2,3,4,9)           -179.9991         estimate D2E/DX2                !
 ! D15   D(11,3,4,5)           179.9994         estimate D2E/DX2                !
 ! D16   D(11,3,4,9)             0.0003         estimate D2E/DX2                !
 ! D17   D(2,3,13,14)            0.0125         estimate D2E/DX2                !
 ! D18   D(2,3,13,15)         -179.9857         estimate D2E/DX2                !
 ! D19   D(4,3,13,14)         -179.9865         estimate D2E/DX2                !
 ! D20   D(4,3,13,15)            0.0152         estimate D2E/DX2                !
 ! D21   D(3,4,5,6)              0.0003         estimate D2E/DX2                !
 ! D22   D(3,4,5,10)          -179.9986         estimate D2E/DX2                !
 ! D23   D(9,4,5,6)            179.9994         estimate D2E/DX2                !
 ! D24   D(9,4,5,10)             0.0005         estimate D2E/DX2                !
 ! D25   D(4,5,6,1)              0.0            estimate D2E/DX2                !
 ! D26   D(4,5,6,23)          -179.9998         estimate D2E/DX2                !
 ! D27   D(10,5,6,1)           179.9989         estimate D2E/DX2                !
 ! D28   D(10,5,6,23)           -0.001          estimate D2E/DX2                !
 ! D29   D(1,6,23,24)          179.9809         estimate D2E/DX2                !
 ! D30   D(5,6,23,24)           -0.0192         estimate D2E/DX2                !
 ! D31   D(12,13,14,16)       -179.9997         estimate D2E/DX2                !
 ! D32   D(12,13,14,17)          0.001          estimate D2E/DX2                !
 ! D33   D(15,13,14,16)         -0.0012         estimate D2E/DX2                !
 ! D34   D(15,13,14,17)        179.9995         estimate D2E/DX2                !
 ! D35   D(12,13,15,18)        179.9996         estimate D2E/DX2                !
 ! D36   D(12,13,15,19)         -0.0008         estimate D2E/DX2                !
 ! D37   D(14,13,15,18)          0.0011         estimate D2E/DX2                !
 ! D38   D(14,13,15,19)       -179.9993         estimate D2E/DX2                !
 ! D39   D(13,14,16,20)          0.0005         estimate D2E/DX2                !
 ! D40   D(13,14,16,21)       -179.9997         estimate D2E/DX2                !
 ! D41   D(17,14,16,20)        179.9998         estimate D2E/DX2                !
 ! D42   D(17,14,16,21)         -0.0004         estimate D2E/DX2                !
 ! D43   D(13,15,18,20)         -0.0003         estimate D2E/DX2                !
 ! D44   D(13,15,18,22)        179.9994         estimate D2E/DX2                !
 ! D45   D(19,15,18,20)       -179.9999         estimate D2E/DX2                !
 ! D46   D(19,15,18,22)         -0.0002         estimate D2E/DX2                !
 ! D47   D(14,16,20,18)          0.0004         estimate D2E/DX2                !
 ! D48   D(14,16,20,28)        179.9995         estimate D2E/DX2                !
 ! D49   D(21,16,20,18)       -179.9994         estimate D2E/DX2                !
 ! D50   D(21,16,20,28)         -0.0003         estimate D2E/DX2                !
 ! D51   D(15,18,20,16)         -0.0005         estimate D2E/DX2                !
 ! D52   D(15,18,20,28)       -179.9996         estimate D2E/DX2                !
 ! D53   D(22,18,20,16)        179.9998         estimate D2E/DX2                !
 ! D54   D(22,18,20,28)          0.0007         estimate D2E/DX2                !
 ! D55   D(6,23,24,25)         -61.2009         estimate D2E/DX2                !
 ! D56   D(6,23,24,26)          61.239          estimate D2E/DX2                !
 ! D57   D(6,23,24,27)        -179.9814         estimate D2E/DX2                !
 --------------------------------------------------------------------------------
 Trust Radius=3.00D-01 FncErr=1.00D-07 GrdErr=1.00D-06 EigMax=2.50D+02 EigMin=1.00D-04
 Number of steps in this run=    143 maximum allowed number of steps=    168.
 GradGradGradGradGradGradGradGradGradGradGradGradGradGradGradGradGradGrad

                          Input orientation:                          
 ---------------------------------------------------------------------
 Center     Atomic      Atomic             Coordinates (Angstroms)
 Number     Number       Type             X           Y           Z
 ---------------------------------------------------------------------
      1          6           0        4.100679    1.412866    0.000131
      2          6           0        2.713007    1.372217    0.000135
      3          6           0        2.023607    0.134436   -0.000023
      4          6           0        2.783303   -1.053487   -0.000200
      5          6           0        4.179254   -1.018636   -0.000219
      6          6           0        4.839926    0.218374   -0.000053
      7          1           0        4.640278    2.352348    0.000261
      8          1           0        2.143312    2.294927    0.000267
      9          1           0        2.270288   -2.009141   -0.000338
     10          1           0        4.733153   -1.948977   -0.000380
     11          6           0        0.600759    0.092112   -0.000018
     12          6           0       -0.619081    0.057170   -0.000028
     13          6           0       -2.042087    0.017358   -0.000024
     14          6           0       -2.797209    1.212326   -0.000132
     15          6           0       -2.729783   -1.217643    0.000121
     16          6           0       -4.192386    1.176801   -0.000122
     17          1           0       -2.281608    2.166042   -0.000235
     18          6           0       -4.124817   -1.259397    0.000134
     19          1           0       -2.162171   -2.141376    0.000217
     20          6           0       -4.835160   -0.060072    0.000007
     21          1           0       -4.770154    2.092880   -0.000209
     22          1           0       -4.651036   -2.206051    0.000236
     23          8           0        6.219064    0.371267   -0.000058
     24          6           0        7.056397   -0.816801    0.000181
     25          1           0        6.882248   -1.424582    0.896301
     26          1           0        6.882752   -1.424565   -0.896050
     27          1           0        8.079947   -0.444273    0.000469
     28         17           0       -6.662233   -0.110771    0.000035
 ---------------------------------------------------------------------
                    Distance matrix (angstroms):
                    1          2          3          4          5
     1  C    0.000000
     2  C    1.388267   0.000000
     3  C    2.438978   1.416818   0.000000
     4  C    2.796136   2.426722   1.410071   0.000000
     5  C    2.432771   2.804649   2.444665   1.396386   0.000000
     6  C    1.404741   2.419739   2.817570   2.418125   1.402384
     7  H    1.083418   2.162182   3.430175   3.879184   3.402363
     8  H    2.146932   1.084411   2.163805   3.409027   3.889056
     9  H    3.880781   3.410217   2.157724   1.084647   2.150640
    10  H    3.420820   3.887328   3.417931   2.145651   1.082746
    11  C    3.740833   2.469871   1.423477   2.464933   3.746917
    12  C    4.910605   3.582200   2.643817   3.579075   4.917456
    13  C    6.299287   4.944346   4.067379   4.942782   6.307009
    14  C    6.900803   5.512535   4.939850   6.022958   7.324495
    15  C    7.319480   6.027548   4.941946   5.515529   6.911902
    16  C    8.296424   6.908157   6.302785   7.323553   8.654727
    17  H    6.426575   5.057305   4.760494   6.001557   7.203118
    18  C    8.648686   7.326748   6.304434   6.911188   8.307560
    19  H    7.201106   6.009384   4.764458   5.063716   6.440048
    20  C    9.056421   7.682856   6.861524   7.682959   9.065236
    21  H    8.896859   7.517783   7.070410   8.182563   9.474884
    22  H    9.470432   8.187376   7.073100   7.523151   8.909769
    23  O    2.360611   3.646140   4.202136   3.719459   2.468330
    24  C    3.702389   4.863829   5.121897   4.279644   2.884214
    25  H    4.073249   5.099781   5.180765   4.212217   2.876581
    26  H    4.073584   5.100187   5.181181   4.212568   2.876837
    27  H    4.391303   5.666011   6.083926   5.331564   3.942753
    28  Cl  10.870223   9.491806   8.689300   9.492464  10.879433
                    6          7          8          9         10
     6  C    0.000000
     7  H    2.143293   0.000000
     8  H    3.403498   2.497626   0.000000
     9  H    3.400715   4.963813   4.305941   0.000000
    10  H    2.169979   4.302328   4.971720   2.463600   0.000000
    11  C    4.241047   4.628864   2.689212   2.683764   4.608983
    12  C    5.461387   5.738353   3.555049   3.552196   5.715858
    13  C    6.884948   7.078572   4.764964   4.764796   7.054810
    14  C    7.701543   7.524351   5.057744   6.004779   8.167018
    15  C    7.704715   8.189178   6.007096   5.062329   7.498684
    16  C    9.083019   8.910548   6.433605   7.205302   9.457047
    17  H    7.383066   6.924393   4.426797   6.176723   8.132666
    18  C    9.085726   9.480063   7.205738   6.438904   8.884771
    19  H    7.389031   8.152721   6.182068   4.434431   6.898008
    20  C    9.679092   9.777714   7.365127   7.367921   9.752978
    21  H    9.791190   9.414008   6.916418   8.148276  10.327122
    22  H    9.795723  10.349276   8.149967   6.924124   9.387710
    23  O    1.387587   2.533229   4.506908   4.610767   2.755261
    24  C    2.446289   3.985114   5.815604   4.932394   2.584431
    25  H    2.770169   4.482691   6.090578   4.734538   2.386972
    26  H    2.770415   4.482983   6.091001   4.734855   2.387050
    27  H    3.307089   4.433104   6.538108   6.016723   3.669491
    28  Cl  11.506867  11.567788   9.128253   9.132017  11.542696
                   11         12         13         14         15
    11  C    0.000000
    12  C    1.220340   0.000000
    13  C    2.643903   1.423563   0.000000
    14  C    3.577858   2.465487   1.413562   0.000000
    15  C    3.578822   2.465808   1.413560   2.430904   0.000000
    16  C    4.914345   3.744607   2.442968   1.395629   2.805810
    17  H    3.550947   2.685393   2.161993   1.084167   3.413237
    18  C    4.915043   3.744801   2.442922   2.805701   1.395659
    19  H    3.552781   2.686025   2.162071   3.413296   1.084189
    20  C    5.438049   4.217709   2.794146   2.402549   2.402620
    21  H    5.731473   4.623367   3.427848   2.160529   3.888789
    22  H    5.732618   4.623725   3.427851   3.888698   2.160593
    23  O    5.625236   6.845355   8.268728   9.055416   9.088812
    24  C    6.519309   7.725075   9.136642  10.060363   9.794386
    25  H    6.523868   7.698632   9.084401  10.072178   9.655936
    26  H    6.524310   7.699084   9.084864  10.072612   9.656437
    27  H    7.498397   8.713469  10.132555  11.002583  10.837360
    28  Cl   7.265825   6.045485   4.621922   4.085217   4.085257
                   16         17         18         19         20
    16  C    0.000000
    17  H    2.151667   0.000000
    18  C    2.437135   3.889865   0.000000
    19  H    3.889996   4.309074   2.151712   0.000000
    20  C    1.393920   3.387656   1.393904   3.387727   0.000000
    21  H    1.083059   2.489621   3.413828   4.972977   2.153933
    22  H    3.413803   4.972865   1.083079   2.489705   2.153863
    23  O   10.442566   8.688075  10.471625   8.749770  11.062636
    24  C   11.424078   9.802841  11.189970   9.313243  11.915610
    25  H   11.411323   9.882946  11.044722   9.116922  11.830591
    26  H   11.411769   9.883341  11.045225   9.117442  11.831070
    27  H   12.378935  10.685297  12.231954  10.381770  12.920820
    28  Cl   2.785316   4.936978   2.785287   4.936995   1.827776
                   21         22         23         24         25
    21  H    0.000000
    22  H    4.300581   0.000000
    23  O   11.123258  11.171466   0.000000
    24  C   12.179226  11.789572   1.453490   0.000000
    25  H   12.204702  11.594407   2.113846   1.096703   0.000000
    26  H   12.205129  11.594926   2.113834   1.096704   1.792351
    27  H   13.098177  12.852307   2.031746   1.089235   1.788296
    28  Cl   2.904486   2.904326  12.890313  13.736786  13.637535
                   26         27         28
    26  H    0.000000
    27  H    1.788294   0.000000
    28  Cl  13.638022  14.745952   0.000000
 Stoichiometry    C15H11ClO
 Framework group  C1[X(C15H11ClO)]
 Deg. of freedom    78
 Full point group                 C1      NOp   1
 Largest Abelian subgroup         C1      NOp   1
 Largest concise Abelian subgroup C1      NOp   1
                         Standard orientation:                         
 ---------------------------------------------------------------------
 Center     Atomic      Atomic             Coordinates (Angstroms)
 Number     Number       Type             X           Y           Z
 ---------------------------------------------------------------------
      1          6           0        4.100679    1.412866    0.000131
      2          6           0        2.713007    1.372217    0.000135
      3          6           0        2.023607    0.134436   -0.000023
      4          6           0        2.783303   -1.053487   -0.000200
      5          6           0        4.179254   -1.018636   -0.000219
      6          6           0        4.839926    0.218374   -0.000053
      7          1           0        4.640278    2.352348    0.000261
      8          1           0        2.143312    2.294927    0.000267
      9          1           0        2.270288   -2.009141   -0.000338
     10          1           0        4.733153   -1.948977   -0.000380
     11          6           0        0.600759    0.092112   -0.000018
     12          6           0       -0.619081    0.057170   -0.000028
     13          6           0       -2.042087    0.017358   -0.000024
     14          6           0       -2.797209    1.212326   -0.000132
     15          6           0       -2.729783   -1.217643    0.000121
     16          6           0       -4.192386    1.176801   -0.000122
     17          1           0       -2.281608    2.166042   -0.000235
     18          6           0       -4.124817   -1.259397    0.000134
     19          1           0       -2.162171   -2.141376    0.000217
     20          6           0       -4.835160   -0.060072    0.000007
     21          1           0       -4.770154    2.092880   -0.000209
     22          1           0       -4.651036   -2.206051    0.000236
     23          8           0        6.219064    0.371267   -0.000058
     24          6           0        7.056397   -0.816801    0.000181
     25          1           0        6.882248   -1.424582    0.896301
     26          1           0        6.882752   -1.424565   -0.896050
     27          1           0        8.079947   -0.444273    0.000469
     28         17           0       -6.662233   -0.110771    0.000035
 ---------------------------------------------------------------------
 Rotational constants (GHZ):           2.5492710           0.1031891           0.0992378
 Standard basis: 6-31+G(d) (6D, 7F)
 There are   349 symmetry adapted cartesian basis functions of A   symmetry.
 There are   349 symmetry adapted basis functions of A   symmetry.
   349 basis functions,   612 primitive gaussians,   349 cartesian basis functions
    63 alpha electrons       63 beta electrons
       nuclear repulsion energy      1046.4389145347 Hartrees.
 NAtoms=   28 NActive=   28 NUniq=   28 SFac= 1.00D+00 NAtFMM=   60 NAOKFM=F Big=F
 Integral buffers will be    131072 words long.
 Raffenetti 2 integral format.
 Two-electron integral symmetry is turned on.
 Nuclear repulsion after empirical dispersion term =     1046.4181439564 Hartrees.
 One-electron integrals computed using PRISM.
 NBasis=   349 RedAO= T EigKep=  1.31D-06  NBF=   349
 NBsUse=   345 1.00D-06 EigRej=  5.44D-07 NBFU=   345
 ExpMin= 4.38D-02 ExpMax= 2.52D+04 ExpMxC= 3.78D+03 IAcc=3 IRadAn=         5 AccDes= 0.00D+00
 Harris functional with IExCor=  402 and IRadAn=       5 diagonalized for initial guess.
 HarFok:  IExCor=  402 AccDes= 0.00D+00 IRadAn=         5 IDoV= 1 UseB2=F ITyADJ=14
 ICtDFT=  3500011 ScaDFX=  1.000000  1.000000  1.000000  1.000000
 FoFCou: FMM=F IPFlag=           0 FMFlag=      100000 FMFlg1=           0
         NFxFlg=           0 DoJE=T BraDBF=F KetDBF=T FulRan=T
         wScrn=  0.000000 ICntrl=       500 IOpCl=  0 I1Cent=   200000004 NGrid=           0
         NMat0=    1 NMatS0=      1 NMatT0=    0 NMatD0=    1 NMtDS0=    0 NMtDT0=    0
 Petite list used in FoFCou.
 Requested convergence on RMS density matrix=1.00D-08 within 128 cycles.
 Requested convergence on MAX density matrix=1.00D-06.
 Requested convergence on             energy=1.00D-06.
 No special actions if energy rises.
 SCF Done:  E(RB3LYP) =  -1113.62394039     A.U. after   15 cycles
            NFock= 15  Conv=0.53D-08     -V/T= 2.0072

 **********************************************************************

            Population analysis using the SCF Density.

 **********************************************************************

 Orbital symmetries:
       Occupied  (A) (A) (A) (A) (A) (A) (A) (A) (A) (A) (A) (A)
                 (A) (A) (A) (A) (A) (A) (A) (A) (A) (A) (A) (A)
                 (A) (A) (A) (A) (A) (A) (A) (A) (A) (A) (A) (A)
                 (A) (A) (A) (A) (A) (A) (A) (A) (A) (A) (A) (A)
                 (A) (A) (A) (A) (A) (A) (A) (A) (A) (A) (A) (A)
                 (A) (A) (A)
       Virtual   (A) (A) (A) (A) (A) (A) (A) (A) (A) (A) (A) (A)
                 (A) (A) (A) (A) (A) (A) (A) (A) (A) (A) (A) (A)
                 (A) (A) (A) (A) (A) (A) (A) (A) (A) (A) (A) (A)
                 (A) (A) (A) (A) (A) (A) (A) (A) (A) (A) (A) (A)
                 (A) (A) (A) (A) (A) (A) (A) (A) (A) (A) (A) (A)
                 (A) (A) (A) (A) (A) (A) (A) (A) (A) (A) (A) (A)
                 (A) (A) (A) (A) (A) (A) (A) (A) (A) (A) (A) (A)
                 (A) (A) (A) (A) (A) (A) (A) (A) (A) (A) (A) (A)
                 (A) (A) (A) (A) (A) (A) (A) (A) (A) (A) (A) (A)
                 (A) (A) (A) (A) (A) (A) (A) (A) (A) (A) (A) (A)
                 (A) (A) (A) (A) (A) (A) (A) (A) (A) (A) (A) (A)
                 (A) (A) (A) (A) (A) (A) (A) (A) (A) (A) (A) (A)
                 (A) (A) (A) (A) (A) (A) (A) (A) (A) (A) (A) (A)
                 (A) (A) (A) (A) (A) (A) (A) (A) (A) (A) (A) (A)
                 (A) (A) (A) (A) (A) (A) (A) (A) (A) (A) (A) (A)
                 (A) (A) (A) (A) (A) (A) (A) (A) (A) (A) (A) (A)
                 (A) (A) (A) (A) (A) (A) (A) (A) (A) (A) (A) (A)
                 (A) (A) (A) (A) (A) (A) (A) (A) (A) (A) (A) (A)
                 (A) (A) (A) (A) (A) (A) (A) (A) (A) (A) (A) (A)
                 (A) (A) (A) (A) (A) (A) (A) (A) (A) (A) (A) (A)
                 (A) (A) (A) (A) (A) (A) (A) (A) (A) (A) (A) (A)
                 (A) (A) (A) (A) (A) (A) (A) (A) (A) (A) (A) (A)
                 (A) (A) (A) (A) (A) (A) (A) (A) (A) (A) (A) (A)
                 (A) (A) (A) (A) (A) (A)
 The electronic state is 1-A.
 Alpha  occ. eigenvalues -- -101.55487 -19.19817 -10.26855 -10.26792 -10.25641
 Alpha  occ. eigenvalues --  -10.23425 -10.22424 -10.21806 -10.21800 -10.21731
 Alpha  occ. eigenvalues --  -10.21722 -10.21361 -10.21191 -10.20867 -10.20394
 Alpha  occ. eigenvalues --  -10.20304 -10.19966  -9.46906  -7.23323  -7.22343
 Alpha  occ. eigenvalues --   -7.22322  -1.06675  -0.89437  -0.87281  -0.84490
 Alpha  occ. eigenvalues --   -0.79669  -0.77272  -0.77191  -0.76636  -0.73251
 Alpha  occ. eigenvalues --   -0.70508  -0.63512  -0.63375  -0.62748  -0.61063
 Alpha  occ. eigenvalues --   -0.56152  -0.54704  -0.52109  -0.49626  -0.48409
 Alpha  occ. eigenvalues --   -0.48390  -0.47752  -0.46383  -0.45282  -0.44692
 Alpha  occ. eigenvalues --   -0.44129  -0.43243  -0.40670  -0.40517  -0.39786
 Alpha  occ. eigenvalues --   -0.38372  -0.37936  -0.37622  -0.36017  -0.34472
 Alpha  occ. eigenvalues --   -0.34213  -0.31800  -0.30302  -0.27970  -0.27603
 Alpha  occ. eigenvalues --   -0.27102  -0.26168  -0.21312
 Alpha virt. eigenvalues --   -0.06093  -0.03103  -0.02486  -0.01086  -0.00837
 Alpha virt. eigenvalues --   -0.00286   0.00777   0.01574   0.01679   0.02277
 Alpha virt. eigenvalues --    0.03287   0.03502   0.03699   0.04035   0.04770
 Alpha virt. eigenvalues --    0.05094   0.05466   0.06132   0.06183   0.06353
 Alpha virt. eigenvalues --    0.07869   0.08174   0.08295   0.08604   0.08925
 Alpha virt. eigenvalues --    0.09079   0.09357   0.09830   0.10774   0.11467
 Alpha virt. eigenvalues --    0.11993   0.12045   0.12564   0.13014   0.13676
 Alpha virt. eigenvalues --    0.13702   0.14061   0.14356   0.14420   0.14608
 Alpha virt. eigenvalues --    0.14827   0.15138   0.15680   0.15957   0.16366
 Alpha virt. eigenvalues --    0.17226   0.17880   0.18198   0.18393   0.19424
 Alpha virt. eigenvalues --    0.19521   0.20134   0.20436   0.20478   0.21037
 Alpha virt. eigenvalues --    0.21812   0.21975   0.22517   0.22854   0.23002
 Alpha virt. eigenvalues --    0.23306   0.23746   0.24023   0.24400   0.24529
 Alpha virt. eigenvalues --    0.24868   0.25395   0.25802   0.26044   0.26198
 Alpha virt. eigenvalues --    0.27090   0.27626   0.28042   0.28697   0.29144
 Alpha virt. eigenvalues --    0.29742   0.30185   0.31624   0.31712   0.32112
 Alpha virt. eigenvalues --    0.32618   0.33424   0.33728   0.35101   0.35337
 Alpha virt. eigenvalues --    0.35658   0.36276   0.36607   0.37897   0.39623
 Alpha virt. eigenvalues --    0.40238   0.41516   0.41614   0.44402   0.45700
 Alpha virt. eigenvalues --    0.49101   0.53338   0.53854   0.56928   0.59960
 Alpha virt. eigenvalues --    0.61226   0.62123   0.63490   0.63514   0.65392
 Alpha virt. eigenvalues --    0.65805   0.66505   0.66745   0.66970   0.67898
 Alpha virt. eigenvalues --    0.68146   0.69259   0.70096   0.70476   0.70762
 Alpha virt. eigenvalues --    0.71210   0.71361   0.72689   0.73415   0.73822
 Alpha virt. eigenvalues --    0.74297   0.74347   0.75257   0.76882   0.77126
 Alpha virt. eigenvalues --    0.78590   0.79359   0.80335   0.80770   0.81448
 Alpha virt. eigenvalues --    0.81455   0.83104   0.83867   0.87170   0.87667
 Alpha virt. eigenvalues --    0.87891   0.89204   0.89789   0.90435   0.90674
 Alpha virt. eigenvalues --    0.93045   0.93424   0.93763   0.94672   0.95703
 Alpha virt. eigenvalues --    0.96833   0.97129   0.98051   0.99554   1.00044
 Alpha virt. eigenvalues --    1.00896   1.02702   1.05589   1.07173   1.08302
 Alpha virt. eigenvalues --    1.08501   1.10670   1.13041   1.14998   1.15623
 Alpha virt. eigenvalues --    1.17248   1.18070   1.18672   1.20468   1.21032
 Alpha virt. eigenvalues --    1.21811   1.22232   1.22786   1.23972   1.26022
 Alpha virt. eigenvalues --    1.26536   1.26855   1.27947   1.29622   1.32349
 Alpha virt. eigenvalues --    1.32997   1.36208   1.37511   1.38887   1.38972
 Alpha virt. eigenvalues --    1.42113   1.42211   1.43081   1.44213   1.44817
 Alpha virt. eigenvalues --    1.44970   1.45601   1.48158   1.48885   1.50967
 Alpha virt. eigenvalues --    1.52975   1.53268   1.54713   1.55949   1.57628
 Alpha virt. eigenvalues --    1.60224   1.69159   1.71813   1.76504   1.82900
 Alpha virt. eigenvalues --    1.83292   1.84411   1.85241   1.86120   1.87216
 Alpha virt. eigenvalues --    1.89607   1.90295   1.91326   1.94373   1.95489
 Alpha virt. eigenvalues --    1.95657   1.97037   1.98725   1.99368   2.01544
 Alpha virt. eigenvalues --    2.05468   2.08479   2.09111   2.09264   2.10788
 Alpha virt. eigenvalues --    2.11146   2.13198   2.14791   2.15280   2.15773
 Alpha virt. eigenvalues --    2.18133   2.20322   2.21935   2.23876   2.25125
 Alpha virt. eigenvalues --    2.28042   2.28222   2.28750   2.29714   2.32341
 Alpha virt. eigenvalues --    2.35781   2.36053   2.45469   2.48386   2.49968
 Alpha virt. eigenvalues --    2.50631   2.55799   2.57868   2.61813   2.62023
 Alpha virt. eigenvalues --    2.63647   2.63828   2.68608   2.71108   2.74372
 Alpha virt. eigenvalues --    2.75083   2.75887   2.79751   2.80647   2.82945
 Alpha virt. eigenvalues --    2.86373   2.91495   2.98365   2.99861   3.03707
 Alpha virt. eigenvalues --    3.12873   3.28529   3.31252   3.39830   3.59360
 Alpha virt. eigenvalues --    4.21390   4.22946   4.23335   4.24443   4.24541
 Alpha virt. eigenvalues --    4.26610   4.30545   4.34313   4.37339   4.38739
 Alpha virt. eigenvalues --    4.39578   4.42502   4.48464   4.56203   4.66259
 Alpha virt. eigenvalues --    4.79079   4.99856
          Condensed to atoms (all electrons):
               1          2          3          4          5          6
     1  C   11.354982  -3.244760   1.592694   0.466887  -2.529934  -0.274398
     2  C   -3.244760  13.843186  -1.987495  -6.135991   2.700043  -1.134919
     3  C    1.592694  -1.987495   8.032602   0.575564  -0.697987  -0.230998
     4  C    0.466887  -6.135991   0.575564  22.338518  -8.925745   0.555399
     5  C   -2.529934   2.700043  -0.697987  -8.925745  13.525679  -0.305196
     6  C   -0.274398  -1.134919  -0.230998   0.555399  -0.305196   7.715830
     7  H    0.364401  -0.118269   0.035452  -0.008043   0.033188  -0.003367
     8  H   -0.106027   0.389628  -0.048500   0.018334  -0.014291   0.018745
     9  H   -0.010822   0.014219  -0.029938   0.359999  -0.084737   0.000191
    10  H    0.005212   0.003796   0.046728   0.049946   0.233006  -0.031154
    11  C   -0.756373   1.686079  -0.812703  -1.853342   1.088827  -0.367469
    12  C   -0.033282   0.099480  -0.363583   0.143967  -0.241702  -0.072489
    13  C   -0.061290   0.200114  -0.027727  -0.829390   0.542907  -0.010908
    14  C   -0.093220   0.306784  -0.831252  -0.371940   0.204685  -0.025097
    15  C    0.061035  -0.233003   0.459389   0.490488  -0.297082   0.018937
    16  C    0.024669  -0.055258   0.229817   0.054366  -0.032776   0.003801
    17  H    0.000226   0.001746   0.001070   0.000197  -0.000062   0.000024
    18  C   -0.017017   0.042570  -0.065257  -0.069731   0.020573  -0.002026
    19  H   -0.000022   0.000128  -0.000051   0.001851   0.000236   0.000028
    20  C   -0.000499   0.004436  -0.028407  -0.006307   0.005854  -0.000012
    21  H    0.000002   0.000067  -0.000142  -0.000027  -0.000001   0.000000
    22  H   -0.000001  -0.000028  -0.000036   0.000065  -0.000001   0.000000
    23  O   -0.590625   0.015562  -0.036871  -0.066595   0.194706   0.475966
    24  C    0.068419  -0.015387  -0.030525   0.105408  -0.141432  -0.167937
    25  H   -0.028026  -0.000495  -0.003469   0.066500   0.036636  -0.084048
    26  H   -0.028156  -0.000480  -0.003474   0.066541   0.036765  -0.084126
    27  H    0.046201   0.003358   0.001455  -0.028779  -0.065406   0.055993
    28  Cl   0.000003   0.000054  -0.000077  -0.000067   0.000068   0.000003
               7          8          9         10         11         12
     1  C    0.364401  -0.106027  -0.010822   0.005212  -0.756373  -0.033282
     2  C   -0.118269   0.389628   0.014219   0.003796   1.686079   0.099480
     3  C    0.035452  -0.048500  -0.029938   0.046728  -0.812703  -0.363583
     4  C   -0.008043   0.018334   0.359999   0.049946  -1.853342   0.143967
     5  C    0.033188  -0.014291  -0.084737   0.233006   1.088827  -0.241702
     6  C   -0.003367   0.018745   0.000191  -0.031154  -0.367469  -0.072489
     7  H    0.515502  -0.004327   0.000014  -0.000147  -0.003593   0.000853
     8  H   -0.004327   0.523248  -0.000156   0.000016   0.029607  -0.004205
     9  H    0.000014  -0.000156   0.524615  -0.004634   0.036671  -0.002552
    10  H   -0.000147   0.000016  -0.004634   0.538580  -0.006984   0.000914
    11  C   -0.003593   0.029607   0.036671  -0.006984   7.093798   0.499161
    12  C    0.000853  -0.004205  -0.002552   0.000914   0.499161   6.769182
    13  C   -0.000032  -0.000116  -0.000201  -0.000282  -0.617016  -0.762279
    14  C    0.000058   0.002227  -0.000118  -0.000057  -0.023025  -1.266811
    15  C   -0.000024  -0.000080   0.002581   0.000172   0.105037   1.356419
    16  C    0.000003  -0.000001   0.000014  -0.000002   0.070381   0.503567
    17  H    0.000000   0.000001   0.000000   0.000000  -0.003635   0.025381
    18  C   -0.000002   0.000010   0.000042   0.000007  -0.024956  -0.375299
    19  H    0.000000   0.000000   0.000001   0.000000  -0.004216   0.024744
    20  C    0.000000   0.000032   0.000035   0.000000  -0.150429  -0.236345
    21  H    0.000000   0.000000   0.000000   0.000000   0.000212  -0.005415
    22  H    0.000000   0.000000   0.000000   0.000000   0.000496  -0.003359
    23  O   -0.006541  -0.000480  -0.000570  -0.012429   0.003097  -0.000270
    24  C   -0.001849   0.000294   0.000651  -0.001742   0.005111  -0.002725
    25  H    0.000005   0.000000   0.000003  -0.000545  -0.000279  -0.000014
    26  H    0.000005   0.000000   0.000003  -0.000545  -0.000279  -0.000015
    27  H   -0.000014   0.000000   0.000000   0.000114   0.000087   0.000005
    28  Cl   0.000000   0.000000   0.000000   0.000000  -0.009705  -0.009310
              13         14         15         16         17         18
     1  C   -0.061290  -0.093220   0.061035   0.024669   0.000226  -0.017017
     2  C    0.200114   0.306784  -0.233003  -0.055258   0.001746   0.042570
     3  C   -0.027727  -0.831252   0.459389   0.229817   0.001070  -0.065257
     4  C   -0.829390  -0.371940   0.490488   0.054366   0.000197  -0.069731
     5  C    0.542907   0.204685  -0.297082  -0.032776  -0.000062   0.020573
     6  C   -0.010908  -0.025097   0.018937   0.003801   0.000024  -0.002026
     7  H   -0.000032   0.000058  -0.000024   0.000003   0.000000  -0.000002
     8  H   -0.000116   0.002227  -0.000080  -0.000001   0.000001   0.000010
     9  H   -0.000201  -0.000118   0.002581   0.000014   0.000000   0.000042
    10  H   -0.000282  -0.000057   0.000172  -0.000002   0.000000   0.000007
    11  C   -0.617016  -0.023025   0.105037   0.070381  -0.003635  -0.024956
    12  C   -0.762279  -1.266811   1.356419   0.503567   0.025381  -0.375299
    13  C    9.220194   0.218769  -2.738209   0.541290  -0.014007   1.125197
    14  C    0.218769  15.303797  -6.036620  -4.325413   0.350108   1.540842
    15  C   -2.738209  -6.036620  13.989416   1.914317   0.029654  -3.209644
    16  C    0.541290  -4.325413   1.914317   9.155037  -0.100865  -1.092806
    17  H   -0.014007   0.350108   0.029654  -0.100865   0.518877  -0.011286
    18  C    1.125197   1.540842  -3.209644  -1.092806  -0.011286   8.475891
    19  H   -0.016294   0.026386   0.357826  -0.010260  -0.000151  -0.103432
    20  C   -0.581438   0.922300  -0.000632  -0.435726   0.006689  -0.015720
    21  H    0.003436  -0.069366  -0.000304   0.287395  -0.004634   0.035387
    22  H    0.002082  -0.002695  -0.068616   0.036880   0.000014   0.288619
    23  O    0.000161   0.000062  -0.000101  -0.000002   0.000000  -0.000002
    24  C    0.000565   0.000016  -0.000021   0.000004   0.000000  -0.000003
    25  H   -0.000007  -0.000001   0.000002   0.000000   0.000000   0.000000
    26  H   -0.000007  -0.000001   0.000002   0.000000   0.000000   0.000000
    27  H    0.000001   0.000000   0.000000   0.000000   0.000000   0.000000
    28  Cl  -0.089002   0.153034   0.060606  -0.192761   0.001124  -0.121698
              19         20         21         22         23         24
     1  C   -0.000022  -0.000499   0.000002  -0.000001  -0.590625   0.068419
     2  C    0.000128   0.004436   0.000067  -0.000028   0.015562  -0.015387
     3  C   -0.000051  -0.028407  -0.000142  -0.000036  -0.036871  -0.030525
     4  C    0.001851  -0.006307  -0.000027   0.000065  -0.066595   0.105408
     5  C    0.000236   0.005854  -0.000001  -0.000001   0.194706  -0.141432
     6  C    0.000028  -0.000012   0.000000   0.000000   0.475966  -0.167937
     7  H    0.000000   0.000000   0.000000   0.000000  -0.006541  -0.001849
     8  H    0.000000   0.000032   0.000000   0.000000  -0.000480   0.000294
     9  H    0.000001   0.000035   0.000000   0.000000  -0.000570   0.000651
    10  H    0.000000   0.000000   0.000000   0.000000  -0.012429  -0.001742
    11  C   -0.004216  -0.150429   0.000212   0.000496   0.003097   0.005111
    12  C    0.024744  -0.236345  -0.005415  -0.003359  -0.000270  -0.002725
    13  C   -0.016294  -0.581438   0.003436   0.002082   0.000161   0.000565
    14  C    0.026386   0.922300  -0.069366  -0.002695   0.000062   0.000016
    15  C    0.357826  -0.000632  -0.000304  -0.068616  -0.000101  -0.000021
    16  C   -0.010260  -0.435726   0.287395   0.036880  -0.000002   0.000004
    17  H   -0.000151   0.006689  -0.004634   0.000014   0.000000   0.000000
    18  C   -0.103432  -0.015720   0.035387   0.288619  -0.000002  -0.000003
    19  H    0.519555   0.007696   0.000014  -0.004646   0.000000   0.000000
    20  C    0.007696   6.081533   0.043594   0.041872   0.000000   0.000006
    21  H    0.000014   0.043594   0.501873  -0.000160   0.000000   0.000000
    22  H   -0.004646   0.041872  -0.000160   0.502172   0.000000   0.000000
    23  O    0.000000   0.000000   0.000000   0.000000   8.447802   0.088334
    24  C    0.000000   0.000006   0.000000   0.000000   0.088334   5.254006
    25  H    0.000000   0.000000   0.000000   0.000000  -0.033338   0.384154
    26  H    0.000000   0.000000   0.000000   0.000000  -0.033335   0.384174
    27  H    0.000000   0.000000   0.000000   0.000000  -0.058920   0.395983
    28  Cl   0.001156  -0.030056   0.002552   0.002223   0.000000   0.000000
              25         26         27         28
     1  C   -0.028026  -0.028156   0.046201   0.000003
     2  C   -0.000495  -0.000480   0.003358   0.000054
     3  C   -0.003469  -0.003474   0.001455  -0.000077
     4  C    0.066500   0.066541  -0.028779  -0.000067
     5  C    0.036636   0.036765  -0.065406   0.000068
     6  C   -0.084048  -0.084126   0.055993   0.000003
     7  H    0.000005   0.000005  -0.000014   0.000000
     8  H    0.000000   0.000000   0.000000   0.000000
     9  H    0.000003   0.000003   0.000000   0.000000
    10  H   -0.000545  -0.000545   0.000114   0.000000
    11  C   -0.000279  -0.000279   0.000087  -0.009705
    12  C   -0.000014  -0.000015   0.000005  -0.009310
    13  C   -0.000007  -0.000007   0.000001  -0.089002
    14  C   -0.000001  -0.000001   0.000000   0.153034
    15  C    0.000002   0.000002   0.000000   0.060606
    16  C    0.000000   0.000000   0.000000  -0.192761
    17  H    0.000000   0.000000   0.000000   0.001124
    18  C    0.000000   0.000000   0.000000  -0.121698
    19  H    0.000000   0.000000   0.000000   0.001156
    20  C    0.000000   0.000000   0.000000  -0.030056
    21  H    0.000000   0.000000   0.000000   0.002552
    22  H    0.000000   0.000000   0.000000   0.002223
    23  O   -0.033338  -0.033335  -0.058920   0.000000
    24  C    0.384154   0.384174   0.395983   0.000000
    25  H    0.528137  -0.044918  -0.028265   0.000000
    26  H   -0.044918   0.528148  -0.028271   0.000000
    27  H   -0.028265  -0.028271   0.492973   0.000000
    28  Cl   0.000000   0.000000   0.000000  17.015386
 Mulliken charges:
               1
     1  C   -0.210279
     2  C   -0.385165
     3  C    0.223721
     4  C   -0.998074
     5  C    0.713180
     6  C   -0.050771
     7  H    0.196725
     8  H    0.196040
     9  H    0.194688
    10  H    0.180030
    11  C    0.015438
    12  C   -0.044018
    13  C   -0.106514
    14  C    0.016549
    15  C   -0.261542
    16  C   -0.575673
    17  H    0.199531
    18  C   -0.420258
    19  H    0.199454
    20  C    0.371526
    21  H    0.205517
    22  H    0.205119
    23  O   -0.385612
    24  C   -0.325503
    25  H    0.207968
    26  H    0.207970
    27  H    0.213486
    28  Cl   0.216466
 Sum of Mulliken charges =   0.00000
 Mulliken charges with hydrogens summed into heavy atoms:
               1
     1  C   -0.013553
     2  C   -0.189125
     3  C    0.223721
     4  C   -0.803386
     5  C    0.893210
     6  C   -0.050771
    11  C    0.015438
    12  C   -0.044018
    13  C   -0.106514
    14  C    0.216080
    15  C   -0.062089
    16  C   -0.370155
    18  C   -0.215139
    20  C    0.371526
    23  O   -0.385612
    24  C    0.303921
    28  Cl   0.216466
 Electronic spatial extent (au):  <R**2>=           9805.1225
 Charge=              0.0000 electrons
 Dipole moment (field-independent basis, Debye):
    X=              3.7889    Y=             -1.2880    Z=              0.0003  Tot=              4.0019
 Quadrupole moment (field-independent basis, Debye-Ang):
   XX=           -101.2504   YY=            -94.1183   ZZ=           -112.4488
   XY=            -10.2542   XZ=              0.0023   YZ=              0.0002
 Traceless Quadrupole moment (field-independent basis, Debye-Ang):
   XX=              1.3554   YY=              8.4876   ZZ=             -9.8430
   XY=            -10.2542   XZ=              0.0023   YZ=              0.0002
 Octapole moment (field-independent basis, Debye-Ang**2):
  XXX=            274.4723  YYY=              2.1199  ZZZ=              0.0006  XYY=             -1.0129
  XXY=            -65.2728  XXZ=              0.0162  XZZ=              3.0658  YZZ=             -1.2305
  YYZ=              0.0004  XYZ=              0.0073
 Hexadecapole moment (field-independent basis, Debye-Ang**3):
 XXXX=         -11880.9683 YYYY=           -627.8303 ZZZZ=           -141.4657 XXXY=           -489.0532
 XXXZ=              0.1263 YYYX=             13.2999 YYYZ=              0.0016 ZZZX=              0.0001
 ZZZY=             -0.0008 XXYY=          -2019.9072 XXZZ=          -2179.3653 YYZZ=           -151.7027
 XXYZ=              0.0012 YYXZ=              0.0000 ZZXY=             -5.3039
 N-N= 1.046418143956D+03 E-N=-4.700668971789D+03  KE= 1.105612028268D+03
 Evaluate density.
 Using the total density.
 Monte-Carlo method of calculating molar volume:
 based on  0.001 e/bohr**3 density envelope.
 Number of points per bohr**3 =   20 CutOff= 1.00D-04
 Using the SCF density.
 There are       457 points.  Will hold       457 in memory.
 LenV=  4026248369 MDV=  4026531840.
 Box volume =11942.176 fraction occupied=0.166
 Integrated density= 1.2803474698738185D+02 error= 2.0347469873818511D+00
 Molar volume = 1986.007 bohr**3/mol (177.229 cm**3/mol)
 Recommended a0 for SCRF calculation =  5.04 angstrom (  9.53 bohr)
 Calling FoFJK, ICntrl=      2127 FMM=F ISym2X=0 I1Cent= 0 IOpClX= 0 NMat=1 NMatS=1 NMatT=0.
 ***** Axes restored to original set *****
 -------------------------------------------------------------------
 Center     Atomic                   Forces (Hartrees/Bohr)
 Number     Number              X              Y              Z
 -------------------------------------------------------------------
      1        6          -0.000572503   -0.002635455   -0.000002252
      2        6           0.000714174   -0.003109516   -0.000000278
      3        6           0.002096609   -0.000025741   -0.000000580
      4        6           0.000043259    0.003270221    0.000000128
      5        6          -0.000707351    0.002117293    0.000000129
      6        6           0.015733354   -0.000786752    0.000000953
      7        1           0.000250225    0.001616236    0.000000267
      8        1          -0.000428560    0.000976685    0.000000500
      9        1          -0.000327289   -0.000936929    0.000000153
     10        1           0.000523364   -0.000834030    0.000000066
     11        6          -0.004656813   -0.000182402   -0.000000818
     12        6           0.004721777    0.000170047    0.000000416
     13        6          -0.002277104   -0.000070076    0.000002674
     14        6          -0.000968115   -0.003259472   -0.000001256
     15        6          -0.001165320    0.003234998   -0.000001778
     16        6           0.001132004   -0.001265093    0.000000399
     17        1           0.000381034    0.001018750    0.000000029
     18        6           0.001080161    0.001291079   -0.000000773
     19        1           0.000434476   -0.000988264    0.000000139
     20        6          -0.020904743   -0.000572349    0.000001358
     21        1          -0.000613338    0.001081944   -0.000000175
     22        1          -0.000545327   -0.001108398    0.000000405
     23        8          -0.006123374   -0.012615567    0.000006503
     24        6          -0.010935324    0.010764525   -0.000006360
     25        1          -0.000580054    0.000682386    0.000614515
     26        1          -0.000579681    0.000680880   -0.000613369
     27        1           0.000603657    0.000829246   -0.000000325
     28       17           0.023670803    0.000655754   -0.000000672
 -------------------------------------------------------------------
 Cartesian Forces:  Max     0.023670803 RMS     0.004640393

 GradGradGradGradGradGradGradGradGradGradGradGradGradGradGradGradGradGrad
 Berny optimization.
 FormGI is forming the generalized inverse of G from B-inverse, IUseBI=4.
 Internal  Forces:  Max     0.023679895 RMS     0.003104402
 Search for a local minimum.
 Step number   1 out of a maximum of  143
 All quantities printed in internal units (Hartrees-Bohrs-Radians)
 Mixed Optimization -- RFO/linear search
 Second derivative matrix not updated -- first step.
 ITU=  0
     Eigenvalues ---    0.00230   0.00984   0.01019   0.01373   0.01777
     Eigenvalues ---    0.01856   0.01856   0.01933   0.01943   0.02016
     Eigenvalues ---    0.02018   0.02033   0.02039   0.02048   0.02077
     Eigenvalues ---    0.02096   0.02102   0.02111   0.02155   0.02156
     Eigenvalues ---    0.02158   0.02164   0.02169   0.03746   0.04465
     Eigenvalues ---    0.09918   0.10576   0.16000   0.16000   0.16000
     Eigenvalues ---    0.16000   0.16000   0.16000   0.16000   0.16000
     Eigenvalues ---    0.16000   0.16000   0.16000   0.22000   0.22000
     Eigenvalues ---    0.22965   0.22979   0.24000   0.24000   0.24045
     Eigenvalues ---    0.25000   0.25000   0.25000   0.25000   0.25000
     Eigenvalues ---    0.34049   0.34049   0.34901   0.35439   0.35467
     Eigenvalues ---    0.35493   0.35495   0.35585   0.35625   0.35627
     Eigenvalues ---    0.35665   0.37791   0.40507   0.40846   0.41306
     Eigenvalues ---    0.41314   0.41928   0.41941   0.44155   0.44351
     Eigenvalues ---    0.44446   0.45522   0.45538   0.46350   0.46592
     Eigenvalues ---    0.47133   0.47741   0.95233
 RFO step:  Lambda=-4.03681348D-03 EMin= 2.30000000D-03
 Linear search not attempted -- first point.
 Iteration  1 RMS(Cart)=  0.02541836 RMS(Int)=  0.00010296
 Iteration  2 RMS(Cart)=  0.00018620 RMS(Int)=  0.00000352
 Iteration  3 RMS(Cart)=  0.00000005 RMS(Int)=  0.00000352
 Variable       Old X    -DE/DX   Delta X   Delta X   Delta X     New X
                                 (Linear)    (Quad)   (Total)
    R1        2.62344  -0.00137   0.00000  -0.00286  -0.00286   2.62059
    R2        2.65458  -0.00148   0.00000  -0.00320  -0.00320   2.65138
    R3        2.04736   0.00153   0.00000   0.00424   0.00424   2.05160
    R4        2.67740  -0.00233   0.00000  -0.00546  -0.00546   2.67194
    R5        2.04924   0.00106   0.00000   0.00294   0.00294   2.05218
    R6        2.66465  -0.00245   0.00000  -0.00560  -0.00560   2.65905
    R7        2.68998  -0.00029   0.00000  -0.00068  -0.00068   2.68930
    R8        2.63879  -0.00102   0.00000  -0.00219  -0.00219   2.63660
    R9        2.04969   0.00098   0.00000   0.00274   0.00274   2.05242
   R10        2.65012  -0.00175   0.00000  -0.00375  -0.00375   2.64637
   R11        2.04609   0.00098   0.00000   0.00273   0.00273   2.04882
   R12        2.62216  -0.01747   0.00000  -0.03629  -0.03629   2.58587
   R13        2.30611  -0.00495   0.00000  -0.00518  -0.00518   2.30093
   R14        2.69014  -0.00023   0.00000  -0.00053  -0.00053   2.68961
   R15        2.67125  -0.00211   0.00000  -0.00490  -0.00490   2.66635
   R16        2.67124  -0.00213   0.00000  -0.00496  -0.00496   2.66628
   R17        2.63736  -0.00189   0.00000  -0.00405  -0.00405   2.63331
   R18        2.04878   0.00108   0.00000   0.00300   0.00300   2.05178
   R19        2.63741  -0.00192   0.00000  -0.00412  -0.00412   2.63329
   R20        2.04882   0.00107   0.00000   0.00298   0.00298   2.05180
   R21        2.63413  -0.00129   0.00000  -0.00265  -0.00265   2.63147
   R22        2.04668   0.00124   0.00000   0.00345   0.00345   2.05013
   R23        2.63410  -0.00129   0.00000  -0.00265  -0.00265   2.63145
   R24        2.04672   0.00123   0.00000   0.00342   0.00342   2.05015
   R25        3.45400  -0.02368   0.00000  -0.09685  -0.09685   3.35714
   R26        2.74670  -0.01721   0.00000  -0.04506  -0.04506   2.70164
   R27        2.07247   0.00022   0.00000   0.00063   0.00063   2.07310
   R28        2.07247   0.00022   0.00000   0.00063   0.00063   2.07310
   R29        2.05835   0.00085   0.00000   0.00241   0.00241   2.06076
    A1        2.09570  -0.00022   0.00000  -0.00086  -0.00086   2.09484
    A2        2.12143  -0.00049   0.00000  -0.00324  -0.00324   2.11819
    A3        2.06605   0.00071   0.00000   0.00410   0.00410   2.07015
    A4        2.10826   0.00027   0.00000   0.00103   0.00104   2.10929
    A5        2.09464  -0.00029   0.00000  -0.00145  -0.00145   2.09319
    A6        2.08029   0.00001   0.00000   0.00041   0.00041   2.08070
    A7        2.06445   0.00003   0.00000  -0.00015  -0.00015   2.06429
    A8        2.10871  -0.00007   0.00000  -0.00016  -0.00016   2.10855
    A9        2.11003   0.00004   0.00000   0.00031   0.00031   2.11034
   A10        2.11481   0.00014   0.00000   0.00049   0.00049   2.11530
   A11        2.07995   0.00009   0.00000   0.00072   0.00072   2.08067
   A12        2.08843  -0.00023   0.00000  -0.00121  -0.00121   2.08721
   A13        2.08630  -0.00014   0.00000  -0.00046  -0.00046   2.08585
   A14        2.08285   0.00009   0.00000   0.00037   0.00037   2.08322
   A15        2.11404   0.00005   0.00000   0.00009   0.00009   2.11412
   A16        2.09686  -0.00008   0.00000  -0.00006  -0.00006   2.09680
   A17        2.01457   0.00000   0.00000  -0.00011  -0.00011   2.01446
   A18        2.17175   0.00008   0.00000   0.00017   0.00017   2.17192
   A19        2.10638  -0.00018   0.00000  -0.00057  -0.00057   2.10581
   A20        2.10684  -0.00022   0.00000  -0.00074  -0.00074   2.10611
   A21        2.06996   0.00040   0.00000   0.00131   0.00131   2.07127
   A22        2.10890   0.00013   0.00000   0.00051   0.00051   2.10941
   A23        2.08242   0.00009   0.00000   0.00068   0.00068   2.08310
   A24        2.09187  -0.00022   0.00000  -0.00119  -0.00119   2.09068
   A25        2.10880   0.00016   0.00000   0.00062   0.00062   2.10942
   A26        2.08252   0.00007   0.00000   0.00061   0.00061   2.08313
   A27        2.09187  -0.00023   0.00000  -0.00123  -0.00123   2.09064
   A28        2.07552  -0.00072   0.00000  -0.00289  -0.00289   2.07263
   A29        2.10802   0.00030   0.00000   0.00108   0.00108   2.10910
   A30        2.09964   0.00042   0.00000   0.00181   0.00181   2.10146
   A31        2.07560  -0.00073   0.00000  -0.00296  -0.00296   2.07264
   A32        2.10806   0.00030   0.00000   0.00110   0.00110   2.10915
   A33        2.09952   0.00043   0.00000   0.00186   0.00186   2.10139
   A34        2.12760   0.00076   0.00000   0.00341   0.00341   2.13101
   A35        2.07780  -0.00038   0.00000  -0.00170  -0.00170   2.07610
   A36        2.07778  -0.00038   0.00000  -0.00171  -0.00171   2.07607
   A37        2.07432  -0.00590   0.00000  -0.02323  -0.02323   2.05108
   A38        1.94083  -0.00114   0.00000  -0.00690  -0.00691   1.93391
   A39        1.94081  -0.00113   0.00000  -0.00688  -0.00689   1.93392
   A40        1.83567  -0.00047   0.00000  -0.00295  -0.00296   1.83271
   A41        1.91291   0.00129   0.00000   0.00796   0.00794   1.92085
   A42        1.91616   0.00071   0.00000   0.00427   0.00425   1.92042
   A43        1.91615   0.00071   0.00000   0.00427   0.00426   1.92041
   A44        3.14049  -0.00012   0.00000  -0.00238  -0.00238   3.13811
   A45        3.14093   0.00000   0.00000   0.00000   0.00000   3.14092
   A46        3.14158   0.00000   0.00000   0.00002   0.00002   3.14159
   A47        3.14161   0.00000   0.00000  -0.00002  -0.00002   3.14158
    D1        0.00002   0.00000   0.00000  -0.00002  -0.00002   0.00000
    D2       -3.14158   0.00000   0.00000  -0.00002  -0.00002   3.14159
    D3       -3.14158   0.00000   0.00000   0.00000  -0.00001  -3.14159
    D4        0.00000   0.00000   0.00000  -0.00001  -0.00001   0.00000
    D5       -0.00001   0.00000   0.00000   0.00002   0.00002   0.00001
    D6        3.14158   0.00000   0.00000  -0.00001  -0.00001   3.14157
    D7        3.14159   0.00000   0.00000   0.00001   0.00001  -3.14159
    D8       -0.00001   0.00000   0.00000  -0.00002  -0.00002  -0.00003
    D9       -0.00001   0.00000   0.00000   0.00001   0.00001  -0.00001
   D10        3.14159   0.00000   0.00000   0.00000   0.00000   3.14159
   D11        3.14159   0.00000   0.00000   0.00001   0.00001  -3.14159
   D12        0.00001   0.00000   0.00000   0.00000   0.00000   0.00000
   D13        0.00000   0.00000   0.00000   0.00000   0.00000   0.00000
   D14       -3.14158   0.00000   0.00000  -0.00001  -0.00001  -3.14158
   D15        3.14158   0.00000   0.00000   0.00001   0.00001  -3.14159
   D16        0.00000   0.00000   0.00000   0.00000   0.00000   0.00001
   D17        0.00022   0.00000   0.00000   0.00000   0.00000   0.00022
   D18       -3.14134   0.00000   0.00000  -0.00004  -0.00004  -3.14138
   D19       -3.14136   0.00000   0.00000  -0.00001  -0.00001  -3.14137
   D20        0.00027   0.00000   0.00000  -0.00005  -0.00005   0.00021
   D21        0.00001   0.00000   0.00000   0.00000   0.00000   0.00001
   D22       -3.14157   0.00000   0.00000   0.00000   0.00000  -3.14157
   D23        3.14158   0.00000   0.00000   0.00001   0.00001   3.14159
   D24        0.00001   0.00000   0.00000   0.00001   0.00001   0.00002
   D25        0.00000   0.00000   0.00000  -0.00001  -0.00001  -0.00001
   D26       -3.14159   0.00000   0.00000   0.00002   0.00002  -3.14157
   D27        3.14157   0.00000   0.00000  -0.00001  -0.00001   3.14157
   D28       -0.00002   0.00000   0.00000   0.00002   0.00002   0.00001
   D29        3.14126   0.00000   0.00000   0.00007   0.00007   3.14133
   D30       -0.00034   0.00000   0.00000   0.00005   0.00005  -0.00029
   D31       -3.14159   0.00000   0.00000  -0.00001  -0.00001   3.14159
   D32        0.00002   0.00000   0.00000  -0.00002  -0.00002   0.00000
   D33       -0.00002   0.00000   0.00000   0.00003   0.00003   0.00001
   D34        3.14158   0.00000   0.00000   0.00001   0.00001  -3.14159
   D35        3.14159   0.00000   0.00000   0.00001   0.00001  -3.14159
   D36       -0.00001   0.00000   0.00000   0.00002   0.00002   0.00000
   D37        0.00002   0.00000   0.00000  -0.00002  -0.00002   0.00000
   D38       -3.14158   0.00000   0.00000  -0.00002  -0.00002   3.14159
   D39        0.00001   0.00000   0.00000  -0.00001  -0.00001   0.00000
   D40       -3.14159   0.00000   0.00000  -0.00001  -0.00001   3.14159
   D41        3.14159   0.00000   0.00000   0.00000   0.00000   3.14159
   D42       -0.00001   0.00000   0.00000   0.00001   0.00001   0.00000
   D43        0.00000   0.00000   0.00000   0.00001   0.00001   0.00000
   D44        3.14158   0.00000   0.00000   0.00001   0.00001  -3.14159
   D45       -3.14159   0.00000   0.00000   0.00000   0.00000   3.14159
   D46        0.00000   0.00000   0.00000   0.00000   0.00000   0.00000
   D47        0.00001   0.00000   0.00000  -0.00001  -0.00001   0.00000
   D48        3.14158   0.00000   0.00000   0.00001   0.00001  -3.14159
   D49       -3.14158   0.00000   0.00000  -0.00001  -0.00001   3.14159
   D50       -0.00001   0.00000   0.00000   0.00001   0.00001   0.00000
   D51       -0.00001   0.00000   0.00000   0.00001   0.00001   0.00000
   D52       -3.14159   0.00000   0.00000  -0.00001  -0.00001   3.14159
   D53        3.14159   0.00000   0.00000   0.00001   0.00001  -3.14159
   D54        0.00001   0.00000   0.00000  -0.00001  -0.00001   0.00000
   D55       -1.06816  -0.00003   0.00000  -0.00034  -0.00034  -1.06850
   D56        1.06882   0.00002   0.00000   0.00015   0.00016   1.06898
   D57       -3.14127   0.00000   0.00000  -0.00009  -0.00009  -3.14136
         Item               Value     Threshold  Converged?
 Maximum Force            0.023680     0.000450     NO 
 RMS     Force            0.003104     0.000300     NO 
 Maximum Displacement     0.137737     0.001800     NO 
 RMS     Displacement     0.025366     0.001200     NO 
 Predicted change in Energy=-2.046409D-03
 GradGradGradGradGradGradGradGradGradGradGradGradGradGradGradGradGradGrad

                          Input orientation:                          
 ---------------------------------------------------------------------
 Center     Atomic      Atomic             Coordinates (Angstroms)
 Number     Number       Type             X           Y           Z
 ---------------------------------------------------------------------
      1          6           0        4.102279    1.412500    0.000131
      2          6           0        2.716236    1.368036    0.000131
      3          6           0        2.030403    0.131576   -0.000013
      4          6           0        2.790759   -1.052407   -0.000166
      5          6           0        4.185502   -1.015617   -0.000172
      6          6           0        4.842931    0.220871   -0.000017
      7          1           0        4.637316    2.357168    0.000247
      8          1           0        2.144486    2.291307    0.000251
      9          1           0        2.279572   -2.010681   -0.000286
     10          1           0        4.741799   -1.946210   -0.000312
     11          6           0        0.607986    0.086998   -0.000006
     12          6           0       -0.609143    0.053098    0.000001
     13          6           0       -2.031899    0.014422    0.000001
     14          6           0       -2.784007    1.208227   -0.000116
     15          6           0       -2.718387   -1.218249    0.000109
     16          6           0       -4.177108    1.175368   -0.000119
     17          1           0       -2.266994    2.162985   -0.000206
     18          6           0       -4.111218   -1.260727    0.000106
     19          1           0       -2.150563   -2.143702    0.000198
     20          6           0       -4.817976   -0.060912   -0.000006
     21          1           0       -4.755120    2.093451   -0.000207
     22          1           0       -4.638819   -2.208685    0.000190
     23          8           0        6.202674    0.374422   -0.000036
     24          6           0        7.001323   -0.811347    0.000143
     25          1           0        6.809502   -1.410207    0.899063
     26          1           0        6.809865   -1.410234   -0.898837
     27          1           0        8.032699   -0.457124    0.000343
     28         17           0       -6.593849   -0.108975   -0.000011
 ---------------------------------------------------------------------
                    Distance matrix (angstroms):
                    1          2          3          4          5
     1  C    0.000000
     2  C    1.386756   0.000000
     3  C    2.435865   1.413931   0.000000
     4  C    2.792106   2.421590   1.407110   0.000000
     5  C    2.429543   2.800097   2.441415   1.395229   0.000000
     6  C    1.403049   2.416365   2.813945   2.415088   1.400398
     7  H    1.085661   2.160770   3.427718   3.877496   3.402912
     8  H    2.145986   1.085968   2.162742   3.405597   3.886064
     9  H    3.878200   3.406818   2.156699   1.086094   2.150052
    10  H    3.419052   3.884215   3.415971   2.146029   1.084190
    11  C    3.737250   2.466937   1.423115   2.462263   3.743579
    12  C    4.903619   3.575921   2.640713   3.575119   4.912309
    13  C    6.291484   4.937313   4.063991   4.939246   6.302147
    14  C    6.889316   5.502565   4.933328   6.015686   7.315705
    15  C    7.310426   6.018638   4.936905   5.511641   6.906862
    16  C    8.282782   6.896036   6.294656   7.315336   8.644863
    17  H    6.413335   5.046239   4.753340   5.993297   7.192928
    18  C    8.637573   7.316046   6.297461   6.905119   8.300340
    19  H    7.193373   6.001504   4.759976   5.060394   6.435706
    20  C    9.041123   7.668523   6.851084   7.673064   9.053954
    21  H    8.883536   7.506490   7.063446   8.175372   9.465782
    22  H    9.461489   8.178617   7.067910   7.519016   8.904609
    23  O    2.342918   3.625261   4.179332   3.698243   2.449732
    24  C    3.653758   4.807461   5.059560   4.217459   2.823220
    25  H    4.013079   5.028074   5.101491   4.133634   2.801731
    26  H    4.013352   5.028392   5.101795   4.133868   2.801892
    27  H    4.352436   5.621031   6.031097   5.275633   3.887524
    28  Cl  10.803798   9.426519   8.627606   9.431910  10.817413
                    6          7          8          9         10
     6  C    0.000000
     7  H    2.146169   0.000000
     8  H    3.401222   2.493700   0.000000
     9  H    3.398623   4.963573   4.304109   0.000000
    10  H    2.169439   4.304646   4.970169   2.463071   0.000000
    11  C    4.237060   4.624843   2.686970   2.682248   4.606771
    12  C    5.454655   5.730102   3.548529   3.550191   5.712251
    13  C    6.877929   7.068726   4.756722   4.763383   7.051742
    14  C    7.690583   7.509734   5.046099   6.000100   8.160161
    15  C    7.697051   8.178629   5.997042   5.060389   7.495618
    16  C    9.070401   8.893296   6.419335   7.199973   9.449399
    17  H    7.370403   6.907040   4.413346   6.171770   8.124571
    18  C    9.075897   9.467101   7.193801   6.434642   8.879515
    19  H    7.382423   8.144516   6.173877   4.432132   6.895191
    20  C    9.665016   9.759593   7.349069   7.360488   9.743903
    21  H    9.779015   9.396137   6.902442   8.144371  10.320383
    22  H    9.788071  10.338940   8.140218   6.921223   9.384289
    23  O    1.368385   2.526188   4.488133   4.591236   2.742168
    24  C    2.392515   3.953228   5.763274   4.871688   2.528510
    25  H    2.708534   4.440650   6.022577   4.657216   2.317664
    26  H    2.708728   4.440905   6.022917   4.657412   2.317653
    27  H    3.261027   4.410087   6.498071   5.959196   3.612119
    28  Cl  11.441536  11.498736   9.062001   9.074915  11.483569
                   11         12         13         14         15
    11  C    0.000000
    12  C    1.217602   0.000000
    13  C    2.640883   1.423281   0.000000
    14  C    3.572502   2.462591   1.410970   0.000000
    15  C    3.573294   2.462769   1.410937   2.427363   0.000000
    16  C    4.907308   3.740302   2.439204   1.393488   2.803083
    17  H    3.546157   2.683298   2.161387   1.085756   3.411231
    18  C    4.907876   3.740409   2.439174   2.803073   1.393479
    19  H    3.547622   2.683637   2.161384   3.411258   1.085765
    20  C    5.427978   4.210377   2.787095   2.397445   2.397438
    21  H    5.726147   4.620840   3.426119   2.160765   3.887883
    22  H    5.727052   4.621033   3.426111   3.887880   2.160792
    23  O    5.602066   6.819391   8.242438   9.025279   9.062114
    24  C    6.456143   7.659403   9.070887   9.991565   9.728223
    25  H    6.442728   7.614845   9.000458   9.984995   9.572127
    26  H    6.443050   7.615178   9.000797   9.985310   9.572488
    27  H    7.444625   8.656892  10.075639  10.944156  10.777994
    28  Cl   7.204501   5.986900   4.563619   4.031118   4.031092
                   16         17         18         19         20
    16  C    0.000000
    17  H    2.150330   0.000000
    18  C    2.436986   3.888825   0.000000
    19  H    3.888845   4.308260   2.150305   0.000000
    20  C    1.392516   3.384262   1.392503   3.384244   0.000000
    21  H    1.084884   2.489097   3.415424   4.973648   2.155279
    22  H    3.415406   4.973636   1.084891   2.489104   2.155233
    23  O   10.410637   8.656456  10.442704   8.724535  11.029245
    24  C   11.353605   9.733876  11.121623   9.248362  11.843099
    25  H   11.322513   9.795874  10.958676   9.034863  11.739982
    26  H   11.322835   9.796162  10.959037   9.035237  11.740326
    27  H   12.318459  10.627730  12.170477  10.321986  12.856782
    28  Cl   2.736819   4.887072   2.736785   4.887014   1.776523
                   21         22         23         24         25
    21  H    0.000000
    22  H    4.303708   0.000000
    23  O   11.091812  11.144972   0.000000
    24  C   12.109987  11.723713   1.429646   0.000000
    25  H   12.117127  11.511281   2.088424   1.097035   0.000000
    26  H   12.117434  11.511652   2.088426   1.097036   1.797900
    27  H   13.039699  12.792003   2.010090   1.090510   1.792282
    28  Cl   2.869077   2.868960  12.805650  13.613304  13.496346
                   26         27         28
    26  H    0.000000
    27  H    1.792280   0.000000
    28  Cl  13.496693  14.630692   0.000000
 Stoichiometry    C15H11ClO
 Framework group  C1[X(C15H11ClO)]
 Deg. of freedom    78
 Full point group                 C1      NOp   1
 Largest Abelian subgroup         C1      NOp   1
 Largest concise Abelian subgroup C1      NOp   1
                         Standard orientation:                         
 ---------------------------------------------------------------------
 Center     Atomic      Atomic             Coordinates (Angstroms)
 Number     Number       Type             X           Y           Z
 ---------------------------------------------------------------------
      1          6           0        4.092179    1.411271    0.000131
      2          6           0        2.706120    1.367299    0.000131
      3          6           0        2.019848    0.131083   -0.000013
      4          6           0        2.779784   -1.053171   -0.000166
      5          6           0        4.174540   -1.016876   -0.000172
      6          6           0        4.832408    0.219379   -0.000017
      7          1           0        4.627551    2.355749    0.000247
      8          1           0        2.134698    2.290773    0.000251
      9          1           0        2.268256   -2.011263   -0.000286
     10          1           0        4.730506   -1.947666   -0.000312
     11          6           0        0.597416    0.087009   -0.000006
     12          6           0       -0.619726    0.053541    0.000001
     13          6           0       -2.042495    0.015370    0.000001
     14          6           0       -2.794180    1.209441   -0.000117
     15          6           0       -2.729420   -1.217058    0.000109
     16          6           0       -4.187292    1.177078   -0.000119
     17          1           0       -2.276828    2.164016   -0.000206
     18          6           0       -4.122266   -1.259041    0.000106
     19          1           0       -2.161926   -2.142712    0.000197
     20          6           0       -4.828599   -0.058975   -0.000007
     21          1           0       -4.764978    2.095365   -0.000207
     22          1           0       -4.650204   -2.206812    0.000190
     23          8           0        6.192205    0.372447   -0.000036
     24          6           0        6.990433   -0.813604    0.000143
     25          1           0        6.798399   -1.412396    0.899062
     26          1           0        6.798762   -1.412424   -0.898837
     27          1           0        8.021935   -0.459748    0.000343
     28         17           0       -6.604489   -0.106408   -0.000011
 ---------------------------------------------------------------------
 Rotational constants (GHZ):           2.5558207           0.1042859           0.1002622
 Standard basis: 6-31+G(d) (6D, 7F)
 There are   349 symmetry adapted cartesian basis functions of A   symmetry.
 There are   349 symmetry adapted basis functions of A   symmetry.
   349 basis functions,   612 primitive gaussians,   349 cartesian basis functions
    63 alpha electrons       63 beta electrons
       nuclear repulsion energy      1051.8855167243 Hartrees.
 NAtoms=   28 NActive=   28 NUniq=   28 SFac= 1.00D+00 NAtFMM=   60 NAOKFM=F Big=F
 Integral buffers will be    131072 words long.
 Raffenetti 2 integral format.
 Two-electron integral symmetry is turned on.
 Nuclear repulsion after empirical dispersion term =     1051.8647757156 Hartrees.
 One-electron integrals computed using PRISM.
 NBasis=   349 RedAO= T EigKep=  1.25D-06  NBF=   349
 NBsUse=   345 1.00D-06 EigRej=  5.23D-07 NBFU=   345
 Initial guess from the checkpoint file:  "molecule_28.chk"
 B after Tr=     0.000000    0.000000    0.000000
         Rot=    1.000000   -0.000001    0.000001    0.000120 Ang=  -0.01 deg.
 ExpMin= 4.38D-02 ExpMax= 2.52D+04 ExpMxC= 3.78D+03 IAcc=3 IRadAn=         5 AccDes= 0.00D+00
 Harris functional with IExCor=  402 and IRadAn=       5 diagonalized for initial guess.
 HarFok:  IExCor=  402 AccDes= 0.00D+00 IRadAn=         5 IDoV= 1 UseB2=F ITyADJ=14
 ICtDFT=  3500011 ScaDFX=  1.000000  1.000000  1.000000  1.000000
 FoFCou: FMM=F IPFlag=           0 FMFlag=      100000 FMFlg1=           0
         NFxFlg=           0 DoJE=T BraDBF=F KetDBF=T FulRan=T
         wScrn=  0.000000 ICntrl=       500 IOpCl=  0 I1Cent=   200000004 NGrid=           0
         NMat0=    1 NMatS0=      1 NMatT0=    0 NMatD0=    1 NMtDS0=    0 NMtDT0=    0
 Petite list used in FoFCou.
 Requested convergence on RMS density matrix=1.00D-08 within 128 cycles.
 Requested convergence on MAX density matrix=1.00D-06.
 Requested convergence on             energy=1.00D-06.
 No special actions if energy rises.
 SCF Done:  E(RB3LYP) =  -1113.62620794     A.U. after   13 cycles
            NFock= 13  Conv=0.38D-08     -V/T= 2.0070
 Calling FoFJK, ICntrl=      2127 FMM=F ISym2X=0 I1Cent= 0 IOpClX= 0 NMat=1 NMatS=1 NMatT=0.
 ***** Axes restored to original set *****
 -------------------------------------------------------------------
 Center     Atomic                   Forces (Hartrees/Bohr)
[...]
 0.00001495,0.,0.,-0.00004823,-0.00000003,0.,-0.00015294,0.00000002,0.0
 0000002,-0.00012182,-0.00000001,0.,0.00007363,-0.00000001,0.,0.0000034
 5,0.,0.,-0.00000088,0.,0.,0.00000887,0.,0.,0.00000860,0.,0.,-0.0000036
 0,0.00000008,-0.00000004,0.00072469,-0.00000008,0.,-0.00142166,0.00000
 018,0.00000153,-0.00567395,0.00000122,-0.00000112,0.00602874,-0.000002
 66,-0.00000020,0.00606667,-0.00000074,0.00000297,-0.06038133,-0.000000
 26,0.00000014,0.00727101,-0.00000317,0.00000754,-0.06037458,-0.0000001
 9,0.00000013,0.00727067,0.00000802,-0.00001238,0.11703998,-0.00002850,
 -0.00000561,0.,-0.00006579,0.00005375,0.,0.00010657,-0.00008918,0.,-0.
 00002550,-0.00003026,0.,-0.00002766,-0.00001412,0.,0.00008053,0.000016
 65,0.,-0.00001427,-0.00000278,0.,0.00000938,0.00000515,0.,0.00001176,-
 0.00000941,0.,-0.00000912,0.00000335,0.,-0.00033025,-0.00003163,0.0000
 0001,-0.00036586,0.00124498,-0.00000004,-0.00463792,-0.00176475,-0.000
 00021,-0.01148181,0.02768536,-0.00000095,-0.00067853,-0.00073448,0.000
 00002,-0.13686047,0.12968252,-0.00000505,0.00063057,-0.00030674,0.0000
 0011,-0.00133052,-0.00306392,-0.00000006,0.00008031,0.00009656,0.00000
 001,0.00975787,-0.01447379,0.00000048,0.14369010,0.00002079,-0.0000190
 1,0.,-0.00001505,-0.00001482,0.,0.00001739,-0.00001854,0.,-0.00001209,
 0.00001196,0.,0.00002345,0.00002138,0.,-0.00005519,-0.00000796,0.,0.00
 000176,0.00000216,0.,-0.00000320,-0.00000050,0.,-0.00000273,0.00000055
 ,0.,0.00000259,-0.00000248,0.,-0.00014383,-0.00004616,0.,0.00007700,0.
 00019264,0.,-0.00142574,0.00160809,0.00000009,-0.00230769,0.00559762,-
 0.00000010,-0.00086717,0.00026160,-0.00000004,0.12684700,-0.26543074,0
 .00000791,0.00024100,0.00081666,-0.00000011,-0.00412642,-0.00304824,0.
 00000011,0.00008918,0.00000328,-0.00000002,0.01722349,-0.01944254,0.00
 000087,-0.13636890,0.27979369,0.,0.,0.00000546,0.,0.,0.00000164,0.,0.,
 -0.00000325,0.,0.,-0.00002771,0.,0.,0.00000276,0.,0.,-0.00000495,0.,0.
 ,0.00000171,0.,0.,0.00000515,0.,0.,0.00000365,0.,0.,0.00000236,0.,0.,-
 0.00016362,-0.00000003,0.00000002,0.00042166,-0.00000020,0.00000010,0.
 00716047,-0.00000025,0.00000051,0.00325729,0.00000002,-0.00000004,-0.0
 0072526,-0.00000499,0.00000799,-0.03533702,0.00000009,-0.00000013,-0.0
 0431385,-0.00000005,0.00000013,0.00536185,0.00000002,-0.00000002,-0.00
 082164,-0.00000026,0.00000020,0.00276626,0.00000558,-0.00000869,0.0246
 0203,-0.00002210,0.00001134,0.,-0.00002789,0.00002767,0.,0.00009832,0.
 00009286,0.,-0.00006129,-0.00005496,0.,-0.00003214,0.00000238,0.,0.000
 07839,0.00000948,0.,-0.00000852,-0.00000279,0.,0.00001121,0.00000992,0
 .,0.00000930,-0.00000444,0.,-0.00001482,0.00000329,0.,-0.00033465,0.00
 002271,0.,-0.00029772,-0.00127035,0.,-0.00478757,0.00142768,-0.0000002
 9,-0.00075988,0.00067942,-0.00000002,-0.01007731,-0.02852412,0.0000003
 9,-0.00171577,0.00313509,-0.00000021,0.00008834,-0.00009103,0.00000002
 ,-0.12360078,-0.12211844,0.00000106,0.00062642,0.00029803,0.00000010,0
 .00982921,0.01602445,-0.00000022,0.00067250,0.00082742,-0.00000001,0.1
 2957858,-0.00002319,0.00001781,0.,0.00000567,0.00001565,0.,-0.00000827
 ,-0.00000660,0.,0.00001729,-0.00001506,0.,-0.00002666,-0.00002224,0.,0
 .00006122,0.00001118,0.,-0.00000266,-0.00000228,0.,0.00000340,0.000001
 14,0.,0.00000360,-0.00000080,0.,-0.00000292,0.00000275,0.,0.00012599,-
 0.00004514,0.,-0.00010082,0.00011962,0.00000001,0.00108222,0.00176076,
 0.00000015,0.00081127,0.00034458,-0.00000001,0.00146489,0.00419269,0.,
 0.00420083,-0.00266302,0.00000028,-0.00008335,-0.00000683,-0.00000002,
 -0.11926095,-0.27864777,0.00000324,-0.00025248,0.00082099,-0.00000013,
 -0.01568035,-0.01951301,0.00000019,-0.00074314,-0.00092082,0.00000001,
 0.12835652,0.29386386,0.,0.,0.00000190,0.,0.,-0.00002558,0.,0.,-0.0000
 0190,0.,0.,-0.00000198,0.,0.,0.00000538,0.,0.,-0.00000362,0.,0.,0.0000
 0248,0.,0.,0.00000358,0.,0.,0.00000534,0.,0.,0.00000199,-0.00000001,0.
 ,-0.00016683,0.,-0.00000001,0.00042772,-0.00000028,0.00000014,0.007157
 17,-0.00000002,-0.00000001,-0.00072962,-0.00000030,-0.00000060,0.00325
 265,-0.00000024,0.00000026,0.00536485,0.00000002,-0.00000002,-0.000822
 65,0.00000098,0.00000319,-0.03531805,0.00000011,-0.00000012,-0.0043137
 2,0.00000051,0.00000083,0.00276335,0.00000002,0.00000005,0.00036976,-0
 .00000086,-0.00000365,0.02459460,-0.05484096,0.01388495,0.00000084,0.0
 0808464,0.00320124,-0.00000012,-0.00668784,-0.00304440,-0.00000016,0.0
 0317287,-0.00113100,0.00000004,-0.03806745,-0.01324094,-0.00000002,-0.
 28425626,-0.04593842,0.00000119,0.00109711,-0.00083499,0.,-0.00102919,
 0.00015322,0.,-0.00121727,-0.00002833,0.,0.00008371,0.00047265,-0.0000
 0005,0.00373350,-0.00007615,-0.00000008,-0.00359163,-0.00004283,0.0000
 0017,0.00292478,0.00008111,-0.00000001,-0.00083756,-0.00007573,-0.0000
 0003,-0.00083902,0.00004595,-0.00000002,-0.00011316,-0.00041957,0.0000
 0004,0.00010974,-0.00005719,0.,-0.00014524,0.00041007,-0.00000003,0.00
 010764,0.00005754,0.,0.00097103,0.00002202,0.00000002,-0.00011334,0.00
 007771,0.,-0.00011420,-0.00008415,0.,0.52185712,0.04637933,0.00872201,
 -0.00000019,-0.00265950,-0.00859338,-0.00000055,-0.00037085,0.00446073
 ,0.00000025,0.00498993,-0.00816481,-0.00000051,-0.03975099,0.00230195,
 0.00000036,-0.00751083,-0.11208955,-0.00000027,-0.00021696,0.00167294,
 0.00000012,0.00173240,0.00010017,0.,-0.00161693,0.00012871,-0.00000003
 ,0.00194730,0.00155602,0.00000013,-0.00011944,0.00051639,0.00000003,0.
 00014114,-0.00002304,-0.00000001,-0.00018060,-0.00003180,-0.00000001,0
 .00004985,-0.00000482,0.00000001,0.00006158,-0.00004482,0.,0.00001400,
 0.00003257,0.,-0.00001652,0.00001674,0.,0.00002726,-0.00001195,0.,-0.0
 0000853,-0.00000049,0.,-0.00009095,-0.00000047,0.,0.00000440,-0.000006
 05,0.,0.00001428,0.00000620,0.,-0.08516506,0.34885927,0.00000194,-0.00
 000052,0.00623122,-0.00000081,-0.00000052,0.00426572,0.00000009,0.0000
 0077,-0.00131986,0.00000068,-0.00000088,0.00655141,-0.00000218,-0.0000
 0017,0.00869818,-0.00000026,0.00000045,-0.04166158,0.,0.00000015,-0.00
 313986,-0.00000001,-0.00000001,0.00027314,-0.00000009,0.,-0.00014436,0
 .,0.00000015,-0.00275868,-0.00000004,0.00000003,-0.00040504,0.00000004
 ,-0.00000001,-0.00005234,-0.00000003,0.,0.00002568,0.,0.,0.00001504,0.
 ,0.,0.00000091,0.,0.,0.00000262,0.,0.,-0.00000929,0.,0.,0.00000565,0.,
 0.,-0.00000885,0.,0.,0.00000513,0.,0.,-0.00000296,0.,0.,-0.00000269,0.
 00000229,-0.00000427,0.06771643,-0.00065725,-0.00511069,-0.00000036,-0
 .00153475,0.00145375,0.00000020,0.00147252,0.00032766,-0.00000002,-0.0
 0067022,0.00192063,0.00000006,0.00243881,0.00043403,-0.00000015,-0.044
 26265,0.03446498,-0.00000101,-0.00001663,0.00042419,-0.00000002,-0.000
 22941,-0.00015246,0.,0.00044112,0.00007051,0.,-0.00246450,0.00085135,0
 .00000002,-0.00108290,0.00006724,0.00000006,0.00092420,0.00000359,-0.0
 0000005,-0.00073246,-0.00002369,0.,0.00020445,0.00000054,0.,0.00020436
 ,0.00000014,0.,0.00002104,0.00009645,0.,-0.00002681,0.00001665,0.,0.00
 003201,-0.00008881,0.00000001,-0.00002598,-0.00001513,0.,-0.00023990,-
 0.00000649,0.,0.00002559,-0.00001869,0.,0.00002784,0.00001985,0.,-0.11
 888954,0.04095103,-0.00000094,0.57670269,-0.00523026,0.00167119,0.0000
 0025,0.00037846,-0.00002444,-0.00000004,-0.00167968,0.00049815,0.00000
 002,0.00135960,-0.00154804,0.,-0.00958714,0.00203943,-0.00000009,0.013
 29805,0.00483813,-0.00000007,0.00006051,0.00007586,0.00000004,-0.00036
 064,0.00010533,-0.00000001,-0.00046824,-0.00012349,0.,-0.00148931,-0.0
 0084002,-0.00000013,0.00111671,-0.00011725,-0.00000002,-0.00107168,-0.
 00003665,0.00000001,0.00092520,0.00003441,0.00000003,-0.00026047,-0.00
 002355,-0.00000001,-0.00027749,0.00004089,-0.00000001,-0.00004114,-0.0
 0013902,0.00000001,0.00003745,-0.00002417,0.,-0.00004864,0.00012476,-0
 .00000001,0.00003715,0.00001575,0.,0.00031931,0.00001111,0.,-0.0000338
 4,0.00002466,0.,-0.00004118,-0.00002740,0.,0.07200400,-0.18545410,0.00
 000270,0.08069126,0.49977743,0.00000022,0.00000004,0.00292024,0.000000
 26,-0.00000006,0.00165122,0.,-0.00000019,0.00025726,-0.00000016,0.0000
 0012,0.00035859,0.00000020,0.00000018,-0.00131875,-0.00000020,-0.00000
 039,-0.00550970,-0.00000002,0.00000007,-0.00065214,0.00000004,0.,-0.00
 030901,0.00000002,0.,0.00001059,-0.00000016,0.00000004,-0.00012548,0.,
 0.,-0.00029910,0.,0.,-0.00007231,0.,0.,0.00005767,0.,0.,-0.00000931,0.
 ,0.,-0.00000500,0.,0.,0.00000168,0.,0.,0.00000581,0.,0.,-0.00000609,0.
 ,0.,0.00001242,0.,0.,-0.00000372,0.,0.,0.00000352,0.,0.,0.00000431,-0.
 00000269,0.00000335,-0.06008052,-0.00000199,0.00000277,0.57539575,-0.0
 0127819,0.00063765,0.00058464,0.00089427,0.00046459,0.00021133,0.00002
 523,-0.00090260,0.00005758,-0.00083719,0.00031222,0.00054154,0.0001184
 7,-0.00086965,-0.00017387,0.00464649,0.00132667,-0.00213435,0.00004803
 ,-0.00011782,-0.00013257,-0.00000128,0.00000466,-0.00004825,-0.0000035
 7,0.00000671,-0.00004467,-0.00182448,-0.00016366,-0.00150800,0.0000081
 1,-0.00003054,-0.00012894,0.00000335,0.00001108,-0.00001015,-0.0000155
 8,0.00000057,0.00001945,0.00000392,0.00000436,-0.00000838,0.00000480,-
 0.00000263,0.00000653,0.00000422,0.00000326,0.00000594,-0.00000109,0.0
 0000066,-0.00000014,0.00000244,-0.00000328,-0.00000687,-0.00000139,-0.
 00000110,0.00000086,-0.00001116,-0.00000113,-0.00000088,0.00000105,-0.
 00000067,0.00000034,0.00000092,0.00000070,0.00000009,-0.00164844,0.019
 63839,-0.01864084,-0.06267254,-0.02859186,0.04268140,0.06312094,0.0013
 1391,-0.00061937,-0.00042328,-0.00052308,-0.00008811,-0.00023153,0.000
 40038,0.00026319,0.00003319,0.00002926,0.00006099,0.00004474,0.0006732
 1,0.00061159,-0.00038835,-0.00631097,-0.00038273,0.00058570,-0.0000879
 2,0.00015229,0.00018572,0.00005175,-0.00002100,0.00004532,0.00006620,0
 .00002424,-0.00001376,-0.00029932,0.00037812,-0.00006740,-0.00023669,0
 .00002743,0.00001146,0.00022529,-0.00000047,0.00000337,-0.00017872,-0.
 00000626,-0.00000352,0.00005118,0.00000203,0.00000382,0.00005134,-0.00
 000228,-0.00000480,0.00000609,0.00002399,-0.00000353,-0.00000696,0.000
 00402,0.00000121,0.00000906,-0.00002249,0.00000078,-0.00000665,-0.0000
 0325,0.00000136,-0.00005858,-0.00000147,0.00000115,0.00000657,-0.00000
 466,0.00000063,0.00000705,0.00000507,0.00000068,0.00956509,-0.02892143
 ,0.02208901,-0.02549360,-0.11754614,0.10702954,0.02116562,0.13846171,-
 0.00057149,0.00004433,-0.00022217,0.00021373,-0.00004402,-0.00001626,-
 0.00011646,-0.00001463,-0.00004979,0.00013505,-0.00049644,-0.00003927,
 -0.00043717,0.00111902,-0.00004029,0.00193576,0.00038700,0.00054783,0.
 00005804,-0.00008542,-0.00000564,-0.00002046,-0.00000361,0.00000851,-0
 .00003874,0.00000471,0.00000607,-0.00021777,-0.00076293,-0.00016569,0.
 00010609,-0.00005677,0.00002248,-0.00006775,-0.00000670,-0.00000088,0.
 00005568,0.00000591,0.00000182,-0.00001446,0.00000157,0.00000071,-0.00
 001506,0.00000376,-0.00000158,0.,-0.00001042,0.00000033,0.00000095,-0.
 00000084,-0.00000129,-0.00000022,0.00000834,0.00000292,0.00000071,-0.0
 0000097,-0.00000279,0.00001297,0.00000061,-0.00000055,-0.00000101,0.00
 000126,-0.00000068,-0.00000257,-0.00000134,-0.00000104,-0.00586970,0.0
 0242597,0.00762245,0.03937640,0.10948438,-0.22955389,-0.04085676,-0.12
 436441,0.24091345,-0.00127825,0.00063757,-0.00058462,0.00089417,0.0004
 6458,-0.00021131,0.00002522,-0.00090249,-0.00005764,-0.00083703,0.0003
 1217,-0.00054153,0.00011843,-0.00086960,0.00017388,0.00464625,0.001326
 76,0.00213413,0.00004805,-0.00011784,0.00013255,-0.00000129,0.00000466
 ,0.00004826,-0.00000358,0.00000671,0.00004467,-0.00182466,-0.00016384,
 0.00150788,0.00000812,-0.00003055,0.00012893,0.00000334,0.00001107,0.0
 0001016,-0.00001557,0.00000057,-0.00001946,0.00000392,0.00000436,0.000
 00838,0.00000480,-0.00000263,-0.00000652,0.00000421,0.00000326,-0.0000
 0595,-0.00000109,0.00000066,0.00000015,0.00000244,-0.00000328,0.000006
 87,-0.00000139,-0.00000110,-0.00000086,-0.00001115,-0.00000113,0.00000
 088,0.00000105,-0.00000067,-0.00000034,0.00000092,0.00000070,-0.000000
 09,-0.00164993,0.01963850,0.01864068,-0.06266549,-0.02858198,-0.042666
 71,0.00193021,0.00227217,0.00622159,0.06311385,0.00131400,-0.00061934,
 0.00042319,-0.00052303,-0.00008813,0.00023157,0.00040037,0.00026315,-0
 .00003318,0.00002922,0.00006103,-0.00004476,0.00067327,0.00061157,0.00
 038839,-0.00631091,-0.00038308,-0.00058590,-0.00008793,0.00015233,-0.0
 0018572,0.00005176,-0.00002100,-0.00004532,0.00006621,0.00002424,0.000
 01377,-0.00029933,0.00037816,0.00006737,-0.00023669,0.00002743,-0.0000
 1144,0.00022529,-0.00000046,-0.00000338,-0.00017873,-0.00000627,0.0000
 0352,0.00005119,0.00000203,-0.00000382,0.00005134,-0.00000228,0.000004
 80,0.00000609,0.00002399,0.00000353,-0.00000696,0.00000402,-0.00000121
 ,0.00000906,-0.00002249,-0.00000078,-0.00000665,-0.00000325,-0.0000013
 6,-0.00005859,-0.00000147,-0.00000115,0.00000657,-0.00000466,-0.000000
 63,0.00000705,0.00000507,-0.00000068,0.00956722,-0.02892124,-0.0220882
 2,-0.02548447,-0.11754501,-0.10703122,0.00227095,0.01184662,0.01409050
 ,0.02115472,0.13846066,0.00057133,-0.00004425,-0.00022219,-0.00021364,
 0.00004404,-0.00001626,0.00011642,0.00001456,-0.00004978,-0.00013510,0
 .00049652,-0.00003930,0.00043717,-0.00111920,-0.00004043,-0.00193548,-
 0.00038696,0.00054776,-0.00005803,0.00008541,-0.00000563,0.00002046,0.
 00000361,0.00000851,0.00003874,-0.00000471,0.00000607,0.00021765,0.000
 76294,-0.00016540,-0.00010608,0.00005677,0.00002250,0.00006774,0.00000
 670,-0.00000089,-0.00005568,-0.00000591,0.00000181,0.00001446,-0.00000
 157,0.00000071,0.00001506,-0.00000376,-0.00000158,0.,0.00001042,0.0000
 0033,-0.00000095,0.00000084,-0.00000129,0.00000022,-0.00000834,0.00000
 293,-0.00000071,0.00000097,-0.00000279,-0.00001297,-0.00000061,-0.0000
 0055,0.00000101,-0.00000127,-0.00000068,0.00000257,0.00000134,-0.00000
 104,0.00586933,-0.00242452,0.00762475,-0.03936199,-0.10948596,-0.22956
 135,-0.00621961,-0.01409013,-0.02088141,0.04084116,0.12436568,0.240920
 99,-0.00111376,-0.00032688,-0.00000004,0.00002816,0.00036585,0.0000000
 4,-0.00006646,-0.00000235,0.,0.00003837,-0.00009411,-0.00000002,0.0001
 2862,0.00018502,0.00000002,0.00189581,0.00328218,-0.00000037,0.0000169
 9,0.00002917,0.,-0.00010418,-0.00000138,0.,-0.00004195,-0.00001209,0.,
 0.00009699,0.00002333,0.00000004,0.00012656,-0.00001066,0.,-0.00013199
 ,-0.00000242,0.,0.00012400,0.00000325,0.,-0.00003594,-0.00000481,0.,-0
 .00003620,0.00000382,0.,-0.00000743,-0.00001613,0.,0.00000644,-0.00000
 398,0.,-0.00000899,0.00001541,0.,0.00000618,0.00000420,0.,0.00005033,0
 .00000109,0.,-0.00000537,0.00000360,0.,-0.00000520,-0.00000383,0.,-0.0
 2654295,0.00200493,-0.00000054,-0.28669798,-0.09196415,-0.00001021,-0.
 00253109,-0.00278451,0.00013898,-0.00252907,-0.00278387,-0.00013941,0.
 31741101,0.00160466,0.00043677,0.,-0.00019048,-0.00050752,-0.00000006,
 -0.00007880,0.00016948,0.00000002,0.00019755,0.00047352,-0.00000002,-0
 .00020575,-0.00129087,-0.00000010,0.00195660,-0.00438214,0.00000033,-0
 .00005202,-0.00001694,0.00000002,0.00013237,0.00001455,0.,0.00006056,-
 0.00000736,0.,-0.00038741,0.00081352,0.00000006,-0.00004240,0.00005515
 ,0.00000001,0.00001389,-0.00000037,0.,-0.00000990,-0.00000354,0.,0.000
 00335,-0.00000018,0.,0.00000344,-0.00000192,0.,-0.00000220,0.00000300,
 0.,-0.00000012,-0.00000021,0.,-0.00000071,-0.00000176,0.,0.00000053,0.
 00000110,0.,0.00000273,0.00000022,0.,-0.00000004,-0.00000032,0.,0.0000
 0049,0.00000005,0.,0.04063941,0.00388665,0.00000134,-0.10541130,-0.085
 79054,-0.00000428,-0.01516350,-0.00424455,-0.00172728,-0.01516369,-0.0
 0424456,0.00172581,0.09209102,0.09463864,-0.00000008,0.00000001,0.0002
 1656,0.00000005,0.00000003,0.00001135,0.,-0.00000004,-0.00007656,-0.00
 000005,0.00000001,0.00020426,0.00000007,-0.00000003,0.00030597,0.00000
 022,0.00000003,0.00060397,0.,0.,0.00001867,0.,0.,-0.00004368,0.,0.,0.0
 0003062,0.00000004,0.00000003,-0.00046487,0.,0.,-0.00001365,0.,0.,-0.0
 0000983,0.,0.,0.00000656,0.,0.,-0.00000698,0.,0.,-0.00000060,0.,0.,0.0
 0000399,0.,0.,0.00000073,0.,0.,-0.00000060,0.,0.,0.00000052,0.,0.,0.00
 000010,0.,0.,0.00000061,0.,0.,0.00000029,-0.00000095,0.00000014,0.0005
 4787,-0.00001024,-0.00000383,-0.05317149,0.02580460,0.00955316,0.00185
 633,-0.02580517,-0.00955366,0.00185388,0.00001152,0.00000415,0.0481265
 3,-0.00033981,0.00032910,0.00000001,0.00000523,0.00026488,0.,0.0003468
 8,0.00005335,0.,0.00005906,-0.00025844,0.,-0.00039053,-0.00037721,0.,0
 .00108227,0.00019408,-0.00000002,-0.00005500,-0.00004214,0.,0.00006550
 ,0.00002926,0.,0.00006405,-0.00002856,0.,-0.00006285,0.00004846,0.,-0.
 00029981,-0.00003369,-0.00000004,0.00031499,-0.00000366,0.00000006,-0.
 00142086,-0.00007774,-0.00000002,0.00330983,-0.00461127,0.00000008,0.0
 0313736,0.00498867,-0.00000016,-0.03719229,-0.00122492,-0.00000082,-0.
 00139861,0.00026185,-0.00000004,-0.03864306,-0.00097656,-0.00000086,-0
 .00143254,-0.00034003,-0.00000002,-0.15390916,-0.00303425,-0.00000264,
 0.00090763,-0.00010435,0.00000008,0.00083788,0.00011865,0.00000007,-0.
 00155814,0.00011285,0.00000002,0.00037439,-0.00050000,0.,0.00001354,0.
 00009283,-0.00002633,0.00001353,0.00009284,0.00002633,-0.00007088,0.00
 000175,0.,0.22624143,-0.00000414,0.00001373,0.,-0.00000452,-0.00000451
 ,0.,0.00000879,-0.00001098,0.,0.00000859,-0.00001841,0.,-0.00001725,-0
 .00000407,0.,0.00003020,0.00000386,0.,0.00000028,-0.00000121,0.,0.0000
 0458,0.00000526,0.,-0.00000112,0.00000341,0.,-0.00000326,0.00000136,0.
 ,-0.00001097,0.00000219,0.00000001,0.00000182,0.00028951,-0.00000002,-
 0.00008780,0.00194078,-0.00000008,0.00189834,-0.00414014,0.00000024,-0
 .00151293,-0.00397459,0.00000018,-0.02822232,0.00263739,-0.00000055,-0
 .00097047,0.00008421,-0.00000002,0.02603150,0.00408536,0.00000052,0.00
 089051,0.00011756,0.00000002,-0.00304802,-0.03994897,0.00000036,-0.001
 13328,0.00063317,-0.00000010,0.00115017,0.00070359,-0.00000005,-0.0000
 4341,0.00000760,0.,0.00001147,-0.00001728,0.,0.00000035,0.00000290,-0.
 00000158,0.00000035,0.00000290,0.00000158,-0.00000170,0.00000014,0.,0.
 00502424,0.03758522,0.,0.,-0.00000922,0.,0.,0.00001592,0.,0.,0.0000498
 3,0.,0.,0.00002371,0.,0.,-0.00001630,0.00000002,0.,0.00000947,0.,0.,-0
 .00000129,0.,0.,-0.00000301,0.,0.,-0.00000341,0.,0.,-0.00000115,0.,0.,
 -0.00003610,0.00000002,-0.00000002,-0.00067559,-0.00000001,-0.00000006
 ,-0.00077362,-0.00000007,0.00000012,0.00467962,-0.00000001,0.00000029,
 0.00468546,-0.00000019,0.,0.00377443,0.,0.,0.00011765,-0.00000146,-0.0
 0000003,0.00376512,-0.00000005,0.,0.00011996,-0.00000264,0.00000036,-0
 .02186228,0.00000010,-0.00000008,-0.00256457,0.00000004,-0.00000008,-0
 .00256668,-0.00000003,0.,-0.00000017,0.,0.,-0.00000117,-0.00000003,-0.
 00000011,0.00000034,0.00000003,0.00000011,0.00000034,0.,0.,-0.00000053
 ,0.00000430,-0.00000050,0.01127325\\-0.00002724,0.00000355,0.00000019,
 0.00000664,0.00000677,-0.00000005,0.00000470,-0.00000644,-0.00000055,-
 0.00001253,0.00000657,-0.00000007,0.00000825,0.00000794,-0.00000007,0.
 00002741,-0.00000503,0.00000049,0.00000173,-0.00000025,0.00000004,0.00
 000025,0.00000018,0.,0.00000305,-0.00000068,-0.00000001,-0.00000063,-0
 .00000324,0.,-0.00000319,0.00000089,0.00000013,0.00001105,-0.00000106,
 0.00000120,-0.00001958,-0.00000004,-0.00000079,0.00000378,0.00000337,-
 0.00000012,0.00000429,-0.00000267,-0.00000006,0.00000069,-0.00000045,0
 .00000010,0.00000017,-0.00000172,-0.00000002,0.00000014,0.00000137,0.0
 0000008,-0.00000017,0.00000203,-0.00000001,0.00002254,0.00000077,-0.00
 000003,-0.00000269,0.00000025,0.00000001,-0.00000282,0.00000015,0.0000
 0002,-0.00002662,-0.00000787,-0.00000084,0.00001106,0.00000570,0.00000
 048,-0.00000009,-0.00000074,-0.00000084,0.00000012,-0.00000069,0.00000
 073,0.00000737,-0.00000858,0.00000002,-0.00001768,-0.00000009,0.\\\@


 A MAN IS NEVER SO BRILLIANT AS WHEN HE TAKES THE WORDS RIGHT OUT
 OF YOUR MOUTH. -- ARNOT SHEPPARD, JR.
 Job cpu time:       0 days  2 hours 19 minutes 43.6 seconds.
 Elapsed time:       0 days  0 hours  4 minutes 39.5 seconds.
 File lengths (MBytes):  RWF=    364 Int=      0 D2E=      0 Chk=     11 Scr=      1
 Normal termination of Gaussian 16 at Mon Sep 18 04:14:21 2023.
