 Entering Gaussian System, Link 0=/home/ubuntu/g16/g16
 Input=/home/ubuntu/products/molecule_25.gjf
 Output=/home/ubuntu/products/molecule_25.log
 Initial command:
 /home/ubuntu/g16/l1.exe "/home/ubuntu/Scratch/Gau-9283.inp" -scrdir="/home/ubuntu/Scratch/"
 Entering Link 1 = /home/ubuntu/g16/l1.exe PID=      9285.
  
 Copyright (c) 1988-2017, Gaussian, Inc.  All Rights Reserved.
  
 This is part of the Gaussian(R) 16 program.  It is based on
 the Gaussian(R) 09 system (copyright 2009, Gaussian, Inc.),
 the Gaussian(R) 03 system (copyright 2003, Gaussian, Inc.),
 the Gaussian(R) 98 system (copyright 1998, Gaussian, Inc.),
 the Gaussian(R) 94 system (copyright 1995, Gaussian, Inc.),
 the Gaussian 92(TM) system (copyright 1992, Gaussian, Inc.),
 the Gaussian 90(TM) system (copyright 1990, Gaussian, Inc.),
 the Gaussian 88(TM) system (copyright 1988, Gaussian, Inc.),
 the Gaussian 86(TM) system (copyright 1986, Carnegie Mellon
 University), and the Gaussian 82(TM) system (copyright 1983,
 Carnegie Mellon University). Gaussian is a federally registered
 trademark of Gaussian, Inc.
  
 This software contains proprietary and confidential information,
 including trade secrets, belonging to Gaussian, Inc.
  
 This software is provided under written license and may be
 used, copied, transmitted, or stored only in accord with that
 written license.
  
 The following legend is applicable only to US Government
 contracts under FAR:
  
                    RESTRICTED RIGHTS LEGEND
  
 Use, reproduction and disclosure by the US Government is
 subject to restrictions as set forth in subparagraphs (a)
 and (c) of the Commercial Computer Software - Restricted
 Rights clause in FAR 52.227-19.
  
 Gaussian, Inc.
 340 Quinnipiac St., Bldg. 40, Wallingford CT 06492
  
  
 ---------------------------------------------------------------
 Warning -- This program may not be used in any manner that
 competes with the business of Gaussian, Inc. or will provide
 assistance to any competitor of Gaussian, Inc.  The licensee
 of this program is prohibited from giving any competitor of
 Gaussian, Inc. access to this program.  By using this program,
 the user acknowledges that Gaussian, Inc. is engaged in the
 business of creating and licensing software in the field of
 computational chemistry and represents and warrants to the
 licensee that it is not a competitor of Gaussian, Inc. and that
 it will not use this program in any manner prohibited above.
 ---------------------------------------------------------------
  

 Cite this work as:
 Gaussian 16, Revision B.01,
 M. J. Frisch, G. W. Trucks, H. B. Schlegel, G. E. Scuseria, 
 M. A. Robb, J. R. Cheeseman, G. Scalmani, V. Barone, 
 G. A. Petersson, H. Nakatsuji, X. Li, M. Caricato, A. V. Marenich, 
 J. Bloino, B. G. Janesko, R. Gomperts, B. Mennucci, H. P. Hratchian, 
 J. V. Ortiz, A. F. Izmaylov, J. L. Sonnenberg, D. Williams-Young, 
 F. Ding, F. Lipparini, F. Egidi, J. Goings, B. Peng, A. Petrone, 
 T. Henderson, D. Ranasinghe, V. G. Zakrzewski, J. Gao, N. Rega, 
 G. Zheng, W. Liang, M. Hada, M. Ehara, K. Toyota, R. Fukuda, 
 J. Hasegawa, M. Ishida, T. Nakajima, Y. Honda, O. Kitao, H. Nakai, 
 T. Vreven, K. Throssell, J. A. Montgomery, Jr., J. E. Peralta, 
 F. Ogliaro, M. J. Bearpark, J. J. Heyd, E. N. Brothers, K. N. Kudin, 
 V. N. Staroverov, T. A. Keith, R. Kobayashi, J. Normand, 
 K. Raghavachari, A. P. Rendell, J. C. Burant, S. S. Iyengar, 
 J. Tomasi, M. Cossi, J. M. Millam, M. Klene, C. Adamo, R. Cammi, 
 J. W. Ochterski, R. L. Martin, K. Morokuma, O. Farkas, 
 J. B. Foresman, and D. J. Fox, Gaussian, Inc., Wallingford CT, 2016.
 
 ******************************************
 Gaussian 16:  EM64L-G16RevB.01 20-Dec-2017
                18-Sep-2023 
 ******************************************
 %nprocshared=30
 Will use up to   30 processors via shared memory.
 %mem=30GB
 %chk=molecule_25.chk
 ---------------------------------------------------------
 # opt freq b3lyp/6-31+g(d) empiricaldispersion=gd3 volume
 ---------------------------------------------------------
 1/18=20,19=15,26=3,38=1/1,3;
 2/9=110,12=2,17=6,18=5,40=1/2;
 3/5=1,6=6,7=11,11=2,25=1,30=1,71=1,74=-5,124=31/1,2,3;
 4//1;
 5/5=2,38=5/2;
 6/7=2,8=2,9=2,10=2,28=1,44=1/1,4;
 7//1,2,3,16;
 1/18=20,19=15,26=3/3(2);
 2/9=110/2;
 99//99;
 2/9=110/2;
 3/5=1,6=6,7=11,11=2,25=1,30=1,71=1,74=-5,124=31/1,2,3;
 4/5=5,16=3,69=1/1;
 5/5=2,38=5/2;
 7//1,2,3,16;
 1/18=20,19=15,26=3/3(-5);
 2/9=110/2;
 6/7=2,8=2,9=2,10=2,19=2,28=1,44=1/1,4;
 99/9=1/99;
 -------------------
 Title Card Required
 -------------------
 Symbolic Z-matrix:
 Charge =  0 Multiplicity = 1
 C                     4.17853  -1.22016   0.00196 
 C                     2.78362  -1.217     0.00043 
 C                     2.06314   0.00004  -0.00029 
 C                     2.7837    1.21705   0.00053 
 C                     4.17858   1.22011   0.00205 
 C                     4.84763  -0.00005   0.00274 
 H                     4.7443   -2.14352   0.00254 
 H                     2.23923  -2.15438  -0.0002 
 H                     2.23933   2.15445  -0.00002 
 H                     4.74447   2.14341   0.0027 
 C                     0.6388    0.0001   -0.00185 
 C                    -0.58128   0.0001   -0.00305 
 C                    -2.006     0.00005  -0.00382 
 C                    -2.72976  -1.21301  -0.0062 
 C                    -2.72985   1.21307  -0.0063 
 C                    -4.1238   -1.20596  -0.00936 
 H                    -2.18761  -2.15263  -0.00908 
 C                    -4.12388   1.20592  -0.00946 
 H                    -2.18776   2.15272  -0.00925 
 C                    -4.84681  -0.00005  -0.00796 
 H                    -4.66246  -2.14939  -0.01459 
 H                    -4.66261   2.1493   -0.01474 
 C                    -6.35827  -0.00008   0.02271 
 H                    -6.73229   0.00076   1.05588 
 H                    -6.76967   0.88591  -0.4728 
 H                    -6.76961  -0.88688  -0.47138 
 F                     6.23984  -0.00006   0.00423 
 

 GradGradGradGradGradGradGradGradGradGradGradGradGradGradGradGradGradGrad
 Berny optimization.
 Initialization pass.
                           ----------------------------
                           !    Initial Parameters    !
                           ! (Angstroms and Degrees)  !
 --------------------------                            --------------------------
 ! Name  Definition              Value          Derivative Info.                !
 --------------------------------------------------------------------------------
 ! R1    R(1,2)                  1.3949         estimate D2E/DX2                !
 ! R2    R(1,6)                  1.3915         estimate D2E/DX2                !
 ! R3    R(1,7)                  1.0829         estimate D2E/DX2                !
 ! R4    R(2,3)                  1.4143         estimate D2E/DX2                !
 ! R5    R(2,8)                  1.084          estimate D2E/DX2                !
 ! R6    R(3,4)                  1.4143         estimate D2E/DX2                !
 ! R7    R(3,11)                 1.4243         estimate D2E/DX2                !
 ! R8    R(4,5)                  1.3949         estimate D2E/DX2                !
 ! R9    R(4,9)                  1.084          estimate D2E/DX2                !
 ! R10   R(5,6)                  1.3916         estimate D2E/DX2                !
 ! R11   R(5,10)                 1.0829         estimate D2E/DX2                !
 ! R12   R(6,27)                 1.3922         estimate D2E/DX2                !
 ! R13   R(11,12)                1.2201         estimate D2E/DX2                !
 ! R14   R(12,13)                1.4247         estimate D2E/DX2                !
 ! R15   R(13,14)                1.4126         estimate D2E/DX2                !
 ! R16   R(13,15)                1.4126         estimate D2E/DX2                !
 ! R17   R(14,16)                1.3941         estimate D2E/DX2                !
 ! R18   R(14,17)                1.0848         estimate D2E/DX2                !
 ! R19   R(15,18)                1.3941         estimate D2E/DX2                !
 ! R20   R(15,19)                1.0848         estimate D2E/DX2                !
 ! R21   R(16,20)                1.406          estimate D2E/DX2                !
 ! R22   R(16,21)                1.0864         estimate D2E/DX2                !
 ! R23   R(18,20)                1.4061         estimate D2E/DX2                !
 ! R24   R(18,22)                1.0864         estimate D2E/DX2                !
 ! R25   R(20,23)                1.5118         estimate D2E/DX2                !
 ! R26   R(23,24)                1.0988         estimate D2E/DX2                !
 ! R27   R(23,25)                1.0953         estimate D2E/DX2                !
 ! R28   R(23,26)                1.0953         estimate D2E/DX2                !
 ! A1    A(2,1,6)              118.6104         estimate D2E/DX2                !
 ! A2    A(2,1,7)              121.6271         estimate D2E/DX2                !
 ! A3    A(6,1,7)              119.7625         estimate D2E/DX2                !
 ! A4    A(1,2,3)              120.755          estimate D2E/DX2                !
 ! A5    A(1,2,8)              120.016          estimate D2E/DX2                !
 ! A6    A(3,2,8)              119.2289         estimate D2E/DX2                !
 ! A7    A(2,3,4)              118.7463         estimate D2E/DX2                !
 ! A8    A(2,3,11)             120.6275         estimate D2E/DX2                !
 ! A9    A(4,3,11)             120.6262         estimate D2E/DX2                !
 ! A10   A(3,4,5)              120.7543         estimate D2E/DX2                !
 ! A11   A(3,4,9)              119.2269         estimate D2E/DX2                !
 ! A12   A(5,4,9)              120.0189         estimate D2E/DX2                !
 ! A13   A(4,5,6)              118.6113         estimate D2E/DX2                !
 ! A14   A(4,5,10)             121.6296         estimate D2E/DX2                !
 ! A15   A(6,5,10)             119.7592         estimate D2E/DX2                !
 ! A16   A(1,6,5)              122.5228         estimate D2E/DX2                !
 ! A17   A(1,6,27)             118.7399         estimate D2E/DX2                !
 ! A18   A(5,6,27)             118.7373         estimate D2E/DX2                !
 ! A19   A(12,13,14)           120.8242         estimate D2E/DX2                !
 ! A20   A(12,13,15)           120.8239         estimate D2E/DX2                !
 ! A21   A(14,13,15)           118.3516         estimate D2E/DX2                !
 ! A22   A(13,14,16)           120.5324         estimate D2E/DX2                !
 ! A23   A(13,14,17)           119.1938         estimate D2E/DX2                !
 ! A24   A(16,14,17)           120.2734         estimate D2E/DX2                !
 ! A25   A(13,15,18)           120.5323         estimate D2E/DX2                !
 ! A26   A(13,15,19)           119.1934         estimate D2E/DX2                !
 ! A27   A(18,15,19)           120.2739         estimate D2E/DX2                !
 ! A28   A(14,16,20)           121.2346         estimate D2E/DX2                !
 ! A29   A(14,16,21)           119.4349         estimate D2E/DX2                !
 ! A30   A(20,16,21)           119.3304         estimate D2E/DX2                !
 ! A31   A(15,18,20)           121.2346         estimate D2E/DX2                !
 ! A32   A(15,18,22)           119.4354         estimate D2E/DX2                !
 ! A33   A(20,18,22)           119.3299         estimate D2E/DX2                !
 ! A34   A(16,20,18)           118.1137         estimate D2E/DX2                !
 ! A35   A(16,20,23)           120.9384         estimate D2E/DX2                !
 ! A36   A(18,20,23)           120.9364         estimate D2E/DX2                !
 ! A37   A(20,23,24)           111.0632         estimate D2E/DX2                !
 ! A38   A(20,23,25)           111.4887         estimate D2E/DX2                !
 ! A39   A(20,23,26)           111.489          estimate D2E/DX2                !
 ! A40   A(24,23,25)           107.2723         estimate D2E/DX2                !
 ! A41   A(24,23,26)           107.2738         estimate D2E/DX2                !
 ! A42   A(25,23,26)           108.0453         estimate D2E/DX2                !
 ! A43   L(3,11,12,8,-1)       179.9978         estimate D2E/DX2                !
 ! A44   L(11,12,13,17,-1)     179.9978         estimate D2E/DX2                !
 ! A45   L(3,11,12,8,-2)       179.9923         estimate D2E/DX2                !
 ! A46   L(11,12,13,17,-2)     179.9684         estimate D2E/DX2                !
 ! D1    D(6,1,2,3)             -0.0011         estimate D2E/DX2                !
 ! D2    D(6,1,2,8)           -179.9997         estimate D2E/DX2                !
 ! D3    D(7,1,2,3)            179.9991         estimate D2E/DX2                !
 ! D4    D(7,1,2,8)              0.0005         estimate D2E/DX2                !
 ! D5    D(2,1,6,5)             -0.0001         estimate D2E/DX2                !
 ! D6    D(2,1,6,27)          -179.9984         estimate D2E/DX2                !
 ! D7    D(7,1,6,5)            179.9997         estimate D2E/DX2                !
 ! D8    D(7,1,6,27)             0.0013         estimate D2E/DX2                !
 ! D9    D(1,2,3,4)              0.0017         estimate D2E/DX2                !
 ! D10   D(1,2,3,11)          -179.9997         estimate D2E/DX2                !
 ! D11   D(8,2,3,4)           -179.9997         estimate D2E/DX2                !
 ! D12   D(8,2,3,11)            -0.0012         estimate D2E/DX2                !
 ! D13   D(2,3,4,5)             -0.0012         estimate D2E/DX2                !
 ! D14   D(2,3,4,9)            179.9994         estimate D2E/DX2                !
 ! D15   D(11,3,4,5)          -179.9997         estimate D2E/DX2                !
 ! D16   D(11,3,4,9)             0.0009         estimate D2E/DX2                !
 ! D17   D(2,3,13,14)           -0.0873         estimate D2E/DX2                !
 ! D18   D(2,3,13,15)         -179.9171         estimate D2E/DX2                !
 ! D19   D(4,3,13,14)          179.9264         estimate D2E/DX2                !
 ! D20   D(4,3,13,15)            0.0966         estimate D2E/DX2                !
 ! D21   D(3,4,5,6)              0.0            estimate D2E/DX2                !
 ! D22   D(3,4,5,10)          -180.0            estimate D2E/DX2                !
 ! D23   D(9,4,5,6)            179.9994         estimate D2E/DX2                !
 ! D24   D(9,4,5,10)            -0.0005         estimate D2E/DX2                !
 ! D25   D(4,5,6,1)              0.0006         estimate D2E/DX2                !
 ! D26   D(4,5,6,27)           179.999          estimate D2E/DX2                !
 ! D27   D(10,5,6,1)          -179.9994         estimate D2E/DX2                !
 ! D28   D(10,5,6,27)           -0.001          estimate D2E/DX2                !
 ! D29   D(12,13,14,16)       -179.8846         estimate D2E/DX2                !
 ! D30   D(12,13,14,17)         -0.0989         estimate D2E/DX2                !
 ! D31   D(15,13,14,16)         -0.0724         estimate D2E/DX2                !
 ! D32   D(15,13,14,17)        179.7133         estimate D2E/DX2                !
 ! D33   D(12,13,15,18)        179.8845         estimate D2E/DX2                !
 ! D34   D(12,13,15,19)          0.0989         estimate D2E/DX2                !
 ! D35   D(14,13,15,18)          0.0722         estimate D2E/DX2                !
 ! D36   D(14,13,15,19)       -179.7134         estimate D2E/DX2                !
 ! D37   D(13,14,16,20)         -0.1101         estimate D2E/DX2                !
 ! D38   D(13,14,16,21)        179.7926         estimate D2E/DX2                !
 ! D39   D(17,14,16,20)       -179.8935         estimate D2E/DX2                !
 ! D40   D(17,14,16,21)          0.0093         estimate D2E/DX2                !
 ! D41   D(13,15,18,20)          0.1104         estimate D2E/DX2                !
 ! D42   D(13,15,18,22)       -179.7937         estimate D2E/DX2                !
 ! D43   D(19,15,18,20)        179.8936         estimate D2E/DX2                !
 ! D44   D(19,15,18,22)         -0.0104         estimate D2E/DX2                !
 ! D45   D(14,16,20,18)          0.2864         estimate D2E/DX2                !
 ! D46   D(14,16,20,23)       -178.492          estimate D2E/DX2                !
 ! D47   D(21,16,20,18)       -179.6165         estimate D2E/DX2                !
 ! D48   D(21,16,20,23)          1.6051         estimate D2E/DX2                !
 ! D49   D(15,18,20,16)         -0.2865         estimate D2E/DX2                !
 ! D50   D(15,18,20,23)        178.4919         estimate D2E/DX2                !
 ! D51   D(22,18,20,16)        179.6177         estimate D2E/DX2                !
 ! D52   D(22,18,20,23)         -1.6039         estimate D2E/DX2                !
 ! D53   D(16,20,23,24)         89.4165         estimate D2E/DX2                !
 ! D54   D(16,20,23,25)       -151.0087         estimate D2E/DX2                !
 ! D55   D(16,20,23,26)        -30.1603         estimate D2E/DX2                !
 ! D56   D(18,20,23,24)        -89.3273         estimate D2E/DX2                !
 ! D57   D(18,20,23,25)         30.2475         estimate D2E/DX2                !
 ! D58   D(18,20,23,26)        151.0959         estimate D2E/DX2                !
 --------------------------------------------------------------------------------
 Trust Radius=3.00D-01 FncErr=1.00D-07 GrdErr=1.00D-06 EigMax=2.50D+02 EigMin=1.00D-04
 Number of steps in this run=    142 maximum allowed number of steps=    162.
 GradGradGradGradGradGradGradGradGradGradGradGradGradGradGradGradGradGrad

                          Input orientation:                          
 ---------------------------------------------------------------------
 Center     Atomic      Atomic             Coordinates (Angstroms)
 Number     Number       Type             X           Y           Z
 ---------------------------------------------------------------------
      1          6           0        4.178527   -1.220160    0.001960
      2          6           0        2.783616   -1.216998    0.000431
      3          6           0        2.063141    0.000039   -0.000289
      4          6           0        2.783700    1.217053    0.000533
      5          6           0        4.178585    1.220113    0.002050
      6          6           0        4.847630   -0.000054    0.002739
      7          1           0        4.744301   -2.143519    0.002542
      8          1           0        2.239229   -2.154384   -0.000196
      9          1           0        2.239334    2.154453   -0.000020
     10          1           0        4.744466    2.143407    0.002695
     11          6           0        0.638801    0.000098   -0.001845
     12          6           0       -0.581279    0.000101   -0.003046
     13          6           0       -2.005998    0.000049   -0.003819
     14          6           0       -2.729758   -1.213007   -0.006201
     15          6           0       -2.729848    1.213066   -0.006296
     16          6           0       -4.123802   -1.205957   -0.009364
     17          1           0       -2.187613   -2.152627   -0.009083
     18          6           0       -4.123881    1.205917   -0.009461
     19          1           0       -2.187762    2.152718   -0.009251
     20          6           0       -4.846813   -0.000051   -0.007963
     21          1           0       -4.662457   -2.149386   -0.014586
     22          1           0       -4.662612    2.149304   -0.014739
     23          6           0       -6.358275   -0.000077    0.022712
     24          1           0       -6.732287    0.000757    1.055879
     25          1           0       -6.769668    0.885910   -0.472802
     26          1           0       -6.769613   -0.886879   -0.471378
     27          9           0        6.239844   -0.000062    0.004232
 ---------------------------------------------------------------------
                    Distance matrix (angstroms):
                    1          2          3          4          5
     1  C    0.000000
     2  C    1.394915   0.000000
     3  C    2.442079   1.414307   0.000000
     4  C    2.808122   2.434051   1.414330   0.000000
     5  C    2.440273   2.808105   2.442067   1.394889   0.000000
     6  C    1.391531   2.396062   2.784491   2.396072   1.391556
     7  H    1.082909   2.168578   3.432706   3.890682   3.410873
     8  H    2.152593   1.083997   2.161607   3.415119   3.892086
     9  H    3.892106   3.415102   2.161607   1.083999   2.152601
    10  H    3.410846   3.890663   3.432716   2.168580   1.082910
    11  C    3.744156   2.466082   1.424341   2.466085   3.744132
    12  C    4.913737   3.578248   2.644421   3.578277   4.913732
    13  C    6.303752   4.941824   4.069141   4.941895   6.303781
    14  C    6.908294   5.513379   4.944026   6.025235   7.324298
    15  C    7.324364   6.025242   4.944109   5.513554   6.908442
    16  C    8.302349   6.907434   6.303394   7.320154   8.649600
    17  H    6.434078   5.058519   4.764762   6.005730   7.204441
    18  C    8.649622   7.320118   6.303449   6.907597   8.302486
    19  H    7.204587   6.005804   4.764901   5.058755   6.434303
    20  C    9.107443   7.726867   6.909958   7.726975   9.107508
    21  H    8.889698   7.504237   7.060729   8.171805   9.461386
    22  H    9.461464   8.171813   7.060829   7.504458   8.889907
    23  C   10.607225   9.222557   8.421447   9.222668  10.607295
    24  H   11.029381   9.651389   8.858614   9.651277  11.029257
    25  H   11.159028   9.793437   8.889688   9.570817  10.963641
    26  H   10.963434   9.570568   8.889662   9.793621  11.159148
    27  F    2.395344   3.664213   4.176705   3.664193   2.395333
                    6          7          8          9         10
     6  C    0.000000
     7  H    2.145954   0.000000
     8  H    3.383032   2.505097   0.000000
     9  H    3.383063   4.974679   4.308837   0.000000
    10  H    2.145942   4.286926   4.974659   2.505158   0.000000
    11  C    4.208831   4.631441   2.683871   2.683832   4.631445
    12  C    5.428912   5.740814   3.549236   3.549239   5.740850
    13  C    6.853631   7.082476   4.760625   4.760705   7.082569
    14  C    7.673861   7.531765   5.057377   6.002641   8.193267
    15  C    7.673976   8.193268   6.002623   5.057570   7.531997
    16  C    9.052124   8.917534   6.433332   7.195967   9.479692
    17  H    7.357197   6.931930   4.426851   6.176478   8.155352
    18  C    9.052211   9.479637   7.195893   6.433531   8.917770
    19  H    7.357398   8.155445   6.176525   4.427106   6.932245
    20  C    9.694449   9.827718   7.406295   7.406445   9.827877
    21  H    9.749958   9.406775   6.901703   8.133754  10.340144
    22  H    9.750115  10.340147   8.133717   6.901964   9.407096
    23  C   11.205923  11.307606   8.863331   8.863487  11.307775
    24  H   11.627708  11.722607   9.286982   9.286728  11.722457
    25  H   11.660733  11.915321   9.519820   9.110150  11.592354
    26  H   11.660685  11.591978   9.109765   9.520137  11.915595
    27  F    1.392215   2.613630   4.543792   4.543791   2.613545
                   11         12         13         14         15
    11  C    0.000000
    12  C    1.220081   0.000000
    13  C    2.644800   1.424719   0.000000
    14  C    3.580340   2.467307   1.412565   0.000000
    15  C    3.580378   2.467315   1.412578   2.426073   0.000000
    16  C    4.912943   3.742203   2.437124   1.394065   2.791915
    17  H    3.552871   2.685998   2.160330   1.084811   3.409093
    18  C    4.912962   3.742200   2.437125   2.791914   1.394055
    19  H    3.552926   2.685998   2.160336   3.409087   1.084810
    20  C    5.485617   4.265537   2.840818   2.439915   2.439917
    21  H    5.720470   4.612639   3.417157   2.147604   3.878290
    22  H    5.720510   4.612645   3.417165   3.878290   2.147601
    23  C    6.997119   5.777053   4.352358   3.825986   3.825969
    24  H    7.446591   6.241492   4.843632   4.315261   4.314792
    25  H    7.476087   6.269090   4.867982   4.576466   4.079804
    26  H    7.476081   6.269095   4.867985   4.079605   4.576655
    27  F    5.601046   6.821127   8.245846   9.051249   9.051363
                   16         17         18         19         20
    16  C    0.000000
    17  H    2.155229   0.000000
    18  C    2.411874   3.876719   0.000000
    19  H    3.876719   4.305345   2.155224   0.000000
    20  C    1.406043   3.421247   1.406055   3.421252   0.000000
    21  H    1.086386   2.474852   3.398257   4.963088   2.157237
    22  H    3.398253   4.963090   1.086388   2.474858   2.157244
    23  C    2.539300   4.693496   2.539286   4.693477   1.511773
    24  H    3.065142   5.140551   3.064497   5.139859   2.164896
    25  H    3.404598   5.517515   2.705047   4.776353   2.167573
    26  H    2.704734   4.776040   3.404858   5.517796   2.167574
    27  F   10.433577   8.698031  10.433665   8.698229  11.086664
                   21         22         23         24         25
    21  H    0.000000
    22  H    4.298690   0.000000
    23  C    2.738014   2.737976   0.000000
    24  H    3.170679   3.169548   1.098781   0.000000
    25  H    3.723348   2.499134   1.095332   1.766850   0.000000
    26  H    2.498537   3.723759   1.095327   1.766863   1.772790
    27  F   11.112161  11.112321  12.598133  13.014690  13.048368
                   26         27
    26  H    0.000000
    27  F   13.048319   0.000000
 Stoichiometry    C15H11F
 Framework group  C1[X(C15H11F)]
 Deg. of freedom    75
 Full point group                 C1      NOp   1
 Largest Abelian subgroup         C1      NOp   1
 Largest concise Abelian subgroup C1      NOp   1
                         Standard orientation:                         
 ---------------------------------------------------------------------
 Center     Atomic      Atomic             Coordinates (Angstroms)
 Number     Number       Type             X           Y           Z
 ---------------------------------------------------------------------
      1          6           0       -4.178527    1.220160    0.001960
      2          6           0       -2.783616    1.216998    0.000431
      3          6           0       -2.063141   -0.000039   -0.000289
      4          6           0       -2.783700   -1.217053    0.000533
      5          6           0       -4.178585   -1.220113    0.002050
      6          6           0       -4.847630    0.000054    0.002739
      7          1           0       -4.744301    2.143519    0.002542
      8          1           0       -2.239229    2.154384   -0.000196
      9          1           0       -2.239334   -2.154453   -0.000020
     10          1           0       -4.744466   -2.143407    0.002695
     11          6           0       -0.638801   -0.000098   -0.001845
     12          6           0        0.581279   -0.000101   -0.003046
     13          6           0        2.005998   -0.000049   -0.003819
     14          6           0        2.729758    1.213007   -0.006201
     15          6           0        2.729848   -1.213066   -0.006296
     16          6           0        4.123802    1.205957   -0.009364
     17          1           0        2.187613    2.152627   -0.009083
     18          6           0        4.123881   -1.205917   -0.009461
     19          1           0        2.187762   -2.152718   -0.009251
     20          6           0        4.846813    0.000051   -0.007963
     21          1           0        4.662457    2.149386   -0.014586
     22          1           0        4.662612   -2.149304   -0.014739
     23          6           0        6.358275    0.000077    0.022712
     24          1           0        6.732287   -0.000757    1.055879
     25          1           0        6.769668   -0.885910   -0.472802
     26          1           0        6.769613    0.886879   -0.471378
     27          9           0       -6.239844    0.000062    0.004232
 ---------------------------------------------------------------------
 Rotational constants (GHZ):           2.7778524           0.1515648           0.1438526
 Standard basis: 6-31+G(d) (6D, 7F)
 There are   326 symmetry adapted cartesian basis functions of A   symmetry.
 There are   326 symmetry adapted basis functions of A   symmetry.
   326 basis functions,   556 primitive gaussians,   326 cartesian basis functions
    55 alpha electrons       55 beta electrons
       nuclear repulsion energy       873.7631891445 Hartrees.
 NAtoms=   27 NActive=   27 NUniq=   27 SFac= 1.00D+00 NAtFMM=   60 NAOKFM=F Big=F
 Integral buffers will be    131072 words long.
 Raffenetti 2 integral format.
 Two-electron integral symmetry is turned on.
 Nuclear repulsion after empirical dispersion term =      873.7454222571 Hartrees.
 One-electron integrals computed using PRISM.
 NBasis=   326 RedAO= T EigKep=  2.29D-06  NBF=   326
 NBsUse=   322 1.00D-06 EigRej=  5.88D-07 NBFU=   322
 ExpMin= 4.38D-02 ExpMax= 7.00D+03 ExpMxC= 1.05D+03 IAcc=3 IRadAn=         5 AccDes= 0.00D+00
 Harris functional with IExCor=  402 and IRadAn=       5 diagonalized for initial guess.
 HarFok:  IExCor=  402 AccDes= 0.00D+00 IRadAn=         5 IDoV= 1 UseB2=F ITyADJ=14
 ICtDFT=  3500011 ScaDFX=  1.000000  1.000000  1.000000  1.000000
 FoFCou: FMM=F IPFlag=           0 FMFlag=      100000 FMFlg1=           0
         NFxFlg=           0 DoJE=T BraDBF=F KetDBF=T FulRan=T
         wScrn=  0.000000 ICntrl=       500 IOpCl=  0 I1Cent=   200000004 NGrid=           0
         NMat0=    1 NMatS0=      1 NMatT0=    0 NMatD0=    1 NMtDS0=    0 NMtDT0=    0
 Petite list used in FoFCou.
 Requested convergence on RMS density matrix=1.00D-08 within 128 cycles.
 Requested convergence on MAX density matrix=1.00D-06.
 Requested convergence on             energy=1.00D-06.
 No special actions if energy rises.
 SCF Done:  E(RB3LYP) =  -678.060304797     A.U. after   15 cycles
            NFock= 15  Conv=0.32D-08     -V/T= 2.0098

 **********************************************************************

            Population analysis using the SCF Density.

 **********************************************************************

 Orbital symmetries:
       Occupied  (A) (A) (A) (A) (A) (A) (A) (A) (A) (A) (A) (A)
                 (A) (A) (A) (A) (A) (A) (A) (A) (A) (A) (A) (A)
                 (A) (A) (A) (A) (A) (A) (A) (A) (A) (A) (A) (A)
                 (A) (A) (A) (A) (A) (A) (A) (A) (A) (A) (A) (A)
                 (A) (A) (A) (A) (A) (A) (A)
       Virtual   (A) (A) (A) (A) (A) (A) (A) (A) (A) (A) (A) (A)
                 (A) (A) (A) (A) (A) (A) (A) (A) (A) (A) (A) (A)
                 (A) (A) (A) (A) (A) (A) (A) (A) (A) (A) (A) (A)
                 (A) (A) (A) (A) (A) (A) (A) (A) (A) (A) (A) (A)
                 (A) (A) (A) (A) (A) (A) (A) (A) (A) (A) (A) (A)
                 (A) (A) (A) (A) (A) (A) (A) (A) (A) (A) (A) (A)
                 (A) (A) (A) (A) (A) (A) (A) (A) (A) (A) (A) (A)
                 (A) (A) (A) (A) (A) (A) (A) (A) (A) (A) (A) (A)
                 (A) (A) (A) (A) (A) (A) (A) (A) (A) (A) (A) (A)
                 (A) (A) (A) (A) (A) (A) (A) (A) (A) (A) (A) (A)
                 (A) (A) (A) (A) (A) (A) (A) (A) (A) (A) (A) (A)
                 (A) (A) (A) (A) (A) (A) (A) (A) (A) (A) (A) (A)
                 (A) (A) (A) (A) (A) (A) (A) (A) (A) (A) (A) (A)
                 (A) (A) (A) (A) (A) (A) (A) (A) (A) (A) (A) (A)
                 (A) (A) (A) (A) (A) (A) (A) (A) (A) (A) (A) (A)
                 (A) (A) (A) (A) (A) (A) (A) (A) (A) (A) (A) (A)
                 (A) (A) (A) (A) (A) (A) (A) (A) (A) (A) (A) (A)
                 (A) (A) (A) (A) (A) (A) (A) (A) (A) (A) (A) (A)
                 (A) (A) (A) (A) (A) (A) (A) (A) (A) (A) (A) (A)
                 (A) (A) (A) (A) (A) (A) (A) (A) (A) (A) (A) (A)
                 (A) (A) (A) (A) (A) (A) (A) (A) (A) (A) (A) (A)
                 (A) (A) (A) (A) (A) (A) (A) (A) (A) (A) (A) (A)
                 (A) (A) (A)
 The electronic state is 1-A.
 Alpha  occ. eigenvalues --  -24.72402 -10.29017 -10.23282 -10.22496 -10.21879
 Alpha  occ. eigenvalues --  -10.21878 -10.21552 -10.21552 -10.21419 -10.20708
 Alpha  occ. eigenvalues --  -10.20707 -10.20238 -10.20237 -10.20215 -10.19983
 Alpha  occ. eigenvalues --  -10.19554  -1.21744  -0.88244  -0.87232  -0.80732
 Alpha  occ. eigenvalues --   -0.78801  -0.77381  -0.75798  -0.73914  -0.69715
 Alpha  occ. eigenvalues --   -0.63947  -0.63845  -0.62030  -0.60504  -0.56070
 Alpha  occ. eigenvalues --   -0.54595  -0.52509  -0.50121  -0.47721  -0.47430
 Alpha  occ. eigenvalues --   -0.46496  -0.46322  -0.44847  -0.43784  -0.43246
 Alpha  occ. eigenvalues --   -0.43024  -0.41373  -0.40989  -0.39925  -0.39122
 Alpha  occ. eigenvalues --   -0.37556  -0.36525  -0.36449  -0.35426  -0.32003
 Alpha  occ. eigenvalues --   -0.27910  -0.27706  -0.27348  -0.26495  -0.21820
 Alpha virt. eigenvalues --   -0.06011  -0.03161  -0.02174  -0.00954  -0.00008
 Alpha virt. eigenvalues --    0.00742   0.01677   0.02035   0.02566   0.03088
 Alpha virt. eigenvalues --    0.03763   0.04271   0.04456   0.04552   0.05356
 Alpha virt. eigenvalues --    0.05918   0.06489   0.06655   0.06705   0.08011
 Alpha virt. eigenvalues --    0.08157   0.08414   0.09037   0.09222   0.09344
 Alpha virt. eigenvalues --    0.09796   0.10554   0.11564   0.11840   0.12250
 Alpha virt. eigenvalues --    0.12724   0.13795   0.14230   0.14660   0.14818
 Alpha virt. eigenvalues --    0.14875   0.14926   0.15147   0.15656   0.15871
 Alpha virt. eigenvalues --    0.15911   0.16764   0.17539   0.17766   0.18768
 Alpha virt. eigenvalues --    0.19119   0.19480   0.19483   0.20186   0.20501
 Alpha virt. eigenvalues --    0.20915   0.21661   0.21893   0.22658   0.22746
 Alpha virt. eigenvalues --    0.23156   0.23341   0.23892   0.23978   0.24500
 Alpha virt. eigenvalues --    0.25433   0.25711   0.25897   0.26364   0.27288
 Alpha virt. eigenvalues --    0.27422   0.27684   0.27869   0.28384   0.29232
 Alpha virt. eigenvalues --    0.29686   0.30133   0.31745   0.32463   0.33490
 Alpha virt. eigenvalues --    0.33539   0.35018   0.35069   0.35279   0.36131
 Alpha virt. eigenvalues --    0.36426   0.36774   0.38199   0.39167   0.40299
 Alpha virt. eigenvalues --    0.41562   0.42113   0.43624   0.44879   0.45773
 Alpha virt. eigenvalues --    0.48535   0.55715   0.58279   0.59257   0.59591
 Alpha virt. eigenvalues --    0.63488   0.65397   0.65998   0.66318   0.67376
 Alpha virt. eigenvalues --    0.68056   0.69543   0.69877   0.70086   0.70598
 Alpha virt. eigenvalues --    0.70869   0.71109   0.72880   0.73297   0.73461
 Alpha virt. eigenvalues --    0.73898   0.74873   0.75977   0.76015   0.76090
 Alpha virt. eigenvalues --    0.77261   0.77426   0.78686   0.79490   0.79502
 Alpha virt. eigenvalues --    0.80617   0.81391   0.82855   0.83227   0.84490
 Alpha virt. eigenvalues --    0.85651   0.87768   0.89245   0.90319   0.92735
 Alpha virt. eigenvalues --    0.93500   0.96500   0.96703   0.96868   0.97684
 Alpha virt. eigenvalues --    0.98585   0.98684   1.00375   1.03402   1.04425
 Alpha virt. eigenvalues --    1.05962   1.08307   1.09134   1.10323   1.11561
 Alpha virt. eigenvalues --    1.13350   1.15483   1.17060   1.18284   1.19798
 Alpha virt. eigenvalues --    1.20388   1.21727   1.22986   1.23261   1.23920
 Alpha virt. eigenvalues --    1.24990   1.25829   1.27211   1.28866   1.31504
 Alpha virt. eigenvalues --    1.32766   1.34536   1.36035   1.37690   1.39407
 Alpha virt. eigenvalues --    1.42269   1.42824   1.42877   1.43760   1.44971
 Alpha virt. eigenvalues --    1.45697   1.48008   1.48179   1.49955   1.55589
 Alpha virt. eigenvalues --    1.55802   1.57361   1.60218   1.63918   1.69522
 Alpha virt. eigenvalues --    1.70865   1.72644   1.75820   1.81546   1.82267
 Alpha virt. eigenvalues --    1.82425   1.82769   1.84141   1.85147   1.85466
 Alpha virt. eigenvalues --    1.87804   1.89829   1.90446   1.90451   1.90960
 Alpha virt. eigenvalues --    1.91664   1.92331   1.97315   1.98345   1.98362
 Alpha virt. eigenvalues --    1.98600   2.00159   2.07216   2.07834   2.10475
 Alpha virt. eigenvalues --    2.11429   2.12723   2.13521   2.14753   2.14935
 Alpha virt. eigenvalues --    2.16922   2.20068   2.21503   2.23031   2.23625
 Alpha virt. eigenvalues --    2.26789   2.28269   2.29706   2.29817   2.30465
 Alpha virt. eigenvalues --    2.33127   2.36702   2.37323   2.41641   2.45796
 Alpha virt. eigenvalues --    2.48584   2.48760   2.51482   2.59156   2.59999
 Alpha virt. eigenvalues --    2.62586   2.62678   2.63638   2.66204   2.66506
 Alpha virt. eigenvalues --    2.74294   2.75042   2.76459   2.77836   2.81714
 Alpha virt. eigenvalues --    2.86883   2.90902   2.91433   2.99041   3.00559
 Alpha virt. eigenvalues --    3.09917   3.17832   3.28307   3.34345   3.42131
 Alpha virt. eigenvalues --    3.59758   4.21085   4.22509   4.22897   4.24565
 Alpha virt. eigenvalues --    4.25214   4.27912   4.31399   4.37388   4.38725
 Alpha virt. eigenvalues --    4.40320   4.44466   4.57628   4.65660   4.77371
 Alpha virt. eigenvalues --    4.98681   5.90231
          Condensed to atoms (all electrons):
               1          2          3          4          5          6
     1  C    8.653433  -4.355509   0.702648   2.776586  -1.927452   0.186888
     2  C   -4.355509  16.757147  -1.521188  -7.941483   2.777039   0.124008
     3  C    0.702648  -1.521188   8.428056  -1.520514   0.702488  -0.256827
     4  C    2.776586  -7.941483  -1.520514  16.758348  -4.356942   0.124347
     5  C   -1.927452   2.777039   0.702488  -4.356942   8.654463   0.186851
     6  C    0.186888   0.124008  -0.256827   0.124347   0.186851   5.413496
     7  H    0.319919  -0.091291   0.019008   0.004193   0.025062   0.025152
     8  H   -0.101437   0.373261  -0.022162   0.016972  -0.010311  -0.003970
     9  H   -0.010314   0.016977  -0.022163   0.373290  -0.101469  -0.003973
    10  H    0.025062   0.004195   0.019013  -0.091295   0.319928   0.025141
    11  C   -0.223166   0.461086  -0.720381   0.461119  -0.223176  -0.147060
    12  C   -0.045492   0.017410  -0.399539   0.017065  -0.045380  -0.000313
    13  C    0.063835  -0.156100   0.419085  -0.155830   0.063755  -0.012051
    14  C   -0.059898   0.307150  -0.144938  -0.241027   0.039332   0.001352
    15  C    0.039307  -0.241002  -0.144760   0.307084  -0.059886   0.001356
    16  C    0.019636  -0.092824   0.065303   0.066777  -0.014681   0.000297
    17  H    0.000032   0.002048   0.000992   0.000134  -0.000020   0.000040
    18  C   -0.014687   0.066819   0.065270  -0.092849   0.019656   0.000297
    19  H   -0.000020   0.000133   0.000990   0.002049   0.000032   0.000040
    20  C    0.001200  -0.000174   0.005010  -0.000167   0.001200  -0.000033
    21  H    0.000003   0.000095  -0.000113  -0.000034  -0.000001   0.000000
    22  H   -0.000001  -0.000034  -0.000113   0.000095   0.000003   0.000000
    23  C    0.000046  -0.000262   0.004173  -0.000263   0.000046  -0.000007
    24  H    0.000000   0.000000   0.000000   0.000000   0.000000   0.000000
    25  H    0.000000   0.000000   0.000001   0.000000   0.000000   0.000000
    26  H    0.000000   0.000000   0.000001   0.000000   0.000000   0.000000
    27  F   -0.141672   0.003213  -0.027701   0.003190  -0.141665   0.291440
               7          8          9         10         11         12
     1  C    0.319919  -0.101437  -0.010314   0.025062  -0.223166  -0.045492
     2  C   -0.091291   0.373261   0.016977   0.004195   0.461086   0.017410
     3  C    0.019008  -0.022162  -0.022163   0.019013  -0.720381  -0.399539
     4  C    0.004193   0.016972   0.373290  -0.091295   0.461119   0.017065
     5  C    0.025062  -0.010311  -0.101469   0.319928  -0.223176  -0.045380
     6  C    0.025152  -0.003970  -0.003973   0.025141  -0.147060  -0.000313
     7  H    0.507011  -0.004316   0.000013  -0.000143  -0.005027   0.000810
     8  H   -0.004316   0.515708  -0.000150   0.000013   0.034092   0.000368
     9  H    0.000013  -0.000150   0.515708  -0.004316   0.034097   0.000365
    10  H   -0.000143   0.000013  -0.004316   0.507012  -0.005027   0.000809
    11  C   -0.005027   0.034092   0.034097  -0.005027   6.871425   0.293953
    12  C    0.000810   0.000368   0.000365   0.000809   0.293953   6.063034
    13  C   -0.000064  -0.001249  -0.001248  -0.000064  -0.720316   0.246933
    14  C    0.000027   0.002596  -0.000103  -0.000011   0.075706  -0.109673
    15  C   -0.000011  -0.000103   0.002597   0.000027   0.075592  -0.109344
    16  C    0.000002   0.000125   0.000006  -0.000001  -0.045514   0.028155
    17  H    0.000000   0.000002   0.000000   0.000000  -0.001611   0.029159
    18  C   -0.000001   0.000006   0.000125   0.000002  -0.045527   0.028112
    19  H    0.000000   0.000000   0.000002   0.000000  -0.001609   0.029148
    20  C    0.000000  -0.000004  -0.000004   0.000000  -0.077815  -0.102545
    21  H    0.000000   0.000000   0.000000   0.000000   0.001060  -0.005369
    22  H    0.000000   0.000000   0.000000   0.000000   0.001062  -0.005368
    23  C    0.000000  -0.000002  -0.000002   0.000000  -0.022221   0.040124
    24  H    0.000000   0.000000   0.000000   0.000000  -0.000015   0.000129
    25  H    0.000000   0.000000   0.000000   0.000000   0.000017   0.000363
    26  H    0.000000   0.000000   0.000000   0.000000   0.000017   0.000362
    27  F   -0.004648  -0.000353  -0.000353  -0.004649  -0.003193  -0.000409
              13         14         15         16         17         18
     1  C    0.063835  -0.059898   0.039307   0.019636   0.000032  -0.014687
     2  C   -0.156100   0.307150  -0.241002  -0.092824   0.002048   0.066819
     3  C    0.419085  -0.144938  -0.144760   0.065303   0.000992   0.065270
     4  C   -0.155830  -0.241027   0.307084   0.066777   0.000134  -0.092849
     5  C    0.063755   0.039332  -0.059886  -0.014681  -0.000020   0.019656
     6  C   -0.012051   0.001352   0.001356   0.000297   0.000040   0.000297
     7  H   -0.000064   0.000027  -0.000011   0.000002   0.000000  -0.000001
     8  H   -0.001249   0.002596  -0.000103   0.000125   0.000002   0.000006
     9  H   -0.001248  -0.000103   0.002597   0.000006   0.000000   0.000125
    10  H   -0.000064  -0.000011   0.000027  -0.000001   0.000000   0.000002
    11  C   -0.720316   0.075706   0.075592  -0.045514  -0.001611  -0.045527
    12  C    0.246933  -0.109673  -0.109344   0.028155   0.029159   0.028112
    13  C    6.374604  -0.260615  -0.260727   0.349091  -0.022588   0.348950
    14  C   -0.260615   9.666253  -2.454654  -1.825349   0.353172   0.539611
    15  C   -0.260727  -2.454654   9.669057   0.538752   0.022763  -1.826718
    16  C    0.349091  -1.825349   0.538752   7.781730  -0.096820  -0.631191
    17  H   -0.022588   0.353172   0.022763  -0.096820   0.528959  -0.007941
    18  C    0.348950   0.539611  -1.826718  -0.631191  -0.007941   7.781353
    19  H   -0.022598   0.022770   0.353212  -0.007944  -0.000156  -0.096858
    20  C   -0.020591   0.190892   0.189904   0.074131   0.002542   0.074832
    21  H    0.030412  -0.075957  -0.001998   0.279085  -0.004323   0.042390
    22  H    0.030398  -0.002016  -0.076071   0.042485   0.000017   0.279079
    23  C   -0.243294   0.020116   0.019935  -0.059088   0.001989  -0.059982
    24  H   -0.000462   0.000780   0.000764  -0.014452   0.000001  -0.014637
    25  H   -0.001939  -0.007349   0.007586   0.024086   0.000002  -0.008293
    26  H   -0.001951   0.007602  -0.007345  -0.008316  -0.000005   0.024055
    27  F   -0.000064  -0.000006  -0.000006   0.000000   0.000000   0.000000
              19         20         21         22         23         24
     1  C   -0.000020   0.001200   0.000003  -0.000001   0.000046   0.000000
     2  C    0.000133  -0.000174   0.000095  -0.000034  -0.000262   0.000000
     3  C    0.000990   0.005010  -0.000113  -0.000113   0.004173   0.000000
     4  C    0.002049  -0.000167  -0.000034   0.000095  -0.000263   0.000000
     5  C    0.000032   0.001200  -0.000001   0.000003   0.000046   0.000000
     6  C    0.000040  -0.000033   0.000000   0.000000  -0.000007   0.000000
     7  H    0.000000   0.000000   0.000000   0.000000   0.000000   0.000000
     8  H    0.000000  -0.000004   0.000000   0.000000  -0.000002   0.000000
     9  H    0.000002  -0.000004   0.000000   0.000000  -0.000002   0.000000
    10  H    0.000000   0.000000   0.000000   0.000000   0.000000   0.000000
    11  C   -0.001609  -0.077815   0.001060   0.001062  -0.022221  -0.000015
    12  C    0.029148  -0.102545  -0.005369  -0.005368   0.040124   0.000129
    13  C   -0.022598  -0.020591   0.030412   0.030398  -0.243294  -0.000462
    14  C    0.022770   0.190892  -0.075957  -0.002016   0.020116   0.000780
    15  C    0.353212   0.189904  -0.001998  -0.076071   0.019935   0.000764
    16  C   -0.007944   0.074131   0.279085   0.042485  -0.059088  -0.014452
    17  H   -0.000156   0.002542  -0.004323   0.000017   0.001989   0.000001
    18  C   -0.096858   0.074832   0.042390   0.279079  -0.059982  -0.014637
    19  H    0.528958   0.002560   0.000017  -0.004323   0.001987   0.000001
    20  C    0.002560   6.328077   0.034440   0.034463  -0.893200  -0.043950
    21  H    0.000017   0.034440   0.543367  -0.000163  -0.024194   0.000327
    22  H   -0.004323   0.034463  -0.000163   0.543365  -0.024159   0.000328
    23  C    0.001987  -0.893200  -0.024194  -0.024159   6.662040   0.402834
    24  H    0.000001  -0.043950   0.000327   0.000328   0.402834   0.497981
    25  H   -0.000005  -0.144003   0.000066   0.002915   0.467798  -0.029297
    26  H    0.000002  -0.144060   0.002922   0.000066   0.467915  -0.029282
    27  F    0.000000   0.000000   0.000000   0.000000   0.000000   0.000000
              25         26         27
     1  C    0.000000   0.000000  -0.141672
     2  C    0.000000   0.000000   0.003213
     3  C    0.000001   0.000001  -0.027701
     4  C    0.000000   0.000000   0.003190
     5  C    0.000000   0.000000  -0.141665
     6  C    0.000000   0.000000   0.291440
     7  H    0.000000   0.000000  -0.004648
     8  H    0.000000   0.000000  -0.000353
     9  H    0.000000   0.000000  -0.000353
    10  H    0.000000   0.000000  -0.004649
    11  C    0.000017   0.000017  -0.003193
    12  C    0.000363   0.000362  -0.000409
    13  C   -0.001939  -0.001951  -0.000064
    14  C   -0.007349   0.007602  -0.000006
    15  C    0.007586  -0.007345  -0.000006
    16  C    0.024086  -0.008316   0.000000
    17  H    0.000002  -0.000005   0.000000
    18  C   -0.008293   0.024055   0.000000
    19  H   -0.000005   0.000002   0.000000
    20  C   -0.144003  -0.144060   0.000000
    21  H    0.000066   0.002922   0.000000
    22  H    0.002915   0.000066   0.000000
    23  C    0.467798   0.467915   0.000000
    24  H   -0.029297  -0.029282   0.000000
    25  H    0.503622  -0.025640   0.000000
    26  H   -0.025640   0.503618   0.000000
    27  F    0.000000   0.000000   9.380830
 Mulliken charges:
               1
     1  C    0.091051
     2  C   -0.510714
     3  C    0.348360
     4  C   -0.510844
     5  C    0.091131
     6  C    0.043530
     7  H    0.204304
     8  H    0.200914
     9  H    0.200916
    10  H    0.204303
    11  C   -0.067565
    12  C    0.027133
    13  C   -0.045314
    14  C   -0.045765
    15  C   -0.045312
    16  C   -0.473483
    17  H    0.191610
    18  C   -0.471872
    19  H    0.191610
    20  C    0.487295
    21  H    0.177968
    22  H    0.177972
    23  C   -0.762331
    24  H    0.228948
    25  H    0.210069
    26  H    0.210040
    27  F   -0.353954
 Sum of Mulliken charges =   0.00000
 Mulliken charges with hydrogens summed into heavy atoms:
               1
     1  C    0.295355
     2  C   -0.309800
     3  C    0.348360
     4  C   -0.309928
     5  C    0.295434
     6  C    0.043530
    11  C   -0.067565
    12  C    0.027133
    13  C   -0.045314
    14  C    0.145845
    15  C    0.146298
    16  C   -0.295515
    18  C   -0.293900
    20  C    0.487295
    23  C   -0.113275
    27  F   -0.353954
 Electronic spatial extent (au):  <R**2>=           6919.7276
 Charge=              0.0000 electrons
 Dipole moment (field-independent basis, Debye):
    X=              2.7836    Y=              0.0000    Z=              0.0426  Tot=              2.7840
 Quadrupole moment (field-independent basis, Debye-Ang):
   XX=            -91.7655   YY=            -81.5589   ZZ=            -98.9336
   XY=             -0.0004   XZ=              0.2747   YZ=             -0.0001
 Traceless Quadrupole moment (field-independent basis, Debye-Ang):
   XX=             -1.0128   YY=              9.1938   ZZ=             -8.1810
   XY=             -0.0004   XZ=              0.2747   YZ=             -0.0001
 Octapole moment (field-independent basis, Debye-Ang**2):
  XXX=            153.5894  YYY=              0.0029  ZZZ=              0.8227  XYY=            -22.6946
  XXY=             -0.0061  XXZ=              1.5019  XZZ=            -15.9582  YZZ=             -0.0011
  YYZ=             -0.6185  XYZ=              0.0021
 Hexadecapole moment (field-independent basis, Debye-Ang**3):
 XXXX=          -8869.2287 YYYY=           -571.8413 ZZZZ=           -124.8391 XXXY=             -0.0076
 XXXZ=              9.2375 YYYX=              0.0025 YYYZ=             -0.0005 ZZZX=              4.8473
 ZZZY=             -0.0002 XXYY=          -1363.4800 XXZZ=          -1508.2164 YYZZ=           -139.5489
 XXYZ=             -0.0008 YYXZ=             -4.2668 ZZXY=             -0.0110
 N-N= 8.737454222571D+02 E-N=-3.322409499028D+03  KE= 6.714616529576D+02
 Evaluate density.
 Using the total density.
 Monte-Carlo method of calculating molar volume:
 based on  0.001 e/bohr**3 density envelope.
 Number of points per bohr**3 =   20 CutOff= 1.00D-04
 Using the SCF density.
 There are       401 points.  Will hold       401 in memory.
 LenV=  4026292908 MDV=  4026531840.
 Box volume = 8065.577 fraction occupied=0.259
 Integrated density= 8.0233262293357825D+01 error=-2.9766737706642175D+01
 Molar volume = 2091.820 bohr**3/mol (186.672 cm**3/mol)
 Recommended a0 for SCRF calculation =  5.12 angstrom (  9.68 bohr)
 Calling FoFJK, ICntrl=      2127 FMM=F ISym2X=0 I1Cent= 0 IOpClX= 0 NMat=1 NMatS=1 NMatT=0.
 ***** Axes restored to original set *****
 -------------------------------------------------------------------
 Center     Atomic                   Forces (Hartrees/Bohr)
 Number     Number              X              Y              Z
 -------------------------------------------------------------------
      1        6           0.000924602    0.002174648    0.000001871
      2        6           0.000391261    0.003814370    0.000002590
      3        6           0.002369463    0.000010112   -0.000015696
      4        6           0.000372155   -0.003825157    0.000000678
      5        6           0.000945986   -0.002184550    0.000002456
      6        6           0.015459782    0.000012609    0.000014557
      7        1           0.000765824   -0.001385703    0.000000107
      8        1          -0.000318458   -0.001045706   -0.000000955
      9        1          -0.000314436    0.001046684   -0.000000714
     10        1           0.000762683    0.001387713    0.000000481
     11        6          -0.004871550   -0.000002973    0.000033542
     12        6           0.004692714   -0.000001859   -0.000029095
     13        6          -0.002387317    0.000004639    0.000013374
     14        6          -0.000440271    0.002487429    0.000017922
     15        6          -0.000437857   -0.002491761    0.000017914
     16        6           0.000785974    0.003532837    0.000045459
     17        1           0.000441217   -0.000901613   -0.000011740
     18        6           0.000782287   -0.003534754    0.000047686
     19        1           0.000441338    0.000902790   -0.000011751
     20        6           0.001056548    0.000002091    0.000015829
     21        1          -0.000309711   -0.001033224   -0.000004483
     22        1          -0.000309331    0.001033167   -0.000005583
     23        6           0.000631712    0.000000787    0.000157103
     24        1           0.000262024   -0.000000190    0.000057551
     25        1          -0.000075122    0.000219335   -0.000163914
     26        1          -0.000075537   -0.000219662   -0.000163346
     27        9          -0.021545980   -0.000002061   -0.000021844
 -------------------------------------------------------------------
 Cartesian Forces:  Max     0.021545980 RMS     0.003246160

 GradGradGradGradGradGradGradGradGradGradGradGradGradGradGradGradGradGrad
 Berny optimization.
 FormGI is forming the generalized inverse of G from B-inverse, IUseBI=4.
 Internal  Forces:  Max     0.021545991 RMS     0.002080101
 Search for a local minimum.
 Step number   1 out of a maximum of  142
 All quantities printed in internal units (Hartrees-Bohrs-Radians)
 Mixed Optimization -- RFO/linear search
 Second derivative matrix not updated -- first step.
 ITU=  0
     Eigenvalues ---    0.00230   0.00610   0.01014   0.01364   0.01450
     Eigenvalues ---    0.01762   0.01854   0.01933   0.01949   0.02018
     Eigenvalues ---    0.02024   0.02029   0.02041   0.02064   0.02074
     Eigenvalues ---    0.02102   0.02104   0.02111   0.02174   0.02178
     Eigenvalues ---    0.02190   0.02201   0.03751   0.04469   0.07029
     Eigenvalues ---    0.07126   0.16000   0.16000   0.16000   0.16000
     Eigenvalues ---    0.16000   0.16000   0.16000   0.16000   0.16000
     Eigenvalues ---    0.16000   0.16000   0.22000   0.22000   0.22955
     Eigenvalues ---    0.22983   0.23998   0.24000   0.24994   0.25000
     Eigenvalues ---    0.25000   0.25000   0.31173   0.33817   0.34204
     Eigenvalues ---    0.34204   0.35233   0.35234   0.35419   0.35419
     Eigenvalues ---    0.35515   0.35516   0.35645   0.35645   0.40625
     Eigenvalues ---    0.40796   0.41131   0.41339   0.41758   0.41813
     Eigenvalues ---    0.44075   0.44180   0.44378   0.45374   0.45807
     Eigenvalues ---    0.46476   0.46619   0.46935   0.46956   0.95348
 RFO step:  Lambda=-1.22691192D-03 EMin= 2.30000000D-03
 Linear search not attempted -- first point.
 Iteration  1 RMS(Cart)=  0.00745802 RMS(Int)=  0.00000424
 Iteration  2 RMS(Cart)=  0.00000589 RMS(Int)=  0.00000111
 Iteration  3 RMS(Cart)=  0.00000000 RMS(Int)=  0.00000111
 Variable       Old X    -DE/DX   Delta X   Delta X   Delta X     New X
                                 (Linear)    (Quad)   (Total)
    R1        2.63601  -0.00135   0.00000  -0.00289  -0.00289   2.63312
    R2        2.62961  -0.00289   0.00000  -0.00616  -0.00616   2.62346
    R3        2.04640   0.00158   0.00000   0.00442   0.00442   2.05082
    R4        2.67265  -0.00231   0.00000  -0.00528  -0.00528   2.66737
    R5        2.04846   0.00106   0.00000   0.00299   0.00299   2.05144
    R6        2.67270  -0.00231   0.00000  -0.00530  -0.00530   2.66739
    R7        2.69161  -0.00019   0.00000  -0.00045  -0.00045   2.69117
    R8        2.63596  -0.00134   0.00000  -0.00287  -0.00287   2.63309
    R9        2.04846   0.00106   0.00000   0.00298   0.00298   2.05144
   R10        2.62966  -0.00291   0.00000  -0.00619  -0.00618   2.62348
   R11        2.04640   0.00158   0.00000   0.00442   0.00442   2.05083
   R12        2.63090  -0.02155   0.00000  -0.04579  -0.04579   2.58512
   R13        2.30562  -0.00506   0.00000  -0.00530  -0.00530   2.30032
   R14        2.69233  -0.00037   0.00000  -0.00087  -0.00087   2.69146
   R15        2.66936  -0.00237   0.00000  -0.00540  -0.00540   2.66397
   R16        2.66938  -0.00237   0.00000  -0.00540  -0.00540   2.66398
   R17        2.63440  -0.00137   0.00000  -0.00294  -0.00294   2.63146
   R18        2.05000   0.00100   0.00000   0.00282   0.00282   2.05281
   R19        2.63438  -0.00137   0.00000  -0.00294  -0.00294   2.63145
   R20        2.04999   0.00100   0.00000   0.00282   0.00282   2.05281
   R21        2.65704  -0.00230   0.00000  -0.00517  -0.00517   2.65186
   R22        2.05297   0.00105   0.00000   0.00297   0.00297   2.05594
   R23        2.65706  -0.00231   0.00000  -0.00518  -0.00518   2.65188
   R24        2.05297   0.00105   0.00000   0.00297   0.00297   2.05595
   R25        2.85684  -0.00075   0.00000  -0.00238  -0.00238   2.85446
   R26        2.07640  -0.00004   0.00000  -0.00010  -0.00010   2.07629
   R27        2.06988   0.00028   0.00000   0.00082   0.00082   2.07069
   R28        2.06987   0.00028   0.00000   0.00082   0.00082   2.07068
    A1        2.07014  -0.00123   0.00000  -0.00541  -0.00541   2.06473
    A2        2.12279   0.00054   0.00000   0.00226   0.00226   2.12505
    A3        2.09025   0.00069   0.00000   0.00316   0.00316   2.09341
    A4        2.10757   0.00014   0.00000   0.00087   0.00087   2.10845
    A5        2.09467  -0.00032   0.00000  -0.00202  -0.00202   2.09265
    A6        2.08094   0.00019   0.00000   0.00115   0.00115   2.08209
    A7        2.07251   0.00018   0.00000   0.00098   0.00097   2.07348
    A8        2.10535  -0.00009   0.00000  -0.00050  -0.00049   2.10485
    A9        2.10532  -0.00009   0.00000  -0.00048  -0.00048   2.10485
   A10        2.10756   0.00014   0.00000   0.00088   0.00088   2.10844
   A11        2.08090   0.00019   0.00000   0.00117   0.00117   2.08207
   A12        2.09472  -0.00033   0.00000  -0.00205  -0.00205   2.09267
   A13        2.07016  -0.00123   0.00000  -0.00543  -0.00542   2.06473
   A14        2.12284   0.00054   0.00000   0.00224   0.00224   2.12507
   A15        2.09019   0.00069   0.00000   0.00319   0.00319   2.09338
   A16        2.13843   0.00201   0.00000   0.00810   0.00811   2.14654
   A17        2.07240  -0.00101   0.00000  -0.00406  -0.00407   2.06834
   A18        2.07236  -0.00100   0.00000  -0.00404  -0.00404   2.06831
   A19        2.10878  -0.00006   0.00000  -0.00025  -0.00025   2.10853
   A20        2.10878  -0.00006   0.00000  -0.00025  -0.00025   2.10852
   A21        2.06563   0.00011   0.00000   0.00050   0.00050   2.06613
   A22        2.10369  -0.00018   0.00000  -0.00078  -0.00078   2.10291
   A23        2.08032   0.00016   0.00000   0.00083   0.00083   2.08115
   A24        2.09917   0.00002   0.00000  -0.00004  -0.00004   2.09912
   A25        2.10369  -0.00018   0.00000  -0.00078  -0.00078   2.10291
   A26        2.08032   0.00016   0.00000   0.00083   0.00083   2.08115
   A27        2.09918   0.00002   0.00000  -0.00005  -0.00005   2.09913
   A28        2.11594   0.00033   0.00000   0.00143   0.00143   2.11738
   A29        2.08453  -0.00042   0.00000  -0.00227  -0.00227   2.08227
   A30        2.08271   0.00008   0.00000   0.00083   0.00083   2.08354
   A31        2.11594   0.00033   0.00000   0.00143   0.00143   2.11738
   A32        2.08454  -0.00042   0.00000  -0.00227  -0.00227   2.08227
   A33        2.08270   0.00008   0.00000   0.00084   0.00084   2.08353
   A34        2.06147  -0.00042   0.00000  -0.00180  -0.00180   2.05967
   A35        2.11077   0.00021   0.00000   0.00089   0.00088   2.11166
   A36        2.11074   0.00021   0.00000   0.00088   0.00088   2.11162
   A37        1.93842  -0.00038   0.00000  -0.00247  -0.00247   1.93595
   A38        1.94584   0.00003   0.00000   0.00023   0.00023   1.94607
   A39        1.94585   0.00003   0.00000   0.00023   0.00023   1.94608
   A40        1.87225   0.00017   0.00000   0.00090   0.00090   1.87316
   A41        1.87228   0.00017   0.00000   0.00090   0.00090   1.87318
   A42        1.88575   0.00001   0.00000   0.00033   0.00033   1.88607
   A43        3.14155   0.00000   0.00000   0.00009   0.00009   3.14164
   A44        3.14155   0.00000   0.00000   0.00022   0.00022   3.14178
   A45        3.14146   0.00003   0.00000   0.00065   0.00065   3.14211
   A46        3.14104  -0.00001   0.00000  -0.00057  -0.00057   3.14047
    D1       -0.00002   0.00000   0.00000   0.00002   0.00002   0.00000
    D2       -3.14159   0.00000   0.00000   0.00001   0.00001  -3.14158
    D3        3.14158   0.00000   0.00000   0.00001   0.00001   3.14159
    D4        0.00001   0.00000   0.00000   0.00000   0.00000   0.00001
    D5        0.00000   0.00000   0.00000   0.00000   0.00000   0.00000
    D6       -3.14157   0.00000   0.00000  -0.00004  -0.00004   3.14158
    D7        3.14159   0.00000   0.00000   0.00000   0.00000   3.14159
    D8        0.00002   0.00000   0.00000  -0.00003  -0.00003  -0.00001
    D9        0.00003   0.00000   0.00000  -0.00002  -0.00002   0.00001
   D10       -3.14159   0.00000   0.00000   0.00007   0.00007  -3.14152
   D11       -3.14159   0.00000   0.00000  -0.00001  -0.00001   3.14159
   D12       -0.00002   0.00000   0.00000   0.00008   0.00008   0.00006
   D13       -0.00002   0.00000   0.00000   0.00001   0.00001  -0.00001
   D14        3.14158   0.00000   0.00000   0.00002   0.00002  -3.14158
   D15       -3.14159   0.00000   0.00000  -0.00008  -0.00008   3.14152
   D16        0.00002   0.00000   0.00000  -0.00007  -0.00007  -0.00005
   D17       -0.00152   0.00000   0.00000   0.00005   0.00005  -0.00148
   D18       -3.14015   0.00000   0.00000   0.00006   0.00006  -3.14009
   D19        3.14031   0.00000   0.00000  -0.00008  -0.00008   3.14023
   D20        0.00169   0.00000   0.00000  -0.00007  -0.00007   0.00162
   D21        0.00000   0.00000   0.00000   0.00001   0.00001   0.00001
   D22       -3.14159   0.00000   0.00000   0.00000   0.00000  -3.14159
   D23        3.14158   0.00000   0.00000   0.00000   0.00000   3.14158
   D24       -0.00001   0.00000   0.00000  -0.00001  -0.00001  -0.00002
   D25        0.00001   0.00000   0.00000  -0.00001  -0.00001   0.00000
   D26        3.14158   0.00000   0.00000   0.00002   0.00002  -3.14159
   D27       -3.14158   0.00000   0.00000  -0.00001  -0.00001  -3.14159
   D28       -0.00002   0.00000   0.00000   0.00003   0.00003   0.00001
   D29       -3.13958   0.00001   0.00000   0.00026   0.00026  -3.13932
   D30       -0.00173   0.00000   0.00000   0.00013   0.00013  -0.00159
   D31       -0.00126   0.00000   0.00000   0.00012   0.00012  -0.00115
   D32        3.13659   0.00000   0.00000  -0.00001  -0.00001   3.13658
   D33        3.13958  -0.00001   0.00000  -0.00025  -0.00025   3.13932
   D34        0.00173   0.00000   0.00000  -0.00013  -0.00013   0.00160
   D35        0.00126   0.00000   0.00000  -0.00011  -0.00011   0.00115
   D36       -3.13659   0.00000   0.00000   0.00001   0.00001  -3.13658
   D37       -0.00192   0.00000   0.00000   0.00028   0.00028  -0.00164
   D38        3.13797   0.00000   0.00000   0.00028   0.00028   3.13826
   D39       -3.13973   0.00001   0.00000   0.00040   0.00040  -3.13933
   D40        0.00016   0.00001   0.00000   0.00041   0.00041   0.00057
   D41        0.00193   0.00000   0.00000  -0.00028  -0.00028   0.00164
   D42       -3.13799   0.00000   0.00000  -0.00026  -0.00026  -3.13826
   D43        3.13974  -0.00001   0.00000  -0.00041  -0.00041   3.13933
   D44       -0.00018  -0.00001   0.00000  -0.00039  -0.00039  -0.00057
   D45        0.00500  -0.00001   0.00000  -0.00067  -0.00066   0.00433
   D46       -3.11527   0.00002   0.00000   0.00138   0.00137  -3.11390
   D47       -3.13490  -0.00001   0.00000  -0.00067  -0.00067  -3.13557
   D48        0.02802   0.00002   0.00000   0.00137   0.00137   0.02939
   D49       -0.00500   0.00001   0.00000   0.00067   0.00067  -0.00433
   D50        3.11527  -0.00002   0.00000  -0.00137  -0.00137   3.11390
   D51        3.13492   0.00001   0.00000   0.00065   0.00065   3.13557
   D52       -0.02799  -0.00002   0.00000  -0.00139  -0.00139  -0.02939
   D53        1.56061  -0.00002   0.00000  -0.00107  -0.00107   1.55954
   D54       -2.63560  -0.00005   0.00000  -0.00144  -0.00144  -2.63704
   D55       -0.52640   0.00001   0.00000  -0.00070  -0.00070  -0.52710
   D56       -1.55906   0.00002   0.00000   0.00106   0.00106  -1.55799
   D57        0.52792  -0.00001   0.00000   0.00070   0.00070   0.52861
   D58        2.63712   0.00005   0.00000   0.00143   0.00143   2.63855
         Item               Value     Threshold  Converged?
 Maximum Force            0.021546     0.000450     NO 
 RMS     Force            0.002080     0.000300     NO 
 Maximum Displacement     0.067398     0.001800     NO 
 RMS     Displacement     0.007457     0.001200     NO 
 Predicted change in Energy=-6.151498D-04
 GradGradGradGradGradGradGradGradGradGradGradGradGradGradGradGradGradGrad

                          Input orientation:                          
 ---------------------------------------------------------------------
 Center     Atomic      Atomic             Coordinates (Angstroms)
 Number     Number       Type             X           Y           Z
 ---------------------------------------------------------------------
      1          6           0        4.173794   -1.219844    0.002120
      2          6           0        2.780418   -1.215018    0.000610
      3          6           0        2.061761   -0.000153   -0.000120
      4          6           0        2.780106    1.214911    0.000697
      5          6           0        4.173467    1.220097    0.002211
      6          6           0        4.836193    0.000208    0.002885
      7          1           0        4.741770   -2.144597    0.002698
      8          1           0        2.236013   -2.154221   -0.000005
      9          1           0        2.235440    2.153962    0.000154
     10          1           0        4.741226    2.144984    0.002858
     11          6           0        0.637657   -0.000334   -0.001576
     12          6           0       -0.579619   -0.000425   -0.003324
     13          6           0       -2.003875   -0.000275   -0.004088
     14          6           0       -2.726037   -1.210959   -0.006554
     15          6           0       -2.725785    1.210571   -0.006639
     16          6           0       -4.118521   -1.202984   -0.010014
     17          1           0       -2.183819   -2.152259   -0.009389
     18          6           0       -4.118261    1.202891   -0.010097
     19          1           0       -2.183362    2.151752   -0.009542
     20          6           0       -4.841040    0.000026   -0.009176
     21          1           0       -4.656448   -2.148639   -0.015040
     22          1           0       -4.655993    2.148657   -0.015189
     23          6           0       -6.351213    0.000219    0.022910
     24          1           0       -6.721668    0.001099    1.057299
     25          1           0       -6.763335    0.886724   -0.472024
     26          1           0       -6.763539   -0.886973   -0.470612
     27          9           0        6.204178    0.000404    0.004380
 ---------------------------------------------------------------------
                    Distance matrix (angstroms):
                    1          2          3          4          5
     1  C    0.000000
     2  C    1.393385   0.000000
     3  C    2.438920   1.411511   0.000000
     4  C    2.805423   2.429929   1.411525   0.000000
     5  C    2.439940   2.805418   2.438918   1.393372   0.000000
     6  C    1.388273   2.388094   2.774434   2.388096   1.388284
     7  H    1.085249   2.170489   3.432360   3.890299   3.412350
     8  H    2.151292   1.085577   2.161104   3.412783   3.890983
     9  H    3.890988   3.412774   2.161106   1.085577   2.151293
    10  H    3.412337   3.890294   3.432369   2.170492   1.085250
    11  C    3.740519   2.463105   1.424105   2.463110   3.740511
    12  C    4.907335   3.572827   2.641381   3.572787   4.907294
    13  C    6.296902   4.936100   4.065638   4.935906   6.296738
    14  C    6.899842   5.506461   4.938532   6.016852   7.315277
    15  C    7.315133   6.016793   4.938267   5.505897   6.899264
    16  C    8.292340   6.898957   6.296251   7.310087   8.638781
    17  H    6.425634   5.051947   4.759894   5.998206   7.196388
    18  C    8.638747   7.310141   6.296037   6.898385   8.291755
    19  H    7.195917   5.997862   4.759396   5.051117   6.424749
    20  C    9.097002   7.717710   6.902807   7.717377   9.096706
    21  H    8.878970   7.495256   7.053406   8.161865   9.450718
    22  H    9.450515   8.161787   7.053073   7.494511   8.878170
    23  C   10.595506   9.212164   8.413005   9.211783  10.595160
    24  H   11.014317   9.637695   8.846850   9.637087  11.013771
    25  H   11.148239   9.783860   8.882092   9.560776  10.952154
    26  H   10.952604   9.561212   8.882215   9.783722  11.148158
    27  F    2.368854   3.633098   4.142420   3.633086   2.368848
                    6          7          8          9         10
     6  C    0.000000
     7  H    2.146883   0.000000
     8  H    3.376760   2.505777   0.000000
     9  H    3.376771   4.975873   4.308183   0.000000
    10  H    2.146877   4.289581   4.975868   2.505804   0.000000
    11  C    4.198539   4.630510   2.682158   2.682146   4.630518
    12  C    5.415815   5.737132   3.544944   3.544848   5.737091
    13  C    6.840072   7.078269   4.755644   4.755265   7.078035
    14  C    7.658612   7.525949   5.050913   5.994914   8.186725
    15  C    7.658236   8.186672   5.995106   5.050127   7.525256
    16  C    9.035194   8.910193   6.425344   7.186237   9.471229
    17  H    7.342604   6.925603   4.419842   6.170371   8.150012
    18  C    9.034869   9.471324   7.186591   6.424496   8.909446
    19  H    7.341896   8.149614   6.170280   4.418812   6.924603
    20  C    9.677241   9.819868   7.397672   7.397033   9.819411
    21  H    9.732836   9.398235   6.892479   8.124698  10.332076
    22  H    9.732305  10.332004   8.124946   6.891452   9.397238
    23  C   11.187424  11.298447   8.853394   8.852668  11.297904
    24  H   11.605858  11.710106   9.273799   9.272656  11.709229
    25  H   11.643045  11.907212   9.510963   9.099824  11.582904
    26  H   11.643242  11.583513   9.100512   9.510548  11.906997
    27  F    1.367986   2.596088   4.515392   4.515387   2.596046
                   11         12         13         14         15
    11  C    0.000000
    12  C    1.217277   0.000000
    13  C    2.641533   1.424257   0.000000
    14  C    3.574923   2.464247   1.409710   0.000000
    15  C    3.574780   2.464255   1.409719   2.421530   0.000000
    16  C    4.905880   3.737649   2.432749   1.392511   2.786570
    17  H    3.548460   2.684005   2.159501   1.086302   3.406223
    18  C    4.905770   3.737647   2.432749   2.786570   1.392502
    19  H    3.548194   2.684008   2.159505   3.406220   1.086302
    20  C    5.478702   4.261426   2.837170   2.437157   2.437156
    21  H    5.713400   4.608199   3.413463   2.146113   3.874509
    22  H    5.713238   4.608202   3.413468   3.874510   2.146109
    23  C    6.988912   5.771654   4.347421   3.822266   3.822245
    24  H    7.435111   6.232952   4.835712   4.308821   4.308349
    25  H    7.468794   6.264588   4.863969   4.573480   4.077165
    26  H    7.468857   6.264599   4.863978   4.076977   4.573667
    27  F    5.566525   6.783801   8.208058   9.012007   9.011596
                   16         17         18         19         20
    16  C    0.000000
    17  H    2.155039   0.000000
    18  C    2.405874   3.872866   0.000000
    19  H    3.872866   4.304010   2.155034   0.000000
    20  C    1.403306   3.419526   1.403315   3.419529   0.000000
    21  H    1.087959   2.472638   3.394469   4.960801   2.156588
    22  H    3.394466   4.960802   1.087960   2.472640   2.156593
    23  C    2.536473   4.690562   2.536451   4.690536   1.510513
    24  H    3.060286   5.134865   3.059635   5.134168   2.161974
    25  H    3.402261   5.515561   2.703656   4.773923   2.166952
    26  H    2.703357   4.773627   3.402515   5.515838   2.166955
    27  F   10.392616   8.659829  10.392253   8.659060  11.045227
                   21         22         23         24         25
    21  H    0.000000
    22  H    4.297296   0.000000
    23  C    2.737016   2.736970   0.000000
    24  H    3.168031   3.166899   1.098726   0.000000
    25  H    3.723069   2.498412   1.095763   1.767738   0.000000
    26  H    2.497835   3.723468   1.095759   1.767749   1.773698
    27  F   11.071222  11.070624  12.555405  12.968660  13.006496
                   26         27
    26  H    0.000000
    27  F   13.006720   0.000000
 Stoichiometry    C15H11F
 Framework group  C1[X(C15H11F)]
 Deg. of freedom    75
 Full point group                 C1      NOp   1
 Largest Abelian subgroup         C1      NOp   1
 Largest concise Abelian subgroup C1      NOp   1
                         Standard orientation:                         
 ---------------------------------------------------------------------
 Center     Atomic      Atomic             Coordinates (Angstroms)
 Number     Number       Type             X           Y           Z
 ---------------------------------------------------------------------
      1          6           0       -4.176152    1.219898    0.002213
      2          6           0       -2.782776    1.215047    0.000703
      3          6           0       -2.064141    0.000170   -0.000026
      4          6           0       -2.782508   -1.214882    0.000791
      5          6           0       -4.175870   -1.220042    0.002305
      6          6           0       -4.838573   -0.000142    0.002979
      7          1           0       -4.744111    2.144661    0.002792
      8          1           0       -2.238355    2.154240    0.000089
      9          1           0       -2.237859   -2.153943    0.000247
     10          1           0       -4.743645   -2.144920    0.002952
     11          6           0       -0.640037    0.000325   -0.001482
     12          6           0        0.577238    0.000394   -0.003230
     13          6           0        2.001495    0.000218   -0.003995
     14          6           0        2.723678    1.210890   -0.006461
     15          6           0        2.723382   -1.210641   -0.006545
     16          6           0        4.116162    1.202889   -0.009921
     17          1           0        2.181477    2.152199   -0.009295
     18          6           0        4.115859   -1.202985   -0.010003
     19          1           0        2.180943   -2.151812   -0.009448
     20          6           0        4.838660   -0.000134   -0.009082
     21          1           0        4.654106    2.148535   -0.014946
     22          1           0        4.653575   -2.148762   -0.015095
     23          6           0        6.348832   -0.000354    0.023003
     24          1           0        6.719288   -0.001240    1.057393
     25          1           0        6.760939   -0.886867   -0.471931
     26          1           0        6.761175    0.886831   -0.470518
     27          9           0       -6.206559   -0.000313    0.004474
 ---------------------------------------------------------------------
 Rotational constants (GHZ):           2.7845071           0.1522569           0.1444941
 Standard basis: 6-31+G(d) (6D, 7F)
 There are   326 symmetry adapted cartesian basis functions of A   symmetry.
 There are   326 symmetry adapted basis functions of A   symmetry.
   326 basis functions,   556 primitive gaussians,   326 cartesian basis functions
    55 alpha electrons       55 beta electrons
       nuclear repulsion energy       875.7401524048 Hartrees.
 NAtoms=   27 NActive=   27 NUniq=   27 SFac= 1.00D+00 NAtFMM=   60 NAOKFM=F Big=F
 Integral buffers will be    131072 words long.
 Raffenetti 2 integral format.
 Two-electron integral symmetry is turned on.
 Nuclear repulsion after empirical dispersion term =      875.7223791453 Hartrees.
 One-electron integrals computed using PRISM.
 NBasis=   326 RedAO= T EigKep=  2.25D-06  NBF=   326
 NBsUse=   322 1.00D-06 EigRej=  5.79D-07 NBFU=   322
 Initial guess from the checkpoint file:  "molecule_25.chk"
 B after Tr=     0.000000    0.000000    0.000000
         Rot=    1.000000    0.000000   -0.000025    0.000001 Ang=   0.00 deg.
 ExpMin= 4.38D-02 ExpMax= 7.00D+03 ExpMxC= 1.05D+03 IAcc=3 IRadAn=         5 AccDes= 0.00D+00
 Harris functional with IExCor=  402 and IRadAn=       5 diagonalized for initial guess.
 HarFok:  IExCor=  402 AccDes= 0.00D+00 IRadAn=         5 IDoV= 1 UseB2=F ITyADJ=14
 ICtDFT=  3500011 ScaDFX=  1.000000  1.000000  1.000000  1.000000
 FoFCou: FMM=F IPFlag=           0 FMFlag=      100000 FMFlg1=           0
         NFxFlg=           0 DoJE=T BraDBF=F KetDBF=T FulRan=T
         wScrn=  0.000000 ICntrl=       500 IOpCl=  0 I1Cent=   200000004 NGrid=           0
         NMat0=    1 NMatS0=      1 NMatT0=    0 NMatD0=    1 NMtDS0=    0 NMtDT0=    0
 Petite list used in FoFCou.
 Requested convergence on RMS density matrix=1.00D-08 within 128 cycles.
 Requested convergence on MAX density matrix=1.00D-06.
 Requested convergence on             energy=1.00D-06.
 No special actions if energy rises.
 SCF Done:  E(RB3LYP) =  -678.061015792     A.U. after   11 cycles
            NFock= 11  Conv=0.77D-08     -V/T= 2.0096
 Calling FoFJK, ICntrl=      2127 FMM=F ISym2X=0 I1Cent= 0 IOpClX= 0 NMat=1 NMatS=1 NMatT=0.
 ***** Axes restored to original set *****
 -------------------------------------------------------------------
 Center     Atomic                   Forces (Hartrees/Bohr)
 Number     Number              X              Y              Z
 -------------------------------------------------------------------
      1        6          -0.001209713   -0.000535437   -0.000002123
      2        6          -0.000415047   -0.000034079    0.000000961
      3        6           0.000372996    0.000000598   -0.000002115
      4        6          -0.000426542    0.000028350    0.000001415
      5        6          -0.001200128    0.000529724   -0.000002523
      6        6           0.008482704    0.000006798    0.000010491
      7        1           0.000042332    0.000183426   -0.000000369
      8        1          -0.000095000   -0.000032890   -0.000000145
      9        1          -0.000093819    0.000033750   -0.000000242
     10        1           0.000040360   -0.000182521   -0.000000331
     11        6          -0.000209438    0.000001788   -0.000002286
     12        6           0.000181564    0.000009813    0.000007723
     13        6          -0.000286236   -0.000007021   -0.000001584
     14        6           0.000241654   -0.000117014    0.000006041
     15        6           0.000245497    0.000117408    0.000006041
     16        6          -0.000164228    0.000076530   -0.000006777
     17        1          -0.000059615   -0.000022358    0.000000400
     18        6          -0.000165407   -0.000077859   -0.000006935
     19        1          -0.000059610    0.000022446    0.000000509
     20        6          -0.000207973    0.000000229    0.000013090
     21        1           0.000036809   -0.000112074   -0.000007887
     22        1           0.000037271    0.000112269   -0.000007951
     23        6          -0.000037198    0.000000140   -0.000008541
     24        1          -0.000005967   -0.000000054    0.000002214
     25        1          -0.000028233   -0.000020705    0.000003256
     26        1          -0.000028302    0.000020693    0.000003229
     27        9          -0.004988727   -0.000001948   -0.000005562
 -------------------------------------------------------------------
 Cartesian Forces:  Max     0.008482704 RMS     0.001118617

 GradGradGradGradGradGradGradGradGradGradGradGradGradGradGradGradGradGrad
 Berny optimization.
 Using GEDIIS/GDIIS optimizer.
 FormGI is forming the generalized inverse of G from B-inverse, IUseBI=4.
 Internal  Forces:  Max     0.004988731 RMS     0.000513966
 Search for a local minimum.
 Step number   2 out of a maximum of  142
 All quantities printed in internal units (Hartrees-Bohrs-Radians)
 Mixed Optimization -- En-DIIS/RFO-DIIS
 Update second derivatives using D2CorX and points    1    2
[...]
 0.00001266,0.,0.00005733,0.00000071,-0.00000381,-0.00004877,0.00002369
 ,0.00000124,0.00000016,-0.00005860,0.,0.00000050,0.00000117,-0.0000000
 9,-0.00000019,-0.00000065,-0.00000039,0.00000020,-0.00000065,0.0000003
 9,-0.00000052,0.00000115,0.00000009,0.00000010,0.00077435,-0.00000003,
 -0.00000050,-0.00115103,-0.00000001,-0.00000039,-0.06721866,0.00000162
 ,0.07661685,0.03370055,0.00024427,-0.07661609,0.03370406,-0.00024580,0
 .04761262,-0.26783726,-0.00155553,-0.00180694,0.00165990,0.00011461,-0
 .04760688,-0.26782528,0.00156629,0.00180720,0.00165978,-0.00011427,-0.
 00001572,0.66078004,-0.00000206,-0.00006038,-0.00005892,-0.00001661,-0
 .00002589,0.00009193,0.00009197,0.,-0.00015282,-0.00001662,0.00002589,
 0.00009199,-0.00000206,0.00006039,-0.00005895,0.00009896,0.,0.00008347
 ,-0.00000734,0.00000524,-0.00000893,0.00000736,-0.00000255,0.00000306,
 0.00000736,0.00000255,0.00000306,-0.00000734,-0.00000524,-0.00000893,-
 0.00001030,-0.00000004,0.00024334,-0.00013483,0.00000003,-0.00139580,-
 0.00021708,0.00000181,-0.00514229,-0.00022281,-0.00072666,0.00526944,-
 0.00021836,0.00072500,0.00527006,0.00051128,-0.00037172,-0.06537565,0.
 00008841,-0.00002117,0.00747685,0.00051356,0.00038228,-0.06538099,0.00
 008829,0.00002150,0.00747794,-0.00541739,-0.00001267,0.16997735,-0.000
 02105,0.00000374,-0.00000132,-0.00009095,-0.00004714,0.00000045,0.0001
 6985,0.00009674,0.00000444,-0.00005001,0.00002275,-0.00000193,-0.00001
 716,0.00001292,0.00000135,0.00008758,-0.00000418,-0.00000021,-0.000016
 54,0.00000264,-0.00000015,0.00001188,-0.00000817,0.00000041,0.00001460
 ,0.00001250,-0.00000028,-0.00001048,-0.00000333,0.,-0.00042667,0.00003
 888,0.00000349,-0.00034136,-0.00137522,-0.00004469,-0.00501847,0.00165
 996,-0.00003495,-0.01161257,-0.02952783,0.00005525,-0.00065392,0.00074
 085,0.00002018,-0.12599515,-0.11775255,-0.00101700,0.00054627,0.000353
 53,0.00001722,-0.00128262,0.00332227,-0.00004668,0.00007475,-0.0001013
 4,-0.00000255,0.01053795,0.01406745,0.00001271,0.13272916,-0.00001755,
 -0.00002037,-0.00000052,-0.00001475,-0.00001588,0.00000077,0.00007148,
 -0.00001112,-0.00000006,-0.00001788,0.00000779,-0.00000102,-0.00001459
 ,0.00002354,0.00000080,0.00007697,-0.00000088,-0.00000012,-0.00000579,
 0.00000329,-0.00000004,0.00000711,-0.00000285,0.00000017,0.00000712,0.
 00000431,-0.00000011,-0.00000478,-0.00000333,0.,0.00002076,-0.00003435
 ,0.00000191,-0.00000478,0.00007414,-0.00000979,0.00091613,0.00193549,-
 0.00004133,0.00194062,0.00363179,0.00004315,0.00091200,0.00014830,-0.0
 0000830,-0.11749382,-0.26770035,-0.00128590,-0.00032750,0.00091728,0.0
 0003551,0.00420878,-0.00305603,-0.00008320,-0.00011696,-0.00000545,0.0
 0001405,-0.01591149,-0.02009026,-0.00013758,0.12651467,0.28417494,-0.0
 0000063,-0.00000080,0.00000471,-0.00000191,-0.00000017,0.00000386,0.00
 000600,0.00000043,-0.00001346,-0.00000112,-0.00000001,-0.00001502,-0.0
 0000012,0.00000100,-0.00000683,0.00000361,-0.00000023,0.00000273,-0.00
 000033,0.00000015,0.00000199,0.00000043,-0.00000030,0.00000332,0.00000
 035,0.00000025,0.00000427,-0.00000028,-0.00000016,0.00000217,-0.000011
 55,0.00000416,-0.00016244,0.00000643,-0.00001603,0.00047884,-0.0000431
 0,-0.00002948,0.00730351,0.00003698,-0.00008414,0.00289819,-0.00003427
 ,0.00001393,-0.00060959,-0.00077657,-0.00159243,-0.03645140,-0.0000026
 0,0.00001860,-0.00419086,0.00007251,0.00015446,0.00622598,-0.00000163,
 -0.00000666,-0.00105902,-0.00069549,0.00002532,0.00367698,0.00097297,0
 .00142064,0.02525874,-0.00001716,-0.00001291,0.00000135,-0.00005001,-0
 .00002275,-0.00000194,0.00016984,-0.00009674,0.00000445,-0.00009095,0.
 00004714,0.00000045,-0.00002105,-0.00000374,-0.00000132,0.00008757,0.0
 0000418,-0.00000021,-0.00001047,0.00000333,0.,0.00001460,-0.00001250,-
 0.00000028,0.00001188,0.00000817,0.00000041,-0.00001654,-0.00000264,-0
 .00000015,-0.00042665,-0.00003890,0.00000349,-0.00034138,0.00137527,-0
 .00004475,-0.00501851,-0.00165998,-0.00003489,-0.00065391,-0.00074086,
 0.00002022,-0.01161245,0.02952835,0.00005365,-0.00128295,-0.00332221,-
 0.00004651,0.00007479,0.00010135,-0.00000255,-0.12599517,0.11774929,-0
 .00102356,0.00054635,-0.00035354,0.00001726,0.01054114,-0.01406866,0.0
 0001340,0.00062345,-0.00081546,0.00004229,0.13272540,0.00001459,0.0000
 2354,-0.00000080,0.00001788,0.00000779,0.00000102,-0.00007149,-0.00001
 112,0.00000006,0.00001475,-0.00001588,-0.00000077,0.00001755,-0.000020
 37,0.00000052,-0.00007698,-0.00000088,0.00000012,0.00000478,-0.0000033
 3,0.,-0.00000712,0.00000431,0.00000011,-0.00000711,-0.00000285,-0.0000
 0017,0.00000579,0.00000329,0.00000004,-0.00002076,-0.00003435,-0.00000
 189,0.00000482,0.00007412,0.00000979,-0.00091603,0.00193538,0.00004162
 ,-0.00091181,0.00014840,0.00000829,-0.00194067,0.00363153,-0.00004317,
 -0.00420884,-0.00305573,0.00008369,0.00011696,-0.00000546,-0.00001411,
 0.11749254,-0.26769920,0.00129866,0.00032748,0.00091732,-0.00003579,0.
 01591202,-0.02009011,0.00013887,0.00081532,-0.00115202,-0.00002558,-0.
 12651339,0.28417413,-0.00000012,-0.00000100,-0.00000682,-0.00000112,0.
 00000001,-0.00001503,0.00000600,-0.00000044,-0.00001345,-0.00000191,0.
 00000018,0.00000387,-0.00000063,0.00000080,0.00000470,0.00000361,0.000
 00023,0.00000273,-0.00000028,0.00000016,0.00000217,0.00000035,-0.00000
 025,0.00000427,0.00000043,0.00000030,0.00000332,-0.00000033,-0.0000001
 5,0.00000199,-0.00001154,-0.00000417,-0.00016248,0.00000643,0.00001606
 ,0.00047880,-0.00004303,0.00002981,0.00730408,-0.00003427,-0.00001398,
 -0.00060956,0.00003713,0.00008408,0.00289869,0.00007275,-0.00015399,0.
 00622618,-0.00000164,0.00000660,-0.00105913,-0.00078317,0.00160536,-0.
 03645268,-0.00000262,-0.00001887,-0.00419128,-0.00069644,-0.00002395,0
 .00367666,0.00004225,0.00002565,0.00021306,0.00098006,-0.00143496,0.02
 525875,0.00003413,0.00001991,0.00000045,-0.00005618,0.00006141,0.00000
 033,0.00022530,0.,-0.00000671,-0.00005618,-0.00006141,0.00000033,0.000
 03414,-0.00001991,0.00000046,-0.00003350,0.,-0.00000104,0.00000187,0.0
 0000014,0.00000024,-0.00000290,0.00000171,-0.00000030,-0.00000290,-0.0
 0000171,-0.00000030,0.00000187,-0.00000014,0.00000024,-0.00064794,-0.0
 0000006,-0.00003231,0.00112077,-0.00000004,0.00021611,-0.00196179,0.00
 000349,-0.00016537,0.00292644,0.00127151,-0.00045569,0.00293338,-0.001
 27492,-0.00045568,-0.02215976,0.00449946,0.00048701,-0.00005743,-0.000
 17826,0.00012710,-0.02216834,-0.00450272,0.00048724,-0.00005741,0.0001
 7820,0.00012708,-0.21186575,0.00000721,0.00295455,0.00105050,-0.001515
 37,0.00043725,0.00104945,0.00151420,0.00043726,0.48741709,-0.00000821,
 0.00000665,0.00000548,0.00000131,-0.00000917,-0.00000129,-0.00000051,-
 0.00001399,0.,-0.00000109,-0.00000920,0.00000130,0.00000828,0.00000642
 ,-0.00000548,-0.00000030,-0.00000297,0.,-0.00000005,-0.00000056,0.0000
 0070,-0.00000471,0.00000315,-0.00000151,0.00000468,0.00000314,0.000001
 51,0.00000009,-0.00000053,-0.00000070,0.00000080,0.00005331,0.,-0.0000
 0106,0.00020692,-0.00000004,0.00000279,-0.00048993,0.00000008,0.001597
 35,-0.00480833,-0.00115807,-0.00160254,-0.00481113,0.00115866,0.029396
 65,0.00343491,-0.00153629,0.00139266,0.00004376,0.00009372,-0.02939928
 ,0.00343918,0.00153635,-0.00139325,0.00004377,-0.00009377,-0.00000774,
 -0.08966956,0.00000122,0.00120979,0.00062537,0.00085281,-0.00120749,0.
 00062710,-0.00085315,0.00002356,0.58492552,0.00001393,0.00006210,0.000
 01655,0.00005237,0.00001318,-0.00002449,-0.00024134,0.,0.00009238,0.00
 005237,-0.00001318,-0.00002452,0.00001393,-0.00006210,0.00001658,-0.00
 014843,0.,-0.00002927,0.00000969,-0.00000705,0.00000328,-0.00000883,0.
 00000299,0.00000108,-0.00000883,-0.00000299,0.00000108,0.00000969,0.00
 000705,0.00000328,0.00033547,0.00000002,0.00000250,-0.00045348,-0.0000
 0003,-0.00075133,0.00099489,-0.00000040,-0.00106566,-0.00121984,0.0004
 5123,0.00650875,-0.00122051,-0.00045025,0.00650260,-0.00030130,-0.0002
 9490,0.00456404,-0.00016069,0.00000279,0.00002843,-0.00029885,0.000295
 31,0.00455802,-0.00016060,-0.00000279,0.00002859,-0.00123635,0.0000006
 0,-0.07086343,0.00023499,-0.00055710,-0.00328294,0.00023512,0.00055700
 ,-0.00327852,0.01178532,-0.00000368,0.53788655,-0.00003551,-0.00005687
 ,-0.00000376,-0.00002161,-0.00004236,-0.00000077,0.00010150,0.,-0.0000
 0702,-0.00002162,0.00004237,-0.00000077,-0.00003551,0.00005686,-0.0000
 0375,0.00014826,0.,0.00000331,-0.00001020,0.00000633,0.00000096,0.0000
 1056,-0.00000395,0.00000302,0.00001056,0.00000395,0.00000302,-0.000010
 20,-0.00000633,0.00000096,0.00001132,-0.00000001,-0.00001043,-0.000195
 91,-0.00000007,0.00014054,0.00003474,0.00000040,0.00025442,-0.00051083
 ,-0.00022750,-0.00149942,-0.00050967,0.00022837,-0.00149859,-0.0002393
 4,-0.00133208,-0.00044583,-0.00010987,0.00003888,0.00003601,-0.0002339
 4,0.00133062,-0.00044766,-0.00010942,-0.00003890,0.00003617,-0.0152747
 1,0.00002702,0.03120386,0.00004368,0.00036485,0.00068371,0.00004396,-0
 .00036570,0.00068375,-0.07173512,0.00006026,0.08076414,0.08087755,0.00
 000162,-0.00000209,-0.00000135,0.00000172,0.00000313,0.00000069,0.0000
 0013,0.00000407,0.,-0.00000178,0.00000309,-0.00000070,-0.00000161,-0.0
 0000208,0.00000136,0.00000002,0.00000280,0.,0.00000062,0.00000005,-0.0
 0000032,0.00000002,-0.00000072,0.,-0.00000002,-0.00000073,0.,-0.000000
 62,0.00000005,0.00000032,-0.00000030,-0.00003452,0.00000007,0.00000055
 ,0.00000972,-0.00000032,-0.00000093,0.00115369,0.,-0.00114049,-0.00057
 187,0.00039295,0.00114290,-0.00057197,-0.00039145,0.00185277,-0.000353
 69,0.00055558,0.00001439,-0.00001867,-0.00006041,-0.00185446,-0.000353
 84,-0.00055491,-0.00001421,-0.00001865,0.00006028,0.00000401,0.0003855
 4,0.00000128,0.00006083,-0.00013011,-0.00030562,-0.00006075,-0.0001310
 0,0.00030400,0.00005687,-0.04670405,-0.00018348,-0.00006829,0.04575438
 ,0.00001474,0.00001235,0.00000004,-0.00001029,0.00002066,0.00000033,0.
 00003713,0.,0.00000505,-0.00001029,-0.00002067,0.00000032,0.00001474,-
 0.00001235,0.00000004,-0.00003772,0.,-0.00000009,0.00000220,-0.0000012
 2,-0.00000083,-0.00000336,0.00000192,-0.00000105,-0.00000336,-0.000001
 92,-0.00000105,0.00000220,0.00000122,-0.00000083,-0.00015693,0.,0.0000
 1029,0.00030797,0.00000004,-0.00008558,-0.00052218,0.00000037,-0.00005
 868,0.00058926,0.00004053,0.00008240,0.00059023,-0.00004033,0.00008337
 ,-0.00041247,0.00069365,0.00030009,0.00004492,-0.00000049,0.00003028,-
 0.00041255,-0.00069352,0.00030355,0.00004498,0.00000051,0.00003016,0.0
 0186796,0.00000189,0.00381550,0.00005364,0.00004872,-0.00030270,0.0000
 5410,-0.00004795,-0.00030376,0.07657175,-0.00018379,-0.27694267,-0.086
 58126,0.00020274,0.30104369,-0.00001098,-0.00002775,0.00000103,-0.0000
 1417,-0.00001019,0.00000094,0.00006641,0.00000615,-0.00000083,-0.00001
 460,0.00001842,-0.00000315,-0.00001263,0.00002411,0.00000400,0.0000649
 6,0.00000093,-0.00000123,-0.00000436,0.00000293,-0.00000038,0.00000622
 ,-0.00000361,-0.00000059,0.00000445,0.00000102,-0.00000173,-0.00000537
 ,-0.00000286,-0.00000019,-0.00003316,-0.00000480,0.00001398,-0.0000003
 2,-0.00009734,-0.00004899,0.00009436,-0.00016190,-0.00016347,-0.000135
 10,0.00143040,0.00087244,-0.00007736,0.00009762,0.00039740,-0.00565464
 ,-0.00196234,-0.00051684,-0.00046287,-0.00000060,0.00004309,0.00124204
 ,0.00171820,0.00056268,0.00003131,-0.00001835,-0.00001742,-0.01310884,
 0.02837617,-0.01459196,0.00004809,0.00003569,-0.00027139,-0.00027606,-
 0.00129035,-0.00041706,-0.08300032,0.07566348,-0.04470143,0.00399370,-
 0.00926911,0.00396336,0.09274283,0.00001012,0.00001031,-0.00000159,0.0
 0000263,0.00000932,-0.00000192,-0.00000937,-0.00000350,-0.00001116,0.0
 0000215,-0.00001243,0.00000324,0.00001106,-0.00000873,-0.00000060,-0.0
 0003994,-0.00000131,0.00000160,0.00000196,-0.00000163,0.00000069,-0.00
 000434,0.00000342,0.00000171,-0.00000421,-0.00000235,0.00000018,0.0000
 0288,0.00000153,0.00000092,-0.00003959,-0.00000261,-0.00001303,0.00012
 144,0.00005515,0.00016082,-0.00028074,0.00029026,-0.00005474,-0.000124
 70,-0.00008971,0.00000008,0.00069278,0.00013081,-0.00060077,0.00038781
 ,0.00045842,0.00059205,0.00005913,-0.00000045,-0.00000494,-0.00204428,
 0.00036798,-0.00034588,0.00006224,0.00000609,0.00004106,0.00011367,0.0
 0060386,-0.00202763,-0.00018905,0.00043183,0.00006272,-0.00007064,0.00
 024273,0.00049362,0.07761262,-0.22329817,0.09725287,-0.00096063,0.0008
 0961,-0.00040595,-0.08494823,0.23996051,-0.00000626,-0.00001696,-0.000
 00148,-0.00001188,-0.00000261,0.00000131,0.00005929,0.00000035,0.00000
 506,-0.00001175,0.00000592,-0.00000109,-0.00000714,0.00001556,-0.00000
 075,0.00004511,0.00000075,0.00000064,-0.00000229,0.00000199,0.00000023
 ,0.00000263,-0.00000161,0.00000018,0.00000279,0.00000101,0.00000112,-0
 .00000313,-0.00000191,0.00000047,-0.00006836,0.00000273,-0.00000914,0.
 00009754,-0.00001272,0.00001132,-0.00013762,-0.00048364,-0.00002049,0.
 00087719,0.00010179,0.00010557,-0.00023426,-0.00001935,-0.00004428,0.0
 0002538,-0.00010419,0.00052148,0.00004043,-0.00001137,-0.00007830,0.00
 014426,0.00030787,0.00040193,-0.00001903,0.00000480,-0.00002742,0.0026
 5358,-0.00285641,0.00065325,0.00004121,0.00014209,-0.00003108,-0.00031
 105,-0.00039236,0.00004743,-0.04631663,0.09763065,-0.10212508,-0.01165
 579,0.02667631,-0.01402616,0.04773591,-0.10808674,0.10672250,-0.000012
 60,-0.00002406,0.00000399,-0.00001459,-0.00001839,-0.00000315,0.000066
 34,-0.00000615,-0.00000084,-0.00001416,0.00001015,0.00000094,-0.000010
 95,0.00002770,0.00000103,0.00006484,-0.00000093,-0.00000122,-0.0000053
 6,0.00000285,-0.00000019,0.00000444,-0.00000102,-0.00000173,0.00000622
 ,0.00000361,-0.00000059,-0.00000435,-0.00000292,-0.00000038,-0.0000332
 0,0.00000482,0.00001396,-0.00000005,0.00009742,-0.00004880,0.00009459,
 0.00016271,-0.00016310,-0.00007741,-0.00009699,0.00039601,-0.00013378,
 -0.00143267,0.00087022,0.00124284,-0.00172003,0.00056180,0.00003136,0.
 00001831,-0.00001734,-0.00566086,0.00196241,-0.00051600,-0.00046321,0.
 00000065,0.00004300,-0.01310345,-0.02839932,-0.01455148,-0.00027747,0.
 00129169,-0.00041633,0.00004817,-0.00003557,-0.00027062,-0.08301151,-0
 .07573596,-0.04458202,0.00399394,0.00927614,0.00394847,0.00461533,0.00
 958670,0.00712717,0.09275362,-0.00001107,-0.00000877,0.00000060,-0.000
 00221,-0.00001243,-0.00000324,0.00000964,-0.00000350,0.00001116,-0.000
 00269,0.00000931,0.00000192,-0.00001013,0.00001036,0.00000159,0.000040
 06,-0.00000131,-0.00000159,-0.00000289,0.00000154,-0.00000092,0.000004
 22,-0.00000235,-0.00000018,0.00000435,0.00000342,-0.00000170,-0.000001
 97,-0.00000163,-0.00000069,0.00003913,-0.00000261,0.00001298,-0.000120
 74,0.00005522,-0.00016049,0.00027965,0.00028952,0.00005465,-0.00069075
 ,0.00013181,0.00060013,0.00012577,-0.00008930,-0.00000093,0.00204384,0
 .00036927,0.00034550,-0.00006228,0.00000611,-0.00004103,-0.00038604,0.
 00045937,-0.00059199,-0.00005905,-0.00000039,0.00000506,-0.00010636,0.
 00060795,0.00202547,0.00007072,0.00024384,-0.00049290,0.00018934,0.000
 43156,-0.00006191,-0.07769576,-0.22360350,-0.09706719,0.00094279,0.000
 76915,0.00038359,-0.00957658,-0.01996197,-0.01290116,0.08502775,0.2402
 9831,-0.00000712,-0.00001554,-0.00000075,-0.00001175,-0.00000589,-0.00
 000109,0.00005926,-0.00000034,0.00000506,-0.00001188,0.00000259,0.0000
 0130,-0.00000625,0.00001693,-0.00000148,0.00004503,-0.00000074,0.00000
 064,-0.00000312,0.00000190,0.00000047,0.00000278,-0.00000101,0.0000011
 2,0.00000262,0.00000161,0.00000019,-0.00000229,-0.00000198,0.00000023,
 -0.00006843,-0.00000274,-0.00000913,0.00009771,0.00001267,0.00001135,-
 0.00013793,0.00048335,-0.00002049,-0.00023365,0.00001918,-0.00004500,0
 .00087696,-0.00010188,0.00010734,0.00014404,-0.00030714,0.00039945,-0.
 00001895,-0.00000481,-0.00002747,0.00002501,0.00010332,0.00052516,0.00
 004043,0.00001134,-0.00007873,0.00265222,0.00285405,0.00064319,-0.0003
 1075,0.00039171,0.00004887,0.00004104,-0.00014233,-0.00003211,-0.04619
 887,-0.09744469,-0.10182923,-0.01165853,-0.02669704,-0.01398239,0.0071
 4210,0.01294418,0.00789322,0.04760748,0.10788253,0.10639071,-0.0441786
 2,-0.00342626,-0.00005350,0.00247837,-0.00465853,-0.00000452,-0.001491
 40,-0.00000008,0.00000181,0.00247834,0.00465878,-0.00000432,-0.0441797
 8,0.00342505,-0.00005334,-0.29870492,-0.00000275,-0.00027718,0.0018753
 6,0.00020874,0.00000640,-0.00175156,0.00022016,-0.00000173,-0.00175159
 ,-0.00022021,-0.00000174,0.00187539,-0.00020876,0.00000639,0.00006261,
 0.,-0.00000536,-0.00064415,0.00000002,0.00000159,0.00101958,-0.0000000
 9,0.00001464,-0.00032454,0.00030317,0.00001294,-0.00032459,-0.00030316
 ,0.00001294,-0.00020150,0.00040442,0.00000689,0.00009676,0.00003736,-0
 .00000826,-0.00020150,-0.00040438,0.00000694,0.00009676,-0.00003735,-0
 .00000826,0.00000774,-0.00000024,-0.00017548,-0.00012335,-0.00010715,-
 0.00000524,-0.00012333,0.00010715,-0.00000525,0.00002209,0.00000048,0.
 00024058,-0.00021632,-0.00000004,0.00004276,-0.00009892,0.00004854,-0.
 00006727,-0.00009874,-0.00004875,-0.00006717,0.38440180,-0.04375011,0.
 00638704,-0.00004631,0.00398419,-0.00797412,0.00000383,-0.00000008,0.0
 0455077,0.00000014,-0.00398393,-0.00797410,-0.00000449,0.04374889,0.00
 638816,0.00004631,-0.00000275,-0.07363362,-0.00000077,0.00123029,0.002
 64514,0.00000146,-0.00161769,0.00016597,-0.00000173,0.00161764,0.00016
 600,0.00000174,-0.00123030,0.00264510,-0.00000116,0.,0.00048057,0.0000
 0003,0.,-0.00003825,-0.00000001,0.00000001,-0.00002366,0.,0.00000299,-
 0.00001793,0.00000001,-0.00000300,-0.00001794,0.,0.00000333,0.00000563
 ,0.00000003,0.00000328,0.00000745,0.00000018,-0.00000333,0.00000562,-0
 .00000003,-0.00000327,0.00000745,-0.00000018,0.,0.00000250,0.,0.000003
 25,0.00000109,0.00000005,-0.00000326,0.00000110,-0.00000005,0.,0.00000
 189,0.,0.,-0.00000128,0.,-0.00000110,0.00000102,-0.00000079,0.00000110
 ,0.00000103,0.00000079,0.00000386,0.06621737,-0.00005475,-0.00000383,0
 .00644362,-0.00000457,-0.00000517,0.00703242,0.00000025,0.00000013,-0.
 00123032,-0.00000474,0.00000451,0.00703241,-0.00005284,0.00000383,0.00
 644362,-0.00027716,-0.00000078,-0.03845419,0.00000651,0.00000033,-0.00
 426372,-0.00000192,0.00000024,-0.00000286,-0.00000185,-0.00000023,-0.0
 0000285,0.00000646,-0.00000002,-0.00426371,0.00000104,0.00000003,-0.00
 089508,-0.00000067,0.,0.00002448,0.00000113,0.,0.00005140,-0.00000014,
 0.00000025,0.00001146,-0.00000014,-0.00000025,0.00001146,-0.00000057,0
 .00000051,-0.00000094,0.00000006,0.00000012,-0.00000664,-0.00000057,-0
 .00000051,-0.00000093,0.00000006,-0.00000012,-0.00000664,0.00000053,0.
 ,-0.00000737,-0.00000007,-0.00000010,-0.00000187,-0.00000007,0.0000001
 0,-0.00000187,0.00000015,0.,0.00000347,-0.00000030,0.,0.00000069,-0.00
 000028,-0.00000077,-0.00000043,-0.00000028,0.00000076,-0.00000043,0.00
 038474,0.00000097,0.02208482\\-0.00000480,0.00000490,-0.00000023,-0.00
 000061,-0.00000287,0.00000010,0.00000676,0.00000002,0.00000151,-0.0000
 0025,0.00000304,0.00000019,-0.00000510,-0.00000474,-0.00000029,-0.0000
 1010,-0.00000015,0.00000019,0.00000384,-0.00000029,-0.00000004,0.00000
 023,0.00000228,-0.00000003,0.00000020,-0.00000231,-0.00000003,0.000003
 89,0.00000025,-0.00000003,-0.00000511,-0.00000004,-0.00000061,-0.00000
 048,-0.00000045,-0.00000306,-0.00000071,0.00000034,0.00000373,0.000002
 99,0.00000003,-0.00000052,0.00000281,-0.00000007,-0.00000052,-0.000001
 78,-0.00000020,-0.00000183,-0.00000030,0.00000035,0.00000014,-0.000001
 74,0.00000027,-0.00000179,-0.00000031,-0.00000036,0.00000014,0.0000001
 7,-0.00000003,0.00000496,0.00000008,0.00000047,-0.00000022,0.00000007,
 -0.00000048,-0.00000021,-0.00000104,0.,-0.00000115,0.00000030,0.000000
 03,-0.00000048,-0.00000066,-0.00000011,0.00000003,-0.00000065,0.000000
 10,0.00000007,0.00001230,0.00000003,-0.00000002\\\@


 THE RED LIGHT IS ALWAYS LONGER THAN THE GREEN LIGHT.

                     -- PETER'S THEORY OF RELATIVITY
 Job cpu time:       0 days  1 hours 58 minutes 40.6 seconds.
 Elapsed time:       0 days  0 hours  3 minutes 57.4 seconds.
 File lengths (MBytes):  RWF=    297 Int=      0 D2E=      0 Chk=     10 Scr=      1
 Normal termination of Gaussian 16 at Mon Sep 18 04:00:06 2023.
