 Entering Gaussian System, Link 0=/home/ubuntu/g16/g16
 Input=/home/ubuntu/ml products/molecule_78.gjf
 Output=/home/ubuntu/ml products/molecule_78.log
 Initial command:
 /home/ubuntu/g16/l1.exe "/home/ubuntu/Scratch/Gau-154886.inp" -scrdir="/home/ubuntu/Scratch/"
 Entering Link 1 = /home/ubuntu/g16/l1.exe PID=    154888.
  
 Copyright (c) 1988-2017, Gaussian, Inc.  All Rights Reserved.
  
 This is part of the Gaussian(R) 16 program.  It is based on
 the Gaussian(R) 09 system (copyright 2009, Gaussian, Inc.),
 the Gaussian(R) 03 system (copyright 2003, Gaussian, Inc.),
 the Gaussian(R) 98 system (copyright 1998, Gaussian, Inc.),
 the Gaussian(R) 94 system (copyright 1995, Gaussian, Inc.),
 the Gaussian 92(TM) system (copyright 1992, Gaussian, Inc.),
 the Gaussian 90(TM) system (copyright 1990, Gaussian, Inc.),
 the Gaussian 88(TM) system (copyright 1988, Gaussian, Inc.),
 the Gaussian 86(TM) system (copyright 1986, Carnegie Mellon
 University), and the Gaussian 82(TM) system (copyright 1983,
 Carnegie Mellon University). Gaussian is a federally registered
 trademark of Gaussian, Inc.
  
 This software contains proprietary and confidential information,
 including trade secrets, belonging to Gaussian, Inc.
  
 This software is provided under written license and may be
 used, copied, transmitted, or stored only in accord with that
 written license.
  
 The following legend is applicable only to US Government
 contracts under FAR:
  
                    RESTRICTED RIGHTS LEGEND
  
 Use, reproduction and disclosure by the US Government is
 subject to restrictions as set forth in subparagraphs (a)
 and (c) of the Commercial Computer Software - Restricted
 Rights clause in FAR 52.227-19.
  
 Gaussian, Inc.
 340 Quinnipiac St., Bldg. 40, Wallingford CT 06492
  
  
 ---------------------------------------------------------------
 Warning -- This program may not be used in any manner that
 competes with the business of Gaussian, Inc. or will provide
 assistance to any competitor of Gaussian, Inc.  The licensee
 of this program is prohibited from giving any competitor of
 Gaussian, Inc. access to this program.  By using this program,
 the user acknowledges that Gaussian, Inc. is engaged in the
 business of creating and licensing software in the field of
 computational chemistry and represents and warrants to the
 licensee that it is not a competitor of Gaussian, Inc. and that
 it will not use this program in any manner prohibited above.
 ---------------------------------------------------------------
  

 Cite this work as:
 Gaussian 16, Revision B.01,
 M. J. Frisch, G. W. Trucks, H. B. Schlegel, G. E. Scuseria, 
 M. A. Robb, J. R. Cheeseman, G. Scalmani, V. Barone, 
 G. A. Petersson, H. Nakatsuji, X. Li, M. Caricato, A. V. Marenich, 
 J. Bloino, B. G. Janesko, R. Gomperts, B. Mennucci, H. P. Hratchian, 
 J. V. Ortiz, A. F. Izmaylov, J. L. Sonnenberg, D. Williams-Young, 
 F. Ding, F. Lipparini, F. Egidi, J. Goings, B. Peng, A. Petrone, 
 T. Henderson, D. Ranasinghe, V. G. Zakrzewski, J. Gao, N. Rega, 
 G. Zheng, W. Liang, M. Hada, M. Ehara, K. Toyota, R. Fukuda, 
 J. Hasegawa, M. Ishida, T. Nakajima, Y. Honda, O. Kitao, H. Nakai, 
 T. Vreven, K. Throssell, J. A. Montgomery, Jr., J. E. Peralta, 
 F. Ogliaro, M. J. Bearpark, J. J. Heyd, E. N. Brothers, K. N. Kudin, 
 V. N. Staroverov, T. A. Keith, R. Kobayashi, J. Normand, 
 K. Raghavachari, A. P. Rendell, J. C. Burant, S. S. Iyengar, 
 J. Tomasi, M. Cossi, J. M. Millam, M. Klene, C. Adamo, R. Cammi, 
 J. W. Ochterski, R. L. Martin, K. Morokuma, O. Farkas, 
 J. B. Foresman, and D. J. Fox, Gaussian, Inc., Wallingford CT, 2016.
 
 ******************************************
 Gaussian 16:  EM64L-G16RevB.01 20-Dec-2017
                16-Sep-2023 
 ******************************************
 %nprocshared=30
 Will use up to   30 processors via shared memory.
 %mem=30GB
 %chk=molecule_78.chk
 ----------------------------------------------------------------------
 # opt freq b3lyp/6-31+g(d) geom=connectivity empiricaldispersion=gd3 v
 olume
 ----------------------------------------------------------------------
 1/18=20,19=15,26=3,38=1,57=2/1,3;
 2/9=110,12=2,17=6,18=5,40=1/2;
 3/5=1,6=6,7=11,11=2,25=1,30=1,71=1,74=-5,124=31/1,2,3;
 4//1;
 5/5=2,38=5/2;
 6/7=2,8=2,9=2,10=2,28=1,44=1/1,4;
 7//1,2,3,16;
 1/18=20,19=15,26=3/3(2);
 2/9=110/2;
 99//99;
 2/9=110/2;
 3/5=1,6=6,7=11,11=2,25=1,30=1,71=1,74=-5,124=31/1,2,3;
 4/5=5,16=3,69=1/1;
 5/5=2,38=5/2;
 7//1,2,3,16;
 1/18=20,19=15,26=3/3(-5);
 2/9=110/2;
 6/7=2,8=2,9=2,10=2,19=2,28=1,44=1/1,4;
 99/9=1/99;
 -------------
 ML molecule78
 -------------
 Symbolic Z-matrix:
 Charge =  0 Multiplicity = 1
 C                    -4.74942  -0.23058  -0.40002 
 C                    -4.8202    0.23854  -1.71867 
 C                    -4.55025   1.58484  -1.99888 
 C                    -4.20951   2.46203  -0.96044 
 C                    -4.13873   1.99291   0.35822 
 C                    -4.40868   0.64661   0.63842 
 H                    -5.08036  -0.43121  -2.51155 
 H                    -3.87857   2.66266   1.15109 
 H                    -4.35464   0.28843   1.64524 
 O                    -3.91049   3.9533   -1.27081 
 C                    -3.81752   4.69985  -2.77936 
 C                    -4.13168   3.88761  -3.87731 
 C                    -3.30395   5.98751  -2.98454 
 C                    -3.10452   6.46292  -4.28767 
 H                    -3.06408   6.60768  -2.14623 
 C                    -3.41867   5.65068  -5.38561 
 H                    -2.7124    7.44608  -4.44432 
 H                    -3.26641   6.01366  -6.38058 
 H                    -4.60429   1.94302  -3.0057 
 H                    -4.5238    2.90445  -3.72065 
 N                    -5.03258  -1.64279  -0.1061 
 O                    -4.12167  -2.42275  -0.12371 
 O                    -6.16321  -1.95858   0.13958 
 N                    -3.93225   4.36302  -5.18043 
 

 GradGradGradGradGradGradGradGradGradGradGradGradGradGradGradGradGradGrad
 Berny optimization.
 Initialization pass.
                           ----------------------------
                           !    Initial Parameters    !
                           ! (Angstroms and Degrees)  !
 --------------------------                            --------------------------
 ! Name  Definition              Value          Derivative Info.                !
 --------------------------------------------------------------------------------
 ! R1    R(1,2)                  1.4014         estimate D2E/DX2                !
 ! R2    R(1,6)                  1.4014         estimate D2E/DX2                !
 ! R3    R(1,21)                 1.47           estimate D2E/DX2                !
 ! R4    R(2,3)                  1.4014         estimate D2E/DX2                !
 ! R5    R(2,7)                  1.07           estimate D2E/DX2                !
 ! R6    R(3,4)                  1.4014         estimate D2E/DX2                !
 ! R7    R(3,19)                 1.07           estimate D2E/DX2                !
 ! R8    R(4,5)                  1.4014         estimate D2E/DX2                !
 ! R9    R(4,10)                 1.5523         estimate D2E/DX2                !
 ! R10   R(5,6)                  1.4014         estimate D2E/DX2                !
 ! R11   R(5,8)                  1.07           estimate D2E/DX2                !
 ! R12   R(6,9)                  1.07           estimate D2E/DX2                !
 ! R13   R(10,11)                1.6857         estimate D2E/DX2                !
 ! R14   R(11,12)                1.4014         estimate D2E/DX2                !
 ! R15   R(11,13)                1.4014         estimate D2E/DX2                !
 ! R16   R(12,20)                1.07           estimate D2E/DX2                !
 ! R17   R(12,24)                1.4014         estimate D2E/DX2                !
 ! R18   R(13,14)                1.4014         estimate D2E/DX2                !
 ! R19   R(13,15)                1.07           estimate D2E/DX2                !
 ! R20   R(14,16)                1.4014         estimate D2E/DX2                !
 ! R21   R(14,17)                1.07           estimate D2E/DX2                !
 ! R22   R(16,18)                1.07           estimate D2E/DX2                !
 ! R23   R(16,24)                1.4014         estimate D2E/DX2                !
 ! R24   R(21,22)                1.1993         estimate D2E/DX2                !
 ! R25   R(21,23)                1.1993         estimate D2E/DX2                !
 ! A1    A(2,1,6)              120.0            estimate D2E/DX2                !
 ! A2    A(2,1,21)             120.0            estimate D2E/DX2                !
 ! A3    A(6,1,21)             120.0            estimate D2E/DX2                !
 ! A4    A(1,2,3)              120.0            estimate D2E/DX2                !
 ! A5    A(1,2,7)              120.0            estimate D2E/DX2                !
 ! A6    A(3,2,7)              120.0            estimate D2E/DX2                !
 ! A7    A(2,3,4)              120.0            estimate D2E/DX2                !
 ! A8    A(2,3,19)             120.0            estimate D2E/DX2                !
 ! A9    A(4,3,19)             120.0            estimate D2E/DX2                !
 ! A10   A(3,4,5)              120.0            estimate D2E/DX2                !
 ! A11   A(3,4,10)             120.0            estimate D2E/DX2                !
 ! A12   A(5,4,10)             120.0            estimate D2E/DX2                !
 ! A13   A(4,5,6)              120.0            estimate D2E/DX2                !
 ! A14   A(4,5,8)              120.0            estimate D2E/DX2                !
 ! A15   A(6,5,8)              120.0            estimate D2E/DX2                !
 ! A16   A(1,6,5)              120.0            estimate D2E/DX2                !
 ! A17   A(1,6,9)              120.0            estimate D2E/DX2                !
 ! A18   A(5,6,9)              120.0            estimate D2E/DX2                !
 ! A19   A(4,10,11)            127.9526         estimate D2E/DX2                !
 ! A20   A(10,11,12)           115.5989         estimate D2E/DX2                !
 ! A21   A(10,11,13)           123.9281         estimate D2E/DX2                !
 ! A22   A(12,11,13)           120.0            estimate D2E/DX2                !
 ! A23   A(11,12,20)           120.0            estimate D2E/DX2                !
 ! A24   A(11,12,24)           120.0            estimate D2E/DX2                !
 ! A25   A(20,12,24)           120.0            estimate D2E/DX2                !
 ! A26   A(11,13,14)           120.0            estimate D2E/DX2                !
 ! A27   A(11,13,15)           120.0            estimate D2E/DX2                !
 ! A28   A(14,13,15)           120.0            estimate D2E/DX2                !
 ! A29   A(13,14,16)           120.0            estimate D2E/DX2                !
 ! A30   A(13,14,17)           120.0            estimate D2E/DX2                !
 ! A31   A(16,14,17)           120.0            estimate D2E/DX2                !
 ! A32   A(14,16,18)           120.0            estimate D2E/DX2                !
 ! A33   A(14,16,24)           120.0            estimate D2E/DX2                !
 ! A34   A(18,16,24)           120.0            estimate D2E/DX2                !
 ! A35   A(1,21,22)            118.3934         estimate D2E/DX2                !
 ! A36   A(1,21,23)            118.3927         estimate D2E/DX2                !
 ! A37   A(22,21,23)           123.2139         estimate D2E/DX2                !
 ! A38   A(12,24,16)           120.0            estimate D2E/DX2                !
 ! D1    D(6,1,2,3)              0.0001         estimate D2E/DX2                !
 ! D2    D(6,1,2,7)           -179.9998         estimate D2E/DX2                !
 ! D3    D(21,1,2,3)          -179.9999         estimate D2E/DX2                !
 ! D4    D(21,1,2,7)             0.0002         estimate D2E/DX2                !
 ! D5    D(2,1,6,5)             -0.0001         estimate D2E/DX2                !
 ! D6    D(2,1,6,9)            179.9998         estimate D2E/DX2                !
 ! D7    D(21,1,6,5)           179.9999         estimate D2E/DX2                !
 ! D8    D(21,1,6,9)            -0.0002         estimate D2E/DX2                !
 ! D9    D(2,1,21,22)           90.3367         estimate D2E/DX2                !
 ! D10   D(2,1,21,23)          -89.6634         estimate D2E/DX2                !
 ! D11   D(6,1,21,22)          -89.6633         estimate D2E/DX2                !
 ! D12   D(6,1,21,23)           90.3367         estimate D2E/DX2                !
 ! D13   D(1,2,3,4)              0.0001         estimate D2E/DX2                !
 ! D14   D(1,2,3,19)          -179.9999         estimate D2E/DX2                !
 ! D15   D(7,2,3,4)            179.9999         estimate D2E/DX2                !
 ! D16   D(7,2,3,19)            -0.0001         estimate D2E/DX2                !
 ! D17   D(2,3,4,5)             -0.0002         estimate D2E/DX2                !
 ! D18   D(2,3,4,10)           179.9998         estimate D2E/DX2                !
 ! D19   D(19,3,4,5)           179.9998         estimate D2E/DX2                !
 ! D20   D(19,3,4,10)           -0.0002         estimate D2E/DX2                !
 ! D21   D(3,4,5,6)              0.0001         estimate D2E/DX2                !
 ! D22   D(3,4,5,8)           -180.0            estimate D2E/DX2                !
 ! D23   D(10,4,5,6)          -179.9999         estimate D2E/DX2                !
 ! D24   D(10,4,5,8)             0.0            estimate D2E/DX2                !
 ! D25   D(3,4,10,11)           -5.2547         estimate D2E/DX2                !
 ! D26   D(5,4,10,11)          174.7453         estimate D2E/DX2                !
 ! D27   D(4,5,6,1)              0.0            estimate D2E/DX2                !
 ! D28   D(4,5,6,9)           -179.9999         estimate D2E/DX2                !
 ! D29   D(8,5,6,1)           -179.9999         estimate D2E/DX2                !
 ! D30   D(8,5,6,9)              0.0002         estimate D2E/DX2                !
 ! D31   D(4,10,11,12)           4.3564         estimate D2E/DX2                !
 ! D32   D(4,10,11,13)        -167.7268         estimate D2E/DX2                !
 ! D33   D(10,11,12,20)          7.5833         estimate D2E/DX2                !
 ! D34   D(10,11,12,24)       -172.4167         estimate D2E/DX2                !
 ! D35   D(13,11,12,20)       -179.9998         estimate D2E/DX2                !
 ! D36   D(13,11,12,24)          0.0002         estimate D2E/DX2                !
 ! D37   D(10,11,13,14)        171.7535         estimate D2E/DX2                !
 ! D38   D(10,11,13,15)         -8.2466         estimate D2E/DX2                !
 ! D39   D(12,11,13,14)          0.0            estimate D2E/DX2                !
 ! D40   D(12,11,13,15)        179.9999         estimate D2E/DX2                !
 ! D41   D(11,12,24,16)         -0.0002         estimate D2E/DX2                !
 ! D42   D(20,12,24,16)        179.9998         estimate D2E/DX2                !
 ! D43   D(11,13,14,16)         -0.0001         estimate D2E/DX2                !
 ! D44   D(11,13,14,17)        179.9999         estimate D2E/DX2                !
 ! D45   D(15,13,14,16)        179.9999         estimate D2E/DX2                !
 ! D46   D(15,13,14,17)          0.0            estimate D2E/DX2                !
 ! D47   D(13,14,16,18)       -180.0            estimate D2E/DX2                !
 ! D48   D(13,14,16,24)          0.0001         estimate D2E/DX2                !
 ! D49   D(17,14,16,18)          0.0            estimate D2E/DX2                !
 ! D50   D(17,14,16,24)       -180.0            estimate D2E/DX2                !
 ! D51   D(14,16,24,12)          0.0001         estimate D2E/DX2                !
 ! D52   D(18,16,24,12)       -179.9999         estimate D2E/DX2                !
 --------------------------------------------------------------------------------
 Trust Radius=3.00D-01 FncErr=1.00D-07 GrdErr=1.00D-06 EigMax=2.50D+02 EigMin=1.00D-04
 Number of steps in this run=    125 maximum allowed number of steps=    144.
 GradGradGradGradGradGradGradGradGradGradGradGradGradGradGradGradGradGrad

                          Input orientation:                          
 ---------------------------------------------------------------------
 Center     Atomic      Atomic             Coordinates (Angstroms)
 Number     Number       Type             X           Y           Z
 ---------------------------------------------------------------------
      1          6           0       -4.749416   -0.230579   -0.400021
      2          6           0       -4.820199    0.238538   -1.718672
      3          6           0       -4.550247    1.584841   -1.998879
      4          6           0       -4.209510    2.462026   -0.960435
      5          6           0       -4.138728    1.992910    0.358216
      6          6           0       -4.408682    0.646607    0.638423
      7          1           0       -5.080361   -0.431212   -2.511547
      8          1           0       -3.878568    2.662660    1.151091
      9          1           0       -4.354640    0.288426    1.645243
     10          8           0       -3.910486    3.953296   -1.270814
     11          6           0       -3.817523    4.699853   -2.779363
     12          6           0       -4.131676    3.887607   -3.877310
     13          6           0       -3.303947    5.987511   -2.984541
     14          6           0       -3.104523    6.462923   -4.287666
     15          1           0       -3.064085    6.607679   -2.146234
     16          6           0       -3.418674    5.650677   -5.385613
     17          1           0       -2.712397    7.446079   -4.444324
     18          1           0       -3.266409    6.013665   -6.380578
     19          1           0       -4.604292    1.943023   -3.005698
     20          1           0       -4.523805    2.904453   -3.720651
     21          7           0       -5.032581   -1.642786   -0.106098
     22          8           0       -4.121672   -2.422755   -0.123715
     23          8           0       -6.163210   -1.958585    0.139583
     24          7           0       -3.932249    4.363019   -5.180435
 ---------------------------------------------------------------------
                    Distance matrix (angstroms):
                    1          2          3          4          5
     1  C    0.000000
     2  C    1.401400   0.000000
     3  C    2.427296   1.401400   0.000000
     4  C    2.802800   2.427296   1.401400   0.000000
     5  C    2.427296   2.802800   2.427296   1.401400   0.000000
     6  C    1.401400   2.427296   2.802800   2.427296   1.401400
     7  H    2.146700   1.070000   2.146700   3.396345   3.872800
     8  H    3.396345   3.872800   3.396345   2.146700   1.070000
     9  H    2.146700   3.396345   3.872800   3.396345   2.146700
    10  O    4.355100   3.850660   2.559092   1.552300   2.559092
    11  C    5.553274   4.694012   3.293833   2.910330   4.156335
    12  C    5.425182   4.295286   3.001072   3.247537   4.640001
    13  C    6.887218   6.078827   4.680630   4.164864   5.275199
    14  C    7.913434   6.948831   5.578920   5.319647   6.529535
    15  H    7.256127   6.620627   5.240161   4.461452   5.359405
    16  C    7.824077   6.685954   5.411233   5.511362   6.847577
    17  H    8.912739   7.988783   6.611506   6.262556   7.405125
    18  H    8.772511   7.582857   6.360975   6.548399   7.895490
    19  H    3.396345   2.146700   1.070000   2.146700   3.396345
    20  H    4.572298   3.347069   2.169464   2.813062   4.197184
    21  N    1.470000   2.486942   3.772644   4.272800   3.772644
    22  O    2.296964   3.180300   4.445306   4.956703   4.441919
    23  O    2.296952   3.175553   4.441907   4.956691   4.445293
    24  N    6.679914   5.457435   4.268781   4.636706   6.027993
                    6          7          8          9         10
     6  C    0.000000
     7  H    3.396345   0.000000
     8  H    2.146700   4.942800   0.000000
     9  H    1.070000   4.280590   2.471400   0.000000
    10  O    3.850660   4.704459   2.744520   4.704459   0.000000
    11  C    5.334748   5.290965   4.427454   6.271070   1.685736
    12  C    5.565309   4.627906   5.181638   6.595635   2.616688
    13  C    6.547638   6.676779   5.337441   7.417441   2.728146
    14  C    7.732834   7.388345   6.679913   8.653706   4.006145
    15  H    6.715403   7.331085   5.205662   7.481563   2.920360
    16  C    7.893659   6.928985   7.201962   8.891721   4.478231
    17  H    8.657051   8.449532   7.453169   9.540010   4.868893
    18  H    8.909348   7.732804   8.266197   9.918488   5.547039
    19  H    3.872800   2.471400   4.280590   4.942800   2.744520
    20  H    4.910464   3.591427   4.920231   5.972021   2.734581
    21  N    2.486942   2.693767   4.631321   2.693766   5.825100
    22  O    3.175565   3.253778   5.248398   3.245611   6.481856
    23  O    3.180288   3.245600   5.253441   3.253766   6.481845
    24  N    6.920825   5.605869   6.556091   7.960565   3.931091
                   11         12         13         14         15
    11  C    0.000000
    12  C    1.401400   0.000000
    13  C    1.401400   2.427296   0.000000
    14  C    2.427296   2.802800   1.401400   0.000000
    15  H    2.146700   3.396345   1.070000   2.146700   0.000000
    16  C    2.802800   2.427296   2.427296   1.401400   3.396345
    17  H    3.396345   3.872800   2.146700   1.070000   2.471400
    18  H    3.872800   3.396345   3.396345   2.146700   4.280590
    19  H    2.875821   2.182769   4.248439   4.931759   4.986976
    20  H    2.146700   1.070000   3.396345   3.872800   4.280590
    21  N    6.989404   6.754177   8.336368   9.322309   8.723949
    22  O    7.607662   7.342360   8.921075   9.865514   9.314387
    23  O    7.639194   7.378382   9.004220   9.993893   9.392040
    24  N    2.427296   1.401400   2.802800   2.427296   3.872800
                   16         17         18         19         20
    16  C    0.000000
    17  H    2.146700   0.000000
    18  H    1.070000   2.471400   0.000000
    19  H    4.562498   5.994376   5.454344   0.000000
    20  H    3.396345   4.942800   4.280590   1.200826   0.000000
    21  N    9.147271  10.334937  10.055332   4.631321   5.831057
    22  O    9.662406  10.864972  10.538168   5.253453   6.440404
    23  O    9.795975  11.016716  10.698632   5.248386   6.421697
    24  N    1.401400   3.396345   2.146700   3.322273   2.146700
                   21         22         23         24
    21  N    0.000000
    22  O    1.199341   0.000000
    23  O    1.199337   2.110132   0.000000
    24  N    7.939100   8.464811   8.558180   0.000000
 Stoichiometry    C11H8N2O3
 Framework group  C1[X(C11H8N2O3)]
 Deg. of freedom    66
 Full point group                 C1      NOp   1
 Largest Abelian subgroup         C1      NOp   1
 Largest concise Abelian subgroup C1      NOp   1
                         Standard orientation:                         
 ---------------------------------------------------------------------
 Center     Atomic      Atomic             Coordinates (Angstroms)
 Number     Number       Type             X           Y           Z
 ---------------------------------------------------------------------
      1          6           0       -2.849587   -0.023593    0.015088
      2          6           0       -1.789987   -0.933976   -0.096157
      3          6           0       -0.468809   -0.469059   -0.143738
      4          6           0       -0.207231    0.906239   -0.080073
      5          6           0       -1.266830    1.816621    0.031170
      6          6           0       -2.588008    1.351705    0.078750
      7          1           0       -1.989708   -1.984046   -0.144768
      8          1           0       -1.067109    2.866692    0.079780
      9          1           0       -3.397036    2.046802    0.163685
     10          8           0        1.256209    1.421216   -0.132774
     11          6           0        2.675584    0.511822   -0.142002
     12          6           0        2.503858   -0.878104   -0.192367
     13          6           0        3.952790    1.053310    0.056637
     14          6           0        5.058271    0.204871    0.204911
     15          1           0        4.083906    2.114549    0.095090
     16          6           0        4.886545   -1.185056    0.154549
     17          1           0        6.033446    0.618309    0.356576
     18          1           0        5.730604   -1.832858    0.267760
     19          1           0        0.340218   -1.164156   -0.228677
     20          1           0        1.528683   -1.291542   -0.344035
     21          7           0       -4.235437   -0.511268    0.065000
     22          8           0       -4.716188   -0.754528    1.136504
     23          8           0       -4.830006   -0.646407   -0.967780
     24          7           0        3.609339   -1.726543   -0.044089
 ---------------------------------------------------------------------
 Rotational constants (GHZ):           1.7589954           0.2011535           0.1856117
 Standard basis: 6-31+G(d) (6D, 7F)
 There are   320 symmetry adapted cartesian basis functions of A   symmetry.
 There are   320 symmetry adapted basis functions of A   symmetry.
   320 basis functions,   544 primitive gaussians,   320 cartesian basis functions
    56 alpha electrons       56 beta electrons
       nuclear repulsion energy       953.3430957079 Hartrees.
 NAtoms=   24 NActive=   24 NUniq=   24 SFac= 1.00D+00 NAtFMM=   60 NAOKFM=F Big=F
 Integral buffers will be    131072 words long.
 Raffenetti 2 integral format.
 Two-electron integral symmetry is turned on.
 Nuclear repulsion after empirical dispersion term =      953.3246088517 Hartrees.
 One-electron integrals computed using PRISM.
 NBasis=   320 RedAO= T EigKep=  2.30D-06  NBF=   320
 NBsUse=   319 1.00D-06 EigRej=  9.35D-07 NBFU=   319
 ExpMin= 4.38D-02 ExpMax= 5.48D+03 ExpMxC= 8.25D+02 IAcc=3 IRadAn=         5 AccDes= 0.00D+00
 Harris functional with IExCor=  402 and IRadAn=       5 diagonalized for initial guess.
 HarFok:  IExCor=  402 AccDes= 0.00D+00 IRadAn=         5 IDoV= 1 UseB2=F ITyADJ=14
 ICtDFT=  3500011 ScaDFX=  1.000000  1.000000  1.000000  1.000000
 FoFCou: FMM=F IPFlag=           0 FMFlag=      100000 FMFlg1=           0
         NFxFlg=           0 DoJE=T BraDBF=F KetDBF=T FulRan=T
         wScrn=  0.000000 ICntrl=       500 IOpCl=  0 I1Cent=   200000004 NGrid=           0
         NMat0=    1 NMatS0=      1 NMatT0=    0 NMatD0=    1 NMtDS0=    0 NMtDT0=    0
 Petite list used in FoFCou.
 Requested convergence on RMS density matrix=1.00D-08 within 128 cycles.
 Requested convergence on MAX density matrix=1.00D-06.
 Requested convergence on             energy=1.00D-06.
 No special actions if energy rises.
 SCF Done:  E(RB3LYP) =  -758.983589315     A.U. after   16 cycles
            NFock= 16  Conv=0.91D-08     -V/T= 2.0101

 **********************************************************************

            Population analysis using the SCF Density.

 **********************************************************************

 Orbital symmetries:
       Occupied  (A) (A) (A) (A) (A) (A) (A) (A) (A) (A) (A) (A)
                 (A) (A) (A) (A) (A) (A) (A) (A) (A) (A) (A) (A)
                 (A) (A) (A) (A) (A) (A) (A) (A) (A) (A) (A) (A)
                 (A) (A) (A) (A) (A) (A) (A) (A) (A) (A) (A) (A)
                 (A) (A) (A) (A) (A) (A) (A) (A)
       Virtual   (A) (A) (A) (A) (A) (A) (A) (A) (A) (A) (A) (A)
                 (A) (A) (A) (A) (A) (A) (A) (A) (A) (A) (A) (A)
                 (A) (A) (A) (A) (A) (A) (A) (A) (A) (A) (A) (A)
                 (A) (A) (A) (A) (A) (A) (A) (A) (A) (A) (A) (A)
                 (A) (A) (A) (A) (A) (A) (A) (A) (A) (A) (A) (A)
                 (A) (A) (A) (A) (A) (A) (A) (A) (A) (A) (A) (A)
                 (A) (A) (A) (A) (A) (A) (A) (A) (A) (A) (A) (A)
                 (A) (A) (A) (A) (A) (A) (A) (A) (A) (A) (A) (A)
                 (A) (A) (A) (A) (A) (A) (A) (A) (A) (A) (A) (A)
                 (A) (A) (A) (A) (A) (A) (A) (A) (A) (A) (A) (A)
                 (A) (A) (A) (A) (A) (A) (A) (A) (A) (A) (A) (A)
                 (A) (A) (A) (A) (A) (A) (A) (A) (A) (A) (A) (A)
                 (A) (A) (A) (A) (A) (A) (A) (A) (A) (A) (A) (A)
                 (A) (A) (A) (A) (A) (A) (A) (A) (A) (A) (A) (A)
                 (A) (A) (A) (A) (A) (A) (A) (A) (A) (A) (A) (A)
                 (A) (A) (A) (A) (A) (A) (A) (A) (A) (A) (A) (A)
                 (A) (A) (A) (A) (A) (A) (A) (A) (A) (A) (A) (A)
                 (A) (A) (A) (A) (A) (A) (A) (A) (A) (A) (A) (A)
                 (A) (A) (A) (A) (A) (A) (A) (A) (A) (A) (A) (A)
                 (A) (A) (A) (A) (A) (A) (A) (A) (A) (A) (A) (A)
                 (A) (A) (A) (A) (A) (A) (A) (A) (A) (A) (A) (A)
                 (A) (A) (A) (A) (A) (A) (A) (A) (A) (A) (A)
 The electronic state is 1-A.
 Alpha  occ. eigenvalues --  -19.20939 -19.20697 -19.20695 -14.59548 -14.37711
 Alpha  occ. eigenvalues --  -10.30530 -10.29822 -10.27321 -10.26242 -10.26022
 Alpha  occ. eigenvalues --  -10.24969 -10.24284 -10.24116 -10.23846 -10.23575
 Alpha  occ. eigenvalues --  -10.23120  -1.27676  -1.09253  -0.99584  -0.94649
 Alpha  occ. eigenvalues --   -0.90521  -0.83349  -0.82084  -0.79860  -0.78905
 Alpha  occ. eigenvalues --   -0.71375  -0.68118  -0.65739  -0.64746  -0.61779
 Alpha  occ. eigenvalues --   -0.58188  -0.56882  -0.55838  -0.53544  -0.53442
 Alpha  occ. eigenvalues --   -0.51267  -0.50980  -0.49002  -0.47587  -0.46529
 Alpha  occ. eigenvalues --   -0.45190  -0.43661  -0.42944  -0.41634  -0.41447
 Alpha  occ. eigenvalues --   -0.38870  -0.36542  -0.35144  -0.33635  -0.32955
 Alpha  occ. eigenvalues --   -0.32432  -0.30981  -0.29531  -0.29188  -0.28283
 Alpha  occ. eigenvalues --   -0.25821
 Alpha virt. eigenvalues --   -0.08461  -0.07123  -0.05754  -0.04769  -0.04683
 Alpha virt. eigenvalues --   -0.03636  -0.00421   0.00079   0.01257   0.02013
 Alpha virt. eigenvalues --    0.02946   0.03794   0.03978   0.04573   0.04691
 Alpha virt. eigenvalues --    0.05541   0.06000   0.07146   0.07284   0.07854
 Alpha virt. eigenvalues --    0.07978   0.08840   0.09199   0.09717   0.10103
 Alpha virt. eigenvalues --    0.10858   0.11217   0.11711   0.12340   0.12627
 Alpha virt. eigenvalues --    0.12658   0.13207   0.13503   0.13682   0.14230
 Alpha virt. eigenvalues --    0.14785   0.15080   0.15469   0.16055   0.16740
 Alpha virt. eigenvalues --    0.17159   0.17537   0.18186   0.18337   0.18820
 Alpha virt. eigenvalues --    0.19616   0.20256   0.20592   0.21157   0.21720
 Alpha virt. eigenvalues --    0.22179   0.22442   0.22554   0.23075   0.24007
 Alpha virt. eigenvalues --    0.24204   0.24742   0.25067   0.25564   0.25947
 Alpha virt. eigenvalues --    0.26444   0.26773   0.26986   0.27495   0.28103
 Alpha virt. eigenvalues --    0.28424   0.28812   0.29208   0.29768   0.30083
 Alpha virt. eigenvalues --    0.30441   0.31048   0.31191   0.32162   0.32473
 Alpha virt. eigenvalues --    0.33188   0.34463   0.35187   0.36105   0.36946
 Alpha virt. eigenvalues --    0.37068   0.37559   0.39308   0.40018   0.40317
 Alpha virt. eigenvalues --    0.41011   0.43242   0.44239   0.45486   0.47290
 Alpha virt. eigenvalues --    0.48908   0.52025   0.53260   0.56041   0.58833
 Alpha virt. eigenvalues --    0.61587   0.64205   0.64650   0.65216   0.66552
 Alpha virt. eigenvalues --    0.68119   0.68422   0.69166   0.69403   0.70643
 Alpha virt. eigenvalues --    0.72136   0.72898   0.73750   0.74180   0.74985
 Alpha virt. eigenvalues --    0.76074   0.76544   0.77479   0.78979   0.80060
 Alpha virt. eigenvalues --    0.84745   0.86168   0.87935   0.88452   0.90057
 Alpha virt. eigenvalues --    0.91702   0.92364   0.93148   0.94639   0.95512
 Alpha virt. eigenvalues --    0.95888   0.98111   0.99298   1.00150   1.02070
 Alpha virt. eigenvalues --    1.02715   1.06440   1.06904   1.08366   1.08772
 Alpha virt. eigenvalues --    1.10770   1.12389   1.13205   1.14517   1.14665
 Alpha virt. eigenvalues --    1.15985   1.16961   1.17750   1.18071   1.19141
 Alpha virt. eigenvalues --    1.20052   1.21159   1.22009   1.22580   1.24090
 Alpha virt. eigenvalues --    1.25481   1.26393   1.27466   1.28089   1.29675
 Alpha virt. eigenvalues --    1.30494   1.32874   1.33841   1.36672   1.37729
 Alpha virt. eigenvalues --    1.38829   1.40357   1.41037   1.43504   1.44022
 Alpha virt. eigenvalues --    1.44780   1.45115   1.45852   1.46270   1.47051
 Alpha virt. eigenvalues --    1.48160   1.50678   1.53812   1.62017   1.64570
 Alpha virt. eigenvalues --    1.65293   1.67325   1.70969   1.74473   1.75941
 Alpha virt. eigenvalues --    1.77613   1.79269   1.79408   1.79587   1.79634
 Alpha virt. eigenvalues --    1.82610   1.83637   1.84122   1.85507   1.87674
 Alpha virt. eigenvalues --    1.88841   1.91068   1.93823   1.94647   1.95819
 Alpha virt. eigenvalues --    1.98162   1.99722   2.02015   2.05191   2.06007
 Alpha virt. eigenvalues --    2.06935   2.10329   2.11141   2.11402   2.11471
 Alpha virt. eigenvalues --    2.12471   2.13169   2.13964   2.16137   2.18805
 Alpha virt. eigenvalues --    2.22780   2.24358   2.24629   2.25671   2.26650
 Alpha virt. eigenvalues --    2.27410   2.29710   2.35071   2.40235   2.41246
 Alpha virt. eigenvalues --    2.45596   2.48474   2.57029   2.57361   2.59722
 Alpha virt. eigenvalues --    2.60257   2.60962   2.63888   2.66358   2.68893
 Alpha virt. eigenvalues --    2.70974   2.72323   2.73690   2.76710   2.77236
 Alpha virt. eigenvalues --    2.80099   2.81584   2.88111   2.89748   2.96836
 Alpha virt. eigenvalues --    2.98496   3.02025   3.03700   3.07858   3.16691
 Alpha virt. eigenvalues --    3.32922   3.39003   4.13426   4.13949   4.21047
 Alpha virt. eigenvalues --    4.24428   4.25440   4.27855   4.31923   4.34345
 Alpha virt. eigenvalues --    4.36659   4.38393   4.38653   4.42019   4.50897
 Alpha virt. eigenvalues --    4.54448   4.62637   4.74166
          Condensed to atoms (all electrons):
               1          2          3          4          5          6
     1  C   13.126619  -3.468625  -0.077835  -2.049158  -1.539376  -0.161109
     2  C   -3.468625  21.541095  -5.306084   1.553983  -0.127827  -7.935920
     3  C   -0.077835  -5.306084  14.085994  -1.718084  -2.034759   0.754546
     4  C   -2.049158   1.553983  -1.718084   9.904758   0.276468  -1.475023
     5  C   -1.539376  -0.127827  -2.034759   0.276468   8.582138   1.064875
     6  C   -0.161109  -7.935920   0.754546  -1.475023   1.064875  13.349147
     7  H    0.007232   0.290754   0.016821   0.006062  -0.020832  -0.002242
     8  H    0.016724  -0.028632   0.062413   0.038202   0.285227  -0.072191
     9  H    0.019212  -0.003422   0.004274   0.008304  -0.089728   0.358391
    10  O   -0.010115  -0.002273  -0.197066   0.262701  -0.058225   0.041240
    11  C   -0.042524  -0.083212   0.219371  -0.372021   0.248923   0.006555
    12  C    0.000409   0.141448  -0.421314   0.086419  -0.032996   0.179222
    13  C   -0.009382  -0.355042   0.115058   0.067487  -0.226541  -0.024586
    14  C    0.001750   0.020410   0.043312  -0.022564   0.001216  -0.007888
    15  H    0.000109   0.000041   0.006106  -0.002503  -0.003573  -0.000429
    16  C    0.000413  -0.031765  -0.010359   0.001602  -0.026350   0.002540
    17  H   -0.000004   0.000003  -0.000638   0.001003   0.000066   0.000008
    18  H   -0.000002  -0.000172  -0.000016   0.000250  -0.000017  -0.000001
    19  H   -0.023799   0.062103   0.022051   0.082150   0.043316   0.026205
    20  H   -0.006864  -0.014271  -0.093832   0.088654   0.001910   0.009992
    21  N   -0.377756   0.300174  -0.185781  -0.045082   0.112840  -0.225449
    22  O    0.274505  -0.168966   0.030218   0.009628  -0.036977  -0.082234
    23  O    0.252589  -0.168081   0.029617   0.005259  -0.022942  -0.071750
    24  N   -0.001718   0.003176  -0.016184   0.002824   0.009562  -0.001501
               7          8          9         10         11         12
     1  C    0.007232   0.016724   0.019212  -0.010115  -0.042524   0.000409
     2  C    0.290754  -0.028632  -0.003422  -0.002273  -0.083212   0.141448
     3  C    0.016821   0.062413   0.004274  -0.197066   0.219371  -0.421314
     4  C    0.006062   0.038202   0.008304   0.262701  -0.372021   0.086419
     5  C   -0.020832   0.285227  -0.089728  -0.058225   0.248923  -0.032996
     6  C   -0.002242  -0.072191   0.358391   0.041240   0.006555   0.179222
     7  H    0.508130   0.000013  -0.000154  -0.000254   0.002897  -0.004908
     8  H    0.000013   0.498121  -0.004999  -0.004336  -0.001838   0.000551
     9  H   -0.000154  -0.004999   0.500515  -0.000092   0.001022  -0.000041
    10  O   -0.000254  -0.004336  -0.000092   8.369708   0.194340   0.002501
    11  C    0.002897  -0.001838   0.001022   0.194340   9.896840  -0.490675
    12  C   -0.004908   0.000551  -0.000041   0.002501  -0.490675   7.640125
    13  C    0.000076  -0.000237   0.000037  -0.162402  -3.698838  -1.072094
    14  C    0.000010  -0.000055   0.000001   0.007465   0.292162  -0.255083
    15  H    0.000000   0.000000   0.000000  -0.002264   0.063485   0.007521
    16  C   -0.000037  -0.000012   0.000000  -0.000650  -0.764176   0.142314
    17  H    0.000000   0.000000   0.000000  -0.000084   0.021738   0.001550
    18  H    0.000000   0.000000   0.000000   0.000034  -0.046503   0.041879
    19  H   -0.008301  -0.000190   0.000014  -0.011326  -0.014704   0.051443
    20  H    0.000312   0.000005   0.000000   0.000047  -0.197056   0.423406
    21  N   -0.000841   0.000652  -0.002014   0.000219   0.001335  -0.001464
    22  O   -0.000039  -0.000065   0.000485   0.000001   0.000358   0.000343
    23  O    0.000275  -0.000060   0.000272  -0.000017   0.000458  -0.000097
    24  N    0.000032  -0.000004   0.000000   0.004668   0.332439  -0.032137
              13         14         15         16         17         18
     1  C   -0.009382   0.001750   0.000109   0.000413  -0.000004  -0.000002
     2  C   -0.355042   0.020410   0.000041  -0.031765   0.000003  -0.000172
     3  C    0.115058   0.043312   0.006106  -0.010359  -0.000638  -0.000016
     4  C    0.067487  -0.022564  -0.002503   0.001602   0.001003   0.000250
     5  C   -0.226541   0.001216  -0.003573  -0.026350   0.000066  -0.000017
     6  C   -0.024586  -0.007888  -0.000429   0.002540   0.000008  -0.000001
     7  H    0.000076   0.000010   0.000000  -0.000037   0.000000   0.000000
     8  H   -0.000237  -0.000055   0.000000  -0.000012   0.000000   0.000000
     9  H    0.000037   0.000001   0.000000   0.000000   0.000000   0.000000
    10  O   -0.162402   0.007465  -0.002264  -0.000650  -0.000084   0.000034
    11  C   -3.698838   0.292162   0.063485  -0.764176   0.021738  -0.046503
    12  C   -1.072094  -0.255083   0.007521   0.142314   0.001550   0.041879
    13  C   10.632651   0.110523   0.229382   0.577305  -0.037904   0.045467
    14  C    0.110523   5.575884   0.001826  -0.021858   0.292398  -0.114776
    15  H    0.229382   0.001826   0.497731  -0.009810  -0.005277  -0.000125
    16  C    0.577305  -0.021858  -0.009810   5.746514   0.015477   0.421817
    17  H   -0.037904   0.292398  -0.005277   0.015477   0.509199  -0.001128
    18  H    0.045467  -0.114776  -0.000125   0.421817  -0.001128   0.524905
    19  H   -0.015804   0.004685   0.000003  -0.005046   0.000000  -0.000001
    20  H    0.076461  -0.018367  -0.000178   0.014373   0.000026   0.000030
    21  N   -0.000050  -0.000011   0.000000  -0.000002   0.000000   0.000000
    22  O    0.000017   0.000002   0.000000  -0.000001   0.000000   0.000000
    23  O    0.000069  -0.000001   0.000000   0.000004   0.000000   0.000000
    24  N   -0.185610   0.067228   0.000763   0.243927   0.004218  -0.072376
              19         20         21         22         23         24
     1  C   -0.023799  -0.006864  -0.377756   0.274505   0.252589  -0.001718
     2  C    0.062103  -0.014271   0.300174  -0.168966  -0.168081   0.003176
     3  C    0.022051  -0.093832  -0.185781   0.030218   0.029617  -0.016184
     4  C    0.082150   0.088654  -0.045082   0.009628   0.005259   0.002824
     5  C    0.043316   0.001910   0.112840  -0.036977  -0.022942   0.009562
     6  C    0.026205   0.009992  -0.225449  -0.082234  -0.071750  -0.001501
     7  H   -0.008301   0.000312  -0.000841  -0.000039   0.000275   0.000032
     8  H   -0.000190   0.000005   0.000652  -0.000065  -0.000060  -0.000004
     9  H    0.000014   0.000000  -0.002014   0.000485   0.000272   0.000000
    10  O   -0.011326   0.000047   0.000219   0.000001  -0.000017   0.004668
    11  C   -0.014704  -0.197056   0.001335   0.000358   0.000458   0.332439
    12  C    0.051443   0.423406  -0.001464   0.000343  -0.000097  -0.032137
    13  C   -0.015804   0.076461  -0.000050   0.000017   0.000069  -0.185610
    14  C    0.004685  -0.018367  -0.000011   0.000002  -0.000001   0.067228
    15  H    0.000003  -0.000178   0.000000   0.000000   0.000000   0.000763
    16  C   -0.005046   0.014373  -0.000002  -0.000001   0.000004   0.243927
    17  H    0.000000   0.000026   0.000000   0.000000   0.000000   0.004218
    18  H   -0.000001   0.000030   0.000000   0.000000   0.000000  -0.072376
    19  H    0.640441  -0.008317   0.001358  -0.000039  -0.000079   0.001930
    20  H   -0.008317   0.679470   0.000078  -0.000002  -0.000001  -0.115079
    21  N    0.001358   0.000078   7.145363   0.258524   0.264413   0.000005
    22  O   -0.000039  -0.000002   0.258524   7.852262  -0.119330  -0.000002
    23  O   -0.000079  -0.000001   0.264413  -0.119330   7.854245   0.000001
    24  N    0.001930  -0.115079   0.000005  -0.000002   0.000001   6.934622
 Mulliken charges:
               1
     1  C    0.068705
     2  C   -0.218896
     3  C    0.672169
     4  C   -0.711318
     5  C   -0.406401
     6  C    0.267602
     7  H    0.204992
     8  H    0.210711
     9  H    0.207921
    10  O   -0.433822
    11  C    0.429624
    12  C   -0.408320
    13  C   -0.066040
    14  C    0.021734
    15  H    0.217192
    16  C   -0.296222
    17  H    0.199350
    18  H    0.200733
    19  H    0.151908
    20  H    0.159204
    21  N   -0.246512
    22  O   -0.018686
    23  O   -0.024845
    24  N   -0.180785
 Sum of Mulliken charges =   0.00000
 Mulliken charges with hydrogens summed into heavy atoms:
               1
     1  C    0.068705
     2  C   -0.013904
     3  C    0.824077
     4  C   -0.711318
     5  C   -0.195689
     6  C    0.475523
    10  O   -0.433822
    11  C    0.429624
    12  C   -0.249116
    13  C    0.151152
    14  C    0.221083
    16  C   -0.095489
    21  N   -0.246512
    22  O   -0.018686
    23  O   -0.024845
    24  N   -0.180785
 Electronic spatial extent (au):  <R**2>=           5377.4901
 Charge=              0.0000 electrons
 Dipole moment (field-independent basis, Debye):
    X=              5.2839    Y=              2.1303    Z=              0.1870  Tot=              5.7003
 Quadrupole moment (field-independent basis, Debye-Ang):
   XX=            -93.9048   YY=            -89.1331   ZZ=            -99.7003
   XY=             -2.2231   XZ=              2.1313   YZ=              1.2324
 Traceless Quadrupole moment (field-independent basis, Debye-Ang):
   XX=              0.3412   YY=              5.1130   ZZ=             -5.4542
   XY=             -2.2231   XZ=              2.1313   YZ=              1.2324
 Octapole moment (field-independent basis, Debye-Ang**2):
  XXX=            249.8922  YYY=             18.6253  ZZZ=             -0.2293  XYY=            -32.5797
  XXY=             60.0552  XXZ=             13.2050  XZZ=             -0.3145  YZZ=              0.0003
  YYZ=              1.7756  XYZ=             -3.3940
 Hexadecapole moment (field-independent basis, Debye-Ang**3):
 XXXX=          -6065.2507 YYYY=           -738.0638 ZZZZ=           -193.8548 XXXY=           -128.9548
 XXXZ=             75.8703 YYYX=             71.4956 YYYZ=              2.9009 ZZZX=             -1.0314
 ZZZY=             -0.6268 XXYY=          -1118.4315 XXZZ=          -1189.8234 YYZZ=           -168.0685
 XXYZ=              4.4229 YYXZ=              6.2279 ZZXY=              2.3349
 N-N= 9.533246088517D+02 E-N=-3.672526345123D+03  KE= 7.513982847805D+02
 Evaluate density.
 Using the total density.
 Monte-Carlo method of calculating molar volume:
 based on  0.001 e/bohr**3 density envelope.
 Number of points per bohr**3 =   20 CutOff= 1.00D-04
 Using the SCF density.
 There are       398 points.  Will hold       398 in memory.
 LenV=  4026300168 MDV=  4026531840.
 Box volume = 7894.505 fraction occupied=0.219
 Integrated density= 5.2885046750989531D+01 error=-5.9114953249010469D+01
 Molar volume = 1725.683 bohr**3/mol (153.998 cm**3/mol)
 Recommended a0 for SCRF calculation =  4.83 angstrom (  9.13 bohr)
 Calling FoFJK, ICntrl=      2127 FMM=F ISym2X=0 I1Cent= 0 IOpClX= 0 NMat=1 NMatS=1 NMatT=0.
 ***** Axes restored to original set *****
 -------------------------------------------------------------------
 Center     Atomic                   Forces (Hartrees/Bohr)
 Number     Number              X              Y              Z
 -------------------------------------------------------------------
      1        6           0.004592226    0.023252129   -0.006091548
      2        6           0.002478660    0.003252658    0.013402845
      3        6          -0.000741801   -0.012604511    0.019519063
      4        6           0.007574792    0.050201763   -0.041133083
      5        6          -0.000218476    0.005306841   -0.010138699
      6        6          -0.002210046    0.000416519   -0.015491759
      7        1          -0.002839980   -0.006982533   -0.008894683
      8        1           0.002800265    0.007259955    0.007842169
      9        1           0.000874054   -0.002789292    0.010987300
     10        8          -0.003338151   -0.008668484   -0.022365681
     11        6          -0.002819272   -0.058448524    0.030179582
     12        6           0.018545648    0.055699300   -0.042303860
     13        6          -0.004737136   -0.013508480    0.015049541
     14        6          -0.009660894   -0.017086471   -0.001055727
     15        1           0.003671086    0.005827290    0.009922299
     16        6          -0.018771315   -0.047374632    0.046145492
     17        1           0.004309820    0.011441379    0.000323767
     18        1          -0.000959848   -0.004481877   -0.013139097
     19        1          -0.002779121   -0.022566657    0.011752886
     20        1           0.000346580    0.017369194   -0.025203086
     21        7           0.004483106    0.022216249   -0.004523628
     22        8           0.047234899   -0.023976638   -0.003735150
     23        8          -0.052338830   -0.001373158    0.009010646
     24        7           0.004503734    0.017617978    0.019940412
 -------------------------------------------------------------------
 Cartesian Forces:  Max     0.058448524 RMS     0.020768533

 GradGradGradGradGradGradGradGradGradGradGradGradGradGradGradGradGradGrad
 Berny optimization.
 FormGI is forming the generalized inverse of G from B-inverse, IUseBI=4.
 Internal  Forces:  Max     0.163307544 RMS     0.027637737
 Search for a local minimum.
 Step number   1 out of a maximum of  125
 All quantities printed in internal units (Hartrees-Bohrs-Radians)
 Mixed Optimization -- RFO/linear search
 Second derivative matrix not updated -- first step.
 ITU=  0
     Eigenvalues ---    0.00230   0.00230   0.00766   0.00766   0.01655
     Eigenvalues ---    0.01743   0.01752   0.01786   0.01922   0.01953
     Eigenvalues ---    0.02036   0.02070   0.02070   0.02070   0.02070
     Eigenvalues ---    0.02070   0.02070   0.02070   0.02070   0.02070
     Eigenvalues ---    0.02070   0.16000   0.16000   0.16000   0.16000
     Eigenvalues ---    0.16000   0.16000   0.16000   0.16000   0.18708
     Eigenvalues ---    0.22000   0.22000   0.22981   0.23189   0.23440
     Eigenvalues ---    0.24000   0.24763   0.25000   0.25000   0.25000
     Eigenvalues ---    0.25000   0.25000   0.27457   0.35740   0.37230
     Eigenvalues ---    0.37230   0.37230   0.37230   0.37230   0.37230
     Eigenvalues ---    0.37230   0.37230   0.41268   0.41393   0.41640
     Eigenvalues ---    0.41974   0.45389   0.45389   0.45389   0.45389
     Eigenvalues ---    0.45389   0.45389   0.45389   0.45389   1.05155
     Eigenvalues ---    1.05157
 RFO step:  Lambda=-1.89070190D-01 EMin= 2.30000000D-03
 Linear search not attempted -- first point.
 Maximum step size (   0.300) exceeded in Quadratic search.
    -- Step size scaled by   0.465
 Iteration  1 RMS(Cart)=  0.25379157 RMS(Int)=  0.01369868
 Iteration  2 RMS(Cart)=  0.09976021 RMS(Int)=  0.00172328
 Iteration  3 RMS(Cart)=  0.00407050 RMS(Int)=  0.00012494
 Iteration  4 RMS(Cart)=  0.00000227 RMS(Int)=  0.00012494
 Iteration  5 RMS(Cart)=  0.00000000 RMS(Int)=  0.00012494
 Variable       Old X    -DE/DX   Delta X   Delta X   Delta X     New X
                                 (Linear)    (Quad)   (Total)
    R1        2.64826  -0.01556   0.00000  -0.01143  -0.01144   2.63682
    R2        2.64826  -0.01520   0.00000  -0.01132  -0.01132   2.63694
    R3        2.77790   0.00328   0.00000   0.00279   0.00279   2.78069
    R4        2.64826  -0.00541   0.00000  -0.00376  -0.00377   2.64449
    R5        2.02201   0.01165   0.00000   0.00965   0.00965   2.03166
    R6        2.64826   0.00438   0.00000   0.00350   0.00350   2.65176
    R7        2.02201  -0.01847   0.00000  -0.01530  -0.01530   2.00670
    R8        2.64826  -0.00574   0.00000  -0.00398  -0.00397   2.64429
    R9        2.93342  -0.04519   0.00000  -0.04533  -0.04533   2.88810
   R10        2.64826  -0.00956   0.00000  -0.00706  -0.00706   2.64120
   R11        2.02201   0.01104   0.00000   0.00914   0.00914   2.03115
   R12        2.02201   0.01132   0.00000   0.00937   0.00937   2.03138
   R13        3.18558  -0.05057   0.00000  -0.06252  -0.06252   3.12306
   R14        2.64826  -0.00215   0.00000  -0.00154  -0.00154   2.64673
   R15        2.64826  -0.01952   0.00000  -0.01328  -0.01327   2.63499
   R16        2.02201  -0.01978   0.00000  -0.01638  -0.01638   2.00562
   R17        2.64826  -0.05186   0.00000  -0.03834  -0.03834   2.60992
   R18        2.64826  -0.01315   0.00000  -0.00868  -0.00868   2.63958
   R19        2.02201   0.01197   0.00000   0.00992   0.00992   2.03193
   R20        2.64826  -0.00977   0.00000  -0.00708  -0.00709   2.64118
   R21        2.02201   0.01204   0.00000   0.00998   0.00998   2.03198
   R22        2.02201   0.01056   0.00000   0.00875   0.00875   2.03076
   R23        2.64826  -0.05833   0.00000  -0.04303  -0.04304   2.60523
   R24        2.26643   0.05152   0.00000   0.01931   0.01931   2.28574
   R25        2.26642   0.05155   0.00000   0.01932   0.01932   2.28574
    A1        2.09440   0.00392   0.00000   0.00329   0.00328   2.09767
    A2        2.09440  -0.00183   0.00000  -0.00150  -0.00150   2.09290
    A3        2.09440  -0.00209   0.00000  -0.00178  -0.00178   2.09262
    A4        2.09440  -0.00034   0.00000  -0.00056  -0.00057   2.09383
    A5        2.09440   0.00058   0.00000   0.00082   0.00083   2.09522
    A6        2.09440  -0.00024   0.00000  -0.00027  -0.00026   2.09414
    A7        2.09440   0.00306   0.00000   0.00412   0.00412   2.09851
    A8        2.09440  -0.01943   0.00000  -0.02590  -0.02590   2.06850
    A9        2.09440   0.01636   0.00000   0.02178   0.02178   2.11617
   A10        2.09440  -0.01331   0.00000  -0.01346  -0.01345   2.08095
   A11        2.09440   0.10127   0.00000   0.10694   0.10693   2.20133
   A12        2.09440  -0.08796   0.00000  -0.09348  -0.09349   2.00091
   A13        2.09440   0.00924   0.00000   0.01043   0.01044   2.10483
   A14        2.09440  -0.00512   0.00000  -0.00588  -0.00588   2.08851
   A15        2.09440  -0.00412   0.00000  -0.00455  -0.00455   2.08984
   A16        2.09440  -0.00258   0.00000  -0.00382  -0.00382   2.09058
   A17        2.09440   0.00240   0.00000   0.00339   0.00339   2.09778
   A18        2.09440   0.00018   0.00000   0.00043   0.00043   2.09483
   A19        2.23319   0.16331   0.00000   0.17296   0.17296   2.40616
   A20        2.01758   0.10679   0.00000   0.11334   0.11340   2.13099
   A21        2.16295  -0.09330   0.00000  -0.09971  -0.09981   2.06314
   A22        2.09440  -0.01289   0.00000  -0.01211  -0.01209   2.08230
   A23        2.09440   0.01420   0.00000   0.02130   0.02128   2.11568
   A24        2.09440   0.01710   0.00000   0.01803   0.01802   2.11242
   A25        2.09440  -0.03130   0.00000  -0.03932  -0.03934   2.05506
   A26        2.09440  -0.00670   0.00000  -0.00503  -0.00503   2.08937
   A27        2.09440   0.00249   0.00000   0.00136   0.00136   2.09576
   A28        2.09440   0.00421   0.00000   0.00367   0.00367   2.09806
   A29        2.09440  -0.00494   0.00000  -0.00440  -0.00441   2.08999
   A30        2.09440   0.00034   0.00000  -0.00065  -0.00064   2.09375
   A31        2.09440   0.00461   0.00000   0.00504   0.00505   2.09944
   A32        2.09440   0.00289   0.00000   0.00580   0.00580   2.10020
   A33        2.09440   0.01250   0.00000   0.01275   0.01273   2.10713
   A34        2.09440  -0.01538   0.00000  -0.01854  -0.01854   2.07586
   A35        2.06635  -0.00972   0.00000  -0.01029  -0.01029   2.05606
   A36        2.06634  -0.00971   0.00000  -0.01028  -0.01028   2.05606
   A37        2.15049   0.01943   0.00000   0.02057   0.02057   2.17106
   A38        2.09440  -0.00506   0.00000  -0.00924  -0.00924   2.08515
    D1        0.00000  -0.00004   0.00000  -0.00009  -0.00009  -0.00009
    D2       -3.14159  -0.00008   0.00000  -0.00017  -0.00017   3.14143
    D3       -3.14159  -0.00001   0.00000  -0.00003  -0.00003   3.14157
    D4        0.00000  -0.00005   0.00000  -0.00011  -0.00011  -0.00010
    D5        0.00000  -0.00001   0.00000  -0.00002  -0.00003  -0.00003
    D6        3.14159   0.00004   0.00000   0.00009   0.00009  -3.14151
    D7        3.14159  -0.00004   0.00000  -0.00009  -0.00009   3.14150
    D8        0.00000   0.00001   0.00000   0.00002   0.00003   0.00002
    D9        1.57667   0.00003   0.00000   0.00008   0.00008   1.57675
   D10       -1.56492   0.00004   0.00000   0.00009   0.00009  -1.56483
   D11       -1.56492   0.00006   0.00000   0.00014   0.00014  -1.56478
   D12        1.57667   0.00007   0.00000   0.00015   0.00015   1.57683
   D13        0.00000   0.00001   0.00000   0.00002   0.00002   0.00002
   D14       -3.14159  -0.00028   0.00000  -0.00062  -0.00061   3.14098
   D15        3.14159   0.00005   0.00000   0.00010   0.00010  -3.14150
   D16        0.00000  -0.00024   0.00000  -0.00054  -0.00053  -0.00053
   D17        0.00000   0.00008   0.00000   0.00017   0.00017   0.00016
   D18        3.14159   0.00016   0.00000   0.00036   0.00037  -3.14123
   D19        3.14159   0.00037   0.00000   0.00081   0.00081  -3.14078
   D20        0.00000   0.00045   0.00000   0.00100   0.00102   0.00101
   D21        0.00000  -0.00013   0.00000  -0.00028  -0.00028  -0.00028
   D22       -3.14159  -0.00004   0.00000  -0.00009  -0.00009   3.14150
   D23       -3.14159  -0.00021   0.00000  -0.00048  -0.00046   3.14113
   D24        0.00000  -0.00013   0.00000  -0.00029  -0.00027  -0.00027
   D25       -0.09171   0.00099   0.00000   0.00240   0.00240  -0.08931
   D26        3.04988   0.00107   0.00000   0.00260   0.00260   3.05248
   D27        0.00000   0.00010   0.00000   0.00021   0.00021   0.00021
   D28       -3.14159   0.00004   0.00000   0.00010   0.00010  -3.14149
   D29       -3.14159   0.00001   0.00000   0.00002   0.00003  -3.14157
   D30        0.00000  -0.00004   0.00000  -0.00009  -0.00009  -0.00009
   D31        0.07603   0.01070   0.00000   0.02618   0.02592   0.10195
   D32       -2.92738   0.00544   0.00000   0.01304   0.01331  -2.91407
   D33        0.13235   0.00601   0.00000   0.00669   0.00619   0.13854
   D34       -3.00924   0.00333   0.00000  -0.00141  -0.00216  -3.01140
   D35       -3.14159   0.00368   0.00000   0.01127   0.01164  -3.12995
   D36        0.00000   0.00101   0.00000   0.00317   0.00329   0.00329
   D37        2.99766   0.01144   0.00000   0.01746   0.01690   3.01457
   D38       -0.14393   0.01035   0.00000   0.01658   0.01612  -0.12781
   D39        0.00000  -0.00254   0.00000  -0.00512  -0.00505  -0.00505
   D40        3.14159  -0.00363   0.00000  -0.00600  -0.00583   3.13576
   D41        0.00000   0.00136   0.00000   0.00156   0.00138   0.00138
   D42        3.14159  -0.00131   0.00000  -0.00654  -0.00668   3.13490
   D43        0.00000   0.00171   0.00000   0.00233   0.00224   0.00224
   D44        3.14159   0.00052   0.00000   0.00130   0.00132  -3.14027
   D45        3.14159   0.00279   0.00000   0.00322   0.00302  -3.13858
   D46        0.00000   0.00161   0.00000   0.00219   0.00210   0.00210
   D47       -3.14159  -0.00052   0.00000  -0.00012  -0.00004   3.14155
   D48        0.00000   0.00066   0.00000   0.00240   0.00249   0.00249
   D49        0.00000   0.00067   0.00000   0.00091   0.00088   0.00087
   D50       -3.14159   0.00185   0.00000   0.00343   0.00340  -3.13819
   D51        0.00000  -0.00220   0.00000  -0.00435  -0.00428  -0.00428
   D52       -3.14159  -0.00102   0.00000  -0.00183  -0.00179   3.13981
         Item               Value     Threshold  Converged?
 Maximum Force            0.163308     0.000450     NO 
 RMS     Force            0.027638     0.000300     NO 
 Maximum Displacement     1.212242     0.001800     NO 
 RMS     Displacement     0.346281     0.001200     NO 
 Predicted change in Energy=-7.615000D-02
 GradGradGradGradGradGradGradGradGradGradGradGradGradGradGradGradGradGrad

                          Input orientation:                          
 ---------------------------------------------------------------------
 Center     Atomic      Atomic             Coordinates (Angstroms)
 Number     Number       Type             X           Y           Z
 ---------------------------------------------------------------------
      1          6           0       -4.755858   -0.305236   -0.241781
      2          6           0       -4.890255   -0.046133   -1.606256
      3          6           0       -4.647270    1.240248   -2.100746
      4          6           0       -4.268385    2.272506   -1.228965
      5          6           0       -4.136945    1.999415    0.137118
      6          6           0       -4.379435    0.715157    0.632443
      7          1           0       -5.180245   -0.834027   -2.277811
      8          1           0       -3.847010    2.784878    0.811108
      9          1           0       -4.275790    0.515639    1.683628
     10          8           0       -3.971707    3.719587   -1.620989
     11          6           0       -3.851372    4.614180   -3.005362
     12          6           0       -4.161478    4.083302   -4.263793
     13          6           0       -3.283058    5.884738   -2.921766
     14          6           0       -3.025770    6.606281   -4.089776
     15          1           0       -3.044999    6.306501   -1.961764
     16          6           0       -3.342399    6.050239   -5.332349
     17          1           0       -2.586489    7.585921   -4.030075
     18          1           0       -3.148519    6.597078   -6.236897
     19          1           0       -4.755854    1.411578   -3.143096
     20          1           0       -4.604322    3.123802   -4.362142
     21          7           0       -5.011676   -1.658291    0.276913
     22          8           0       -4.079313   -2.426826    0.332518
     23          8           0       -6.140214   -1.927332    0.619051
     24          7           0       -3.909518    4.796671   -5.419253
 ---------------------------------------------------------------------
                    Distance matrix (angstroms):
                    1          2          3          4          5
     1  C    0.000000
     2  C    1.395346   0.000000
     3  C    2.419931   1.399406   0.000000
     4  C    2.803019   2.430053   1.403251   0.000000
     5  C    2.416202   2.791253   2.417603   1.399299   0.000000
     6  C    1.395408   2.419147   2.796029   2.429507   1.397664
     7  H    2.145960   1.075108   2.148960   3.403250   3.866361
     8  H    3.388714   3.866087   3.391930   2.145222   1.074838
     9  H    2.147440   3.393596   3.870988   3.401446   2.147688
    10  O    4.326235   3.876157   2.614130   1.528315   2.465205
    11  C    5.714554   4.975469   3.582625   2.968658   4.098016
    12  C    5.982402   4.964458   3.605235   3.535618   4.869415
    13  C    6.904146   6.284017   4.909830   4.109095   5.018130
    14  C    8.097489   7.341579   5.948093   5.339470   6.350162
    15  H    7.042758   6.624750   5.315403   4.278643   4.914127
    16  C    8.264612   7.310635   5.939862   5.653891   6.852412
    17  H    9.018187   8.332496   6.945264   6.237578   7.139921
    18  H    9.282612   8.283038   6.931783   6.710842   7.921083
    19  H    3.371213   2.122466   1.061902   2.154697   3.389455
    20  H    5.362708   4.210125   2.943388   3.264102   4.661119
    21  N    1.471477   2.481960   3.766641   4.274496   3.763444
    22  O    2.299712   3.175558   4.437430   4.955572   4.430926
    23  O    2.299710   3.170694   4.433930   4.955556   4.434488
    24  N    7.317921   6.241277   4.919849   4.904968   6.224920
                    6          7          8          9         10
     6  C    0.000000
     7  H    3.392764   0.000000
     8  H    2.144560   4.941195   0.000000
     9  H    1.074961   4.281663   2.468722   0.000000
    10  O    3.777671   4.756825   2.608510   4.612835   0.000000
    11  C    5.358625   5.654926   4.232235   6.242179   1.652655
    12  C    5.946850   5.400197   5.247801   6.936361   2.674456
    13  C    6.368595   7.011119   4.884825   7.142996   2.618040
    14  C    7.670534   7.955071   6.268670   8.484731   3.914423
    15  H    6.306644   7.459645   4.553446   6.952540   2.768942
    16  C    8.069529   7.752483   6.975621   8.984818   4.427433
    17  H    8.494771   8.982957   6.933685   9.246028   4.761414
    18  H    9.126882   8.661616   8.043328  10.049346   5.501290
    19  H    3.857640   2.443679   4.283419   4.932589   2.873778
    20  H    5.549597   4.510048   5.239361   6.592555   2.875601
    21  N    2.481811   2.689692   4.624236   2.691904   5.796994
    22  O    3.170502   3.250058   5.238785   3.243794   6.450284
    23  O    3.175416   3.241707   5.244100   3.252308   6.450418
    24  N    7.314548   6.571770   6.547413   8.301344   3.948517
                   11         12         13         14         15
    11  C    0.000000
    12  C    1.400588   0.000000
    13  C    1.394376   2.412018   0.000000
    14  C    2.413718   2.772281   1.396807   0.000000
    15  H    2.145527   3.389466   1.075249   2.149110   0.000000
    16  C    2.781400   2.383599   2.416987   1.397650   3.393370
    17  H    3.388393   3.847539   2.146529   1.075280   2.474886
    18  H    3.855995   3.352357   3.393468   2.150647   4.286247
    19  H    3.330724   2.957592   4.714581   5.556468   5.318162
    20  H    2.151514   1.061331   3.382778   3.833232   4.280523
    21  N    7.173809   7.369310   8.373586   9.555885   8.503964
    22  O    7.795458   7.969604   8.961388  10.112549   9.088704
    23  O    7.820904   7.992826   9.040417  10.232075   9.167168
    24  N    2.421478   1.381111   2.795315   2.413133   3.870557
                   16         17         18         19         20
    16  C    0.000000
    17  H    2.150729   0.000000
    18  H    1.074629   2.482690   0.000000
    19  H    5.320514   6.604195   6.248563   0.000000
    20  H    3.331334   4.908404   4.206865   2.107308   0.000000
    21  N    9.678417  10.482707  10.679522   4.602825   6.674967
    22  O   10.222250  11.023423  11.200644   5.222159   7.288686
    23  O   10.338693  11.168944  11.341068   5.217137   7.258457
    24  N    1.378626   3.385283   2.118755   4.166057   2.097314
                   21         22         23         24
    21  N    0.000000
    22  O    1.209561   0.000000
    23  O    1.209561   2.139838   0.000000
    24  N    8.679147   9.235292   9.308562   0.000000
 Stoichiometry    C11H8N2O3
 Framework group  C1[X(C11H8N2O3)]
 Deg. of freedom    66
 Full point group                 C1      NOp   1
 Largest Abelian subgroup         C1      NOp   1
 Largest concise Abelian subgroup C1      NOp   1
                         Standard orientation:                         
 ---------------------------------------------------------------------
 Center     Atomic      Atomic             Coordinates (Angstroms)
 Number     Number       Type             X           Y           Z
 ---------------------------------------------------------------------
      1          6           0       -2.984611   -0.022792    0.016064
      2          6           0       -2.058666   -1.064892   -0.044300
      3          6           0       -0.689741   -0.780960   -0.105664
      4          6           0       -0.243366    0.549401   -0.106738
      5          6           0       -1.182219    1.585190   -0.045628
      6          6           0       -2.549758    1.303128    0.015559
      7          1           0       -2.396195   -2.085642   -0.043624
      8          1           0       -0.848015    2.606750   -0.045952
      9          1           0       -3.263006    2.106028    0.062139
     10          8           0        1.212062    1.011436   -0.169983
     11          6           0        2.716632    0.327852   -0.154241
     12          6           0        2.903870   -1.059879   -0.182354
     13          6           0        3.817201    1.161227    0.042020
     14          6           0        5.086223    0.603315    0.213450
     15          1           0        3.688453    2.228582    0.060409
     16          6           0        5.243042   -0.785201    0.184216
     17          1           0        5.937550    1.242147    0.366301
     18          1           0        6.215036   -1.224455    0.315026
     19          1           0       -0.005345   -1.591665   -0.150329
     20          1           0        2.089363   -1.721782   -0.340107
     21          7           0       -4.423761   -0.322688    0.080524
     22          8           0       -4.925586   -0.447778    1.173941
     23          8           0       -5.025527   -0.427579   -0.963466
     24          7           0        4.158465   -1.612590   -0.015111
 ---------------------------------------------------------------------
 Rotational constants (GHZ):           2.0436908           0.1841347           0.1735331
 Standard basis: 6-31+G(d) (6D, 7F)
 There are   320 symmetry adapted cartesian basis functions of A   symmetry.
 There are   320 symmetry adapted basis functions of A   symmetry.
   320 basis functions,   544 primitive gaussians,   320 cartesian basis functions
    56 alpha electrons       56 beta electrons
       nuclear repulsion energy       943.5503648545 Hartrees.
 NAtoms=   24 NActive=   24 NUniq=   24 SFac= 1.00D+00 NAtFMM=   60 NAOKFM=F Big=F
 Integral buffers will be    131072 words long.
 Raffenetti 2 integral format.
 Two-electron integral symmetry is turned on.
 Nuclear repulsion after empirical dispersion term =      943.5324209418 Hartrees.
 One-electron integrals computed using PRISM.
 NBasis=   320 RedAO= T EigKep=  1.12D-06  NBF=   320
 NBsUse=   320 1.00D-06 EigRej= -1.00D+00 NBFU=   320
 Initial guess from the checkpoint file:  "molecule_78.chk"
 B after Tr=     0.000000    0.000000    0.000000
         Rot=    0.999573    0.028869    0.000296   -0.004420 Ang=   3.35 deg.
 ExpMin= 4.38D-02 ExpMax= 5.48D+03 ExpMxC= 8.25D+02 IAcc=3 IRadAn=         5 AccDes= 0.00D+00
 Harris functional with IExCor=  402 and IRadAn=       5 diagonalized for initial guess.
 HarFok:  IExCor=  402 AccDes= 0.00D+00 IRadAn=         5 IDoV= 1 UseB2=F ITyADJ=14
 ICtDFT=  3500011 ScaDFX=  1.000000  1.000000  1.000000  1.000000
 FoFCou: FMM=F IPFlag=           0 FMFlag=      100000 FMFlg1=           0
         NFxFlg=           0 DoJE=T BraDBF=F KetDBF=T FulRan=T
         wScrn=  0.000000 ICntrl=       500 IOpCl=  0 I1Cent=   200000004 NGrid=           0
         NMat0=    1 NMatS0=      1 NMatT0=    0 NMatD0=    1 NMtDS0=    0 NMtDT0=    0
 Petite list used in FoFCou.
 Requested convergence on RMS density matrix=1.00D-08 within 128 cycles.
 Requested convergence on MAX density matrix=1.00D-06.
 Requested convergence on             energy=1.00D-06.
 No special actions if energy rises.
 SCF Done:  E(RB3LYP) =  -759.018527436     A.U. after   17 cycles
            NFock= 17  Conv=0.66D-08     -V/T= 2.0101
 Calling FoFJK, ICntrl=      2127 FMM=F ISym2X=0 I1Cent= 0 IOpClX= 0 NMat=1 NMatS=1 NMatT=0.
 ***** Axes restored to original set *****
 -------------------------------------------------------------------
 Center     Atomic                   Forces (Hartrees/Bohr)
 Number     Number              X              Y              Z
 -------------------------------------------------------------------
      1        6           0.002650045    0.015142237   -0.007337541
      2        6           0.001707118    0.002214640    0.008151284
      3        6           0.003129799    0.005283639    0.012835022
      4        6           0.007336047    0.044640400   -0.034299885
      5        6           0.000178539    0.003789082   -0.004370141
      6        6          -0.001462179   -0.000727940   -0.008043852
      7        1          -0.002052049   -0.005151873   -0.005376448
      8        1           0.002054575    0.005994488    0.003721764
      9        1           0.000960515   -0.000690112    0.007616409
     10        8          -0.002569187    0.000212579   -0.019126162
     11        6          -0.002550412   -0.056376499    0.028204994
     12        6           0.016135826    0.039090010   -0.012807495
     13        6          -0.003305672   -0.009594287    0.013851186
     14        6          -0.006793294   -0.008277175   -0.003183012
     15        1           0.002621189    0.001373003    0.007537242
     16        6          -0.016079802   -0.039182928    0.023420969
     17        1           0.003179434    0.007309163    0.001762406
     18        1          -0.000435472   -0.001302010   -0.009935447
     19        1          -0.001240025    0.003356562   -0.015223021
     20        1          -0.006100647   -0.013972443   -0.005928704
     21        7           0.002756649    0.014726927   -0.005795187
     22        8           0.028773924   -0.015798961   -0.000895035
     23        8          -0.031965319   -0.001119819    0.007459008
     24        7           0.003070398    0.009061317    0.017761648
 -------------------------------------------------------------------
 Cartesian Forces:  Max     0.056376499 RMS     0.015228877

 GradGradGradGradGradGradGradGradGradGradGradGradGradGradGradGradGradGrad
 Berny optimization.
 Using GEDIIS/GDIIS optimizer.
 FormGI is forming the generalized inverse of G from B-inverse, IUseBI=4.
 Internal  Forces:  Max     0.090483492 RMS     0.015199075
 Search for a local minimum.
 Step number   2 out of a maximum of  125
 All quantities printed in internal units (Hartrees-Bohrs-Radians)
 Mixed Optimization -- RFO/linear search
 Update second derivatives using D2CorX and points    1    2
 DE= -3.49D-02 DEPred=-7.62D-02 R= 4.59D-01
 Trust test= 4.59D-01 RLast= 3.03D-01 DXMaxT set to 3.00D-01
 ITU=  0  0
 Use linear search instead of GDIIS.
 Linear search step of   0.302 exceeds DXMaxT=   0.300 but not scaled.
 Quartic linear search produced a step of  1.00649.
 Iteration  1 RMS(Cart)=  0.24069136 RMS(Int)=  0.01378279
 Iteration  2 RMS(Cart)=  0.09875654 RMS(Int)=  0.00175425
 Iteration  3 RMS(Cart)=  0.00407274 RMS(Int)=  0.00024019
 Iteration  4 RMS(Cart)=  0.00000260 RMS(Int)=  0.00024019
 Iteration  5 RMS(Cart)=  0.00000000 RMS(Int)=  0.00024019
 Variable       Old X    -DE/DX   Delta X   Delta X   Delta X     New X
                                 (Linear)    (Quad)   (Total)
    R1        2.63682  -0.00368  -0.01152   0.00000  -0.01153   2.62529
    R2        2.63694  -0.00170  -0.01140   0.00000  -0.01140   2.62554
    R3        2.78069   0.00236   0.00281   0.00000   0.00281   2.78350
    R4        2.64449  -0.00421  -0.00379   0.00000  -0.00380   2.64069
    R5        2.03166   0.00769   0.00972   0.00000   0.00972   2.04137
    R6        2.65176  -0.00915   0.00352   0.00000   0.00352   2.65528
    R7        2.00670   0.01561  -0.01540   0.00000  -0.01540   1.99130
    R8        2.64429  -0.00751  -0.00400   0.00000  -0.00398   2.64031
    R9        2.88810  -0.08100  -0.04562   0.00000  -0.04562   2.84248
   R10        2.64120  -0.00542  -0.00710   0.00000  -0.00710   2.63411
   R11        2.03115   0.00727   0.00920   0.00000   0.00920   2.04035
   R12        2.03138   0.00767   0.00943   0.00000   0.00943   2.04082
   R13        3.12306  -0.09048  -0.06292   0.00000  -0.06292   3.06014
   R14        2.64673  -0.00952  -0.00154   0.00000  -0.00152   2.64520
   R15        2.63499  -0.01739  -0.01336   0.00000  -0.01334   2.62164
   R16        2.00562   0.01573  -0.01649   0.00000  -0.01649   1.98914
   R17        2.60992  -0.03793  -0.03859   0.00000  -0.03858   2.57134
   R18        2.63958  -0.00688  -0.00874   0.00000  -0.00874   2.63084
   R19        2.03193   0.00785   0.00998   0.00000   0.00998   2.04191
   R20        2.64118   0.00161  -0.00713   0.00000  -0.00715   2.63402
   R21        2.03198   0.00806   0.01004   0.00000   0.01004   2.04203
   R22        2.03076   0.00762   0.00880   0.00000   0.00880   2.03956
   R23        2.60523  -0.03431  -0.04332   0.00000  -0.04333   2.56189
   R24        2.28574   0.03218   0.01944   0.00000   0.01944   2.30518
   R25        2.28574   0.03218   0.01945   0.00000   0.01945   2.30519
    A1        2.09767   0.00762   0.00330   0.00000   0.00328   2.10095
    A2        2.09290  -0.00387  -0.00151   0.00000  -0.00150   2.09140
    A3        2.09262  -0.00375  -0.00179   0.00000  -0.00178   2.09083
    A4        2.09383  -0.00424  -0.00057   0.00000  -0.00059   2.09323
    A5        2.09522   0.00288   0.00083   0.00000   0.00084   2.09607
    A6        2.09414   0.00136  -0.00026   0.00000  -0.00025   2.09389
    A7        2.09851  -0.00649   0.00414   0.00000   0.00414   2.10265
    A8        2.06850   0.00416  -0.02607   0.00000  -0.02606   2.04243
    A9        2.11617   0.00234   0.02192   0.00000   0.02192   2.13810
   A10        2.08095   0.01414  -0.01354   0.00000  -0.01352   2.06743
   A11        2.20133  -0.00378   0.10763   0.00000   0.10762   2.30895
   A12        2.00091  -0.01036  -0.09409   0.00000  -0.09410   1.90681
   A13        2.10483  -0.00735   0.01051   0.00000   0.01053   2.11536
   A14        2.08851   0.00258  -0.00592   0.00000  -0.00593   2.08258
   A15        2.08984   0.00478  -0.00458   0.00000  -0.00459   2.08525
   A16        2.09058  -0.00367  -0.00384   0.00000  -0.00384   2.08674
   A17        2.09778   0.00262   0.00341   0.00000   0.00341   2.10119
   A18        2.09483   0.00105   0.00043   0.00000   0.00043   2.09526
   A19        2.40616  -0.05568   0.17408   0.00000   0.17408   2.58024
   A20        2.13099   0.00739   0.11414   0.00000   0.11423   2.24522
   A21        2.06314  -0.02107  -0.10046   0.00000  -0.10065   1.96249
   A22        2.08230   0.01402  -0.01217   0.00000  -0.01216   2.07014
   A23        2.11568   0.00320   0.02142   0.00000   0.02139   2.13707
   A24        2.11242   0.00257   0.01814   0.00000   0.01815   2.13057
   A25        2.05506  -0.00577  -0.03959   0.00000  -0.03963   2.01543
   A26        2.08937  -0.01858  -0.00506   0.00000  -0.00505   2.08432
   A27        2.09576   0.00793   0.00137   0.00000   0.00136   2.09712
   A28        2.09806   0.01066   0.00369   0.00000   0.00368   2.10174
   A29        2.08999  -0.00520  -0.00443   0.00000  -0.00445   2.08554
   A30        2.09375   0.00127  -0.00065   0.00000  -0.00064   2.09312
   A31        2.09944   0.00393   0.00508   0.00000   0.00509   2.10453
   A32        2.10020  -0.00037   0.00584   0.00000   0.00586   2.10605
   A33        2.10713   0.01392   0.01282   0.00000   0.01278   2.11991
   A34        2.07586  -0.01355  -0.01866   0.00000  -0.01865   2.05721
   A35        2.05606  -0.00500  -0.01036   0.00000  -0.01036   2.04570
   A36        2.05606  -0.00499  -0.01035   0.00000  -0.01035   2.04571
   A37        2.17106   0.00999   0.02071   0.00000   0.02071   2.19177
   A38        2.08515  -0.00673  -0.00930   0.00000  -0.00931   2.07584
    D1       -0.00009  -0.00002  -0.00009   0.00000  -0.00009  -0.00018
    D2        3.14143   0.00000  -0.00017   0.00000  -0.00016   3.14126
    D3        3.14157  -0.00002  -0.00003   0.00000  -0.00003   3.14154
    D4       -0.00010   0.00000  -0.00011   0.00000  -0.00010  -0.00020
    D5       -0.00003  -0.00001  -0.00003   0.00000  -0.00003  -0.00005
    D6       -3.14151   0.00002   0.00009   0.00000   0.00009  -3.14141
    D7        3.14150  -0.00002  -0.00009   0.00000  -0.00009   3.14141
    D8        0.00002   0.00001   0.00003   0.00000   0.00003   0.00005
    D9        1.57675   0.00009   0.00008   0.00000   0.00008   1.57684
   D10       -1.56483   0.00001   0.00009   0.00000   0.00009  -1.56474
   D11       -1.56478   0.00009   0.00014   0.00000   0.00014  -1.56463
   D12        1.57683   0.00001   0.00016   0.00000   0.00016   1.57698
   D13        0.00002   0.00003   0.00002   0.00000   0.00002   0.00004
   D14        3.14098  -0.00001  -0.00062   0.00000  -0.00059   3.14039
   D15       -3.14150   0.00001   0.00010   0.00000   0.00009  -3.14140
   D16       -0.00053  -0.00003  -0.00054   0.00000  -0.00052  -0.00105
   D17        0.00016   0.00000   0.00017   0.00000   0.00017   0.00033
   D18       -3.14123   0.00010   0.00037   0.00000   0.00038  -3.14084
   D19       -3.14078   0.00004   0.00082   0.00000   0.00083  -3.13995
   D20        0.00101   0.00014   0.00102   0.00000   0.00105   0.00206
   D21       -0.00028  -0.00004  -0.00028   0.00000  -0.00029  -0.00057
   D22        3.14150  -0.00001  -0.00010   0.00000  -0.00010   3.14140
   D23        3.14113  -0.00012  -0.00047   0.00000  -0.00044   3.14070
   D24       -0.00027  -0.00009  -0.00028   0.00000  -0.00025  -0.00053
   D25       -0.08931   0.00039   0.00242   0.00000   0.00242  -0.08689
   D26        3.05248   0.00048   0.00261   0.00000   0.00261   3.05509
   D27        0.00021   0.00004   0.00021   0.00000   0.00022   0.00043
   D28       -3.14149   0.00001   0.00010   0.00000   0.00010  -3.14139
   D29       -3.14157   0.00001   0.00003   0.00000   0.00004  -3.14153
   D30       -0.00009  -0.00002  -0.00009   0.00000  -0.00008  -0.00017
   D31        0.10195   0.00178   0.02608   0.00000   0.02561   0.12755
   D32       -2.91407  -0.00226   0.01340   0.00000   0.01387  -2.90020
   D33        0.13854  -0.00138   0.00623   0.00000   0.00534   0.14389
   D34       -3.01140  -0.00187  -0.00217   0.00000  -0.00354  -3.01494
   D35       -3.12995   0.00026   0.01171   0.00000   0.01237  -3.11758
   D36        0.00329  -0.00023   0.00331   0.00000   0.00348   0.00677
   D37        3.01457   0.00386   0.01701   0.00000   0.01584   3.03041
   D38       -0.12781   0.00331   0.01623   0.00000   0.01526  -0.11255
   D39       -0.00505   0.00033  -0.00509   0.00000  -0.00490  -0.00995
   D40        3.13576  -0.00022  -0.00587   0.00000  -0.00548   3.13028
   D41        0.00138   0.00028   0.00139   0.00000   0.00106   0.00244
   D42        3.13490  -0.00016  -0.00673   0.00000  -0.00698   3.12792
   D43        0.00224  -0.00040   0.00225   0.00000   0.00205   0.00429
[...]
 4,0.00088280,0.00031706,-0.00015689,0.00014000,0.00002815,0.00000664,-
 0.00002023,-0.00003165,-0.00002246,0.00009220,-0.00000144,0.00002832,0
 .00000836,0.00000503,-0.00000614,-0.00003722,0.00000065,-0.00001097,0.
 00086341,0.00014324,-0.00048542,-0.07753365,-0.00011332,-0.02137611,0.
 00279496,-0.03770086,0.09028544,0.05300264,0.03117352,-0.05985827,-0.2
 4456203,0.00008828,-0.06023355,0.00145717,-0.00190282,0.00238801,0.642
 18062,0.00002411,0.00006602,-0.00012032,-0.00001045,-0.00017380,-0.000
 01520,-0.00003896,0.00011979,0.00003042,0.00003511,0.00061597,-0.00033
 070,-0.00004354,-0.00008049,0.00005366,0.00002587,0.00008483,0.0000315
 4,0.00001261,-0.00002169,0.00001136,0.00000535,0.00000703,-0.00002121,
 -0.00000520,-0.00000698,-0.00000125,-0.00007788,-0.00063911,0.00075821
 ,-0.00627803,-0.00781633,-0.00495938,-0.01903887,-0.00971084,0.0230705
 2,0.01392125,0.00493232,0.00962409,0.02706253,-0.08351067,0.04577438,-
 0.00171427,0.00604951,0.00511309,0.06200695,0.25406303,-0.00000450,-0.
 00001759,0.00001709,-0.00000540,0.00008560,0.00004266,0.00007473,0.000
 15682,-0.00018715,-0.00023476,-0.00043102,0.00078207,0.00001376,0.0000
 1440,0.00004921,-0.00002309,0.00000366,-0.00000453,0.00000935,0.000036
 05,-0.00001227,-0.00000649,-0.00001846,0.00001158,-0.00000091,0.000010
 07,-0.00000025,0.00138381,0.00022055,-0.00227455,-0.00749892,-0.002911
 47,-0.00312232,0.04450472,0.01699693,-0.02381143,-0.01776102,0.0152129
 1,-0.03518847,-0.12326335,0.03704222,-0.19692923,0.00150956,0.00510540
 ,-0.00296767,0.01251587,-0.21784596,0.67646386,-0.00000332,-0.00007378
 ,0.00000673,0.00000711,0.00002706,-0.00001268,0.00000554,-0.00005841,-
 0.00002157,0.00001013,0.00033253,-0.00007578,-0.00001411,-0.00007339,0
 .00003841,-0.00000011,0.00004843,0.00001676,-0.00000472,-0.00000275,0.
 00000229,-0.00000197,0.00000376,-0.00000688,0.00000028,-0.00000186,-0.
 00000092,0.00000181,-0.00019924,-0.00000387,0.00226383,-0.00063561,-0.
 00065137,0.00091113,0.00077202,-0.00155121,0.00163211,0.00000846,-0.00
 052405,-0.29458532,-0.07075256,0.08101295,0.00059583,0.00043212,0.0005
 9868,-0.01587846,-0.00777947,0.01263348,0.30872021,-0.00002020,-0.0001
 2796,0.00006326,0.00003131,0.00008973,-0.00005253,0.00005110,-0.000221
 98,0.00001747,-0.00015973,0.00057923,-0.00008476,-0.00003162,-0.000095
 97,0.00004348,0.00002568,0.00003169,-0.00000463,-0.00000567,-0.0000111
 2,0.00000496,-0.00000596,0.00000276,-0.00001432,0.00000241,-0.00000412
 ,0.00000011,-0.00054011,-0.00060665,0.00071046,0.00007398,0.00639859,0
 .00416660,0.00033063,-0.00013328,0.00033648,-0.01203304,-0.00005293,0.
 00319925,-0.07088650,-0.05968556,0.03218961,0.00075595,-0.00331071,-0.
 00172897,0.00475955,0.00286128,-0.00247127,0.07704044,0.05184710,-0.00
 000418,0.00013038,0.00001661,-0.00001867,-0.00001138,0.00000620,-0.000
 01728,0.00009036,0.00009239,0.00013775,-0.00087916,-0.00004001,-0.0000
 2680,0.00024975,-0.00012901,-0.00001227,-0.00011456,-0.00006301,0.0000
 0188,0.00000606,-0.00000083,0.00001192,-0.00000506,0.00001540,0.000009
 85,0.00001082,0.00000175,0.00163783,0.00131579,-0.00093842,-0.00168026
 ,0.00418259,-0.00240303,-0.00036935,0.00065349,-0.00168810,0.02766516,
 0.00720106,-0.00464627,0.08087064,0.03212754,-0.08532790,-0.00012330,-
 0.00186562,0.00018076,-0.01675091,-0.00669360,0.01138692,-0.08743548,-
 0.03716690,0.08412294,-0.00001434,-0.00003358,0.00000354,0.00001163,0.
 00001470,-0.00000450,0.00001109,-0.00003329,-0.00001774,0.00001510,0.0
 0017480,-0.00005151,-0.00002409,-0.00002600,0.00001956,0.00000338,0.00
 001552,0.00000508,0.00000007,-0.00000028,0.00000018,-0.00000375,0.0000
 0145,-0.00000401,0.00000015,-0.00000050,-0.00000013,0.00045415,0.00004
 113,0.00045255,-0.00132643,-0.00031628,0.00005567,-0.00365321,-0.00276
 640,0.00215956,-0.00414442,-0.00030615,-0.00284310,0.00671648,0.010040
 22,-0.02351369,0.00031603,0.00059219,-0.00120039,-0.05637598,-0.006998
 26,0.01151640,0.00033330,0.00022963,0.00057887,0.06792694,-0.00000412,
 -0.00004882,0.00001217,0.00000412,0.00002527,-0.00002427,-0.00001833,-
 0.00005247,0.00004994,0.00008976,-0.00001636,0.00030885,-0.00001546,-0
 .00010964,0.00000749,-0.00001208,0.00003038,0.00002420,-0.00000063,-0.
 00000596,0.00000579,0.00000135,0.00000474,0.00000015,0.00000218,-0.000
 00582,0.00000028,0.00013888,-0.00178295,-0.00068477,0.00000106,0.00091
 155,-0.00021068,-0.00188502,0.00858311,0.00314350,-0.00007074,0.005693
 87,0.00231051,-0.00139768,0.00398942,0.00380656,-0.00005904,-0.0002660
 1,-0.00002243,-0.00778201,-0.08664802,0.10659541,0.00061852,-0.0024360
 7,-0.00109239,0.01510651,0.07920815,0.00000467,0.00009044,-0.00002534,
 -0.00000383,-0.00005503,0.00001776,-0.00001417,0.00009358,0.00006183,0
 .00002219,-0.00044280,0.00018461,0.00001557,0.00004731,-0.00004911,-0.
 00000300,-0.00003931,-0.00000689,0.00000229,-0.00000039,-0.00000140,-0
 .00000196,-0.00000105,0.00000918,0.00000035,-0.00000020,0.00000120,0.0
 0001196,-0.00033102,-0.00056753,-0.00051485,-0.00006233,0.00068902,0.0
 0021106,0.00286311,0.00349362,-0.00350598,0.00220088,0.00028040,0.0035
 7865,0.00763366,-0.01104769,0.00033436,0.00021233,-0.00066273,0.013104
 70,0.10673436,-0.28995579,-0.00033140,-0.00122316,-0.00018704,-0.02247
 437,-0.11988191,0.30403030,0.00678136,0.00007518,0.00104640,0.00217109
 ,-0.00003121,0.00021190,-0.04526351,-0.01520989,0.05754415,0.00235077,
 -0.00196958,0.00474179,0.00478179,0.00093393,0.00136139,-0.00060733,0.
 00016498,-0.00020990,-0.00429705,-0.00011880,-0.00108145,0.00002590,-0
 .00011688,0.00019756,-0.00056407,-0.00002073,-0.00011485,-0.00250918,-
 0.00025683,-0.00068341,-0.00071722,-0.00008724,-0.00015682,0.00041336,
 0.00003766,0.00012911,0.00037609,-0.00008818,-0.00012237,-0.00009187,-
 0.00013193,0.00044686,-0.00008001,-0.00007667,-0.00008913,-0.00027241,
 0.00003815,0.00001623,-0.00001505,-0.00003281,0.00002098,-0.00002427,-
 0.00000539,0.00000156,0.03705501,0.00031070,-0.00474903,-0.00041807,-0
 .00623200,-0.00544113,0.03006115,-0.01536297,-0.08133295,0.07643422,0.
 00420832,0.01229466,-0.02051168,0.00069889,-0.00331665,-0.00260920,0.0
 0010124,-0.00109978,-0.00042958,-0.00005744,0.00088463,-0.00022757,0.0
 0023901,0.00042314,-0.00114313,-0.00002222,0.00004541,0.00005191,-0.00
 046673,0.00069396,0.00202705,0.00032674,-0.00239467,-0.00120383,0.0003
 6521,-0.00106005,0.00033230,-0.00034776,-0.00091262,0.00024411,-0.0001
 4048,-0.00003882,-0.00014648,0.00003052,0.00012695,0.00002476,0.000043
 20,-0.00003866,0.00015866,0.00002668,0.00001463,-0.00001076,0.00000363
 ,0.00004440,-0.00001681,0.01663568,0.08606762,0.00100121,0.00056126,0.
 00215826,0.00069049,0.00081529,-0.00119980,0.05769890,0.07567862,-0.31
 201276,0.00417790,0.00830346,-0.01707621,0.00137002,-0.00357683,-0.001
 12327,-0.00019726,-0.00076728,0.00035021,-0.00107564,0.00010633,0.0005
 8306,0.00016376,0.00051249,-0.00074700,-0.00011249,0.00003970,-0.00005
 410,-0.00062841,0.00109703,0.00023077,-0.00011353,0.00094736,0.0001329
 6,0.00025046,0.00062069,0.00044525,-0.00039742,0.00046284,0.00034013,-
 0.00010107,0.00005272,0.00015323,-0.00004977,-0.00018733,-0.00012832,0
 .00009923,-0.00002763,-0.00017067,0.00001042,0.00000568,-0.00000975,0.
 00000293,-0.00001623,-0.00003092,-0.06290012,-0.08430926,0.32823224,-0
 .00003963,-0.00009760,0.00008108,0.00006957,0.00013922,-0.00007943,0.0
 0015811,-0.00011820,0.00007789,-0.00019443,0.00036766,-0.00050055,0.00
 000425,0.00007889,-0.00001645,0.00002344,-0.00000591,-0.00000940,-0.00
 001001,0.00000127,0.00000288,-0.00003078,-0.00000136,-0.00001329,-0.00
 000051,0.00000481,-0.00000191,0.00197643,0.00049026,0.00025104,-0.0186
 4478,-0.00746389,0.00969602,-0.30768590,-0.05969330,0.05961473,-0.0019
 3404,0.00070192,-0.00398612,0.00041375,0.00041391,-0.00065775,-0.00086
 480,-0.00031346,0.00044317,0.00305612,-0.00032549,-0.00128897,-0.00011
 355,0.00014933,0.00009553,-0.00001767,-0.00003480,-0.00005634,-0.00019
 803,-0.00005114,0.00005861,0.32075238,0.00001742,0.00001810,-0.0000079
 2,-0.00003153,-0.00005540,-0.00004309,-0.00003772,-0.00006657,0.000143
 47,-0.00007328,-0.00009515,0.00030646,-0.00002123,-0.00010524,0.000011
 62,0.00000023,0.00001619,0.00000364,-0.00000146,-0.00001364,0.00000088
 ,0.00000353,0.00001264,-0.00001315,0.00000582,-0.00000445,0.00000223,0
 .00043564,-0.00258631,-0.00154313,0.00419829,0.00808451,-0.00017161,-0
 .05932012,-0.05598506,0.01959211,0.00021243,0.00475691,0.00289855,-0.0
 0007564,-0.00043833,0.00009788,0.00039404,-0.00013963,-0.00022266,-0.0
 0116338,0.00820086,0.00517188,0.00011089,-0.00135576,-0.00066104,-0.00
 047074,0.00030095,0.00025444,0.00011804,0.00013511,-0.00012067,0.06810
 580,0.04824005,0.00002862,-0.00011417,0.00001405,-0.00004709,0.0000031
 8,-0.00006926,-0.00006798,-0.00009830,0.00006577,-0.00017698,0.0006457
 7,0.00001014,-0.00001459,-0.00011375,0.00008913,0.00000293,0.00009067,
 0.00000549,0.00000060,-0.00001385,0.00000513,-0.00001090,0.00000556,-0
 .00002641,-0.00000072,-0.00000183,-0.00000154,0.00134642,-0.00229677,0
 .00176600,-0.01881276,-0.00282837,0.00849513,0.05992221,0.01953504,-0.
 06814204,-0.00325880,0.00292753,-0.00202336,0.00041931,0.00017841,-0.0
 0075728,-0.00101795,-0.00044070,0.00038251,0.00041585,0.00534233,-0.00
 202768,0.00026397,-0.00062694,-0.00005345,0.00095287,0.00038679,-0.000
 15218,0.00007923,0.00001752,-0.00006177,-0.07170671,-0.03160886,0.0786
 2544,-0.07489303,0.00041882,0.00747353,-0.00443764,-0.00688975,-0.0017
 5048,0.00750401,-0.00017864,0.00339181,-0.00163931,-0.00020796,0.00074
 220,0.00714507,0.00175000,0.00245659,-0.00388753,0.00327049,-0.0052484
 3,-0.00419817,-0.00008112,-0.00011785,0.00123671,0.00037199,0.00012923
 ,-0.00391521,0.00033247,0.00000476,-0.00045154,0.00042426,-0.00022800,
 -0.00049765,-0.00007644,0.00007137,0.00015434,-0.00005932,-0.00003747,
 0.00007367,0.00006428,0.00001859,-0.00001053,-0.00003518,0.00004406,-0
 .00000686,-0.00001506,-0.00000991,-0.00004739,0.00000598,0.00001350,0.
 00000292,-0.00001492,0.00000189,0.00000109,-0.00000723,-0.00000596,0.0
 0126302,-0.00034549,0.00027581,-0.00000820,0.00000482,0.00001162,0.255
 49905,0.00059571,-0.12080033,0.00155186,-0.00589800,-0.02689081,0.0296
 8695,-0.00057150,0.01409658,0.00241747,-0.00001360,-0.01434404,0.00093
 862,0.00225077,0.00832473,-0.01045853,0.00214844,-0.04613752,-0.006336
 10,0.00068302,0.00010025,-0.00364748,-0.00008328,0.00003945,0.00049998
 ,-0.00046254,0.00093857,0.00168510,0.00092408,0.01456680,-0.00580570,-
 0.00115276,-0.00303905,0.00668747,0.00050561,0.00017825,-0.00063142,-0
 .00011534,0.00024888,-0.00086630,-0.00008258,0.00014251,-0.00024024,-0
 .00025412,-0.00017743,0.00010684,0.00033851,-0.00013239,0.00009478,0.0
 0011490,0.00015214,-0.00016380,0.00004779,0.00007981,-0.00015076,0.000
 13390,0.00054467,-0.00051148,0.00024157,-0.00010141,0.00015496,-0.0216
 2580,0.65502704,0.00748340,0.00251026,-0.10861026,-0.00181548,0.034461
 69,0.00056298,0.00343867,0.00017166,-0.00795738,0.00073058,0.00207438,
 -0.00503929,0.00241278,-0.00826769,-0.00289773,-0.00516845,-0.01169224
 ,0.02022682,-0.00020414,-0.00000197,-0.00328047,0.00016317,-0.00164304
 ,0.00063546,0.00007628,-0.00196275,-0.00407892,-0.00028275,-0.00336506
 ,0.00109594,0.00016114,0.00065502,-0.00140301,-0.00010131,-0.00006564,
 0.00018553,0.00002975,-0.00006664,0.00024049,0.00000082,-0.00005483,0.
 00003285,0.00004120,0.00005821,-0.00000024,-0.00004875,0.00002735,-0.0
 0003389,-0.00002168,0.00000016,0.00004552,-0.00001117,0.00000406,0.000
 03017,0.00023738,0.00167559,0.00006783,-0.00004886,0.00004828,-0.00000
 764,-0.14391125,0.06051678,0.89009405,0.01581447,-0.00742889,0.0091690
 8,0.00389555,-0.00003539,-0.00013405,-0.00104955,-0.00066277,-0.000495
 99,0.00029555,0.00089318,-0.00002238,-0.00063497,-0.00076000,0.0000241
 4,0.00128936,0.00231363,0.00153141,0.00042603,0.00023034,-0.00021839,-
 0.00004102,-0.00005116,-0.00000512,0.00007790,-0.00012893,-0.00063147,
 -0.00006323,-0.00079469,0.00017925,0.00015286,0.00014975,-0.00029998,-
 0.00008467,0.00001064,0.00002551,-0.00001326,-0.00003631,0.00004031,0.
 00000801,0.00000605,-0.00001212,0.00001150,0.00001646,0.00000289,0.000
 00197,0.00000528,-0.00000793,-0.00000582,-0.00000013,0.00000713,-0.000
 00205,0.00000066,0.00000869,-0.00056172,-0.00006466,-0.00010627,-0.000
 00830,0.00000506,-0.00000872,-0.09142248,-0.02211659,0.08088624,0.0523
 6018,-0.01001765,-0.01838139,0.05007292,0.00134696,-0.00474452,-0.0055
 6791,-0.00033831,-0.00327556,0.00173143,-0.00031776,0.00360056,0.00128
 841,-0.00042823,0.00004715,0.00191453,-0.00025380,-0.00440638,0.001727
 62,-0.00006757,0.00019676,0.00033075,0.00002058,-0.00008571,-0.0000944
 1,-0.00036527,-0.00451215,0.00210299,-0.00026086,-0.00376376,0.0015860
 6,0.00028979,0.00079762,-0.00181998,-0.00014808,-0.00007082,0.00015411
 ,0.00007457,-0.00009939,0.00021099,0.00006027,-0.00004246,0.00006214,0
 .00008012,0.00007314,-0.00002074,-0.00011081,0.00004665,-0.00003410,-0
 .00003622,-0.00003599,0.00005001,-0.00001534,-0.00002041,0.00004963,-0
 .00002834,-0.00072898,0.00011703,-0.00008444,0.00004814,-0.00003908,-0
 .02316135,-0.16718057,0.11671981,0.02388078,0.16414504,0.00941165,0.03
 794109,-0.02975949,-0.00025689,0.00090119,0.00497252,-0.00052474,0.003
 32303,0.00102635,0.00007698,-0.00447334,0.00028810,0.00000166,0.003499
 21,-0.00092365,0.00176898,-0.01026808,-0.00566266,-0.00018378,-0.00104
 747,0.00136753,-0.00001192,0.00024660,-0.00001280,-0.00061097,0.000990
 72,0.00270921,0.00012055,0.00407653,-0.00101747,-0.00027166,-0.0007809
 1,0.00167553,0.00019627,0.00006837,-0.00017080,-0.00009310,0.00007982,
 -0.00023816,-0.00002230,0.00005631,-0.00004823,-0.00005855,-0.00007169
 ,0.00000440,0.00008633,-0.00005443,0.00004084,0.00002934,0.00002343,-0
 .00005126,0.00001524,0.00000615,-0.00004224,-0.00010538,0.00031681,-0.
 00009210,0.00006470,-0.00005084,0.00001841,0.08093864,0.11190008,-0.46
 277712,-0.11850929,-0.12407735,0.59184147,0.01675467,0.00704647,0.0029
 8664,0.00117612,-0.00171847,0.00232297,-0.00055761,0.00066634,-0.00038
 892,0.00021339,-0.00069005,0.00009917,-0.00088878,0.00020352,-0.000693
 00,0.00378446,-0.00029212,0.00039618,0.00009064,-0.00043034,-0.0005778
 2,-0.00055877,0.00000616,-0.00012188,0.00038405,-0.00029817,-0.0001099
 0,0.00007241,0.00053129,-0.00030333,-0.00000390,-0.00011864,0.00027195
 ,-0.00001255,0.00000975,-0.00002605,-0.00001554,0.00000322,-0.00004127
 ,0.00000487,0.00000345,-0.00002003,-0.00000762,0.00000592,0.00001364,0
 .00001372,-0.00000677,-0.00000151,0.00000554,0.00001577,-0.00000844,0.
 00000203,0.00000689,-0.00000492,-0.00004483,0.00004664,-0.00002324,0.0
 0001254,-0.00000315,0.00000369,-0.08743193,0.04488686,0.05585711,0.019
 51740,0.00974672,0.02808508,0.04749500,0.00950979,-0.05572812,-0.03754
 913,0.00095767,-0.00119336,-0.00417417,0.00027102,-0.00248240,-0.00124
 936,0.00048762,0.00456753,-0.00257038,-0.00012411,-0.00428546,0.000823
 97,-0.00168297,-0.00120738,0.00834853,-0.00018978,-0.00439264,0.001317
 12,-0.00005332,-0.00082098,0.00025204,0.00000029,0.00069622,-0.0000175
 0,-0.00044676,-0.00533414,0.00261634,0.00045018,0.00118081,-0.00267583
 ,-0.00020156,-0.00008639,0.00024276,0.00005427,-0.00011368,0.00034713,
 0.00004406,-0.00005299,0.00009995,0.00010865,0.00006826,-0.00005123,-0
 .00014079,0.00004294,-0.00003671,-0.00004886,-0.00006268,0.00006726,-0
 .00001964,-0.00003693,0.00006329,-0.00003543,-0.00008956,0.00015860,-0
 .00010154,0.00003874,-0.00007050,0.04598466,-0.31607902,-0.19168068,0.
 00461464,0.03853449,-0.02276166,-0.05963209,0.34699404,0.00274156,-0.0
 2610786,0.00714904,0.00206275,0.00826443,-0.00885238,-0.00037407,-0.00
 290419,0.00133543,-0.00000479,0.00282736,-0.00001383,-0.00066812,-0.00
 065442,0.00215319,0.00052665,0.00185234,0.00121026,-0.00059021,0.00241
 735,0.00254384,-0.00011532,0.00000299,-0.00004448,-0.00013098,0.001356
 16,0.00086642,-0.00019386,-0.00197318,0.00118521,0.00018687,0.00041655
 ,-0.00099134,-0.00008773,-0.00001340,0.00008774,-0.00000458,-0.0000115
 1,0.00014404,-0.00001509,-0.00000938,0.00005109,0.00003521,-0.00000235
 ,-0.00003369,-0.00005053,0.00001145,-0.00000464,-0.00001516,-0.0000402
 6,0.00001882,-0.00000548,-0.00002166,0.00001727,-0.00001661,-0.0002091
 4,0.00004266,-0.00002126,-0.00001259,-0.00003641,0.05582000,-0.1866646
 0,-0.31723807,0.02852262,-0.04666048,-0.10299230,-0.08769153,0.2481699
 8,0.41324523,0.00008682,0.00041690,-0.00007623,-0.00004597,-0.00019308
 ,0.00005189,-0.00013312,0.00045811,0.00033557,-0.00120246,-0.00254156,
 -0.00039930,0.00017316,0.00057995,-0.00029062,0.00014104,-0.00019606,-
 0.00006300,-0.00007409,0.00000276,-0.00001794,-0.00010479,-0.00000347,
 0.00000825,-0.00000942,0.00001986,-0.00000335,-0.00445286,0.00300138,-
 0.00618401,0.06253365,0.00725194,-0.00397039,-0.12781742,-0.01335594,0
 .01106813,-0.02899608,-0.01766420,0.03583918,-0.07216319,0.00587011,-0
 .04413146,0.00005071,0.00016383,0.00053489,-0.30998324,-0.06082601,0.0
 6590542,-0.00386730,0.00026490,-0.00459249,-0.01020522,-0.00467740,0.0
 0962073,0.00002815,0.00005444,-0.00009455,0.00328405,-0.01241374,0.031
 67589,-0.00003240,-0.00049504,0.00009532,0.00003629,0.00013423,-0.0001
 4685,-0.00000532,0.00019400,0.00008964,0.49275900,-0.00004050,-0.00028
 854,0.00015734,0.00001699,0.00025876,-0.00013249,0.00005744,-0.0003389
 2,-0.00020147,-0.00093003,0.00144328,-0.00116422,0.00005018,0.00000454
 ,0.00012330,0.00000770,0.00004096,-0.00006671,-0.00005620,0.00001172,-
 0.00001883,0.00001070,-0.00000811,-0.00003205,0.00000316,0.00000881,-0
 .00000011,-0.00016497,0.00572680,0.00305058,0.03541926,0.01087416,0.02
 936933,-0.02489948,-0.10979442,0.10123583,-0.01798082,-0.01600288,0.01
 703208,-0.01847632,0.02887948,-0.02263985,0.00014809,-0.00304521,-0.00
 110504,-0.04966773,-0.08831127,0.03686126,0.00012632,0.00616363,0.0025
 7915,-0.01528112,-0.00744220,0.00196175,0.00007239,-0.00007228,0.00003
 761,-0.00240351,-0.00890524,0.00896536,0.00007047,0.00044288,-0.000122
 73,-0.00004694,-0.00014145,0.00015645,0.00001080,-0.00015731,-0.000033
 60,0.09395411,0.18065281,-0.00012973,0.00058181,0.00002299,0.00017584,
 -0.00012679,0.00022565,0.00030126,0.00041730,0.00003684,0.00060220,-0.
 00308072,-0.00101174,0.00020801,0.00110509,-0.00044122,0.00014917,-0.0
 0057257,-0.00016345,0.00006927,0.00004689,-0.00000781,-0.00003934,-0.0
 0002805,0.00006446,-0.00005472,0.00003739,-0.00000799,-0.00244992,0.00
 566577,0.00055771,-0.07125980,0.01938213,-0.05097000,0.03938127,0.1046
 0259,-0.29996985,0.03592564,0.01698632,-0.03635806,0.01376894,-0.01502
 058,0.06155245,0.00087282,-0.00099275,-0.00067377,0.03993859,0.0334869
 1,-0.13210372,-0.00396097,0.00265278,-0.00034922,0.03436365,0.00529249
 ,-0.00608649,-0.00055450,-0.00010857,-0.00002992,0.00800139,0.00592413
 ,-0.01611817,-0.00008425,-0.00076446,0.00010636,0.00005446,0.00019562,
 -0.00015606,-0.00002459,0.00033020,0.00015694,-0.09525470,-0.17601295,
 0.48172409\\0.00000041,-0.00000377,0.00000138,-0.00000045,-0.00000165,
 0.00000088,0.00000108,0.00000147,0.00000027,0.00000056,-0.00000051,-0.
 00000136,-0.00000151,0.00000072,-0.00000065,-0.00000007,-0.00000097,-0
 .00000126,0.00000144,0.00000149,-0.00000084,-0.00000027,-0.00000092,0.
 00000037,-0.00000038,0.00000002,-0.00000020,0.00000290,0.00000036,0.00
 000033,-0.00000065,0.00000006,-0.00000024,-0.00000019,0.00000437,0.000
 00035,-0.00000179,-0.00000228,0.00000156,-0.00000121,0.00000045,-0.000
 00133,-0.00000064,0.00000093,0.00000125,0.00000018,-0.00000002,0.00000
 172,-0.00000022,0.00000082,0.00000190,-0.00000131,0.00000166,0.0000011
 3,-0.00000054,-0.00000054,-0.00000057,-0.00000033,0.,-0.00000080,0.000
 00145,0.00000828,-0.00000302,-0.00000043,-0.00000269,0.00000341,0.0000
 0148,-0.00000330,-0.00000215,0.00000048,-0.00000395,-0.00000214\\\@


 TOM, TOM, THE BURGLAR'S SON
 STOLE A MACHINE AND AWAY HE RUN
 THE JOB WAS NEAT, BUT TOM GOT BEAT
 BY THE TIME HE GOT HOME IT WAS OBSOLETE.
 Job cpu time:       0 days  2 hours  2 minutes 57.8 seconds.
 Elapsed time:       0 days  0 hours  4 minutes  6.0 seconds.
 File lengths (MBytes):  RWF=    263 Int=      0 D2E=      0 Chk=     11 Scr=      1
 Normal termination of Gaussian 16 at Sat Sep 16 18:06:59 2023.
