 Entering Gaussian System, Link 0=/home/ubuntu/g16/g16
 Input=/home/ubuntu/ml products/molecule_62.gjf
 Output=/home/ubuntu/ml products/molecule_62.log
 Initial command:
 /home/ubuntu/g16/l1.exe "/home/ubuntu/Scratch/Gau-28410.inp" -scrdir="/home/ubuntu/Scratch/"
 Entering Link 1 = /home/ubuntu/g16/l1.exe PID=     28412.
  
 Copyright (c) 1988-2017, Gaussian, Inc.  All Rights Reserved.
  
 This is part of the Gaussian(R) 16 program.  It is based on
 the Gaussian(R) 09 system (copyright 2009, Gaussian, Inc.),
 the Gaussian(R) 03 system (copyright 2003, Gaussian, Inc.),
 the Gaussian(R) 98 system (copyright 1998, Gaussian, Inc.),
 the Gaussian(R) 94 system (copyright 1995, Gaussian, Inc.),
 the Gaussian 92(TM) system (copyright 1992, Gaussian, Inc.),
 the Gaussian 90(TM) system (copyright 1990, Gaussian, Inc.),
 the Gaussian 88(TM) system (copyright 1988, Gaussian, Inc.),
 the Gaussian 86(TM) system (copyright 1986, Carnegie Mellon
 University), and the Gaussian 82(TM) system (copyright 1983,
 Carnegie Mellon University). Gaussian is a federally registered
 trademark of Gaussian, Inc.
  
 This software contains proprietary and confidential information,
 including trade secrets, belonging to Gaussian, Inc.
  
 This software is provided under written license and may be
 used, copied, transmitted, or stored only in accord with that
 written license.
  
 The following legend is applicable only to US Government
 contracts under FAR:
  
                    RESTRICTED RIGHTS LEGEND
  
 Use, reproduction and disclosure by the US Government is
 subject to restrictions as set forth in subparagraphs (a)
 and (c) of the Commercial Computer Software - Restricted
 Rights clause in FAR 52.227-19.
  
 Gaussian, Inc.
 340 Quinnipiac St., Bldg. 40, Wallingford CT 06492
  
  
 ---------------------------------------------------------------
 Warning -- This program may not be used in any manner that
 competes with the business of Gaussian, Inc. or will provide
 assistance to any competitor of Gaussian, Inc.  The licensee
 of this program is prohibited from giving any competitor of
 Gaussian, Inc. access to this program.  By using this program,
 the user acknowledges that Gaussian, Inc. is engaged in the
 business of creating and licensing software in the field of
 computational chemistry and represents and warrants to the
 licensee that it is not a competitor of Gaussian, Inc. and that
 it will not use this program in any manner prohibited above.
 ---------------------------------------------------------------
  

 Cite this work as:
 Gaussian 16, Revision B.01,
 M. J. Frisch, G. W. Trucks, H. B. Schlegel, G. E. Scuseria, 
 M. A. Robb, J. R. Cheeseman, G. Scalmani, V. Barone, 
 G. A. Petersson, H. Nakatsuji, X. Li, M. Caricato, A. V. Marenich, 
 J. Bloino, B. G. Janesko, R. Gomperts, B. Mennucci, H. P. Hratchian, 
 J. V. Ortiz, A. F. Izmaylov, J. L. Sonnenberg, D. Williams-Young, 
 F. Ding, F. Lipparini, F. Egidi, J. Goings, B. Peng, A. Petrone, 
 T. Henderson, D. Ranasinghe, V. G. Zakrzewski, J. Gao, N. Rega, 
 G. Zheng, W. Liang, M. Hada, M. Ehara, K. Toyota, R. Fukuda, 
 J. Hasegawa, M. Ishida, T. Nakajima, Y. Honda, O. Kitao, H. Nakai, 
 T. Vreven, K. Throssell, J. A. Montgomery, Jr., J. E. Peralta, 
 F. Ogliaro, M. J. Bearpark, J. J. Heyd, E. N. Brothers, K. N. Kudin, 
 V. N. Staroverov, T. A. Keith, R. Kobayashi, J. Normand, 
 K. Raghavachari, A. P. Rendell, J. C. Burant, S. S. Iyengar, 
 J. Tomasi, M. Cossi, J. M. Millam, M. Klene, C. Adamo, R. Cammi, 
 J. W. Ochterski, R. L. Martin, K. Morokuma, O. Farkas, 
 J. B. Foresman, and D. J. Fox, Gaussian, Inc., Wallingford CT, 2016.
 
 ******************************************
 Gaussian 16:  EM64L-G16RevB.01 20-Dec-2017
                16-Sep-2023 
 ******************************************
 %nprocshared=30
 Will use up to   30 processors via shared memory.
 %mem=30GB
 %chk=molecule_62.chk
 ---------------------------------------------------------
 # opt freq b3lyp/6-31+g(d) empiricaldispersion=gd3 volume
 ---------------------------------------------------------
 1/18=20,19=15,26=3,38=1/1,3;
 2/9=110,12=2,17=6,18=5,40=1/2;
 3/5=1,6=6,7=11,11=2,25=1,30=1,71=1,74=-5,124=31/1,2,3;
 4//1;
 5/5=2,38=5/2;
 6/7=2,8=2,9=2,10=2,28=1,44=1/1,4;
 7//1,2,3,16;
 1/18=20,19=15,26=3/3(2);
 2/9=110/2;
 99//99;
 2/9=110/2;
 3/5=1,6=6,7=11,11=2,25=1,30=1,71=1,74=-5,124=31/1,2,3;
 4/5=5,16=3,69=1/1;
 5/5=2,38=5/2;
 7//1,2,3,16;
 1/18=20,19=15,26=3/3(-5);
 2/9=110/2;
 6/7=2,8=2,9=2,10=2,19=2,28=1,44=1/1,4;
 99/9=1/99;
 -------------------
 Title Card Required
 -------------------
 Symbolic Z-matrix:
 Charge =  0 Multiplicity = 1
 C                    -5.30642  -0.95004   1.13808 
 C                    -3.91026  -0.97885   1.0873 
 C                    -3.24353  -0.49817  -0.05029 
 C                    -3.96927  -0.06568  -1.15526 
 C                    -5.36722  -0.03465  -1.10341 
 C                    -6.03529  -0.47585   0.04315 
 H                    -5.82877  -1.29526   2.03458 
 H                    -3.33932  -1.35081   1.9443 
 H                    -3.4475    0.28095  -2.05001 
 H                    -5.9376    0.33606  -1.95976 
 C                    -1.70232  -0.51098  -0.00174 
 C                    -0.50316  -0.51544   0.00061 
 C                     1.03814  -0.52118   0.00361 
 C                     1.73324  -0.49899   1.21632 
 C                     1.73531  -0.50038  -1.20582 
 C                     3.13124  -0.50192   1.21672 
 H                     1.18549  -0.5016    2.1622 
 C                     3.13359  -0.50384  -1.20525 
 H                     1.18944  -0.5035   -2.1542 
 C                     3.82894  -0.50274   0.00634 
 H                     3.6812   -0.50459  -2.15173 
 H                     4.89894  -0.50253   0.00735 
 H                    -7.10427  -0.45055   0.08253 
 C                     3.90037  -0.50129   2.5509 
 F                     3.59539  -1.61727   3.24666 
 F                     3.55244   0.58672   3.27039 
 F                     5.22752  -0.47278   2.30523 
 

 GradGradGradGradGradGradGradGradGradGradGradGradGradGradGradGradGradGrad
 Berny optimization.
 Initialization pass.
                           ----------------------------
                           !    Initial Parameters    !
                           ! (Angstroms and Degrees)  !
 --------------------------                            --------------------------
 ! Name  Definition              Value          Derivative Info.                !
 --------------------------------------------------------------------------------
 ! R1    R(1,2)                  1.3974         estimate D2E/DX2                !
 ! R2    R(1,6)                  1.3982         estimate D2E/DX2                !
 ! R3    R(1,7)                  1.0935         estimate D2E/DX2                !
 ! R4    R(2,3)                  1.4035         estimate D2E/DX2                !
 ! R5    R(2,8)                  1.0949         estimate D2E/DX2                !
 ! R6    R(3,4)                  1.3909         estimate D2E/DX2                !
 ! R7    R(3,11)                 1.542          estimate D2E/DX2                !
 ! R8    R(4,5)                  1.3993         estimate D2E/DX2                !
 ! R9    R(4,9)                  1.0922         estimate D2E/DX2                !
 ! R10   R(5,6)                  1.3984         estimate D2E/DX2                !
 ! R11   R(5,10)                 1.0937         estimate D2E/DX2                !
 ! R12   R(6,23)                 1.07           estimate D2E/DX2                !
 ! R13   R(11,12)                1.1992         estimate D2E/DX2                !
 ! R14   R(12,13)                1.5413         estimate D2E/DX2                !
 ! R15   R(13,14)                1.398          estimate D2E/DX2                !
 ! R16   R(13,15)                1.3961         estimate D2E/DX2                !
 ! R17   R(14,16)                1.398          estimate D2E/DX2                !
 ! R18   R(14,17)                1.093          estimate D2E/DX2                !
 ! R19   R(15,18)                1.3983         estimate D2E/DX2                !
 ! R20   R(15,19)                1.0943         estimate D2E/DX2                !
 ! R21   R(16,20)                1.3971         estimate D2E/DX2                !
 ! R22   R(16,24)                1.54           estimate D2E/DX2                !
 ! R23   R(18,20)                1.3969         estimate D2E/DX2                !
 ! R24   R(18,21)                1.0935         estimate D2E/DX2                !
 ! R25   R(20,22)                1.07           estimate D2E/DX2                !
 ! R26   R(24,25)                1.35           estimate D2E/DX2                !
 ! R27   R(24,26)                1.35           estimate D2E/DX2                !
 ! R28   R(24,27)                1.35           estimate D2E/DX2                !
 ! A1    A(2,1,6)              119.958          estimate D2E/DX2                !
 ! A2    A(2,1,7)              120.0372         estimate D2E/DX2                !
 ! A3    A(6,1,7)              120.0045         estimate D2E/DX2                !
 ! A4    A(1,2,3)              119.8047         estimate D2E/DX2                !
 ! A5    A(1,2,8)              119.971          estimate D2E/DX2                !
 ! A6    A(3,2,8)              120.204          estimate D2E/DX2                !
 ! A7    A(2,3,4)              120.1683         estimate D2E/DX2                !
 ! A8    A(2,3,11)             116.5157         estimate D2E/DX2                !
 ! A9    A(4,3,11)             123.304          estimate D2E/DX2                !
 ! A10   A(3,4,5)              119.9162         estimate D2E/DX2                !
 ! A11   A(3,4,9)              120.0131         estimate D2E/DX2                !
 ! A12   A(5,4,9)              120.0388         estimate D2E/DX2                !
 ! A13   A(4,5,6)              120.0444         estimate D2E/DX2                !
 ! A14   A(4,5,10)             119.9699         estimate D2E/DX2                !
 ! A15   A(6,5,10)             119.9857         estimate D2E/DX2                !
 ! A16   A(1,6,5)              120.0015         estimate D2E/DX2                !
 ! A17   A(1,6,23)             119.9992         estimate D2E/DX2                !
 ! A18   A(5,6,23)             119.9992         estimate D2E/DX2                !
 ! A19   A(12,13,14)           119.9238         estimate D2E/DX2                !
 ! A20   A(12,13,15)           119.8422         estimate D2E/DX2                !
 ! A21   A(14,13,15)           120.1945         estimate D2E/DX2                !
 ! A22   A(13,14,16)           119.8308         estimate D2E/DX2                !
 ! A23   A(13,14,17)           120.098          estimate D2E/DX2                !
 ! A24   A(16,14,17)           120.0575         estimate D2E/DX2                !
 ! A25   A(13,15,18)           119.9314         estimate D2E/DX2                !
 ! A26   A(13,15,19)           120.108          estimate D2E/DX2                !
 ! A27   A(18,15,19)           119.947          estimate D2E/DX2                !
 ! A28   A(14,16,20)           119.944          estimate D2E/DX2                !
 ! A29   A(14,16,24)           119.9792         estimate D2E/DX2                !
 ! A30   A(20,16,24)           120.0767         estimate D2E/DX2                !
 ! A31   A(15,18,20)           119.8756         estimate D2E/DX2                !
 ! A32   A(15,18,21)           120.0284         estimate D2E/DX2                !
 ! A33   A(20,18,21)           120.0958         estimate D2E/DX2                !
 ! A34   A(16,20,18)           120.1873         estimate D2E/DX2                !
 ! A35   A(16,20,22)           119.9063         estimate D2E/DX2                !
 ! A36   A(18,20,22)           119.9063         estimate D2E/DX2                !
 ! A37   A(16,24,25)           109.4712         estimate D2E/DX2                !
 ! A38   A(16,24,26)           109.4712         estimate D2E/DX2                !
 ! A39   A(16,24,27)           109.4712         estimate D2E/DX2                !
 ! A40   A(25,24,26)           109.4713         estimate D2E/DX2                !
 ! A41   A(25,24,27)           109.4712         estimate D2E/DX2                !
 ! A42   A(26,24,27)           109.4712         estimate D2E/DX2                !
 ! A43   L(3,11,12,8,-1)       181.6583         estimate D2E/DX2                !
 ! A44   L(11,12,13,19,-1)     179.9996         estimate D2E/DX2                !
 ! A45   L(3,11,12,8,-2)       179.4663         estimate D2E/DX2                !
 ! A46   L(11,12,13,19,-2)     179.9998         estimate D2E/DX2                !
 ! D1    D(6,1,2,3)              1.6809         estimate D2E/DX2                !
 ! D2    D(6,1,2,8)           -179.9557         estimate D2E/DX2                !
 ! D3    D(7,1,2,3)           -178.1363         estimate D2E/DX2                !
 ! D4    D(7,1,2,8)              0.227          estimate D2E/DX2                !
 ! D5    D(2,1,6,5)              0.1967         estimate D2E/DX2                !
 ! D6    D(2,1,6,23)          -179.8033         estimate D2E/DX2                !
 ! D7    D(7,1,6,5)           -179.986          estimate D2E/DX2                !
 ! D8    D(7,1,6,23)             0.014          estimate D2E/DX2                !
 ! D9    D(1,2,3,4)             -3.6992         estimate D2E/DX2                !
 ! D10   D(1,2,3,11)           177.5162         estimate D2E/DX2                !
 ! D11   D(8,2,3,4)            177.9414         estimate D2E/DX2                !
 ! D12   D(8,2,3,11)            -0.8433         estimate D2E/DX2                !
 ! D13   D(2,3,4,5)              3.816          estimate D2E/DX2                !
 ! D14   D(2,3,4,9)           -178.2399         estimate D2E/DX2                !
 ! D15   D(11,3,4,5)          -177.4853         estimate D2E/DX2                !
 ! D16   D(11,3,4,9)             0.4589         estimate D2E/DX2                !
 ! D17   D(2,3,13,14)          -24.1431         estimate D2E/DX2                !
 ! D18   D(2,3,13,15)          158.2445         estimate D2E/DX2                !
 ! D19   D(4,3,13,14)          157.4038         estimate D2E/DX2                !
 ! D20   D(4,3,13,15)          -20.2086         estimate D2E/DX2                !
 ! D21   D(3,4,5,6)             -1.9249         estimate D2E/DX2                !
 ! D22   D(3,4,5,10)           178.0            estimate D2E/DX2                !
 ! D23   D(9,4,5,6)           -179.8685         estimate D2E/DX2                !
 ! D24   D(9,4,5,10)             0.0564         estimate D2E/DX2                !
 ! D25   D(4,5,6,1)             -0.0841         estimate D2E/DX2                !
 ! D26   D(4,5,6,23)           179.9159         estimate D2E/DX2                !
 ! D27   D(10,5,6,1)           179.991          estimate D2E/DX2                !
 ! D28   D(10,5,6,23)           -0.009          estimate D2E/DX2                !
 ! D29   D(12,13,14,16)       -179.8905         estimate D2E/DX2                !
 ! D30   D(12,13,14,17)          1.4544         estimate D2E/DX2                !
 ! D31   D(15,13,14,16)         -2.1768         estimate D2E/DX2                !
 ! D32   D(15,13,14,17)        179.1681         estimate D2E/DX2                !
 ! D33   D(12,13,15,18)        179.9195         estimate D2E/DX2                !
 ! D34   D(12,13,15,19)         -1.4191         estimate D2E/DX2                !
 ! D35   D(14,13,15,18)          2.2039         estimate D2E/DX2                !
 ! D36   D(14,13,15,19)       -179.1347         estimate D2E/DX2                !
 ! D37   D(13,14,16,20)          1.1475         estimate D2E/DX2                !
 ! D38   D(13,14,16,24)       -178.9793         estimate D2E/DX2                !
 ! D39   D(17,14,16,20)        179.8032         estimate D2E/DX2                !
 ! D40   D(17,14,16,24)         -0.3236         estimate D2E/DX2                !
 ! D41   D(13,15,18,20)         -1.1998         estimate D2E/DX2                !
 ! D42   D(13,15,18,21)        178.9699         estimate D2E/DX2                !
 ! D43   D(19,15,18,20)       -179.8633         estimate D2E/DX2                !
 ! D44   D(19,15,18,21)          0.3064         estimate D2E/DX2                !
 ! D45   D(14,16,20,18)         -0.1518         estimate D2E/DX2                !
 ! D46   D(14,16,20,22)        179.8482         estimate D2E/DX2                !
 ! D47   D(24,16,20,18)        179.9751         estimate D2E/DX2                !
 ! D48   D(24,16,20,22)         -0.0249         estimate D2E/DX2                !
 ! D49   D(14,16,24,25)         61.4274         estimate D2E/DX2                !
 ! D50   D(14,16,24,26)        -58.5726         estimate D2E/DX2                !
 ! D51   D(14,16,24,27)       -178.5726         estimate D2E/DX2                !
 ! D52   D(20,16,24,25)       -118.6996         estimate D2E/DX2                !
 ! D53   D(20,16,24,26)        121.3004         estimate D2E/DX2                !
 ! D54   D(20,16,24,27)          1.3004         estimate D2E/DX2                !
 ! D55   D(15,18,20,16)          0.1766         estimate D2E/DX2                !
 ! D56   D(15,18,20,22)       -179.8234         estimate D2E/DX2                !
 ! D57   D(21,18,20,16)       -179.9932         estimate D2E/DX2                !
 ! D58   D(21,18,20,22)          0.0068         estimate D2E/DX2                !
 --------------------------------------------------------------------------------
 Trust Radius=3.00D-01 FncErr=1.00D-07 GrdErr=1.00D-06 EigMax=2.50D+02 EigMin=1.00D-04
 Number of steps in this run=    142 maximum allowed number of steps=    162.
 GradGradGradGradGradGradGradGradGradGradGradGradGradGradGradGradGradGrad

                          Input orientation:                          
 ---------------------------------------------------------------------
 Center     Atomic      Atomic             Coordinates (Angstroms)
 Number     Number       Type             X           Y           Z
 ---------------------------------------------------------------------
      1          6           0       -5.306420   -0.950037    1.138085
      2          6           0       -3.910257   -0.978854    1.087296
      3          6           0       -3.243530   -0.498173   -0.050288
      4          6           0       -3.969271   -0.065678   -1.155262
      5          6           0       -5.367223   -0.034654   -1.103412
      6          6           0       -6.035290   -0.475849    0.043153
      7          1           0       -5.828773   -1.295255    2.034578
      8          1           0       -3.339319   -1.350808    1.944296
      9          1           0       -3.447499    0.280946   -2.050008
     10          1           0       -5.937596    0.336059   -1.959755
     11          6           0       -1.702325   -0.510980   -0.001736
     12          6           0       -0.503164   -0.515444    0.000607
     13          6           0        1.038137   -0.521178    0.003607
     14          6           0        1.733241   -0.498994    1.216317
     15          6           0        1.735313   -0.500380   -1.205823
     16          6           0        3.131236   -0.501924    1.216721
     17          1           0        1.185494   -0.501600    2.162198
     18          6           0        3.133594   -0.503838   -1.205245
     19          1           0        1.189441   -0.503497   -2.154202
     20          6           0        3.828940   -0.502741    0.006338
     21          1           0        3.681197   -0.504590   -2.151735
     22          1           0        4.898939   -0.502526    0.007349
     23          1           0       -7.104266   -0.450549    0.082533
     24          6           0        3.900369   -0.501295    2.550900
     25          9           0        3.595391   -1.617271    3.246662
     26          9           0        3.552436    0.586724    3.270385
     27          9           0        5.227521   -0.472785    2.305226
 ---------------------------------------------------------------------
                    Distance matrix (angstroms):
                    1          2          3          4          5
     1  C    0.000000
     2  C    1.397384   0.000000
     3  C    2.423205   1.403451   0.000000
     4  C    2.798124   2.422073   1.390941   0.000000
     5  C    2.421968   2.795257   2.415365   1.399257   0.000000
     6  C    1.398207   2.420541   2.793413   2.423402   1.398420
     7  H    1.093494   2.162905   3.415478   3.891618   3.413082
     8  H    2.163349   1.094883   2.171296   3.414038   3.890139
     9  H    3.890352   3.412318   2.155808   1.092229   2.163558
    10  H    3.413069   3.888910   3.405877   2.164002   1.093653
    11  C    3.805452   2.505965   1.542023   2.582240   3.856430
    12  C    4.955199   3.606095   2.740893   3.681334   5.010897
    13  C    6.459440   5.086300   4.282068   5.159902   6.518499
    14  C    7.054530   5.665332   5.135421   6.191187   7.484206
    15  C    7.435193   6.112265   5.111179   5.721346   7.118525
    16  C    8.449913   7.058812   6.499459   7.498920   8.821857
    17  H    6.587476   5.229709   4.950895   6.145499   7.336235
    18  C    8.770639   7.422750   6.480869   7.116542   8.514363
    19  H    7.296215   6.061368   4.906905   5.272748   6.656861
    20  C    9.216058   7.828813   7.072698   7.896355   9.274699
    21  H    9.581158   8.267189   7.236571   7.727564   9.121058
    22  H   10.277557   8.887919   8.142675   8.954756  10.336671
    23  H    2.143812   3.389742   3.863313   3.392412   2.144004
    24  C    9.325362   7.960909   7.602729   8.709571   9.972964
    25  F    9.172433   7.836146   7.674184   8.888671  10.087431
    26  F    9.240545   7.931500   7.641272   8.751460   9.953719
    27  F   10.609142   9.232466   8.792485   9.834718  11.138193
                    6          7          8          9         10
     6  C    0.000000
     7  H    2.163297   0.000000
     8  H    3.412940   2.491710   0.000000
     9  H    3.413316   4.983846   4.316107   0.000000
    10  H    2.163419   4.315986   4.983792   2.492341   0.000000
    11  C    4.333341   4.667894   2.678077   2.805031   4.742240
    12  C    5.532432   5.753890   3.538295   3.675373   5.839617
    13  C    7.073683   7.202672   4.859699   4.998166   7.297294
    14  C    7.856649   7.647721   5.194844   6.173917   8.344249
    15  C    7.870376   8.267250   6.033106   5.308923   7.755100
    16  C    9.241382   9.032166   6.566433   7.386755   9.645513
    17  H    7.525340   7.060178   4.608966   6.310283   8.272277
    18  C    9.253525   9.562783   7.248142   6.681339   9.141181
    19  H    7.551548   8.211460   6.166464   4.703979   7.178949
    20  C    9.864335   9.900164   7.473876   7.601926   9.997716
    21  H    9.961349  10.420647   8.171976   7.172567   9.657366
    22  H   10.934321  10.946318   8.505306   8.631893  11.045507
    23  H    1.070000   2.480100   4.295516   4.295900   2.480083
    24  C   10.247281   9.775130   7.314556   8.704678  10.855078
    25  F   10.213488   9.507245   7.060974   9.014446  11.036309
    26  F   10.171951   9.647598   7.280716   8.797680  10.838722
    27  F   11.487728  11.090146   8.619277   9.736125  11.979320
                   11         12         13         14         15
    11  C    0.000000
    12  C    1.199171   0.000000
    13  C    2.740486   1.541315   0.000000
    14  C    3.645121   2.545531   1.397972   0.000000
    15  C    3.642429   2.542927   1.396141   2.422141   0.000000
    16  C    4.984779   3.832490   2.419314   1.397998   2.795948
    17  H    3.608627   2.743033   2.163703   1.093035   3.412604
    18  C    4.983432   3.831478   2.419207   2.797315   1.398285
    19  H    3.604924   2.740120   2.163180   3.414109   1.094262
    20  C    5.531276   4.332126   2.790865   2.419920   2.419217
    21  H    5.796968   4.705483   3.410504   3.890801   2.163615
    22  H    6.601275   5.402123   3.860849   3.388695   3.388262
    23  H    5.402937   6.601930   8.143092   8.910070   8.933113
    24  C    6.156803   5.088742   3.831640   2.545105   4.335947
    25  F    6.312032   5.343130   4.272981   2.973289   4.952974
    26  F    6.286831   5.324858   4.268604   2.950839   4.951785
    27  F    7.303854   6.176879   4.780243   3.660109   4.952145
                   16         17         18         19         20
    16  C    0.000000
    17  H    2.163294   0.000000
    18  C    2.421968   3.890343   0.000000
    19  H    3.890205   4.316402   2.163389   0.000000
    20  C    1.397075   3.411091   1.396940   3.410995   0.000000
    21  H    3.413057   4.983830   1.093486   2.491757   2.163125
    22  H    2.141811   4.293373   2.141689   4.293330   1.070000
    23  H   10.298278   8.546797  10.318672   8.590190  10.933596
    24  C    1.540000   2.742561   3.833612   5.430205   2.545565
    25  F    2.362223   2.868517   4.612208   6.016512   3.434592
    26  F    2.362223   2.831067   4.625583   6.016517   3.452158
    27  F    2.362224   4.044659   4.087652   6.016106   2.691061
                   21         22         23         24         25
    21  H    0.000000
    22  H    2.478820   0.000000
    23  H   11.014585  12.003553   0.000000
    24  C    4.707741   2.732544  11.278183   0.000000
    25  F    5.512541   3.665384  11.218539   1.350000   0.000000
    26  F    5.532353   3.694176  11.171555   1.350000   2.204541
    27  F    4.717693   2.321440  12.530516   1.350000   2.204541
                   26         27
    26  F    0.000000
    27  F    2.204541   0.000000
 Stoichiometry    C15H9F3
 Framework group  C1[X(C15H9F3)]
 Deg. of freedom    75
 Full point group                 C1      NOp   1
 Largest Abelian subgroup         C1      NOp   1
 Largest concise Abelian subgroup C1      NOp   1
                         Standard orientation:                         
 ---------------------------------------------------------------------
 Center     Atomic      Atomic             Coordinates (Angstroms)
 Number     Number       Type             X           Y           Z
 ---------------------------------------------------------------------
      1          6           0       -5.307051   -1.616620   -0.320138
      2          6           0       -3.954385   -1.270418   -0.375989
      3          6           0       -3.549242    0.021739   -0.007392
      4          6           0       -4.496840    0.979334    0.338709
      5          6           0       -5.851032    0.631913    0.396880
      6          6           0       -6.255669   -0.665762    0.068420
      7          1           0       -5.623428   -2.631287   -0.577208
      8          1           0       -3.211460   -2.014627   -0.680924
      9          1           0       -4.180660    1.992301    0.597342
     10          1           0       -6.593261    1.375494    0.700628
     11          6           0       -2.033612    0.303831   -0.040981
     12          6           0       -0.861987    0.558273   -0.064731
     13          6           0        0.643921    0.885323   -0.095254
     14          6           0        1.583447   -0.143269    0.021433
     15          6           0        1.064687    2.213067   -0.191493
     16          6           0        2.948834    0.155828   -0.004193
     17          1           0        1.251895   -1.181004    0.110346
     18          6           0        2.430392    2.512009   -0.217634
     19          1           0        0.327681    3.018236   -0.268533
     20          6           0        3.369973    1.482692   -0.122053
     21          1           0        2.761682    3.550007   -0.309942
     22          1           0        4.415159    1.711151   -0.139158
     23          1           0       -7.291245   -0.931025    0.114449
     24          6           0        3.986836   -0.976959    0.100427
     25          9           0        3.841824   -1.818193   -0.945420
     26          9           0        3.798585   -1.654810    1.252633
     27          9           0        5.230037   -0.450900    0.085781
 ---------------------------------------------------------------------
 Rotational constants (GHZ):           1.0574141           0.1357447           0.1236272
 Standard basis: 6-31+G(d) (6D, 7F)
 There are   360 symmetry adapted cartesian basis functions of A   symmetry.
 There are   360 symmetry adapted basis functions of A   symmetry.
   360 basis functions,   612 primitive gaussians,   360 cartesian basis functions
    63 alpha electrons       63 beta electrons
       nuclear repulsion energy      1112.7029243179 Hartrees.
 NAtoms=   27 NActive=   27 NUniq=   27 SFac= 1.00D+00 NAtFMM=   60 NAOKFM=F Big=F
 Integral buffers will be    131072 words long.
 Raffenetti 2 integral format.
 Two-electron integral symmetry is turned on.
 Nuclear repulsion after empirical dispersion term =     1112.6840883690 Hartrees.
 One-electron integrals computed using PRISM.
 NBasis=   360 RedAO= T EigKep=  2.14D-06  NBF=   360
 NBsUse=   356 1.00D-06 EigRej=  8.02D-07 NBFU=   356
 ExpMin= 4.38D-02 ExpMax= 7.00D+03 ExpMxC= 1.05D+03 IAcc=3 IRadAn=         5 AccDes= 0.00D+00
 Harris functional with IExCor=  402 and IRadAn=       5 diagonalized for initial guess.
 HarFok:  IExCor=  402 AccDes= 0.00D+00 IRadAn=         5 IDoV= 1 UseB2=F ITyADJ=14
 ICtDFT=  3500011 ScaDFX=  1.000000  1.000000  1.000000  1.000000
 FoFCou: FMM=F IPFlag=           0 FMFlag=      100000 FMFlg1=           0
         NFxFlg=           0 DoJE=T BraDBF=F KetDBF=T FulRan=T
         wScrn=  0.000000 ICntrl=       500 IOpCl=  0 I1Cent=   200000004 NGrid=           0
         NMat0=    1 NMatS0=      1 NMatT0=    0 NMatD0=    1 NMtDS0=    0 NMtDT0=    0
 Petite list used in FoFCou.
 Requested convergence on RMS density matrix=1.00D-08 within 128 cycles.
 Requested convergence on MAX density matrix=1.00D-06.
 Requested convergence on             energy=1.00D-06.
 No special actions if energy rises.
 SCF Done:  E(RB3LYP) =  -876.541763202     A.U. after   15 cycles
            NFock= 15  Conv=0.83D-08     -V/T= 2.0094

 **********************************************************************

            Population analysis using the SCF Density.

 **********************************************************************

 Orbital symmetries:
       Occupied  (A) (A) (A) (A) (A) (A) (A) (A) (A) (A) (A) (A)
                 (A) (A) (A) (A) (A) (A) (A) (A) (A) (A) (A) (A)
                 (A) (A) (A) (A) (A) (A) (A) (A) (A) (A) (A) (A)
                 (A) (A) (A) (A) (A) (A) (A) (A) (A) (A) (A) (A)
                 (A) (A) (A) (A) (A) (A) (A) (A) (A) (A) (A) (A)
                 (A) (A) (A)
       Virtual   (A) (A) (A) (A) (A) (A) (A) (A) (A) (A) (A) (A)
                 (A) (A) (A) (A) (A) (A) (A) (A) (A) (A) (A) (A)
                 (A) (A) (A) (A) (A) (A) (A) (A) (A) (A) (A) (A)
                 (A) (A) (A) (A) (A) (A) (A) (A) (A) (A) (A) (A)
                 (A) (A) (A) (A) (A) (A) (A) (A) (A) (A) (A) (A)
                 (A) (A) (A) (A) (A) (A) (A) (A) (A) (A) (A) (A)
                 (A) (A) (A) (A) (A) (A) (A) (A) (A) (A) (A) (A)
                 (A) (A) (A) (A) (A) (A) (A) (A) (A) (A) (A) (A)
                 (A) (A) (A) (A) (A) (A) (A) (A) (A) (A) (A) (A)
                 (A) (A) (A) (A) (A) (A) (A) (A) (A) (A) (A) (A)
                 (A) (A) (A) (A) (A) (A) (A) (A) (A) (A) (A) (A)
                 (A) (A) (A) (A) (A) (A) (A) (A) (A) (A) (A) (A)
                 (A) (A) (A) (A) (A) (A) (A) (A) (A) (A) (A) (A)
                 (A) (A) (A) (A) (A) (A) (A) (A) (A) (A) (A) (A)
                 (A) (A) (A) (A) (A) (A) (A) (A) (A) (A) (A) (A)
                 (A) (A) (A) (A) (A) (A) (A) (A) (A) (A) (A) (A)
                 (A) (A) (A) (A) (A) (A) (A) (A) (A) (A) (A) (A)
                 (A) (A) (A) (A) (A) (A) (A) (A) (A) (A) (A) (A)
                 (A) (A) (A) (A) (A) (A) (A) (A) (A) (A) (A) (A)
                 (A) (A) (A) (A) (A) (A) (A) (A) (A) (A) (A) (A)
                 (A) (A) (A) (A) (A) (A) (A) (A) (A) (A) (A) (A)
                 (A) (A) (A) (A) (A) (A) (A) (A) (A) (A) (A) (A)
                 (A) (A) (A) (A) (A) (A) (A) (A) (A) (A) (A) (A)
                 (A) (A) (A) (A) (A) (A) (A) (A) (A) (A) (A) (A)
                 (A) (A) (A) (A) (A)
 The electronic state is 1-A.
 Alpha  occ. eigenvalues --  -24.75928 -24.75667 -24.75666 -10.45836 -10.25027
 Alpha  occ. eigenvalues --  -10.24019 -10.23465 -10.22594 -10.22247 -10.22088
 Alpha  occ. eigenvalues --  -10.22026 -10.21266 -10.21147 -10.21080 -10.21005
 Alpha  occ. eigenvalues --  -10.20951 -10.20755 -10.20737  -1.32745  -1.24603
 Alpha  occ. eigenvalues --   -1.24356  -0.89155  -0.87459  -0.80697  -0.78975
 Alpha  occ. eigenvalues --   -0.77756  -0.76258  -0.73818  -0.71848  -0.64627
 Alpha  occ. eigenvalues --   -0.64349  -0.62382  -0.62141  -0.60726  -0.60370
 Alpha  occ. eigenvalues --   -0.58621  -0.54555  -0.52292  -0.50135  -0.48937
 Alpha  occ. eigenvalues --   -0.48414  -0.48077  -0.47744  -0.46790  -0.45784
 Alpha  occ. eigenvalues --   -0.45322  -0.44733  -0.44026  -0.43746  -0.42854
 Alpha  occ. eigenvalues --   -0.41673  -0.40006  -0.38890  -0.38333  -0.37189
 Alpha  occ. eigenvalues --   -0.36957  -0.36393  -0.32724  -0.29711  -0.28192
 Alpha  occ. eigenvalues --   -0.27949  -0.26895  -0.24159
 Alpha virt. eigenvalues --   -0.05795  -0.04347  -0.02554  -0.02238  -0.00349
 Alpha virt. eigenvalues --    0.00424   0.01768   0.02037   0.02516   0.03681
 Alpha virt. eigenvalues --    0.03969   0.04165   0.04430   0.04854   0.05227
 Alpha virt. eigenvalues --    0.05724   0.06334   0.06605   0.07013   0.07298
 Alpha virt. eigenvalues --    0.07574   0.08191   0.08686   0.08845   0.08987
 Alpha virt. eigenvalues --    0.10453   0.10890   0.11449   0.11725   0.11973
 Alpha virt. eigenvalues --    0.12669   0.12872   0.13414   0.13515   0.14236
 Alpha virt. eigenvalues --    0.14491   0.14711   0.14919   0.15178   0.15384
 Alpha virt. eigenvalues --    0.15645   0.16292   0.16367   0.16938   0.17299
 Alpha virt. eigenvalues --    0.17740   0.18440   0.18657   0.19698   0.19792
 Alpha virt. eigenvalues --    0.20303   0.20563   0.20888   0.21180   0.21701
 Alpha virt. eigenvalues --    0.21719   0.22100   0.22421   0.22537   0.22962
 Alpha virt. eigenvalues --    0.23414   0.23809   0.25146   0.25379   0.25759
 Alpha virt. eigenvalues --    0.25948   0.26594   0.26836   0.27254   0.27444
 Alpha virt. eigenvalues --    0.28021   0.28442   0.28734   0.29457   0.29713
 Alpha virt. eigenvalues --    0.30913   0.31206   0.32565   0.33007   0.33255
 Alpha virt. eigenvalues --    0.33953   0.34643   0.35145   0.35934   0.36262
 Alpha virt. eigenvalues --    0.36982   0.37743   0.38222   0.38448   0.38712
 Alpha virt. eigenvalues --    0.40124   0.42196   0.42581   0.42894   0.44100
 Alpha virt. eigenvalues --    0.44626   0.46338   0.48555   0.51903   0.56078
 Alpha virt. eigenvalues --    0.57288   0.58693   0.59389   0.64131   0.65349
 Alpha virt. eigenvalues --    0.66435   0.66888   0.67132   0.68733   0.68896
 Alpha virt. eigenvalues --    0.70004   0.70217   0.71182   0.71584   0.72167
 Alpha virt. eigenvalues --    0.72475   0.72796   0.73843   0.74346   0.74511
 Alpha virt. eigenvalues --    0.74867   0.76723   0.77010   0.77567   0.78284
 Alpha virt. eigenvalues --    0.79113   0.80454   0.80518   0.80911   0.82579
 Alpha virt. eigenvalues --    0.83317   0.83646   0.84631   0.85381   0.87473
 Alpha virt. eigenvalues --    0.90001   0.90534   0.91536   0.91935   0.92716
 Alpha virt. eigenvalues --    0.94699   0.95417   0.95613   0.96135   0.99291
 Alpha virt. eigenvalues --    1.00687   1.01176   1.04228   1.07647   1.08842
 Alpha virt. eigenvalues --    1.11366   1.13302   1.13813   1.14743   1.15840
 Alpha virt. eigenvalues --    1.16116   1.18151   1.18847   1.19197   1.21946
 Alpha virt. eigenvalues --    1.23279   1.24196   1.24752   1.25729   1.26589
 Alpha virt. eigenvalues --    1.28168   1.31577   1.34318   1.36162   1.37379
 Alpha virt. eigenvalues --    1.40219   1.41034   1.42476   1.43950   1.44836
 Alpha virt. eigenvalues --    1.45636   1.45940   1.45993   1.47478   1.47785
 Alpha virt. eigenvalues --    1.49249   1.54490   1.55576   1.57122   1.57925
 Alpha virt. eigenvalues --    1.59232   1.60011   1.60675   1.64240   1.65602
 Alpha virt. eigenvalues --    1.66756   1.67489   1.67972   1.68522   1.71184
 Alpha virt. eigenvalues --    1.74154   1.76909   1.77935   1.80023   1.80604
 Alpha virt. eigenvalues --    1.81013   1.81138   1.82126   1.84671   1.85235
 Alpha virt. eigenvalues --    1.85783   1.86727   1.88824   1.89562   1.91173
 Alpha virt. eigenvalues --    1.92953   1.95018   1.96092   1.97133   1.97483
 Alpha virt. eigenvalues --    1.98776   2.00869   2.01753   2.03197   2.04501
 Alpha virt. eigenvalues --    2.05226   2.07016   2.07541   2.08234   2.09587
 Alpha virt. eigenvalues --    2.10139   2.12328   2.13916   2.14865   2.15843
 Alpha virt. eigenvalues --    2.16675   2.16963   2.19835   2.21033   2.23373
 Alpha virt. eigenvalues --    2.23741   2.26440   2.28419   2.28877   2.29487
 Alpha virt. eigenvalues --    2.32236   2.33539   2.45947   2.47364   2.48908
 Alpha virt. eigenvalues --    2.49714   2.50698   2.55691   2.59474   2.60457
 Alpha virt. eigenvalues --    2.62448   2.62687   2.63053   2.65331   2.69580
 Alpha virt. eigenvalues --    2.72679   2.72875   2.73729   2.74969   2.76435
 Alpha virt. eigenvalues --    2.77873   2.79471   2.82053   2.87199   2.90189
 Alpha virt. eigenvalues --    2.94082   2.96953   3.07405   3.11455   3.16986
 Alpha virt. eigenvalues --    3.20264   3.28962   3.30160   3.38462   3.54153
 Alpha virt. eigenvalues --    4.17943   4.20432   4.22596   4.23322   4.23877
 Alpha virt. eigenvalues --    4.27954   4.32290   4.35867   4.38451   4.39963
 Alpha virt. eigenvalues --    4.51247   4.57045   4.63991   4.74845   4.88052
 Alpha virt. eigenvalues --    5.49054   5.99612   6.77541
          Condensed to atoms (all electrons):
               1          2          3          4          5          6
     1  C    9.179035  -7.849622   1.424626   4.939530  -1.542587   0.493695
     2  C   -7.849622  25.653364  -3.485067 -13.973440   3.544751  -0.188508
     3  C    1.424626  -3.485067  11.017698  -2.276834   0.691765   0.148430
     4  C    4.939530 -13.973440  -2.276834  23.716711  -4.993444  -0.317069
     5  C   -1.542587   3.544751   0.691765  -4.993444   7.407910   0.522599
     6  C    0.493695  -0.188508   0.148430  -0.317069   0.522599   5.411708
     7  H    0.296883  -0.031132   0.003880   0.001863   0.003264   0.024747
     8  H   -0.053837   0.336827  -0.051006   0.003661  -0.002766   0.007213
     9  H   -0.006037   0.028965  -0.001162   0.273325  -0.047799   0.002899
    10  H    0.002915  -0.000696   0.001679  -0.013263   0.285006   0.024654
    11  C   -0.818199   2.250540  -2.191317  -0.218021   0.079552  -0.169225
    12  C    0.006354  -0.185362   0.796872  -0.436304   0.037286   0.016196
    13  C   -0.105308   0.440338  -0.357378  -0.481852   0.098083  -0.018073
    14  C    0.051796   0.054715  -0.118701  -0.028217  -0.034532   0.001433
    15  C   -0.033498  -0.007049  -0.074463  -0.002111   0.035655   0.002269
    16  C    0.034475  -0.107467   0.172947   0.066021  -0.008422  -0.001012
    17  H   -0.000026   0.000209   0.006039   0.000403  -0.000063   0.000029
    18  C   -0.010967   0.017476   0.047307  -0.035050   0.014008   0.000355
    19  H   -0.000030  -0.000290   0.000179   0.001313   0.000058   0.000019
    20  C    0.002521  -0.022547   0.001348   0.028777  -0.002196   0.000311
    21  H   -0.000001  -0.000006  -0.000082   0.000009   0.000003   0.000000
    22  H    0.000000  -0.000001   0.000029   0.000000   0.000000   0.000000
    23  H   -0.009013   0.015742  -0.000739   0.006795  -0.008290   0.287206
    24  C    0.000365   0.001829  -0.007186  -0.002790   0.000516  -0.000151
    25  F    0.000010  -0.000024   0.000422   0.000020  -0.000001   0.000000
    26  F    0.000012   0.000160   0.000021  -0.000035   0.000000   0.000000
    27  F    0.000000   0.000000   0.000039   0.000002   0.000000   0.000000
               7          8          9         10         11         12
     1  C    0.296883  -0.053837  -0.006037   0.002915  -0.818199   0.006354
     2  C   -0.031132   0.336827   0.028965  -0.000696   2.250540  -0.185362
     3  C    0.003880  -0.051006  -0.001162   0.001679  -2.191317   0.796872
     4  C    0.001863   0.003661   0.273325  -0.013263  -0.218021  -0.436304
     5  C    0.003264  -0.002766  -0.047799   0.285006   0.079552   0.037286
     6  C    0.024747   0.007213   0.002899   0.024654  -0.169225   0.016196
     7  H    0.530698  -0.004522   0.000015  -0.000154  -0.005549  -0.000322
     8  H   -0.004522   0.521287  -0.000142   0.000015   0.036264   0.003415
     9  H    0.000015  -0.000142   0.525217  -0.004491   0.025234   0.005819
    10  H   -0.000154   0.000015  -0.004491   0.529387  -0.005242  -0.000453
    11  C   -0.005549   0.036264   0.025234  -0.005242   7.508631  -0.087907
    12  C   -0.000322   0.003415   0.005819  -0.000453  -0.087907   6.602812
    13  C   -0.000060   0.004028   0.002953  -0.000133   0.433635  -0.261447
    14  C    0.000021   0.000671   0.000124  -0.000014  -0.114069  -0.845818
    15  C   -0.000011   0.000328   0.000992   0.000033  -0.238267  -0.089160
    16  C   -0.000001  -0.000209  -0.000070  -0.000001  -0.396309   0.506426
    17  H    0.000000   0.000001   0.000000   0.000000  -0.010618   0.056875
    18  C   -0.000001  -0.000061  -0.000054   0.000001   0.005651   0.191992
    19  H    0.000000   0.000000   0.000000   0.000000  -0.015518   0.016051
    20  C    0.000000   0.000064   0.000022   0.000000   0.008496  -0.055523
    21  H    0.000000   0.000000   0.000000   0.000000  -0.001035  -0.005980
    22  H    0.000000   0.000000   0.000000   0.000000   0.000575   0.002961
    23  H   -0.004930  -0.000147  -0.000146  -0.004882   0.000229   0.000159
    24  C    0.000000   0.000006   0.000001   0.000000  -0.076919  -0.159020
    25  F    0.000000   0.000000   0.000000   0.000000  -0.001135   0.019156
    26  F    0.000000   0.000000   0.000000   0.000000   0.000580   0.013373
    27  F    0.000000   0.000000   0.000000   0.000000   0.000095   0.003956
              13         14         15         16         17         18
     1  C   -0.105308   0.051796  -0.033498   0.034475  -0.000026  -0.010967
     2  C    0.440338   0.054715  -0.007049  -0.107467   0.000209   0.017476
     3  C   -0.357378  -0.118701  -0.074463   0.172947   0.006039   0.047307
     4  C   -0.481852  -0.028217  -0.002111   0.066021   0.000403  -0.035050
     5  C    0.098083  -0.034532   0.035655  -0.008422  -0.000063   0.014008
     6  C   -0.018073   0.001433   0.002269  -0.001012   0.000029   0.000355
     7  H   -0.000060   0.000021  -0.000011  -0.000001   0.000000  -0.000001
     8  H    0.004028   0.000671   0.000328  -0.000209   0.000001  -0.000061
     9  H    0.002953   0.000124   0.000992  -0.000070   0.000000  -0.000054
    10  H   -0.000133  -0.000014   0.000033  -0.000001   0.000000   0.000001
    11  C    0.433635  -0.114069  -0.238267  -0.396309  -0.010618   0.005651
    12  C   -0.261447  -0.845818  -0.089160   0.506426   0.056875   0.191992
    13  C    8.592216   0.807345  -0.941054  -1.299142  -0.093193   0.290291
    14  C    0.807345   8.283930  -0.265999   0.211307   0.284753  -0.870003
    15  C   -0.941054  -0.265999  10.398328   0.085191  -0.019317  -0.949509
    16  C   -1.299142   0.211307   0.085191  10.749021   0.005952  -0.837157
    17  H   -0.093193   0.284753  -0.019317   0.005952   0.502953   0.003223
    18  C    0.290291  -0.870003  -0.949509  -0.837157   0.003223   7.058950
    19  H   -0.057323   0.028140   0.393649   0.022044  -0.000131  -0.103632
    20  C   -0.074794  -1.412495  -2.250016  -1.913526   0.031590   1.051537
    21  H   -0.013664   0.006946  -0.042230   0.023907   0.000015   0.300966
    22  H    0.022530  -0.011597  -0.010689   0.006894  -0.000135   0.011328
    23  H   -0.000012  -0.000002   0.000000   0.000000   0.000000   0.000000
    24  C   -0.933147   0.064223   0.277931  -0.699009   0.012865  -0.131580
    25  F   -0.002446  -0.135192  -0.019491   0.100628   0.001110   0.019137
    26  F    0.031948  -0.066712  -0.012527   0.045249   0.001082   0.016850
    27  F    0.011394   0.024836  -0.002674  -0.125919   0.000403   0.064003
              19         20         21         22         23         24
     1  C   -0.000030   0.002521  -0.000001   0.000000  -0.009013   0.000365
     2  C   -0.000290  -0.022547  -0.000006  -0.000001   0.015742   0.001829
     3  C    0.000179   0.001348  -0.000082   0.000029  -0.000739  -0.007186
     4  C    0.001313   0.028777   0.000009   0.000000   0.006795  -0.002790
     5  C    0.000058  -0.002196   0.000003   0.000000  -0.008290   0.000516
     6  C    0.000019   0.000311   0.000000   0.000000   0.287206  -0.000151
     7  H    0.000000   0.000000   0.000000   0.000000  -0.004930   0.000000
     8  H    0.000000   0.000064   0.000000   0.000000  -0.000147   0.000006
     9  H    0.000000   0.000022   0.000000   0.000000  -0.000146   0.000001
    10  H    0.000000   0.000000   0.000000   0.000000  -0.004882   0.000000
    11  C   -0.015518   0.008496  -0.001035   0.000575   0.000229  -0.076919
    12  C    0.016051  -0.055523  -0.005980   0.002961   0.000159  -0.159020
    13  C   -0.057323  -0.074794  -0.013664   0.022530  -0.000012  -0.933147
    14  C    0.028140  -1.412495   0.006946  -0.011597  -0.000002   0.064223
    15  C    0.393649  -2.250016  -0.042230  -0.010689   0.000000   0.277931
    16  C    0.022044  -1.913526   0.023907   0.006894   0.000000  -0.699009
    17  H   -0.000131   0.031590   0.000015  -0.000135   0.000000   0.012865
    18  C   -0.103632   1.051537   0.300966   0.011328   0.000000  -0.131580
    19  H    0.514049  -0.003177  -0.004074  -0.000135   0.000000   0.004701
    20  C   -0.003177  10.731244   0.024722   0.299151   0.000000   0.018610
    21  H   -0.004074   0.024722   0.518408  -0.004434   0.000000   0.003672
    22  H   -0.000135   0.299151  -0.004434   0.510300   0.000000  -0.040674
    23  H    0.000000   0.000000   0.000000   0.000000   0.536551   0.000000
    24  C    0.004701   0.018610   0.003672  -0.040674   0.000000   5.738022
    25  F    0.000001   0.013436   0.000006   0.000025   0.000000   0.127981
    26  F    0.000001  -0.036965   0.000008   0.000023   0.000000   0.124809
    27  F   -0.000001  -0.003362   0.000115   0.006470   0.000000   0.107619
              25         26         27
     1  C    0.000010   0.000012   0.000000
     2  C   -0.000024   0.000160   0.000000
     3  C    0.000422   0.000021   0.000039
     4  C    0.000020  -0.000035   0.000002
     5  C   -0.000001   0.000000   0.000000
     6  C    0.000000   0.000000   0.000000
     7  H    0.000000   0.000000   0.000000
     8  H    0.000000   0.000000   0.000000
     9  H    0.000000   0.000000   0.000000
    10  H    0.000000   0.000000   0.000000
    11  C   -0.001135   0.000580   0.000095
    12  C    0.019156   0.013373   0.003956
    13  C   -0.002446   0.031948   0.011394
    14  C   -0.135192  -0.066712   0.024836
    15  C   -0.019491  -0.012527  -0.002674
    16  C    0.100628   0.045249  -0.125919
    17  H    0.001110   0.001082   0.000403
    18  C    0.019137   0.016850   0.064003
    19  H    0.000001   0.000001  -0.000001
    20  C    0.013436  -0.036965  -0.003362
    21  H    0.000006   0.000008   0.000115
    22  H    0.000025   0.000023   0.006470
    23  H    0.000000   0.000000   0.000000
    24  C    0.127981   0.124809   0.107619
    25  F    9.227319  -0.053445  -0.033372
    26  F   -0.053445   9.234462  -0.033365
    27  F   -0.033372  -0.033365   9.311460
 Mulliken charges:
               1
     1  C   -0.003090
     2  C   -0.493704
     3  C    0.250656
     4  C   -0.260001
     5  C   -0.080354
     6  C   -0.249724
     7  H    0.185313
     8  H    0.198910
     9  H    0.194336
    10  H    0.185638
    11  C   -0.000152
    12  C   -0.152407
    13  C   -0.095735
    14  C    0.083106
    15  C   -0.236309
    16  C   -0.641817
    17  H    0.215981
    18  C   -0.155061
    19  H    0.204108
    20  C   -0.437230
    21  H    0.192728
    22  H    0.207379
    23  H    0.181479
    24  C    1.567324
    25  F   -0.264147
    26  F   -0.265528
    27  F   -0.331699
 Sum of Mulliken charges =   0.00000
 Mulliken charges with hydrogens summed into heavy atoms:
               1
     1  C    0.182222
     2  C   -0.294794
     3  C    0.250656
     4  C   -0.065666
     5  C    0.105284
     6  C   -0.068245
    11  C   -0.000152
    12  C   -0.152407
    13  C   -0.095735
    14  C    0.299087
    15  C   -0.032201
    16  C   -0.641817
    18  C    0.037667
    20  C   -0.229850
    24  C    1.567324
    25  F   -0.264147
    26  F   -0.265528
    27  F   -0.331699
 Electronic spatial extent (au):  <R**2>=           7918.1630
 Charge=              0.0000 electrons
 Dipole moment (field-independent basis, Debye):
    X=             -2.1507    Y=              1.7568    Z=             -0.1388  Tot=              2.7805
 Quadrupole moment (field-independent basis, Debye-Ang):
   XX=            -92.7884   YY=            -92.5839   ZZ=           -108.8603
   XY=              8.7464   XZ=             -1.7396   YZ=              1.5900
 Traceless Quadrupole moment (field-independent basis, Debye-Ang):
   XX=              5.2891   YY=              5.4937   ZZ=            -10.7828
   XY=              8.7464   XZ=             -1.7396   YZ=              1.5900
 Octapole moment (field-independent basis, Debye-Ang**2):
  XXX=            -46.1600  YYY=             -9.5008  ZZZ=              3.4937  XYY=             18.9977
  XXY=             13.8667  XXZ=              7.8577  XZZ=             39.4710  YZZ=            -10.9414
  YYZ=             -3.0993  XYZ=            -12.6726
 Hexadecapole moment (field-independent basis, Debye-Ang**3):
 XXXX=          -8268.9919 YYYY=          -1062.2791 ZZZZ=           -228.7582 XXXY=             64.7342
 XXXZ=            -77.5297 YYYX=            -38.4337 YYYZ=              0.8275 ZZZX=             12.3432
 ZZZY=             -0.4656 XXYY=          -1562.2766 XXZZ=          -1647.6203 YYZZ=           -247.1942
 XXYZ=             52.6807 YYXZ=              4.3331 ZZXY=            -44.1972
 N-N= 1.112684088369D+03 E-N=-4.272752093486D+03  KE= 8.683428679010D+02
 Evaluate density.
 Using the total density.
 Monte-Carlo method of calculating molar volume:
 based on  0.001 e/bohr**3 density envelope.
 Number of points per bohr**3 =   20 CutOff= 1.00D-04
 Using the SCF density.
 There are       429 points.  Will hold       429 in memory.
 LenV=  4026245724 MDV=  4026531840.
 Box volume = 9909.163 fraction occupied=0.196
 Integrated density= 8.9523663370493054D+01 error=-3.6476336629506946D+01
 Molar volume = 1940.256 bohr**3/mol (173.146 cm**3/mol)
 Recommended a0 for SCRF calculation =  5.01 angstrom (  9.46 bohr)
 Calling FoFJK, ICntrl=      2127 FMM=F ISym2X=0 I1Cent= 0 IOpClX= 0 NMat=1 NMatS=1 NMatT=0.
 ***** Axes restored to original set *****
 -------------------------------------------------------------------
 Center     Atomic                   Forces (Hartrees/Bohr)
 Number     Number              X              Y              Z
 -------------------------------------------------------------------
      1        6           0.000474397   -0.002360022    0.002515460
      2        6          -0.003409554    0.000627417    0.008479642
      3        6           0.061309361   -0.010270799    0.015222649
      4        6          -0.000220081    0.009076338   -0.011687922
      5        6          -0.000417559   -0.000829807   -0.001912813
      6        6           0.010106291    0.000678063   -0.001296602
      7        1           0.002514876    0.000736141   -0.003688340
      8        1          -0.002226783    0.002750929   -0.005371788
      9        1          -0.001389692   -0.001142703    0.003750194
     10        1           0.003064185   -0.002027755    0.003134201
     11        6          -0.087810113    0.002282992   -0.010627061
     12        6           0.089046096   -0.000681513    0.001086258
     13        6          -0.061321208    0.004325126    0.003205612
     14        6          -0.000115243   -0.002990991    0.010638540
     15        6           0.003070623   -0.002727087   -0.012346654
     16        6           0.003453824    0.000812237    0.004005974
     17        1           0.001898417    0.000310887   -0.004750221
     18        6          -0.002905240    0.000834612   -0.001655993
     19        1           0.001892867    0.000168030    0.005660162
     20        6          -0.006318342   -0.000391183   -0.001273638
     21        1          -0.002428165    0.000245254    0.004415706
     22        1           0.010389757   -0.000116784   -0.000156820
     23        1          -0.012101380    0.000481245    0.000424810
     24        6          -0.021511840    0.000499860   -0.042418111
     25        9           0.005630829    0.001911160    0.010590720
     26        9           0.005673632   -0.002057107    0.010595468
     27        9           0.003650045   -0.000144540    0.013460566
 -------------------------------------------------------------------
 Cartesian Forces:  Max     0.089046096 RMS     0.018472606

 GradGradGradGradGradGradGradGradGradGradGradGradGradGradGradGradGradGrad
 Berny optimization.
 FormGI is forming the generalized inverse of G from B-inverse, IUseBI=4.
 Internal  Forces:  Max     0.058941755 RMS     0.008833662
 Search for a local minimum.
 Step number   1 out of a maximum of  142
 All quantities printed in internal units (Hartrees-Bohrs-Radians)
 Mixed Optimization -- RFO/linear search
 Second derivative matrix not updated -- first step.
 ITU=  0
     Eigenvalues ---    0.00230   0.00230   0.00230   0.00237   0.01365
     Eigenvalues ---    0.01530   0.01654   0.02077   0.02091   0.02104
     Eigenvalues ---    0.02111   0.02111   0.02116   0.02117   0.02118
     Eigenvalues ---    0.02120   0.02124   0.02126   0.02128   0.02132
     Eigenvalues ---    0.02148   0.02166   0.03985   0.04701   0.11243
     Eigenvalues ---    0.11243   0.15990   0.15994   0.15995   0.15996
     Eigenvalues ---    0.16000   0.16000   0.16000   0.16000   0.16000
     Eigenvalues ---    0.21985   0.21997   0.22000   0.23468   0.23471
     Eigenvalues ---    0.23488   0.24980   0.24994   0.25000   0.25000
     Eigenvalues ---    0.25000   0.25000   0.28340   0.28403   0.28519
     Eigenvalues ---    0.34254   0.34325   0.34394   0.34412   0.34413
     Eigenvalues ---    0.34464   0.34556   0.37230   0.37230   0.41502
     Eigenvalues ---    0.41840   0.42026   0.42126   0.45388   0.45833
     Eigenvalues ---    0.45928   0.45974   0.45996   0.46091   0.46204
     Eigenvalues ---    0.46783   0.55021   0.55021   0.55021   1.05241
 RFO step:  Lambda=-3.14372329D-02 EMin= 2.30000000D-03
 Linear search not attempted -- first point.
 Maximum step size (   0.300) exceeded in Quadratic search.
    -- Step size scaled by   0.944
 Iteration  1 RMS(Cart)=  0.09504002 RMS(Int)=  0.00167421
 Iteration  2 RMS(Cart)=  0.00266667 RMS(Int)=  0.00032260
 Iteration  3 RMS(Cart)=  0.00000400 RMS(Int)=  0.00032259
 Iteration  4 RMS(Cart)=  0.00000000 RMS(Int)=  0.00032259
 Variable       Old X    -DE/DX   Delta X   Delta X   Delta X     New X
                                 (Linear)    (Quad)   (Total)
    R1        2.64067  -0.00171   0.00000  -0.00336  -0.00336   2.63731
    R2        2.64223   0.00182   0.00000   0.00311   0.00313   2.64535
    R3        2.06640  -0.00446   0.00000  -0.01121  -0.01121   2.05520
    R4        2.65214   0.00175   0.00000   0.00374   0.00372   2.65586
    R5        2.06903  -0.00630   0.00000  -0.01591  -0.01591   2.05312
    R6        2.62850   0.00666   0.00000   0.01288   0.01286   2.64136
    R7        2.91400  -0.05799   0.00000  -0.17390  -0.17390   2.74010
    R8        2.64421  -0.00203   0.00000  -0.00384  -0.00383   2.64038
    R9        2.06401  -0.00410   0.00000  -0.01026  -0.01026   2.05375
   R10        2.64263   0.00033   0.00000   0.00034   0.00036   2.64299
   R11        2.06671  -0.00474   0.00000  -0.01192  -0.01192   2.05478
   R12        2.02201   0.01212   0.00000   0.02833   0.02833   2.05034
   R13        2.26611   0.03011   0.00000   0.02623   0.02623   2.29233
   R14        2.91266  -0.05894   0.00000  -0.17640  -0.17640   2.73626
   R15        2.64178   0.00089   0.00000   0.00183   0.00182   2.64361
   R16        2.63832   0.00493   0.00000   0.00954   0.00953   2.64786
   R17        2.64183  -0.00184   0.00000  -0.00352  -0.00352   2.63831
   R18        2.06554  -0.00506   0.00000  -0.01271  -0.01271   2.05283
   R19        2.64238  -0.00253   0.00000  -0.00489  -0.00489   2.63749
   R20        2.06786  -0.00585   0.00000  -0.01474  -0.01474   2.05312
   R21        2.64009   0.00153   0.00000   0.00282   0.00283   2.64292
   R22        2.91018  -0.01001   0.00000  -0.02984  -0.02984   2.88034
   R23        2.63983   0.00105   0.00000   0.00189   0.00190   2.64173
   R24        2.06639  -0.00504   0.00000  -0.01266  -0.01266   2.05372
   R25        2.02201   0.01039   0.00000   0.02430   0.02430   2.04630
   R26        2.55113   0.00261   0.00000   0.00423   0.00423   2.55536
   R27        2.55113   0.00253   0.00000   0.00410   0.00410   2.55523
   R28        2.55113   0.00114   0.00000   0.00184   0.00184   2.55297
    A1        2.09366   0.00102   0.00000   0.00311   0.00308   2.09674
    A2        2.09504  -0.00099   0.00000  -0.00391  -0.00390   2.09115
    A3        2.09447  -0.00003   0.00000   0.00081   0.00082   2.09529
    A4        2.09099  -0.00072   0.00000  -0.00198  -0.00209   2.08890
    A5        2.09389   0.00165   0.00000   0.00752   0.00751   2.10140
    A6        2.09796  -0.00091   0.00000  -0.00513  -0.00513   2.09282
    A7        2.09733   0.00022   0.00000   0.00225   0.00215   2.09949
    A8        2.03358   0.00970   0.00000   0.03185   0.03189   2.06547
    A9        2.15206  -0.00991   0.00000  -0.03394  -0.03391   2.11815
   A10        2.09293  -0.00165   0.00000  -0.00489  -0.00500   2.08793
   A11        2.09462   0.00017   0.00000  -0.00058  -0.00060   2.09403
   A12        2.09507   0.00151   0.00000   0.00604   0.00603   2.10110
   A13        2.09517   0.00135   0.00000   0.00489   0.00486   2.10003
   A14        2.09387  -0.00142   0.00000  -0.00610  -0.00609   2.08778
   A15        2.09414   0.00007   0.00000   0.00122   0.00123   2.09538
   A16        2.09442  -0.00014   0.00000  -0.00171  -0.00171   2.09271
   A17        2.09438   0.00017   0.00000   0.00132   0.00132   2.09570
   A18        2.09438  -0.00002   0.00000   0.00039   0.00039   2.09477
   A19        2.09307  -0.00053   0.00000  -0.00196  -0.00198   2.09109
   A20        2.09164   0.00049   0.00000   0.00148   0.00146   2.09311
   A21        2.09779   0.00006   0.00000   0.00098   0.00093   2.09872
   A22        2.09144  -0.00115   0.00000  -0.00378  -0.00381   2.08763
   A23        2.09611  -0.00018   0.00000  -0.00175  -0.00176   2.09435
   A24        2.09540   0.00134   0.00000   0.00575   0.00574   2.10114
   A25        2.09320  -0.00121   0.00000  -0.00407  -0.00410   2.08910
   A26        2.09628  -0.00061   0.00000  -0.00389  -0.00390   2.09238
   A27        2.09347   0.00183   0.00000   0.00817   0.00816   2.10163
   A28        2.09342   0.00261   0.00000   0.00877   0.00877   2.10218
   A29        2.09403  -0.00755   0.00000  -0.02535  -0.02535   2.06868
   A30        2.09573   0.00495   0.00000   0.01658   0.01658   2.11232
   A31        2.09222   0.00219   0.00000   0.00818   0.00818   2.10040
   A32        2.09489  -0.00098   0.00000  -0.00354  -0.00353   2.09136
   A33        2.09607  -0.00121   0.00000  -0.00465  -0.00464   2.09142
   A34        2.09766  -0.00247   0.00000  -0.00953  -0.00952   2.08814
   A35        2.09276   0.00141   0.00000   0.00560   0.00560   2.09836
   A36        2.09276   0.00107   0.00000   0.00393   0.00393   2.09669
   A37        1.91063   0.01401   0.00000   0.04545   0.04417   1.95480
   A38        1.91063   0.01419   0.00000   0.04626   0.04494   1.95558
   A39        1.91063   0.01969   0.00000   0.06893   0.06707   1.97771
   A40        1.91063  -0.01634   0.00000  -0.06057  -0.06123   1.84940
   A41        1.91063  -0.01581   0.00000  -0.05039  -0.05204   1.85860
   A42        1.91063  -0.01573   0.00000  -0.04968  -0.05138   1.85925
   A43        3.17054  -0.00311   0.00000  -0.03779  -0.03782   3.13272
   A44        3.14159   0.00113   0.00000   0.03272   0.03270   3.17429
   A45        3.13228   0.00083   0.00000   0.01075   0.01060   3.14288
   A46        3.14159  -0.00005   0.00000   0.00100   0.00116   3.14275
    D1        0.02934  -0.00073   0.00000  -0.01392  -0.01393   0.01541
    D2       -3.14082   0.00018   0.00000   0.00250   0.00252  -3.13830
    D3       -3.10907  -0.00086   0.00000  -0.01595  -0.01596  -3.12503
    D4        0.00396   0.00005   0.00000   0.00047   0.00049   0.00445
    D5        0.00343   0.00002   0.00000   0.00017   0.00019   0.00363
    D6       -3.13816   0.00001   0.00000   0.00021   0.00020  -3.13796
    D7       -3.14135   0.00015   0.00000   0.00220   0.00222  -3.13913
    D8        0.00024   0.00015   0.00000   0.00223   0.00222   0.00247
    D9       -0.06456   0.00154   0.00000   0.02885   0.02884  -0.03572
   D10        3.09824   0.00133   0.00000   0.02105   0.02092   3.11916
   D11        3.10566   0.00059   0.00000   0.01218   0.01226   3.11792
   D12       -0.01472   0.00038   0.00000   0.00438   0.00434  -0.01038
   D13        0.06660  -0.00163   0.00000  -0.02994  -0.02988   0.03672
   D14       -3.11087  -0.00060   0.00000  -0.01141  -0.01139  -3.12226
   D15       -3.09770  -0.00115   0.00000  -0.02073  -0.02087  -3.11857
   D16        0.00801  -0.00012   0.00000  -0.00220  -0.00237   0.00563
   D17       -0.42138   0.00102   0.00000   0.02078   0.02076  -0.40062
   D18        2.76189   0.00007   0.00000   0.00218   0.00235   2.76424
   D19        2.74721   0.00009   0.00000   0.00211   0.00194   2.74915
   D20       -0.35271  -0.00087   0.00000  -0.01649  -0.01647  -0.36918
   D21       -0.03360   0.00091   0.00000   0.01613   0.01607  -0.01753
   D22        3.10669   0.00094   0.00000   0.01683   0.01680   3.12349
   D23       -3.13930  -0.00009   0.00000  -0.00227  -0.00237   3.14152
   D24        0.00098  -0.00006   0.00000  -0.00157  -0.00163  -0.00064
   D25       -0.00147  -0.00006   0.00000  -0.00111  -0.00114  -0.00261
   D26        3.14013  -0.00006   0.00000  -0.00115  -0.00114   3.13898
   D27        3.14144  -0.00009   0.00000  -0.00181  -0.00187   3.13956
   D28       -0.00016  -0.00008   0.00000  -0.00185  -0.00188  -0.00203
   D29       -3.13968   0.00016   0.00000   0.00169   0.00164  -3.13804
   D30        0.02538  -0.00044   0.00000  -0.00922  -0.00926   0.01613
   D31       -0.03799   0.00086   0.00000   0.01638   0.01641  -0.02158
   D32        3.12707   0.00026   0.00000   0.00547   0.00551   3.13259
   D33        3.14019  -0.00021   0.00000  -0.00233  -0.00226   3.13793
   D34       -0.02477   0.00039   0.00000   0.00830   0.00834  -0.01643
   D35        0.03847  -0.00088   0.00000  -0.01693  -0.01697   0.02150
   D36       -3.12649  -0.00028   0.00000  -0.00630  -0.00637  -3.13286
   D37        0.02003  -0.00043   0.00000  -0.00834  -0.00836   0.01167
   D38       -3.12378  -0.00039   0.00000  -0.00739  -0.00742  -3.13119
   D39        3.13816   0.00015   0.00000   0.00247   0.00248   3.14063
   D40       -0.00565   0.00020   0.00000   0.00342   0.00342  -0.00223
   D41       -0.02094   0.00051   0.00000   0.00947   0.00948  -0.01146
   D42        3.12361   0.00046   0.00000   0.00849   0.00850   3.13212
   D43       -3.13921  -0.00006   0.00000  -0.00099  -0.00101  -3.14021
   D44        0.00535  -0.00011   0.00000  -0.00196  -0.00198   0.00336
   D45       -0.00265   0.00006   0.00000   0.00095   0.00094  -0.00171
   D46        3.13894   0.00006   0.00000   0.00114   0.00114   3.14008
   D47        3.14116   0.00003   0.00000   0.00005   0.00003   3.14119
   D48       -0.00043   0.00003   0.00000   0.00024   0.00023  -0.00021
   D49        1.07211  -0.00134   0.00000  -0.00876  -0.00913   1.06298
   D50       -1.02229   0.00140   0.00000   0.00926   0.00965  -1.01263
   D51       -3.11668  -0.00007   0.00000  -0.00043  -0.00045  -3.11713
   D52       -2.07170  -0.00130   0.00000  -0.00782  -0.00819  -2.07989
   D53        2.11709   0.00145   0.00000   0.01020   0.01059   2.12768
   D54        0.02270  -0.00003   0.00000   0.00051   0.00049   0.02318
   D55        0.00308  -0.00008   0.00000  -0.00147  -0.00148   0.00160
   D56       -3.13851  -0.00008   0.00000  -0.00166  -0.00168  -3.14019
   D57       -3.14147  -0.00004   0.00000  -0.00049  -0.00050   3.14121
   D58        0.00012  -0.00004   0.00000  -0.00069  -0.00069  -0.00058
         Item               Value     Threshold  Converged?
 Maximum Force            0.058942     0.000450     NO 
 RMS     Force            0.008834     0.000300     NO 
 Maximum Displacement     0.303874     0.001800     NO 
 RMS     Displacement     0.096492     0.001200     NO 
 Predicted change in Energy=-1.717942D-02
 GradGradGradGradGradGradGradGradGradGradGradGradGradGradGradGradGradGrad

                          Input orientation:                          
 ---------------------------------------------------------------------
 Center     Atomic      Atomic             Coordinates (Angstroms)
 Number     Number       Type             X           Y           Z
 ---------------------------------------------------------------------
      1          6           0       -5.176099   -0.948011    1.180043
      2          6           0       -3.782337   -0.964256    1.110223
      3          6           0       -3.137917   -0.494814   -0.047165
      4          6           0       -3.887203   -0.053169   -1.141340
      5          6           0       -5.282151   -0.039064   -1.062818
      6          6           0       -5.928748   -0.483539    0.094965
      7          1           0       -5.676477   -1.296347    2.080643
      8          1           0       -3.194023   -1.326688    1.948636
      9          1           0       -3.383735    0.291922   -2.040539
     10          1           0       -5.864389    0.320453   -1.907842
     11          6           0       -1.688239   -0.498562   -0.077421
     12          6           0       -0.475296   -0.504666   -0.092308
     13          6           0        0.972345   -0.513475   -0.062746
     14          6           0        1.642968   -0.501286    1.164910
     15          6           0        1.696089   -0.503733   -1.262505
     16          6           0        3.038897   -0.505536    1.188527
     17          1           0        1.077708   -0.500432    2.092568
     18          6           0        3.091365   -0.507849   -1.228370
     19          1           0        1.169135   -0.505065   -2.212619
     20          6           0        3.767885   -0.507794   -0.005028
     21          1           0        3.654790   -0.509244   -2.157698
     22          1           0        4.850507   -0.509676    0.017433
     23          1           0       -7.012155   -0.468181    0.151572
     24          6           0        3.744060   -0.505937    2.539806
     25          9           0        3.434587   -1.599585    3.272410
     26          9           0        3.393659    0.559213    3.295477
     27          9           0        5.091089   -0.479850    2.439972
 ---------------------------------------------------------------------
                    Distance matrix (angstroms):
                    1          2          3          4          5
     1  C    0.000000
     2  C    1.395604   0.000000
     3  C    2.421903   1.405418   0.000000
     4  C    2.801931   2.431175   1.397747   0.000000
     5  C    2.422367   2.797772   2.415988   1.397228   0.000000
     6  C    1.399861   2.422585   2.794470   2.425196   1.398609
     7  H    1.087564   2.154012   3.407977   3.889495   3.408460
     8  H    2.159341   1.086465   2.162957   3.413253   3.884213
     9  H    3.888722   3.415285   2.157063   1.086797   2.160897
    10  H    3.408487   3.885117   3.400063   2.153227   1.087345
    11  C    3.734754   2.452064   1.449999   2.483091   3.754777
    12  C    4.890090   3.548778   2.663023   3.597976   4.925905
    13  C    6.287822   4.917933   4.110334   4.999045   6.351687
    14  C    6.833701   5.445298   4.932143   6.008526   7.289287
    15  C    7.306873   5.987911   4.984451   5.602753   6.996544
    16  C    8.226907   6.837089   6.299213   7.321459   8.632844
    17  H    6.335861   4.979977   4.727577   5.942099   7.114572
    18  C    8.622364   7.274965   6.340298   6.993906   8.388262
    19  H    7.208908   5.980737   4.820788   5.188295   6.569497
    20  C    9.032886   7.645783   6.905943   7.752307   9.123694
    21  H    9.450800   8.136166   7.113046   7.623821   9.016027
    22  H   10.103298   8.713600   7.988699   8.826025  10.200940
    23  H    2.158493   3.405411   3.879423   3.407225   2.156803
    24  C    9.034025   7.674661   7.352153   8.484810   9.729818
    25  F    8.885182   7.560602   7.445664   8.687992   9.859562
    26  F    8.954749   7.654490   7.412538   8.548175   9.727402
    27  F   10.354793   8.985576   8.596664   9.675618  10.957552
                    6          7          8          9         10
     6  C    0.000000
     7  H    2.160374   0.000000
     8  H    3.409650   2.486147   0.000000
     9  H    3.411570   4.976285   4.309224   0.000000
    10  H    2.159116   4.307827   4.971554   2.484365   0.000000
    11  C    4.244038   4.604319   2.656706   2.711716   4.632652
    12  C    5.456708   5.692167   3.497521   3.590150   5.746244
    13  C    6.902960   7.029498   4.697403   4.851367   7.130270
    14  C    7.646959   7.419230   4.969105   6.014302   8.153372
    15  C    7.744758   8.133856   5.907781   5.200290   7.632600
    16  C    9.034103   8.796533   6.332562   7.232773   9.462466
    17  H    7.285680   6.800930   4.353287   6.133096   8.054182
    18  C    9.116702   9.404592   7.090132   6.574661   9.019607
    19  H    7.463602   8.119152   6.085085   4.625303   7.088359
    20  C    9.697179   9.704011   7.277057   7.478537   9.853294
    21  H    9.844763  10.278892   8.027231   7.084943   9.558535
    22  H   10.779565  10.756072   8.313334   8.525288  10.918095
    23  H    1.084994   2.488214   4.306345   4.306802   2.486061
    24  C    9.977022   9.464782   7.011427   8.510088  10.620113
    25  F    9.950566   9.193680   6.765008   8.848432  10.816309
    26  F    9.911502   9.337360   6.983420   8.630039  10.622758
    27  F   11.266582  10.804456   8.342759   9.617341  11.813826
                   11         12         13         14         15
    11  C    0.000000
    12  C    1.213050   0.000000
    13  C    2.660666   1.447969   0.000000
    14  C    3.555325   2.463260   1.398937   0.000000
    15  C    3.585823   2.466632   1.401186   2.427998   0.000000
    16  C    4.893718   3.740332   2.415861   1.396135   2.794761
    17  H    3.515582   2.680582   2.157927   1.086309   3.411586
    18  C    4.916237   3.743223   2.418462   2.797443   1.395700
    19  H    3.567029   2.683258   2.158877   3.410606   1.086462
    20  C    5.456612   4.244079   2.796142   2.425710   2.423552
    21  H    5.733727   4.617734   3.403579   3.884227   2.153581
    22  H    6.539443   5.326935   3.878993   3.406623   3.404207
    23  H    5.328926   6.541509   7.987504   8.714305   8.822381
    24  C    6.029909   4.973026   3.802070   2.510965   4.318768
    25  F    6.219081   5.273268   4.285504   2.976192   4.978827
    26  F    6.190396   5.251450   4.276808   2.954469   4.978634
    27  F    7.231660   6.115366   4.819625   3.676381   5.023438
                   16         17         18         19         20
    16  C    0.000000
    17  H    2.159531   0.000000
    18  C    2.417467   3.883748   0.000000
    19  H    3.881211   4.306160   2.159565   0.000000
    20  C    1.398572   3.411307   1.397943   3.409834   0.000000
    21  H    3.402434   4.970532   1.086784   2.486265   2.155639
    22  H    2.157176   4.305843   2.155599   4.304143   1.082856
    23  H   10.104470   8.319519  10.197399   8.516118  10.781250
    24  C    1.524208   2.703606   3.824286   5.405162   2.544946
    25  F    2.386647   2.855704   4.643997   6.034550   3.470547
    26  F    2.387213   2.816641   4.657810   6.034924   3.488822
    27  F    2.403803   4.028441   4.178087   6.085143   2.780229
                   21         22         23         24         25
    21  H    0.000000
    22  H    2.482123   0.000000
    23  H   10.914125  11.863493   0.000000
    24  C    4.698353   2.754379  11.018223   0.000000
    25  F    5.542870   3.713167  10.961484   1.352238   0.000000
    26  F    5.562994   3.743061  10.918820   1.352170   2.159310
    27  F    4.816886   2.434639  12.317688   1.350976   2.165816
                   26         27
    26  F    0.000000
    27  F    2.166289   0.000000
 Stoichiometry    C15H9F3
 Framework group  C1[X(C15H9F3)]
 Deg. of freedom    75
 Full point group                 C1      NOp   1
 Largest Abelian subgroup         C1      NOp   1
 Largest concise Abelian subgroup C1      NOp   1
                         Standard orientation:                         
 ---------------------------------------------------------------------
 Center     Atomic      Atomic             Coordinates (Angstroms)
 Number     Number       Type             X           Y           Z
 ---------------------------------------------------------------------
      1          6           0       -5.138187   -1.651035   -0.328252
      2          6           0       -3.794142   -1.277587   -0.370576
      3          6           0       -3.422975    0.028657   -0.008413
      4          6           0       -4.397074    0.964174    0.351638
      5          6           0       -5.740347    0.581828    0.392571
      6          6           0       -6.113653   -0.723175    0.055351
      7          1           0       -5.426035   -2.665801   -0.593186
      8          1           0       -3.033815   -1.993331   -0.670609
      9          1           0       -4.105890    1.977986    0.613411
     10          1           0       -6.496195    1.305090    0.689060
     11          6           0       -2.015713    0.377026   -0.035813
     12          6           0       -0.835946    0.658120   -0.060829
     13          6           0        0.582550    0.947483   -0.088269
     14          6           0        1.507510   -0.096822    0.016137
     15          6           0        1.023632    2.273625   -0.188846
     16          6           0        2.874239    0.187313   -0.006500
     17          1           0        1.160910   -1.122738    0.102342
     18          6           0        2.392045    2.547405   -0.210465
     19          1           0        0.300002    3.080772   -0.261459
     20          6           0        3.321855    1.507570   -0.118595
     21          1           0        2.736488    3.574496   -0.297322
     22          1           0        4.382739    1.724024   -0.134398
     23          1           0       -7.157910   -1.015504    0.091166
     24          6           0        3.860221   -0.970582    0.095131
     25          9           0        3.724573   -1.842867   -0.929206
     26          9           0        3.680831   -1.692331    1.224406
     27          9           0        5.151888   -0.574691    0.093175
 ---------------------------------------------------------------------
 Rotational constants (GHZ):           1.0231337           0.1427062           0.1287202
 Standard basis: 6-31+G(d) (6D, 7F)
 There are   360 symmetry adapted cartesian basis functions of A   symmetry.
 There are   360 symmetry adapted basis functions of A   symmetry.
   360 basis functions,   612 primitive gaussians,   360 cartesian basis functions
    63 alpha electrons       63 beta electrons
       nuclear repulsion energy      1122.4332727544 Hartrees.
 NAtoms=   27 NActive=   27 NUniq=   27 SFac= 1.00D+00 NAtFMM=   60 NAOKFM=F Big=F
 Integral buffers will be    131072 words long.
 Raffenetti 2 integral format.
 Two-electron integral symmetry is turned on.
 Nuclear repulsion after empirical dispersion term =     1122.4142340757 Hartrees.
 One-electron integrals computed using PRISM.
 NBasis=   360 RedAO= T EigKep=  1.88D-06  NBF=   360
 NBsUse=   356 1.00D-06 EigRej=  5.70D-07 NBFU=   356
 Initial guess from the checkpoint file:  "molecule_62.chk"
 B after Tr=     0.000000    0.000000    0.000000
         Rot=    0.999996   -0.002645    0.000313   -0.000150 Ang=  -0.31 deg.
 ExpMin= 4.38D-02 ExpMax= 7.00D+03 ExpMxC= 1.05D+03 IAcc=3 IRadAn=         5 AccDes= 0.00D+00
 Harris functional with IExCor=  402 and IRadAn=       5 diagonalized for initial guess.
 HarFok:  IExCor=  402 AccDes= 0.00D+00 IRadAn=         5 IDoV= 1 UseB2=F ITyADJ=14
 ICtDFT=  3500011 ScaDFX=  1.000000  1.000000  1.000000  1.000000
 FoFCou: FMM=F IPFlag=           0 FMFlag=      100000 FMFlg1=           0
         NFxFlg=           0 DoJE=T BraDBF=F KetDBF=T FulRan=T
         wScrn=  0.000000 ICntrl=       500 IOpCl=  0 I1Cent=   200000004 NGrid=           0
         NMat0=    1 NMatS0=      1 NMatT0=    0 NMatD0=    1 NMtDS0=    0 NMtDT0=    0
 Petite list used in FoFCou.
 Requested convergence on RMS density matrix=1.00D-08 within 128 cycles.
 Requested convergence on MAX density matrix=1.00D-06.
 Requested convergence on             energy=1.00D-06.
 No special actions if energy rises.
 SCF Done:  E(RB3LYP) =  -876.559482133     A.U. after   13 cycles
            NFock= 13  Conv=0.93D-08     -V/T= 2.0091
 Calling FoFJK, ICntrl=      2127 FMM=F ISym2X=0 I1Cent= 0 IOpClX= 0 NMat=1 NMatS=1 NMatT=0.
 ***** Axes restored to original set *****
 -------------------------------------------------------------------
 Center     Atomic                   Forces (Hartrees/Bohr)
 Number     Number              X              Y              Z
 -------------------------------------------------------------------
      1        6           0.000564099   -0.000690919    0.000103907
      2        6          -0.006890008    0.001252598    0.002551289
      3        6           0.024827166   -0.005019329    0.004802410
      4        6          -0.006426224    0.003833510   -0.004162514
      5        6           0.000719126   -0.000412714   -0.001001723
      6        6           0.001206398    0.000257778    0.000023667
      7        1           0.000256656   -0.000155858   -0.000454869
      8        1           0.000305856    0.000655591   -0.000719676
      9        1           0.000226231   -0.000096965    0.000888199
     10        1           0.000129289   -0.000356617    0.000156771
     11        6          -0.019327242    0.000695019   -0.002855838
     12        6           0.018522563   -0.000654615    0.002178936
     13        6          -0.024738096    0.002823883   -0.001070719
     14        6           0.004795425   -0.001876740    0.005150504
     15        6           0.008237010   -0.001427037   -0.003821569
     16        6           0.004547178    0.000571617    0.005295845
     17        1           0.000115081    0.000211914   -0.000837494
     18        6          -0.002136597    0.000476295   -0.000397802
     19        1          -0.000238961    0.000092323    0.000986129
     20        6           0.000622114   -0.000263010    0.000686516
     21        1           0.000089923    0.000109990    0.000464883
     22        1           0.001384231   -0.000030140    0.000714500
     23        1          -0.001250246    0.000022874    0.000095428
[...]
 3,0.00000890,-0.00000307,0.00000080,-0.00000416,0.00000064,-0.00000029
 ,0.00000037,0.00002451,-0.00019729,0.00068239,-0.00013085,0.00006393,-
 0.00036660,-0.00074446,0.00457764,-0.06564353,0.07633422,-0.00149313,0
 .03145685,-0.07566017,-0.00171733,0.03238057,0.05495905,0.01551732,-0.
 26409774,-0.00199899,0.00036925,0.00130429,-0.05858272,0.01734272,-0.2
 8631750,0.00140300,0.00046977,0.00156299,0.01262477,-0.04043410,0.6626
 9710,-0.00000145,-0.00000080,0.00000088,-0.00005362,0.00000388,-0.0000
 2683,0.00013723,0.00000761,-0.00009428,-0.00009601,-0.00000296,0.00005
 089,0.00000027,0.00000110,-0.00001578,-0.00002853,0.00000035,0.0000004
 7,-0.00001126,-0.00000028,0.00000486,0.00001300,0.00000074,-0.00001074
 ,0.00001082,-0.00000049,0.00000503,-0.00001766,0.00000059,-0.00000578,
 -0.00035720,-0.00000970,-0.00001768,-0.00036760,-0.00007583,0.00131755
 ,-0.00499370,0.00017489,-0.00151281,-0.00080225,0.00003924,-0.00080126
 ,-0.01114610,-0.00215737,0.02902444,-0.00119871,0.00036618,-0.00324722
 ,0.00008790,-0.00000765,0.00006277,-0.13030490,-0.00895675,0.12172394,
 0.00062002,0.00000672,-0.00035504,0.01212214,0.00116992,-0.01549993,0.
 13496023,-0.00000017,-0.00000088,-0.00000094,-0.00000186,-0.00001763,-
 0.00000203,0.00000376,0.00000470,0.00000198,-0.00000118,0.00000643,0.0
 0000157,-0.00000026,-0.00000082,0.00000062,-0.00000180,-0.00000174,-0.
 00000017,-0.00000039,0.00000187,0.00000051,0.00000044,0.00000311,0.000
 00001,0.00000053,0.00000564,0.00000060,-0.00000040,0.00000177,-0.00000
 026,0.00000346,-0.00016546,-0.00001099,0.00000206,0.00029943,0.0000108
 4,0.00014981,0.00713932,0.00044793,0.00005327,-0.00072483,-0.00009798,
 0.00026542,0.00326697,-0.00024827,0.00032478,0.00688335,0.00062963,-0.
 00001589,-0.00096119,-0.00006549,-0.00895553,-0.03832264,0.01729368,-0
 .00004966,-0.00402191,-0.00036496,-0.00129120,0.00311568,0.00176015,0.
 00949729,0.02720740,0.00000040,-0.00000069,0.00001087,0.00001532,-0.00
 000267,0.00001114,-0.00002810,0.00000173,-0.00000910,0.00001183,0.0000
 0196,-0.00001614,0.00000235,0.00000055,-0.00000978,0.00002055,-0.00000
 036,0.00000018,0.00000397,0.00000039,-0.00000378,-0.00000449,0.0000000
 9,0.00000224,-0.00000497,0.00000053,-0.00000082,0.00000488,-0.00000024
 ,0.00000406,-0.00009346,-0.00001451,-0.00003278,0.00007876,0.00002604,
 0.00010517,-0.00107653,0.00041545,0.00170261,-0.00081615,-0.00008072,0
 .00024411,-0.00197604,-0.00007099,0.00432886,-0.00404016,0.00087208,-0
 .00285778,0.00007706,-0.00007195,-0.00002043,0.12158201,0.01721961,-0.
 26979250,0.00030627,-0.00036914,0.00077360,0.01534248,0.00161670,-0.01
 878099,-0.13013096,-0.01918490,0.28443447,-0.00000003,-0.00000099,0.00
 000368,-0.00002077,0.00000088,0.00000067,0.00005355,-0.00000006,-0.000
 00074,-0.00001899,-0.00000017,-0.00000137,0.00000104,0.00000022,-0.000
 00290,-0.00000632,0.00000027,-0.00000035,-0.00000366,-0.00000012,0.000
 00231,0.00000583,0.00000039,-0.00000467,0.00000579,-0.00000038,0.00000
 476,-0.00000356,0.00000023,-0.00000222,-0.00007895,-0.00000056,0.00000
 943,0.00010607,0.00000473,-0.00001364,0.00059211,0.00000900,-0.0001130
 0,0.00080932,-0.00024871,0.00279175,0.00065832,0.00017694,-0.00275030,
 -0.01120616,0.00002687,-0.00117400,-0.00052586,0.00003140,-0.00023018,
 -0.01009610,-0.00014399,0.00208362,-0.00053836,-0.00001647,0.00021596,
 -0.34408073,0.00082007,-0.00041564,0.00077444,0.00005324,-0.00030350,0
 .36388107,-0.00000128,0.00000018,-0.00000069,-0.00000087,0.00000059,-0
 .00000154,-0.00000057,0.00003491,0.00000168,-0.00000005,0.00000323,0.0
 0000191,0.00000012,-0.00000584,0.00000027,-0.00000112,0.00000279,0.000
 00005,-0.00000022,0.00000153,0.00000027,0.00000039,-0.00000066,-0.0000
 0019,-0.00000014,0.00000173,-0.00000021,-0.00000022,0.00000137,0.00000
 001,0.00000501,0.00003152,0.00000789,-0.00001862,-0.00089624,-0.000089
 12,-0.00000916,-0.00097127,0.00000383,-0.00006679,0.00615666,0.0007598
 6,0.00017525,0.00706255,0.00095339,-0.00212683,0.00342093,-0.00025431,
 -0.00008808,0.00046652,0.00003526,0.00236384,0.00372761,-0.00012843,0.
 00011651,-0.00000368,-0.00001070,0.00024705,-0.03665508,0.00219612,-0.
 00005113,-0.00400195,-0.00036024,-0.00052488,0.02504230,-0.00000040,-0
 .00000294,0.00000370,-0.00000068,0.00000401,-0.00000745,-0.00000784,0.
 00000145,-0.00000964,0.00000535,0.00000162,-0.00000774,0.00000040,-0.0
 0000222,0.00000504,0.00000074,0.00000183,-0.00000054,0.00000017,0.0000
 0016,-0.00000018,-0.00000349,-0.00000030,0.00000353,0.00000280,-0.0000
 0017,0.00000311,0.00000058,0.00000013,-0.00000007,0.00000689,0.0000056
 0,0.00003860,-0.00004779,-0.00009347,0.00014288,-0.00006643,0.00002779
 ,-0.00098702,0.00175126,0.00080026,-0.00509621,-0.00198596,0.00088959,
 -0.00470818,0.02777728,-0.00026603,0.00490663,0.00144517,0.00002541,0.
 00023315,-0.02861202,0.00003913,0.00502312,-0.00138132,-0.00001971,0.0
 0011482,-0.00166742,0.00202389,-0.06079116,0.00030193,-0.00034098,0.00
 071352,0.00147657,-0.00285384,0.06063739,-0.01139832,-0.00009330,0.002
 63174,0.00064610,0.00028324,-0.00315580,0.00073030,-0.00001049,-0.0000
 1077,0.00070603,-0.00018933,0.00310418,-0.01110701,0.00028703,-0.00244
 193,-0.33972809,0.00204014,0.00167392,0.00076398,-0.00000100,-0.000426
 19,-0.00064779,-0.00001117,0.00022096,-0.00063563,0.00002120,-0.000208
 99,0.00076381,-0.00006504,0.00042333,0.00012134,-0.00000841,-0.0000000
 7,-0.00012524,0.00000172,-0.00000021,0.00012116,-0.00000092,0.00000332
 ,-0.00003844,0.00000108,-0.00000450,-0.00004097,0.00000041,-0.00000095
 ,-0.00000443,-0.00000216,-0.00001236,0.00001108,-0.00000075,0.00000895
 ,0.00000572,0.00000056,-0.00000580,0.00000992,0.00000048,-0.00000717,-
 0.00002942,0.00000094,0.00000172,-0.00000692,-0.00000042,0.00000434,-0
 .00000349,-0.00000013,0.00000016,0.35988707,0.00226346,0.00334044,-0.0
 0014952,0.00020557,0.00694533,0.00090572,-0.00001075,-0.00091328,0.000
 02420,-0.00011133,0.00694994,0.00086467,-0.00206918,0.00335603,-0.0000
 8901,0.00203871,-0.03653753,0.00178665,-0.00005739,-0.00385509,-0.0003
 4232,0.00011351,0.00011705,-0.00000127,-0.00010316,0.00012418,0.000003
 95,-0.00000814,-0.00385661,-0.00034829,-0.00000800,-0.00098290,-0.0000
 8892,0.00000107,0.00002166,-0.00000045,-0.00000040,0.00005010,0.000004
 47,0.00000009,-0.00000272,0.00000062,0.00000056,-0.00000160,0.00000047
 ,-0.00000001,0.00000319,-0.00000038,-0.00000044,0.00000134,-0.00000004
 ,-0.00000002,0.00000066,-0.00000019,0.00000017,0.00000107,-0.00000012,
 0.00000031,-0.00000085,0.00000020,0.00000010,0.00000142,0.00000008,0.0
 0000002,-0.00000076,-0.00000014,-0.00225456,0.02523947,-0.02859953,0.0
 0007546,0.00507793,-0.00212156,0.00089592,-0.00468335,-0.00001180,0.00
 002367,-0.00123943,0.00206618,0.00087182,-0.00473849,0.02878752,-0.000
 31171,0.00475114,0.00168532,0.00178609,-0.06024258,0.00032542,-0.00034
 778,0.00069466,-0.00142956,0.00001057,0.00011459,0.00143987,-0.0000078
 3,0.00009308,-0.00033216,-0.00034304,0.00069349,-0.00000018,-0.0000843
 5,0.00019255,0.00000044,-0.00000417,0.00003089,-0.00000103,0.00000543,
 -0.00001098,0.00000182,0.00000002,-0.00000757,-0.00000297,0.00000037,-
 0.00000848,0.00000260,0.00000081,0.00000381,0.00000429,-0.00000011,0.0
 0000212,-0.00000089,-0.00000021,0.00000391,-0.00000339,-0.00000013,0.0
 0000320,0.00000014,-0.00000042,-0.00000078,-0.00000050,0.00000012,-0.0
 0000003,0.00000004,-0.00000012,0.00000093,-0.00180890,-0.00257032,0.05
 927032,0.00000272,-0.00001739,0.00016152,0.00014419,0.00001299,0.00002
 541,-0.00050013,0.00001156,0.00004517,0.00022968,0.00000756,-0.0001493
 1,0.00000776,0.00000968,-0.00009676,0.00023012,-0.00000003,-0.00000422
 ,0.00004534,0.00000203,-0.00005542,-0.00009175,-0.00001059,0.00006845,
 -0.00006939,0.00000113,-0.00002827,0.00006708,-0.00000545,0.00006034,-
 0.00017699,-0.00002911,0.00006932,-0.00008279,-0.00000862,-0.00064107,
 -0.00678933,0.00000047,0.00120749,-0.01384825,0.00395536,-0.02781991,-
 0.00202708,-0.00020317,0.00244203,-0.12070954,0.00626020,-0.04485720,-
 0.00239034,-0.00011053,-0.00045486,0.00011163,-0.00067239,0.00791723,-
 0.00023027,-0.00001583,0.00025640,0.01954241,-0.00236320,0.00423943,0.
 00079448,0.00005221,0.00164204,-0.00230165,-0.00003404,0.00350833,0.00
 007237,-0.00000153,0.00000427,0.51599567,0.00000461,-0.00002474,-0.000
 02362,-0.00006828,-0.00004447,-0.00003332,0.00015383,0.00009745,0.0000
 1563,-0.00005906,-0.00002575,0.00002128,-0.00000027,-0.00003219,0.0000
 2266,-0.00006159,-0.00001020,-0.00000173,-0.00001586,0.00002552,0.0000
 1425,0.00001770,0.00007192,-0.00000183,0.00001640,0.00003455,0.0000131
 6,-0.00001360,0.00001754,-0.00000867,-0.00015291,-0.00052611,-0.000042
 12,0.00006548,0.00078176,-0.00003723,-0.00011498,0.00681300,-0.0005451
 4,0.00061301,0.00136587,-0.00020878,-0.00030136,-0.00063901,-0.0002429
 3,0.00447038,-0.06793288,0.00923624,0.00007544,-0.00282658,-0.00010583
 ,-0.00092132,0.00584720,0.00011593,-0.00005401,-0.00084179,-0.00011048
 ,0.00082544,-0.00183955,0.00142229,0.00002269,0.00063946,-0.00006866,-
 0.00012530,-0.00148649,0.00027345,-0.00001289,0.00001453,0.00000116,-0
 .00130859,0.45098249,-0.00002414,-0.00000597,0.00010779,0.00058720,-0.
 00005560,0.00044361,-0.00106649,0.00001871,-0.00003868,0.00039198,0.00
 002032,-0.00021083,0.00000385,0.00000979,-0.00023210,0.00044950,-0.000
 00488,0.00001613,0.00015111,0.00000929,-0.00008615,-0.00009704,0.00000
 942,0.00002608,-0.00011142,0.00001204,-0.00009567,0.00008862,-0.000003
 86,0.00006399,0.00079267,-0.00006843,-0.00016704,0.00028076,0.00013108
 ,0.00099218,0.00244616,0.00002055,0.00359355,-0.01498458,-0.00121177,0
 .00543645,0.00265759,-0.00012413,0.00060846,-0.04802456,0.01280491,-0.
 17236532,0.00407730,-0.00003753,-0.00032608,0.00412574,0.00036761,-0.0
 0158696,0.00020915,-0.00002023,-0.00000103,-0.00907633,0.00334909,-0.0
 2892121,-0.00036960,0.00002611,0.00014545,-0.00052976,-0.00011315,-0.0
 0040621,0.00008302,0.00000144,-0.00000709,0.03089802,-0.00559025,0.569
 56061,-0.00000034,-0.00000357,-0.00004254,-0.00009580,-0.00000245,-0.0
 0004061,0.00023478,0.00000915,0.00001105,-0.00009622,-0.00000223,0.000
 05225,-0.00000306,-0.00000602,0.00003778,-0.00009165,-0.00000026,-0.00
 000005,-0.00002476,0.00000232,0.00002150,0.00003183,0.00001084,-0.0000
 2007,0.00002880,0.00000303,0.00001699,-0.00002565,0.00000389,-0.000020
 96,-0.00010209,-0.00002026,-0.00002562,0.00001301,-0.00000185,-0.00012
 209,0.00065052,-0.00134041,-0.00046553,0.00160183,0.00049292,-0.000903
 34,0.00001035,0.00022473,-0.00058297,-0.00561666,0.02610238,-0.0112815
 4,0.00023671,0.00071287,0.00026876,-0.00067266,-0.00128583,-0.00111218
 ,0.00003853,0.00020512,-0.00005172,-0.00272672,0.00058631,0.00133889,-
 0.00007212,-0.00002714,-0.00026823,0.00051164,0.00098463,-0.00053173,-
 0.00002612,0.00000223,-0.00000066,-0.09988632,0.06230960,-0.01748125,0
 .11091560,-0.00000002,0.00002164,0.00003956,0.00011539,0.00001078,0.00
 005274,-0.00025093,-0.00001159,-0.00002205,0.00010380,0.00000722,-0.00
 005303,0.00000267,0.00001335,-0.00003741,0.00009983,0.00000093,0.00000
 111,0.00002813,-0.00001157,-0.00002242,-0.00003292,-0.00003806,0.00001
 455,-0.00002892,-0.00001394,-0.00001829,0.00002587,-0.00000974,0.00001
 934,0.00019289,0.00004635,-0.00000187,0.00004964,0.00011823,0.00030642
 ,0.00029473,0.00096474,0.00093478,-0.00164101,-0.00114811,0.00262881,0
 .00040869,-0.00023435,0.00014626,0.01672629,-0.01686649,0.00856921,-0.
 00020676,-0.00086173,-0.00031529,0.00039726,0.00091227,0.00061904,-0.0
 0000439,-0.00017523,0.00006593,0.00165184,0.00105350,-0.00120469,0.000
 02974,-0.00010243,0.00023451,-0.00042948,-0.00112787,-0.00002661,0.000
 02473,-0.00000753,-0.00000015,0.06133829,-0.19224289,0.03276233,-0.096
 70594,0.31203638,0.00000554,-0.00000192,-0.00003324,-0.00015090,0.0000
 0317,-0.00010120,0.00029274,0.00001590,0.00001037,-0.00010890,-0.00001
 084,0.00005596,-0.00000089,0.00000154,0.00005720,-0.00011793,-0.000001
 16,-0.00000437,-0.00003818,0.00000011,0.00002413,0.00002971,0.00000568
 ,-0.00001051,0.00003070,-0.00000136,0.00002444,-0.00002526,0.00000222,
 -0.00001885,-0.00020738,0.00000452,0.00004425,0.00000912,-0.00011513,-
 0.00026422,-0.00027511,-0.00148410,-0.00129811,0.00262166,0.00188608,-
 0.00251965,-0.00115294,0.00014574,-0.00001354,-0.01949493,0.02780490,-
 0.00180824,-0.00044486,0.00063747,0.00009975,-0.00000942,-0.00076454,0
 .00073622,-0.00003723,0.00011840,-0.00000978,-0.00114915,0.00019243,0.
 00051187,0.00004472,0.00002636,-0.00010068,0.00004033,0.00024082,0.000
 04098,-0.00002440,0.00000101,0.00000116,-0.01718586,0.03182907,-0.0815
 6126,0.00769724,-0.02338013,0.07188302,-0.00000528,0.00000284,-0.00003
 253,0.00002857,-0.00001555,0.00005596,0.00002155,0.00000088,0.00000240
 ,-0.00002476,-0.00000508,0.00002369,-0.00000251,0.00000070,-0.00000832
 ,-0.00000829,-0.00000189,0.00000389,0.00000607,0.00000160,0.00000544,0
 .00001830,0.00000842,-0.00001942,0.00000666,0.00000243,-0.00000544,-0.
 00001024,0.00000180,-0.00001031,0.00010215,0.00001029,-0.00003299,-0.0
 0003834,-0.00000737,0.00005628,0.00172904,-0.00023882,-0.00008345,-0.0
 0483440,-0.00064020,-0.00181752,0.00024031,0.00007403,-0.00045617,0.00
 705496,0.00039876,-0.00279975,0.00088558,0.00021693,-0.00304669,0.0000
 5620,0.00009442,-0.00084793,0.00013997,0.00003483,-0.00015650,-0.00051
 168,0.00019560,-0.00019654,-0.00001401,-0.00000601,-0.00006794,0.00038
 504,-0.00001409,-0.00059725,-0.00001154,0.00000132,-0.00000296,-0.1104
 0886,0.01239084,0.07150502,-0.01951588,0.03466801,0.02732666,0.1748206
 6,0.00000087,0.00000680,0.00000448,-0.00000696,0.00001488,-0.00000824,
 0.00000407,0.00000347,0.00000068,0.00000056,0.00000700,-0.00000139,-0.
 00000007,0.00000101,0.00000196,-0.00000143,0.00000257,-0.00000056,-0.0
 0000185,-0.00000598,-0.00000079,-0.00000177,-0.00001965,0.00000142,-0.
 00000041,-0.00000666,0.00000071,0.00000092,-0.00000345,0.00000090,-0.0
 0002162,-0.00001297,0.00001375,0.00000078,0.00004978,-0.00000891,-0.00
 015360,0.00005371,-0.00014746,0.00061449,0.00030515,0.00029039,-0.0002
 0687,0.00000292,0.00018199,0.00154093,0.00846523,-0.00023964,-0.000197
 42,-0.00034481,-0.00006556,0.00050952,-0.00048228,0.00010758,-0.000014
 29,-0.00001294,0.00001047,-0.00048525,0.00167348,-0.00042636,-0.000030
 57,-0.00017699,-0.00004342,-0.00003828,-0.00008586,-0.00001822,0.00000
 128,-0.00000322,0.00000018,0.01101140,-0.07354308,-0.02359706,0.039332
 77,-0.02707328,-0.03813495,-0.02945751,0.08302288,0.00000983,0.0000054
 5,-0.00003303,-0.00021948,0.00002874,-0.00020573,0.00036232,-0.0000065
 1,-0.00001353,-0.00013081,-0.00000473,0.00007676,-0.00000159,-0.000004
 67,0.00009939,-0.00016911,0.00000250,-0.00000735,-0.00006077,-0.000005
 53,0.00003020,0.00002920,-0.00001126,-0.00000065,0.00003744,-0.0000065
 1,0.00003756,-0.00002749,-0.00000002,-0.00001903,-0.00020016,0.0000151
 6,0.00007766,-0.00010710,-0.00002804,-0.00006602,0.00056826,0.00036175
 ,-0.00002039,0.00240276,0.00021429,-0.00186224,-0.00016683,-0.00007570
 ,-0.00023441,0.02861954,-0.00747029,-0.04084951,-0.00245657,-0.0004325
 6,-0.00189814,0.00180764,0.00082105,-0.00180061,-0.00015269,-0.0000667
 5,-0.00000866,-0.00908281,-0.00073931,-0.00387901,-0.00051256,0.000165
 35,-0.00079994,0.00008117,-0.00022480,0.00061975,-0.00002537,-0.000001
 82,0.00000404,0.06056589,-0.02194308,-0.21342676,0.01950599,-0.0261067
 6,0.00089460,-0.13255301,0.04137517,0.26566190,0.00000154,0.00001406,-
 0.00005483,-0.00013038,0.00000886,-0.00004073,0.00032347,-0.00000990,0
 .00003667,-0.00013430,-0.00000074,0.00007463,-0.00000238,-0.00000297,0
 .00004037,-0.00011685,0.00000241,0.00000077,-0.00003085,-0.00000619,0.
 00002754,0.00004506,-0.00000924,-0.00003230,0.00003816,-0.00000685,0.0
 0001988,-0.00003591,-0.00000028,-0.00002902,-0.00019739,-0.00004551,-0
 .00001729,-0.00008073,0.00026403,-0.00047253,-0.00028262,0.00154767,-0
 .00038256,0.00172267,-0.00138898,-0.00497942,-0.00048969,-0.00018502,-
 0.00024072,-0.02899714,-0.02400056,-0.00786509,0.00066918,-0.00066515,
 0.00035704,0.00009452,0.00109451,-0.00060808,0.00010774,-0.00015637,-0
 .00013198,-0.00276328,0.00067498,0.00234172,-0.00004850,-0.00005436,-0
 .00028171,0.00110039,-0.00095459,-0.00137527,-0.00003546,-0.00000221,-
 0.00000182,-0.17773079,-0.07775537,-0.02698253,0.01468242,-0.01685744,
 0.00232495,-0.05010927,-0.02239967,0.03187629,0.24240042,-0.00000277,0
 .00001503,-0.00001711,-0.00003734,0.00000796,-0.00000642,0.00008899,-0
 .00000474,0.00001984,-0.00004382,0.00000105,0.00002906,-0.00000218,0.0
 0000733,0.00000880,-0.00003422,0.00000142,0.00000119,-0.00000882,-0.00
 000812,0.00000815,0.00001595,-0.00001912,-0.00001461,0.00001270,-0.000
 01046,0.00000455,-0.00001269,-0.00000430,-0.00001035,-0.00004405,0.000
 02530,-0.00000893,-0.00016458,0.00007076,-0.00028156,-0.00040718,-0.00
 010524,0.00055934,-0.00006344,-0.00000532,-0.00300254,0.00025609,-0.00
 004487,-0.00016965,-0.01316366,0.00072042,-0.00035404,0.00028836,-0.00
 011614,0.00008720,-0.00015895,0.00025176,-0.00050946,0.00005190,-0.000
 03680,-0.00006145,-0.00064410,0.00112703,0.00169970,-0.00002751,-0.000
 07809,-0.00012124,0.00040514,-0.00071870,-0.00046970,-0.00001224,-0.00
 000435,-0.00000130,-0.07788240,-0.12467555,-0.01870982,-0.03158684,-0.
 07526058,0.00097872,-0.01771718,0.00816229,0.01413885,0.14089486,0.190
 70202,0.00000355,0.00000900,-0.00003027,-0.00013879,0.00000977,-0.0000
 9478,0.00025942,-0.00001945,0.00001915,-0.00010007,-0.00000234,0.00005
 757,-0.00000209,-0.00000625,0.00005093,-0.00010767,0.00000102,-0.00000
 323,-0.00003478,-0.00000278,0.00002159,0.00002670,-0.00000442,-0.00001
 065,0.00002781,-0.00000216,0.00002097,-0.00002371,0.00000082,-0.000017
 58,-0.00018433,-0.00000038,0.00004402,-0.00015769,0.00017624,-0.000390
 67,-0.00097961,0.00108679,-0.00033119,0.00139509,-0.00107999,-0.004744
 12,-0.00092130,-0.00003558,0.00000717,-0.02882374,-0.01638641,0.002330
 44,-0.00039709,-0.00037535,0.00008998,-0.00022440,-0.00008920,0.001065
 35,-0.00008622,-0.00001683,-0.00002855,-0.00073789,-0.00074759,-0.0018
 1222,0.00006348,-0.00004850,-0.00005152,-0.00116801,-0.00016402,-0.000
 47275,-0.00002223,-0.00000070,0.00000098,-0.02181846,-0.01400143,-0.08
 156191,0.00400066,0.00479410,0.01335970,0.04375537,0.02070286,-0.00237
 687,0.00639603,0.00620278,0.07485845\\0.00000159,0.00000045,-0.0000002
 5,-0.00000201,-0.00000004,0.00000010,0.00000063,0.00000092,-0.00000483
 ,0.00000183,-0.00000056,0.00000341,0.00000012,0.00000014,0.00000019,0.
 00000048,-0.00000045,-0.00000022,-0.00000027,0.00000002,-0.00000055,0.
 00000060,-0.00000001,-0.00000022,-0.00000029,-0.00000051,-0.00000089,0
 .00000062,-0.00000032,-0.00000045,0.00000227,0.00000021,0.00000075,-0.
 00000684,-0.00000056,0.00000082,-0.00000021,0.00000008,0.00000037,0.00
 000231,0.00000078,0.00000176,0.00000179,-0.00000007,0.00000015,0.00000
 593,-0.00000398,-0.00000165,-0.00000044,0.00000024,0.00000223,-0.00000
 112,0.00000067,0.00000015,-0.00000002,-0.00000045,-0.00000023,-0.00000
 074,0.00000040,-0.00000097,-0.00000012,-0.00000029,0.00000025,-0.00000
 101,-0.00000066,0.00000050,0.00000003,0.00000053,-0.00000020,0.0000020
 6,0.00000509,-0.00000364,-0.00000298,-0.00000254,0.00000122,-0.0000016
 2,-0.00000016,-0.00000097,-0.00000256,0.00000108,0.00000319\\\@


 THE VALUE OF PHILOSOPHY IS, IN FACT, TO BE SOUGHT LARGELY IN ITS
 VERY UNCERTAINTY.  THE MAN WHO HAS NO TINCTURE OF PHILOSOPHY GOES
 THROUGH LIFE IMPRISONED IN THE PREJUDICES DERIVED FROM COMMON SENSE,
 FROM THE HABITUAL BELIEFS OF HIS AGE OR HIS NATION, AND FROM
 CONVICTIONS WHICH HAVE GROWN UP IN HIS MIND WITHOUT THE CO-OPERATION
 OR CONSENT OF HIS DELIBERATE REASON.  TO SUCH A MAN THE WORLD TENDS
 TO BE DEFINITE, FINITE, OBVIOUS; COMMON OBJECTS ROUSE NO QUESTIONS,
 AND UNFAMILIAR POSSIBILITIES ARE CONTEMPTUOUSLY REJECTED.

                             -- BERTRAND RUSSELL
 Job cpu time:       0 days  2 hours 34 minutes 28.6 seconds.
 Elapsed time:       0 days  0 hours  5 minutes  9.0 seconds.
 File lengths (MBytes):  RWF=    369 Int=      0 D2E=      0 Chk=     12 Scr=      1
 Normal termination of Gaussian 16 at Sat Sep 16 12:54:51 2023.
