 Entering Gaussian System, Link 0=/home/ubuntu/g16/g16
 Input=/home/ubuntu/products/MOLECULE_5.gjf
 Output=/home/ubuntu/products/MOLECULE_5.log
 Initial command:
 /home/ubuntu/g16/l1.exe "/home/ubuntu/Scratch/Gau-13724.inp" -scrdir="/home/ubuntu/Scratch/"
 Entering Link 1 = /home/ubuntu/g16/l1.exe PID=     13726.
  
 Copyright (c) 1988-2017, Gaussian, Inc.  All Rights Reserved.
  
 This is part of the Gaussian(R) 16 program.  It is based on
 the Gaussian(R) 09 system (copyright 2009, Gaussian, Inc.),
 the Gaussian(R) 03 system (copyright 2003, Gaussian, Inc.),
 the Gaussian(R) 98 system (copyright 1998, Gaussian, Inc.),
 the Gaussian(R) 94 system (copyright 1995, Gaussian, Inc.),
 the Gaussian 92(TM) system (copyright 1992, Gaussian, Inc.),
 the Gaussian 90(TM) system (copyright 1990, Gaussian, Inc.),
 the Gaussian 88(TM) system (copyright 1988, Gaussian, Inc.),
 the Gaussian 86(TM) system (copyright 1986, Carnegie Mellon
 University), and the Gaussian 82(TM) system (copyright 1983,
 Carnegie Mellon University). Gaussian is a federally registered
 trademark of Gaussian, Inc.
  
 This software contains proprietary and confidential information,
 including trade secrets, belonging to Gaussian, Inc.
  
 This software is provided under written license and may be
 used, copied, transmitted, or stored only in accord with that
 written license.
  
 The following legend is applicable only to US Government
 contracts under FAR:
  
                    RESTRICTED RIGHTS LEGEND
  
 Use, reproduction and disclosure by the US Government is
 subject to restrictions as set forth in subparagraphs (a)
 and (c) of the Commercial Computer Software - Restricted
 Rights clause in FAR 52.227-19.
  
 Gaussian, Inc.
 340 Quinnipiac St., Bldg. 40, Wallingford CT 06492
  
  
 ---------------------------------------------------------------
 Warning -- This program may not be used in any manner that
 competes with the business of Gaussian, Inc. or will provide
 assistance to any competitor of Gaussian, Inc.  The licensee
 of this program is prohibited from giving any competitor of
 Gaussian, Inc. access to this program.  By using this program,
 the user acknowledges that Gaussian, Inc. is engaged in the
 business of creating and licensing software in the field of
 computational chemistry and represents and warrants to the
 licensee that it is not a competitor of Gaussian, Inc. and that
 it will not use this program in any manner prohibited above.
 ---------------------------------------------------------------
  

 Cite this work as:
 Gaussian 16, Revision B.01,
 M. J. Frisch, G. W. Trucks, H. B. Schlegel, G. E. Scuseria, 
 M. A. Robb, J. R. Cheeseman, G. Scalmani, V. Barone, 
 G. A. Petersson, H. Nakatsuji, X. Li, M. Caricato, A. V. Marenich, 
 J. Bloino, B. G. Janesko, R. Gomperts, B. Mennucci, H. P. Hratchian, 
 J. V. Ortiz, A. F. Izmaylov, J. L. Sonnenberg, D. Williams-Young, 
 F. Ding, F. Lipparini, F. Egidi, J. Goings, B. Peng, A. Petrone, 
 T. Henderson, D. Ranasinghe, V. G. Zakrzewski, J. Gao, N. Rega, 
 G. Zheng, W. Liang, M. Hada, M. Ehara, K. Toyota, R. Fukuda, 
 J. Hasegawa, M. Ishida, T. Nakajima, Y. Honda, O. Kitao, H. Nakai, 
 T. Vreven, K. Throssell, J. A. Montgomery, Jr., J. E. Peralta, 
 F. Ogliaro, M. J. Bearpark, J. J. Heyd, E. N. Brothers, K. N. Kudin, 
 V. N. Staroverov, T. A. Keith, R. Kobayashi, J. Normand, 
 K. Raghavachari, A. P. Rendell, J. C. Burant, S. S. Iyengar, 
 J. Tomasi, M. Cossi, J. M. Millam, M. Klene, C. Adamo, R. Cammi, 
 J. W. Ochterski, R. L. Martin, K. Morokuma, O. Farkas, 
 J. B. Foresman, and D. J. Fox, Gaussian, Inc., Wallingford CT, 2016.
 
 ******************************************
 Gaussian 16:  EM64L-G16RevB.01 20-Dec-2017
                17-Sep-2023 
 ******************************************
 %nprocshared=30
 Will use up to   30 processors via shared memory.
 %mem=30GB
 %chk=MOLECULE_5.chk
 ----------------------------------------------------------------------
 # opt freq b3lyp/6-31+g(d) geom=connectivity empiricaldispersion=gd3 v
 olume
 ----------------------------------------------------------------------
 1/18=20,19=15,26=3,38=1,57=2/1,3;
 2/9=110,12=2,17=6,18=5,40=1/2;
 3/5=1,6=6,7=11,11=2,25=1,30=1,71=1,74=-5,124=31/1,2,3;
 4//1;
 5/5=2,38=5/2;
 6/7=2,8=2,9=2,10=2,28=1,44=1/1,4;
 7//1,2,3,16;
 1/18=20,19=15,26=3/3(2);
 2/9=110/2;
 99//99;
 2/9=110/2;
 3/5=1,6=6,7=11,11=2,25=1,30=1,71=1,74=-5,124=31/1,2,3;
 4/5=5,16=3,69=1/1;
 5/5=2,38=5/2;
 7//1,2,3,16;
 1/18=20,19=15,26=3/3(-5);
 2/9=110/2;
 6/7=2,8=2,9=2,10=2,19=2,28=1,44=1/1,4;
 99/9=1/99;
 -------------------
 Title Card Required
 -------------------
 Symbolic Z-matrix:
 Charge =  0 Multiplicity = 1
 C                     3.68964   1.2134   -0.23274 
 C                     2.29786   1.21408  -0.17933 
 C                     1.57855   0.00051  -0.14923 
 C                     2.29821  -1.21285  -0.17985 
 C                     3.68998  -1.21175  -0.2333 
 C                     4.3866    0.00095  -0.25877 
 H                     4.248     2.14459  -0.26832 
 H                     1.75329   2.15368  -0.16522 
 H                     1.75392  -2.15261  -0.1662 
 H                     4.24853  -2.1428   -0.26942 
 C                     0.15467   0.00026  -0.09715 
 C                    -1.06207   0.00016  -0.05186 
 C                    -2.486    -0.00002  -0.00246 
 C                    -3.20834  -1.21057   0.02356 
 C                    -3.20854   1.21038   0.02479 
 C                    -4.60033  -1.20284   0.07271 
 H                    -2.66686  -2.15216   0.00796 
 C                    -4.60054   1.20237   0.07394 
 H                    -2.66722   2.15208   0.01017 
 C                    -5.32342  -0.00031   0.09569 
 H                    -5.13675  -2.14932   0.09496 
 H                    -5.13712   2.14874   0.09717 
 C                    -6.83402  -0.00047   0.11114 
 H                    -7.23692  -0.00051  -0.91107 
 H                    -7.23067  -0.88732   0.61804 
 H                    -7.23087   0.88628   0.61807 
 O                     5.76391   0.00137  -0.35533 
 C                     6.44404  -0.00313   0.90353 
 H                     6.19059  -0.90072   1.4847 
 H                     7.51264  -0.00222   0.67671 
 H                     6.19036   0.89023   1.49108 
 

 GradGradGradGradGradGradGradGradGradGradGradGradGradGradGradGradGradGrad
 Berny optimization.
 Initialization pass.
                           ----------------------------
                           !    Initial Parameters    !
                           ! (Angstroms and Degrees)  !
 --------------------------                            --------------------------
 ! Name  Definition              Value          Derivative Info.                !
 --------------------------------------------------------------------------------
 ! R1    R(1,2)                  1.3928         estimate D2E/DX2                !
 ! R2    R(1,6)                  1.3987         estimate D2E/DX2                !
 ! R3    R(1,7)                  1.0863         estimate D2E/DX2                !
 ! R4    R(2,3)                  1.411          estimate D2E/DX2                !
 ! R5    R(2,8)                  1.0861         estimate D2E/DX2                !
 ! R6    R(3,4)                  1.4111         estimate D2E/DX2                !
 ! R7    R(3,11)                 1.4248         estimate D2E/DX2                !
 ! R8    R(4,5)                  1.3928         estimate D2E/DX2                !
 ! R9    R(4,9)                  1.0861         estimate D2E/DX2                !
 ! R10   R(5,6)                  1.3988         estimate D2E/DX2                !
 ! R11   R(5,10)                 1.0863         estimate D2E/DX2                !
 ! R12   R(6,27)                 1.3807         estimate D2E/DX2                !
 ! R13   R(11,12)                1.2176         estimate D2E/DX2                !
 ! R14   R(12,13)                1.4248         estimate D2E/DX2                !
 ! R15   R(13,14)                1.4099         estimate D2E/DX2                !
 ! R16   R(13,15)                1.4099         estimate D2E/DX2                !
 ! R17   R(14,16)                1.3929         estimate D2E/DX2                !
 ! R18   R(14,17)                1.0863         estimate D2E/DX2                !
 ! R19   R(15,18)                1.3929         estimate D2E/DX2                !
 ! R20   R(15,19)                1.0863         estimate D2E/DX2                !
 ! R21   R(16,20)                1.4034         estimate D2E/DX2                !
 ! R22   R(16,21)                1.0882         estimate D2E/DX2                !
 ! R23   R(18,20)                1.4034         estimate D2E/DX2                !
 ! R24   R(18,22)                1.0882         estimate D2E/DX2                !
 ! R25   R(20,23)                1.5107         estimate D2E/DX2                !
 ! R26   R(23,24)                1.0987         estimate D2E/DX2                !
 ! R27   R(23,25)                1.0958         estimate D2E/DX2                !
 ! R28   R(23,26)                1.0958         estimate D2E/DX2                !
 ! R29   R(27,28)                1.4308         estimate D2E/DX2                !
 ! R30   R(28,29)                1.0989         estimate D2E/DX2                !
 ! R31   R(28,30)                1.0924         estimate D2E/DX2                !
 ! R32   R(28,31)                1.0989         estimate D2E/DX2                !
 ! A1    A(2,1,6)              119.9366         estimate D2E/DX2                !
 ! A2    A(2,1,7)              120.9604         estimate D2E/DX2                !
 ! A3    A(6,1,7)              119.0978         estimate D2E/DX2                !
 ! A4    A(1,2,3)              120.65           estimate D2E/DX2                !
 ! A5    A(1,2,8)              120.1286         estimate D2E/DX2                !
 ! A6    A(3,2,8)              119.2208         estimate D2E/DX2                !
 ! A7    A(2,3,4)              118.6266         estimate D2E/DX2                !
 ! A8    A(2,3,11)             120.6871         estimate D2E/DX2                !
 ! A9    A(4,3,11)             120.6852         estimate D2E/DX2                !
 ! A10   A(3,4,5)              120.6498         estimate D2E/DX2                !
 ! A11   A(3,4,9)              119.2205         estimate D2E/DX2                !
 ! A12   A(5,4,9)              120.129          estimate D2E/DX2                !
 ! A13   A(4,5,6)              119.9365         estimate D2E/DX2                !
 ! A14   A(4,5,10)             120.9555         estimate D2E/DX2                !
 ! A15   A(6,5,10)             119.1027         estimate D2E/DX2                !
 ! A16   A(1,6,5)              120.1999         estimate D2E/DX2                !
 ! A17   A(1,6,27)             119.8737         estimate D2E/DX2                !
 ! A18   A(5,6,27)             119.8905         estimate D2E/DX2                !
 ! A19   A(12,13,14)           120.8483         estimate D2E/DX2                !
 ! A20   A(12,13,15)           120.8453         estimate D2E/DX2                !
 ! A21   A(14,13,15)           118.3063         estimate D2E/DX2                !
 ! A22   A(13,14,16)           120.5232         estimate D2E/DX2                !
 ! A23   A(13,14,17)           119.2475         estimate D2E/DX2                !
 ! A24   A(16,14,17)           120.229          estimate D2E/DX2                !
 ! A25   A(13,15,18)           120.5233         estimate D2E/DX2                !
 ! A26   A(13,15,19)           119.2472         estimate D2E/DX2                !
 ! A27   A(18,15,19)           120.2292         estimate D2E/DX2                !
 ! A28   A(14,16,20)           121.349          estimate D2E/DX2                !
 ! A29   A(14,16,21)           119.2455         estimate D2E/DX2                !
 ! A30   A(20,16,21)           119.4055         estimate D2E/DX2                !
 ! A31   A(15,18,20)           121.3486         estimate D2E/DX2                !
 ! A32   A(15,18,22)           119.2457         estimate D2E/DX2                !
 ! A33   A(20,18,22)           119.4056         estimate D2E/DX2                !
 ! A34   A(16,20,18)           117.9488         estimate D2E/DX2                !
 ! A35   A(16,20,23)           121.0174         estimate D2E/DX2                !
 ! A36   A(18,20,23)           121.0191         estimate D2E/DX2                !
 ! A37   A(20,23,24)           110.9255         estimate D2E/DX2                !
 ! A38   A(20,23,25)           111.5171         estimate D2E/DX2                !
 ! A39   A(20,23,26)           111.5174         estimate D2E/DX2                !
 ! A40   A(24,23,25)           107.3132         estimate D2E/DX2                !
 ! A41   A(24,23,26)           107.3141         estimate D2E/DX2                !
 ! A42   A(25,23,26)           108.0491         estimate D2E/DX2                !
 ! A43   A(6,27,28)            114.371          estimate D2E/DX2                !
 ! A44   A(27,28,29)           110.9915         estimate D2E/DX2                !
 ! A45   A(27,28,30)           106.3976         estimate D2E/DX2                !
 ! A46   A(27,28,31)           110.9839         estimate D2E/DX2                !
 ! A47   A(29,28,30)           109.6389         estimate D2E/DX2                !
 ! A48   A(29,28,31)           109.1471         estimate D2E/DX2                !
 ! A49   A(30,28,31)           109.6416         estimate D2E/DX2                !
 ! A50   L(3,11,12,8,-1)       179.9953         estimate D2E/DX2                !
 ! A51   L(11,12,13,17,-1)     179.9977         estimate D2E/DX2                !
 ! A52   L(3,11,12,8,-2)       180.0462         estimate D2E/DX2                !
 ! A53   L(11,12,13,17,-2)     180.1805         estimate D2E/DX2                !
 ! D1    D(6,1,2,3)              0.0847         estimate D2E/DX2                !
 ! D2    D(6,1,2,8)           -179.6198         estimate D2E/DX2                !
 ! D3    D(7,1,2,3)            179.2474         estimate D2E/DX2                !
 ! D4    D(7,1,2,8)             -0.4571         estimate D2E/DX2                !
 ! D5    D(2,1,6,5)              0.093          estimate D2E/DX2                !
 ! D6    D(2,1,6,27)           177.9094         estimate D2E/DX2                !
 ! D7    D(7,1,6,5)           -179.0853         estimate D2E/DX2                !
 ! D8    D(7,1,6,27)            -1.2689         estimate D2E/DX2                !
 ! D9    D(1,2,3,4)             -0.2544         estimate D2E/DX2                !
 ! D10   D(1,2,3,11)          -179.8804         estimate D2E/DX2                !
 ! D11   D(8,2,3,4)            179.4528         estimate D2E/DX2                !
 ! D12   D(8,2,3,11)            -0.1733         estimate D2E/DX2                !
 ! D13   D(2,3,4,5)              0.2519         estimate D2E/DX2                !
 ! D14   D(2,3,4,9)           -179.4485         estimate D2E/DX2                !
 ! D15   D(11,3,4,5)           179.878          estimate D2E/DX2                !
 ! D16   D(11,3,4,9)             0.1776         estimate D2E/DX2                !
 ! D17   D(2,3,13,14)          179.8024         estimate D2E/DX2                !
 ! D18   D(2,3,13,15)           -0.2499         estimate D2E/DX2                !
 ! D19   D(4,3,13,14)            0.2157         estimate D2E/DX2                !
 ! D20   D(4,3,13,15)         -179.8367         estimate D2E/DX2                !
 ! D21   D(3,4,5,6)             -0.0797         estimate D2E/DX2                !
 ! D22   D(3,4,5,10)          -179.2388         estimate D2E/DX2                !
 ! D23   D(9,4,5,6)            179.6179         estimate D2E/DX2                !
 ! D24   D(9,4,5,10)             0.4588         estimate D2E/DX2                !
 ! D25   D(4,5,6,1)             -0.0954         estimate D2E/DX2                !
 ! D26   D(4,5,6,27)          -177.9115         estimate D2E/DX2                !
 ! D27   D(10,5,6,1)           179.0792         estimate D2E/DX2                !
 ! D28   D(10,5,6,27)            1.2631         estimate D2E/DX2                !
 ! D29   D(1,6,27,28)           91.2817         estimate D2E/DX2                !
 ! D30   D(5,6,27,28)          -90.8951         estimate D2E/DX2                !
 ! D31   D(12,13,14,16)        179.959          estimate D2E/DX2                !
 ! D32   D(12,13,14,17)          0.147          estimate D2E/DX2                !
 ! D33   D(15,13,14,16)          0.1044         estimate D2E/DX2                !
 ! D34   D(15,13,14,17)       -179.7076         estimate D2E/DX2                !
 ! D35   D(12,13,15,18)       -179.9586         estimate D2E/DX2                !
 ! D36   D(12,13,15,19)         -0.1479         estimate D2E/DX2                !
 ! D37   D(14,13,15,18)         -0.104          estimate D2E/DX2                !
 ! D38   D(14,13,15,19)        179.7066         estimate D2E/DX2                !
 ! D39   D(13,14,16,20)          0.0973         estimate D2E/DX2                !
 ! D40   D(13,14,16,21)       -179.8248         estimate D2E/DX2                !
 ! D41   D(17,14,16,20)        179.9075         estimate D2E/DX2                !
 ! D42   D(17,14,16,21)         -0.0146         estimate D2E/DX2                !
 ! D43   D(13,15,18,20)         -0.0981         estimate D2E/DX2                !
 ! D44   D(13,15,18,22)        179.824          estimate D2E/DX2                !
 ! D45   D(19,15,18,20)       -179.9069         estimate D2E/DX2                !
 ! D46   D(19,15,18,22)          0.0153         estimate D2E/DX2                !
 ! D47   D(14,16,20,18)         -0.2931         estimate D2E/DX2                !
 ! D48   D(14,16,20,23)        178.3238         estimate D2E/DX2                !
 ! D49   D(21,16,20,18)        179.6289         estimate D2E/DX2                !
 ! D50   D(21,16,20,23)         -1.7542         estimate D2E/DX2                !
 ! D51   D(15,18,20,16)          0.2935         estimate D2E/DX2                !
 ! D52   D(15,18,20,23)       -178.3234         estimate D2E/DX2                !
 ! D53   D(22,18,20,16)       -179.6286         estimate D2E/DX2                !
 ! D54   D(22,18,20,23)          1.7546         estimate D2E/DX2                !
 ! D55   D(16,20,23,24)        -89.258          estimate D2E/DX2                !
 ! D56   D(16,20,23,25)         30.295          estimate D2E/DX2                !
 ! D57   D(16,20,23,26)        151.1876         estimate D2E/DX2                !
 ! D58   D(18,20,23,24)         89.3163         estimate D2E/DX2                !
 ! D59   D(18,20,23,25)       -151.1307         estimate D2E/DX2                !
 ! D60   D(18,20,23,26)        -30.2381         estimate D2E/DX2                !
 ! D61   D(6,27,28,29)          60.7827         estimate D2E/DX2                !
 ! D62   D(6,27,28,30)        -179.998          estimate D2E/DX2                !
 ! D63   D(6,27,28,31)         -60.7796         estimate D2E/DX2                !
 --------------------------------------------------------------------------------
 Trust Radius=3.00D-01 FncErr=1.00D-07 GrdErr=1.00D-06 EigMax=2.50D+02 EigMin=1.00D-04
 Number of steps in this run=    158 maximum allowed number of steps=    186.
 GradGradGradGradGradGradGradGradGradGradGradGradGradGradGradGradGradGrad

                          Input orientation:                          
 ---------------------------------------------------------------------
 Center     Atomic      Atomic             Coordinates (Angstroms)
 Number     Number       Type             X           Y           Z
 ---------------------------------------------------------------------
      1          6           0        3.689638    1.213403   -0.232735
      2          6           0        2.297856    1.214076   -0.179332
      3          6           0        1.578554    0.000506   -0.149230
      4          6           0        2.298212   -1.212849   -0.179846
      5          6           0        3.689980   -1.211746   -0.233300
      6          6           0        4.386596    0.000947   -0.258772
      7          1           0        4.247996    2.144585   -0.268324
      8          1           0        1.753294    2.153679   -0.165221
      9          1           0        1.753915   -2.152614   -0.166204
     10          1           0        4.248527   -2.142799   -0.269421
     11          6           0        0.154672    0.000264   -0.097152
     12          6           0       -1.062065    0.000160   -0.051863
     13          6           0       -2.486003   -0.000022   -0.002462
     14          6           0       -3.208337   -1.210566    0.023562
     15          6           0       -3.208545    1.210380    0.024794
     16          6           0       -4.600326   -1.202842    0.072708
     17          1           0       -2.666858   -2.152161    0.007959
     18          6           0       -4.600536    1.202374    0.073940
     19          1           0       -2.667220    2.152077    0.010165
     20          6           0       -5.323417   -0.000305    0.095686
     21          1           0       -5.136750   -2.149323    0.094960
     22          1           0       -5.137121    2.148741    0.097167
     23          6           0       -6.834018   -0.000466    0.111143
     24          1           0       -7.236918   -0.000505   -0.911065
     25          1           0       -7.230675   -0.887317    0.618040
     26          1           0       -7.230869    0.886280    0.618066
     27          8           0        5.763911    0.001373   -0.355327
     28          6           0        6.444039   -0.003134    0.903527
     29          1           0        6.190593   -0.900724    1.484700
     30          1           0        7.512638   -0.002219    0.676712
     31          1           0        6.190363    0.890228    1.491082
 ---------------------------------------------------------------------
                    Distance matrix (angstroms):
                    1          2          3          4          5
     1  C    0.000000
     2  C    1.392806   0.000000
     3  C    2.436138   1.411047   0.000000
     4  C    2.797421   2.426925   1.411055   0.000000
     5  C    2.425149   2.797416   2.436133   1.392795   0.000000
     6  C    1.398742   2.416780   2.810178   2.416791   1.398766
     7  H    1.086338   2.162594   3.425957   3.883536   3.402582
     8  H    2.153626   1.086094   2.160311   3.410375   3.883487
     9  H    3.883493   3.410373   2.160316   1.086096   2.153621
    10  H    3.402616   3.883535   3.425924   2.162535   1.086342
    11  C    3.739796   2.464413   1.424834   2.464395   3.739774
    12  C    4.907479   3.574760   2.642414   3.574805   4.907501
    13  C    6.297934   4.938686   4.067206   4.938737   6.297962
    14  C    7.315967   6.019819   4.940737   5.510305   6.903098
    15  C    6.902989   5.510184   4.940688   6.019825   7.315938
    16  C    8.640315   7.313681   6.298878   6.903167   8.295956
    17  H    7.196527   6.001251   4.762584   5.056629   6.430550
    18  C    8.295852   6.903050   6.298845   7.313715   8.640314
    19  H    6.430377   5.056455   4.762485   6.001195   7.196428
    20  C    9.100336   7.722316   6.906315   7.722397   9.100393
    21  H    9.450949   8.164622   7.055261   7.498744   8.882453
    22  H    8.882306   7.498595   7.055205   8.164631   9.450915
    23  C   10.599012   9.216866   8.416600   9.216950  10.599074
    24  H   11.014687   9.639635   8.848330   9.639666  11.014698
    25  H   11.153030   9.790023   8.887038   9.567773  10.958592
    26  H   10.958483   9.567648   8.887028   9.790117  11.153093
    27  O    2.405547   3.676297   4.190428   3.676438   2.405772
    28  C    3.218350   4.454775   4.978077   4.452526   3.215270
    29  H    3.697823   4.732313   4.975223   4.244852   3.049807
    30  H    4.113412   5.422742   5.991289   5.421213   4.111422
    31  H    3.054441   4.248149   4.975039   4.729035   3.693738
                    6          7          8          9         10
     6  C    0.000000
     7  H    2.148135   0.000000
     8  H    3.402541   2.496848   0.000000
     9  H    3.402558   4.969586   4.306293   0.000000
    10  H    2.148214   4.287384   4.969584   2.496766   0.000000
    11  C    4.235009   4.624145   2.682801   2.682765   4.624072
    12  C    5.452588   5.730808   3.546370   3.546442   5.730793
    13  C    6.877377   7.072253   4.757789   4.757874   7.072245
    14  C    7.696134   8.181634   5.997630   5.054445   7.520620
    15  C    7.696058   7.520549   5.054282   5.997684   8.181583
    16  C    9.073244   9.466487   7.189668   6.429271   8.905210
    17  H    7.379582   8.145770   6.173167   4.424202   6.920952
    18  C    9.073184   8.905135   6.429101   7.189761   9.466467
    19  H    7.379431   6.920825   4.423992   6.173160   8.145654
    20  C    9.716481   9.815549   7.401862   7.402003   9.815584
    21  H    9.769489  10.326814   8.127498   6.895613   9.392350
    22  H    9.769386   9.392232   6.895411   8.127570  10.326766
    23  C   11.226710  11.294081   8.857688   8.857836  11.294123
    24  H   11.641803  11.701187   9.274735   9.274776  11.701136
    25  H   11.684126  11.905375   9.516977   9.107078  11.581705
    26  H   11.684098  11.581596   9.106867   9.517158  11.905439
    27  O    1.380695   2.626581   4.555613   4.555820   2.627022
    28  C    2.363055   3.287634   5.272301   5.268952   3.282415
    29  H    2.665916   4.015057   5.633936   4.896614   2.896776
    30  H    3.263017   4.019919   6.206995   6.204643   4.016425
    31  H    2.665780   2.905462   4.901758   5.629170   4.008659
                   11         12         13         14         15
    11  C    0.000000
    12  C    1.217580   0.000000
    13  C    2.642372   1.424795   0.000000
    14  C    3.576382   2.465366   1.409915   0.000000
    15  C    3.576378   2.465337   1.409923   2.420946   0.000000
    16  C    4.907782   3.739254   2.433678   1.392878   2.786214
    17  H    3.550354   2.685410   2.159750   1.086298   3.405935
    18  C    4.907784   3.739241   2.433689   2.786222   1.392881
    19  H    3.550337   2.685352   2.159752   3.405929   1.086296
    20  C    5.481482   4.263906   2.839111   2.437929   2.437923
    21  H    5.714611   4.609218   3.414007   2.145959   3.874339
    22  H    5.714612   4.609196   3.414020   3.874348   2.145965
    23  C    6.991793   5.774254   4.349499   3.823294   3.823305
    24  H    7.436266   6.234343   4.837019   4.308972   4.309276
    25  H    7.472794   6.268025   4.866644   4.078860   4.574910
    26  H    7.472802   6.268027   4.866656   4.575037   4.078738
    27  O    5.615177   6.832718   8.257457   9.061655   9.061521
    28  C    6.368478   7.566662   8.975883   9.767323   9.768171
    29  H    6.304473   7.468177   8.849081   9.516870   9.743299
    30  H    7.398550   8.605600  10.021682  10.808608  10.809216
    31  H    6.304291   7.467972   8.848873   9.741792   9.517981
                   16         17         18         19         20
    16  C    0.000000
    17  H    2.154924   0.000000
    18  C    2.405216   3.872515   0.000000
    19  H    3.872505   4.304239   2.154928   0.000000
    20  C    1.403383   3.419866   1.403377   3.419860   0.000000
    21  H    1.088151   2.471425   3.394384   4.960626   2.157110
    22  H    3.394386   4.960637   1.088151   2.471435   2.157106
    23  C    2.537039   4.691019   2.537055   4.691039   1.510680
    24  H    3.060235   5.134168   3.060664   5.134629   2.162183
    25  H    2.704751   4.774982   3.403011   5.516570   2.167320
    26  H    3.403175   5.516752   2.704559   4.774796   2.167323
    27  O   10.442737   8.709050  10.442626   8.708793  11.096498
    28  C   11.140357   9.403659  11.141100   9.405215  11.795153
    29  H   10.887099   9.066493  11.084301   9.484445  11.632392
    30  H   12.187297  10.425527  12.187837  10.426638  12.849199
    31  H   11.082946   9.481885  10.888031   9.068746  11.632167
                   21         22         23         24         25
    21  H    0.000000
    22  H    4.298065   0.000000
    23  C    2.738351   2.738384   0.000000
    24  H    3.168629   3.169375   1.098744   0.000000
    25  H    2.500159   3.724503   1.095804   1.767664   0.000000
    26  H    3.724763   2.499785   1.095801   1.767672   1.773597
    27  O   11.119922  11.119732  12.606562  13.012702  13.061259
    28  C   11.805701  11.806949  13.301679  13.800773  13.706243
    29  H   11.480378  11.812772  13.127742  13.669240  13.449227
    30  H   12.843501  12.844411  14.357800  14.834771  14.769974
    31  H   11.810653  11.482106  13.127531  13.669513  13.566360
                   26         27         28         29         30
    26  H    0.000000
    27  O   13.061197   0.000000
    28  C   13.706774   1.430842   0.000000
    29  H   13.567611   2.093212   1.098938   0.000000
    30  H   14.770371   2.030557   1.092405   1.791078   0.000000
    31  H   13.449596   2.093120   1.098940   1.790963   1.791109
                   31
    31  H    0.000000
 Stoichiometry    C16H14O
 Framework group  C1[X(C16H14O)]
 Deg. of freedom    87
 Full point group                 C1      NOp   1
 Largest Abelian subgroup         C1      NOp   1
 Largest concise Abelian subgroup C1      NOp   1
                         Standard orientation:                         
 ---------------------------------------------------------------------
 Center     Atomic      Atomic             Coordinates (Angstroms)
 Number     Number       Type             X           Y           Z
 ---------------------------------------------------------------------
      1          6           0        3.689638    1.213403   -0.232735
      2          6           0        2.297856    1.214076   -0.179332
      3          6           0        1.578554    0.000506   -0.149230
      4          6           0        2.298212   -1.212849   -0.179846
      5          6           0        3.689980   -1.211746   -0.233300
      6          6           0        4.386596    0.000947   -0.258772
      7          1           0        4.247996    2.144585   -0.268324
      8          1           0        1.753294    2.153679   -0.165221
      9          1           0        1.753915   -2.152614   -0.166204
     10          1           0        4.248527   -2.142799   -0.269421
     11          6           0        0.154672    0.000264   -0.097152
     12          6           0       -1.062065    0.000160   -0.051863
     13          6           0       -2.486003   -0.000022   -0.002462
     14          6           0       -3.208337   -1.210566    0.023562
     15          6           0       -3.208545    1.210380    0.024794
     16          6           0       -4.600326   -1.202842    0.072708
     17          1           0       -2.666858   -2.152161    0.007959
     18          6           0       -4.600536    1.202374    0.073940
     19          1           0       -2.667220    2.152077    0.010165
     20          6           0       -5.323417   -0.000305    0.095686
     21          1           0       -5.136750   -2.149323    0.094960
     22          1           0       -5.137121    2.148741    0.097167
     23          6           0       -6.834018   -0.000466    0.111143
     24          1           0       -7.236918   -0.000505   -0.911065
     25          1           0       -7.230675   -0.887317    0.618040
     26          1           0       -7.230869    0.886280    0.618066
     27          8           0        5.763911    0.001373   -0.355327
     28          6           0        6.444039   -0.003134    0.903527
     29          1           0        6.190593   -0.900724    1.484700
     30          1           0        7.512638   -0.002219    0.676712
     31          1           0        6.190363    0.890228    1.491082
 ---------------------------------------------------------------------
 Rotational constants (GHZ):           2.4883893           0.1291876           0.1241474
 Standard basis: 6-31+G(d) (6D, 7F)
 There are   351 symmetry adapted cartesian basis functions of A   symmetry.
 There are   351 symmetry adapted basis functions of A   symmetry.
   351 basis functions,   600 primitive gaussians,   351 cartesian basis functions
    59 alpha electrons       59 beta electrons
       nuclear repulsion energy       976.8290315134 Hartrees.
 NAtoms=   31 NActive=   31 NUniq=   31 SFac= 1.00D+00 NAtFMM=   60 NAOKFM=F Big=F
 Integral buffers will be    131072 words long.
 Raffenetti 2 integral format.
 Two-electron integral symmetry is turned on.
 Nuclear repulsion after empirical dispersion term =      976.8074482227 Hartrees.
 One-electron integrals computed using PRISM.
 NBasis=   351 RedAO= T EigKep=  1.96D-06  NBF=   351
 NBsUse=   347 1.00D-06 EigRej=  5.55D-07 NBFU=   347
 ExpMin= 4.38D-02 ExpMax= 5.48D+03 ExpMxC= 8.25D+02 IAcc=3 IRadAn=         5 AccDes= 0.00D+00
 Harris functional with IExCor=  402 and IRadAn=       5 diagonalized for initial guess.
 HarFok:  IExCor=  402 AccDes= 0.00D+00 IRadAn=         5 IDoV= 1 UseB2=F ITyADJ=14
 ICtDFT=  3500011 ScaDFX=  1.000000  1.000000  1.000000  1.000000
 FoFCou: FMM=F IPFlag=           0 FMFlag=      100000 FMFlg1=           0
         NFxFlg=           0 DoJE=T BraDBF=F KetDBF=T FulRan=T
         wScrn=  0.000000 ICntrl=       500 IOpCl=  0 I1Cent=   200000004 NGrid=           0
         NMat0=    1 NMatS0=      1 NMatT0=    0 NMatD0=    1 NMtDS0=    0 NMtDT0=    0
 Petite list used in FoFCou.
 Requested convergence on RMS density matrix=1.00D-08 within 128 cycles.
 Requested convergence on MAX density matrix=1.00D-06.
 Requested convergence on             energy=1.00D-06.
 No special actions if energy rises.
 SCF Done:  E(RB3LYP) =  -693.344905571     A.U. after   15 cycles
            NFock= 15  Conv=0.29D-08     -V/T= 2.0099

 **********************************************************************

            Population analysis using the SCF Density.

 **********************************************************************

 Orbital symmetries:
       Occupied  (A) (A) (A) (A) (A) (A) (A) (A) (A) (A) (A) (A)
                 (A) (A) (A) (A) (A) (A) (A) (A) (A) (A) (A) (A)
                 (A) (A) (A) (A) (A) (A) (A) (A) (A) (A) (A) (A)
                 (A) (A) (A) (A) (A) (A) (A) (A) (A) (A) (A) (A)
                 (A) (A) (A) (A) (A) (A) (A) (A) (A) (A) (A)
       Virtual   (A) (A) (A) (A) (A) (A) (A) (A) (A) (A) (A) (A)
                 (A) (A) (A) (A) (A) (A) (A) (A) (A) (A) (A) (A)
                 (A) (A) (A) (A) (A) (A) (A) (A) (A) (A) (A) (A)
                 (A) (A) (A) (A) (A) (A) (A) (A) (A) (A) (A) (A)
                 (A) (A) (A) (A) (A) (A) (A) (A) (A) (A) (A) (A)
                 (A) (A) (A) (A) (A) (A) (A) (A) (A) (A) (A) (A)
                 (A) (A) (A) (A) (A) (A) (A) (A) (A) (A) (A) (A)
                 (A) (A) (A) (A) (A) (A) (A) (A) (A) (A) (A) (A)
                 (A) (A) (A) (A) (A) (A) (A) (A) (A) (A) (A) (A)
                 (A) (A) (A) (A) (A) (A) (A) (A) (A) (A) (A) (A)
                 (A) (A) (A) (A) (A) (A) (A) (A) (A) (A) (A) (A)
                 (A) (A) (A) (A) (A) (A) (A) (A) (A) (A) (A) (A)
                 (A) (A) (A) (A) (A) (A) (A) (A) (A) (A) (A) (A)
                 (A) (A) (A) (A) (A) (A) (A) (A) (A) (A) (A) (A)
                 (A) (A) (A) (A) (A) (A) (A) (A) (A) (A) (A) (A)
                 (A) (A) (A) (A) (A) (A) (A) (A) (A) (A) (A) (A)
                 (A) (A) (A) (A) (A) (A) (A) (A) (A) (A) (A) (A)
                 (A) (A) (A) (A) (A) (A) (A) (A) (A) (A) (A) (A)
                 (A) (A) (A) (A) (A) (A) (A) (A) (A) (A) (A) (A)
                 (A) (A) (A) (A) (A) (A) (A) (A) (A) (A) (A) (A)
                 (A) (A) (A) (A) (A) (A) (A) (A) (A) (A) (A) (A)
                 (A) (A) (A) (A) (A) (A) (A) (A) (A) (A) (A) (A)
                 (A) (A) (A) (A) (A) (A) (A) (A) (A) (A) (A) (A)
                 (A) (A) (A) (A) (A) (A) (A) (A) (A) (A) (A) (A)
 The electronic state is 1-A.
 Alpha  occ. eigenvalues --  -19.17591 -10.25394 -10.24368 -10.22297 -10.22035
 Alpha  occ. eigenvalues --  -10.20994 -10.20721 -10.20720 -10.20273 -10.20272
 Alpha  occ. eigenvalues --  -10.20184 -10.20182 -10.19855 -10.19854 -10.19548
 Alpha  occ. eigenvalues --  -10.19329 -10.19289  -1.05949  -0.87049  -0.86770
 Alpha  occ. eigenvalues --   -0.80212  -0.78107  -0.76071  -0.75445  -0.73799
 Alpha  occ. eigenvalues --   -0.70633  -0.68529  -0.62542  -0.61849  -0.61663
 Alpha  occ. eigenvalues --   -0.59796  -0.55140  -0.53393  -0.51316  -0.48880
 Alpha  occ. eigenvalues --   -0.47404  -0.47000  -0.46625  -0.45306  -0.44166
 Alpha  occ. eigenvalues --   -0.43420  -0.43342  -0.42848  -0.42769  -0.40453
 Alpha  occ. eigenvalues --   -0.39629  -0.38718  -0.37367  -0.36799  -0.36105
 Alpha  occ. eigenvalues --   -0.35437  -0.35054  -0.31213  -0.28299  -0.27340
 Alpha  occ. eigenvalues --   -0.26607  -0.26550  -0.26143  -0.21218
 Alpha virt. eigenvalues --   -0.05431  -0.02083  -0.01772  -0.00509   0.00226
 Alpha virt. eigenvalues --    0.00737   0.01598   0.01933   0.02710   0.02788
 Alpha virt. eigenvalues --    0.03688   0.04432   0.04535   0.04538   0.04862
 Alpha virt. eigenvalues --    0.05018   0.05992   0.06238   0.06422   0.06771
 Alpha virt. eigenvalues --    0.07485   0.07907   0.08673   0.08819   0.09132
 Alpha virt. eigenvalues --    0.09332   0.09881   0.10326   0.11177   0.11549
 Alpha virt. eigenvalues --    0.11923   0.12347   0.12975   0.13053   0.14140
 Alpha virt. eigenvalues --    0.14277   0.14628   0.15172   0.15241   0.15462
 Alpha virt. eigenvalues --    0.15654   0.16112   0.16283   0.16353   0.16839
 Alpha virt. eigenvalues --    0.17719   0.18076   0.18615   0.18965   0.19307
 Alpha virt. eigenvalues --    0.19672   0.20584   0.20596   0.20803   0.20881
 Alpha virt. eigenvalues --    0.21148   0.22562   0.22960   0.23439   0.23462
 Alpha virt. eigenvalues --    0.23810   0.24167   0.24438   0.24552   0.25742
 Alpha virt. eigenvalues --    0.25783   0.25959   0.26078   0.26345   0.26522
 Alpha virt. eigenvalues --    0.26765   0.27615   0.28176   0.28389   0.29212
 Alpha virt. eigenvalues --    0.29729   0.30314   0.30483   0.31435   0.32056
 Alpha virt. eigenvalues --    0.32594   0.33059   0.34346   0.34910   0.35305
 Alpha virt. eigenvalues --    0.35423   0.35600   0.36552   0.37290   0.38065
 Alpha virt. eigenvalues --    0.38221   0.38686   0.41628   0.41817   0.42564
 Alpha virt. eigenvalues --    0.42985   0.43328   0.46530   0.50610   0.56324
 Alpha virt. eigenvalues --    0.58981   0.59826   0.60430   0.64310   0.65336
 Alpha virt. eigenvalues --    0.66192   0.67049   0.67635   0.67891   0.68744
 Alpha virt. eigenvalues --    0.69247   0.70660   0.70788   0.71147   0.72093
 Alpha virt. eigenvalues --    0.72342   0.72447   0.73756   0.74480   0.74714
 Alpha virt. eigenvalues --    0.74849   0.76300   0.76417   0.77591   0.77785
 Alpha virt. eigenvalues --    0.78321   0.78386   0.79132   0.80379   0.80584
 Alpha virt. eigenvalues --    0.81603   0.81759   0.81844   0.83571   0.84734
 Alpha virt. eigenvalues --    0.85359   0.86070   0.88410   0.91753   0.91967
 Alpha virt. eigenvalues --    0.93676   0.93803   0.95096   0.95559   0.97092
 Alpha virt. eigenvalues --    0.97172   0.98115   0.99157   0.99602   1.00528
 Alpha virt. eigenvalues --    1.03199   1.04108   1.05453   1.06856   1.07665
 Alpha virt. eigenvalues --    1.09235   1.10844   1.11830   1.12291   1.13840
 Alpha virt. eigenvalues --    1.16736   1.17847   1.18951   1.20260   1.20965
 Alpha virt. eigenvalues --    1.22951   1.23278   1.23993   1.24296   1.24383
 Alpha virt. eigenvalues --    1.25258   1.26830   1.27660   1.29118   1.30124
 Alpha virt. eigenvalues --    1.32253   1.34658   1.36360   1.39082   1.39190
 Alpha virt. eigenvalues --    1.40024   1.42836   1.43503   1.43817   1.44904
 Alpha virt. eigenvalues --    1.45414   1.46432   1.48813   1.49659   1.50423
 Alpha virt. eigenvalues --    1.51732   1.52824   1.55978   1.56602   1.58096
 Alpha virt. eigenvalues --    1.60449   1.60979   1.69145   1.76516   1.77960
 Alpha virt. eigenvalues --    1.81737   1.81993   1.84511   1.85811   1.85857
 Alpha virt. eigenvalues --    1.87793   1.90026   1.90613   1.91104   1.92116
 Alpha virt. eigenvalues --    1.92145   1.93218   1.97577   1.97829   1.99060
 Alpha virt. eigenvalues --    1.99280   2.00067   2.05329   2.07531   2.08897
 Alpha virt. eigenvalues --    2.09182   2.12009   2.12194   2.13171   2.13664
 Alpha virt. eigenvalues --    2.15386   2.16177   2.17250   2.18083   2.20913
 Alpha virt. eigenvalues --    2.23678   2.24180   2.26381   2.27170   2.27540
 Alpha virt. eigenvalues --    2.29645   2.30566   2.31008   2.34646   2.37118
 Alpha virt. eigenvalues --    2.37901   2.40737   2.42333   2.47207   2.50754
 Alpha virt. eigenvalues --    2.51971   2.56449   2.60460   2.62282   2.63357
 Alpha virt. eigenvalues --    2.64303   2.64653   2.67024   2.67441   2.75552
 Alpha virt. eigenvalues --    2.76115   2.77983   2.78997   2.82666   2.84137
 Alpha virt. eigenvalues --    2.87374   2.91523   2.92373   2.99180   3.01632
 Alpha virt. eigenvalues --    3.08357   3.10410   3.29345   3.34228   3.41532
 Alpha virt. eigenvalues --    3.60748   4.21764   4.23481   4.23779   4.25127
 Alpha virt. eigenvalues --    4.26735   4.29249   4.30930   4.34337   4.35869
 Alpha virt. eigenvalues --    4.39846   4.40855   4.42094   4.47051   4.59873
 Alpha virt. eigenvalues --    4.69856   4.81014   5.00627
          Condensed to atoms (all electrons):
               1          2          3          4          5          6
     1  C   12.302370  -6.953236   0.992397   4.049115  -3.774615  -0.720923
     2  C   -6.953236  20.117771  -1.969261  -9.871900   4.049757   0.535609
     3  C    0.992397  -1.969261   9.139541  -1.959774   0.982495  -0.550603
     4  C    4.049115  -9.871900  -1.959774  20.109658  -6.940900   0.528856
     5  C   -3.774615   4.049757   0.982495  -6.940900  12.278569  -0.702564
     6  C   -0.720923   0.535609  -0.550603   0.528856  -0.702564   7.187935
     7  H    0.368132  -0.141416   0.031352  -0.005495   0.033914   0.010214
     8  H   -0.089110   0.358514  -0.023221   0.029111  -0.020811   0.002389
     9  H   -0.020884   0.029246  -0.023147   0.358440  -0.089173   0.002432
    10  H    0.033693  -0.005528   0.031606  -0.141450   0.368947   0.009383
    11  C   -0.258858   0.511768  -0.871081   0.508030  -0.258867  -0.152317
    12  C   -0.025404   0.020667  -0.560252   0.020814  -0.026343  -0.043485
    13  C    0.086414  -0.194164   0.599918  -0.195402   0.086529  -0.005816
    14  C    0.095288  -0.358477  -0.196859   0.452624  -0.134090   0.002084
    15  C   -0.134272   0.453307  -0.197980  -0.358048   0.095083   0.002319
    16  C   -0.019323   0.092186   0.082265  -0.123194   0.023270   0.000683
    17  H   -0.000003   0.000117   0.000232   0.002171   0.000104   0.000030
    18  C    0.023195  -0.123211   0.082668   0.092213  -0.019307   0.000694
    19  H    0.000104   0.002169   0.000232   0.000117  -0.000003   0.000030
    20  C    0.000382   0.000590   0.009365   0.000527   0.000387   0.000417
    21  H   -0.000001  -0.000036  -0.000134   0.000099   0.000003   0.000000
    22  H    0.000003   0.000099  -0.000134  -0.000036  -0.000001   0.000000
    23  C   -0.000010  -0.000196   0.006291  -0.000201  -0.000009   0.000035
    24  H    0.000000   0.000000   0.000000   0.000000   0.000000   0.000000
    25  H    0.000000   0.000000   0.000002   0.000000   0.000000   0.000000
    26  H    0.000000   0.000000   0.000002   0.000000   0.000000   0.000000
    27  O   -0.263349   0.083604  -0.023970   0.083280  -0.262049   0.473036
    28  C    0.110991  -0.048040   0.018663  -0.047686   0.112844  -0.380729
    29  H   -0.049361   0.029330  -0.000676  -0.042810   0.054064   0.008793
    30  H    0.008388  -0.003279   0.001079  -0.003207   0.008582  -0.007456
    31  H    0.054610  -0.042620  -0.000559   0.029193  -0.049228   0.008225
               7          8          9         10         11         12
     1  C    0.368132  -0.089110  -0.020884   0.033693  -0.258858  -0.025404
     2  C   -0.141416   0.358514   0.029246  -0.005528   0.511768   0.020667
     3  C    0.031352  -0.023221  -0.023147   0.031606  -0.871081  -0.560252
     4  C   -0.005495   0.029111   0.358440  -0.141450   0.508030   0.020814
     5  C    0.033914  -0.020811  -0.089173   0.368947  -0.258867  -0.026343
     6  C    0.010214   0.002389   0.002432   0.009383  -0.152317  -0.043485
     7  H    0.522539  -0.004297   0.000015  -0.000154  -0.005142   0.000869
     8  H   -0.004297   0.523743  -0.000158   0.000015   0.029891  -0.001944
     9  H    0.000015  -0.000158   0.523752  -0.004298   0.029867  -0.001965
    10  H   -0.000154   0.000015  -0.004298   0.522621  -0.005136   0.000872
    11  C   -0.005142   0.029891   0.029867  -0.005136   6.927398   0.445778
    12  C    0.000869  -0.001944  -0.001965   0.000872   0.445778   6.128276
    13  C   -0.000046  -0.000532  -0.000528  -0.000046  -0.870278   0.115383
    14  C   -0.000019   0.000143   0.001749   0.000029   0.133103  -0.048225
    15  C    0.000028   0.001753   0.000143  -0.000019   0.132490  -0.049776
    16  C   -0.000002  -0.000001   0.000144   0.000002  -0.060630  -0.000605
    17  H    0.000000   0.000000   0.000002   0.000000  -0.000846   0.028649
    18  C    0.000002   0.000143  -0.000001  -0.000002  -0.060341  -0.000019
    19  H    0.000000   0.000002   0.000000   0.000000  -0.000850   0.028653
    20  C    0.000000  -0.000007  -0.000007   0.000000  -0.079384  -0.104402
    21  H    0.000000   0.000000   0.000000   0.000000   0.001095  -0.005655
    22  H    0.000000   0.000000   0.000000   0.000000   0.001094  -0.005660
    23  C    0.000000  -0.000002  -0.000002   0.000000  -0.027346   0.050679
    24  H    0.000000   0.000000   0.000000   0.000000   0.000000   0.000165
    25  H    0.000000   0.000000   0.000000   0.000000   0.000006   0.000397
    26  H    0.000000   0.000000   0.000000   0.000000   0.000006   0.000396
    27  O   -0.002271  -0.000614  -0.000614  -0.002242  -0.000704   0.000791
    28  C    0.000406  -0.000328  -0.000328   0.000395   0.003842   0.000071
    29  H    0.000040   0.000000   0.000007   0.000045  -0.000269  -0.000028
    30  H   -0.000058   0.000000   0.000000  -0.000058   0.000036   0.000003
    31  H    0.000039   0.000007   0.000000   0.000041  -0.000258  -0.000026
              13         14         15         16         17         18
     1  C    0.086414   0.095288  -0.134272  -0.019323  -0.000003   0.023195
     2  C   -0.194164  -0.358477   0.453307   0.092186   0.000117  -0.123211
     3  C    0.599918  -0.196859  -0.197980   0.082265   0.000232   0.082668
     4  C   -0.195402   0.452624  -0.358048  -0.123194   0.002171   0.092213
     5  C    0.086529  -0.134090   0.095083   0.023270   0.000104  -0.019307
     6  C   -0.005816   0.002084   0.002319   0.000683   0.000030   0.000694
     7  H   -0.000046  -0.000019   0.000028  -0.000002   0.000000   0.000002
     8  H   -0.000532   0.000143   0.001753  -0.000001   0.000000   0.000143
     9  H   -0.000528   0.001749   0.000143   0.000144   0.000002  -0.000001
    10  H   -0.000046   0.000029  -0.000019   0.000002   0.000000  -0.000002
    11  C   -0.870278   0.133103   0.132490  -0.060630  -0.000846  -0.060341
    12  C    0.115383  -0.048225  -0.049776  -0.000605   0.028649  -0.000019
    13  C    7.074748  -0.624335  -0.622662   0.465674  -0.020722   0.464825
    14  C   -0.624335  11.947839  -4.189535  -2.874555   0.356216   1.293046
    15  C   -0.622662  -4.189535  11.944328   1.293908   0.023197  -2.872559
    16  C    0.465674  -2.874555   1.293908   8.469560  -0.101600  -1.083820
    17  H   -0.020722   0.356216   0.023197  -0.101600   0.529645  -0.008403
    18  C    0.464825   1.293046  -2.872559  -1.083820  -0.008403   8.468908
    19  H   -0.020708   0.023204   0.356206  -0.008411  -0.000157  -0.101595
    20  C   -0.082605   0.251548   0.251956   0.026183   0.002624   0.026370
    21  H    0.030830  -0.075392  -0.002430   0.275903  -0.004384   0.043452
    22  H    0.030844  -0.002413  -0.075363   0.043388   0.000018   0.275950
    23  C   -0.281434   0.003058   0.004208  -0.035537   0.001905  -0.035753
    24  H    0.000157   0.000447   0.000444  -0.013670   0.000001  -0.013511
    25  H   -0.002737   0.008846  -0.008460  -0.013448  -0.000005   0.027711
    26  H   -0.002750  -0.008469   0.008860   0.027716   0.000002  -0.013493
    27  O   -0.000139   0.000003   0.000002  -0.000002   0.000000  -0.000002
    28  C    0.000279  -0.000015  -0.000014  -0.000008   0.000000  -0.000008
    29  H    0.000003  -0.000004   0.000003   0.000000   0.000000   0.000000
    30  H    0.000000   0.000000   0.000000   0.000000   0.000000   0.000000
    31  H    0.000003   0.000003  -0.000004   0.000000   0.000000   0.000000
              19         20         21         22         23         24
     1  C    0.000104   0.000382  -0.000001   0.000003  -0.000010   0.000000
     2  C    0.002169   0.000590  -0.000036   0.000099  -0.000196   0.000000
     3  C    0.000232   0.009365  -0.000134  -0.000134   0.006291   0.000000
     4  C    0.000117   0.000527   0.000099  -0.000036  -0.000201   0.000000
     5  C   -0.000003   0.000387   0.000003  -0.000001  -0.000009   0.000000
     6  C    0.000030   0.000417   0.000000   0.000000   0.000035   0.000000
     7  H    0.000000   0.000000   0.000000   0.000000   0.000000   0.000000
     8  H    0.000002  -0.000007   0.000000   0.000000  -0.000002   0.000000
     9  H    0.000000  -0.000007   0.000000   0.000000  -0.000002   0.000000
    10  H    0.000000   0.000000   0.000000   0.000000   0.000000   0.000000
    11  C   -0.000850  -0.079384   0.001095   0.001094  -0.027346   0.000000
    12  C    0.028653  -0.104402  -0.005655  -0.005660   0.050679   0.000165
    13  C   -0.020708  -0.082605   0.030830   0.030844  -0.281434   0.000157
    14  C    0.023204   0.251548  -0.075392  -0.002413   0.003058   0.000447
    15  C    0.356206   0.251956  -0.002430  -0.075363   0.004208   0.000444
    16  C   -0.008411   0.026183   0.275903   0.043388  -0.035537  -0.013670
    17  H   -0.000157   0.002624  -0.004384   0.000018   0.001905   0.000001
    18  C   -0.101595   0.026370   0.043452   0.275950  -0.035753  -0.013511
    19  H    0.529644   0.002614   0.000018  -0.004384   0.001906   0.000001
    20  C    0.002614   6.460816   0.036376   0.036357  -0.978683  -0.044565
    21  H    0.000018   0.036376   0.545424  -0.000166  -0.024845   0.000329
    22  H   -0.004384   0.036357  -0.000166   0.545424  -0.024865   0.000329
    23  C    0.001906  -0.978683  -0.024845  -0.024865   6.761577   0.401241
    24  H    0.000001  -0.044565   0.000329   0.000329   0.401241   0.499125
    25  H    0.000002  -0.145437   0.002930   0.000066   0.471311  -0.029388
    26  H   -0.000005  -0.145479   0.000066   0.002935   0.471408  -0.029378
    27  O    0.000000  -0.000001   0.000000   0.000000   0.000000   0.000000
    28  C    0.000000   0.000002   0.000000   0.000000   0.000000   0.000000
    29  H    0.000000   0.000000   0.000000   0.000000   0.000000   0.000000
    30  H    0.000000   0.000000   0.000000   0.000000   0.000000   0.000000
    31  H    0.000000   0.000000   0.000000   0.000000   0.000000   0.000000
              25         26         27         28         29         30
     1  C    0.000000   0.000000  -0.263349   0.110991  -0.049361   0.008388
     2  C    0.000000   0.000000   0.083604  -0.048040   0.029330  -0.003279
     3  C    0.000002   0.000002  -0.023970   0.018663  -0.000676   0.001079
     4  C    0.000000   0.000000   0.083280  -0.047686  -0.042810  -0.003207
     5  C    0.000000   0.000000  -0.262049   0.112844   0.054064   0.008582
     6  C    0.000000   0.000000   0.473036  -0.380729   0.008793  -0.007456
     7  H    0.000000   0.000000  -0.002271   0.000406   0.000040  -0.000058
     8  H    0.000000   0.000000  -0.000614  -0.000328   0.000000   0.000000
     9  H    0.000000   0.000000  -0.000614  -0.000328   0.000007   0.000000
    10  H    0.000000   0.000000  -0.002242   0.000395   0.000045  -0.000058
    11  C    0.000006   0.000006  -0.000704   0.003842  -0.000269   0.000036
    12  C    0.000397   0.000396   0.000791   0.000071  -0.000028   0.000003
    13  C   -0.002737  -0.002750  -0.000139   0.000279   0.000003   0.000000
    14  C    0.008846  -0.008469   0.000003  -0.000015  -0.000004   0.000000
    15  C   -0.008460   0.008860   0.000002  -0.000014   0.000003   0.000000
    16  C   -0.013448   0.027716  -0.000002  -0.000008   0.000000   0.000000
    17  H   -0.000005   0.000002   0.000000   0.000000   0.000000   0.000000
    18  C    0.027711  -0.013493  -0.000002  -0.000008   0.000000   0.000000
    19  H    0.000002  -0.000005   0.000000   0.000000   0.000000   0.000000
    20  C   -0.145437  -0.145479  -0.000001   0.000002   0.000000   0.000000
    21  H    0.002930   0.000066   0.000000   0.000000   0.000000   0.000000
    22  H    0.000066   0.002935   0.000000   0.000000   0.000000   0.000000
    23  C    0.471311   0.471408   0.000000   0.000000   0.000000   0.000000
    24  H   -0.029388  -0.029378   0.000000   0.000000   0.000000   0.000000
    25  H    0.504535  -0.025649   0.000000   0.000000   0.000000   0.000000
    26  H   -0.025649   0.504531   0.000000   0.000000   0.000000   0.000000
    27  O    0.000000   0.000000   8.340164   0.119990  -0.050264  -0.051001
    28  C    0.000000   0.000000   0.119990   5.299119   0.387558   0.393003
    29  H    0.000000   0.000000  -0.050264   0.387558   0.542389  -0.029719
    30  H    0.000000   0.000000  -0.051001   0.393003  -0.029719   0.509174
    31  H    0.000000   0.000000  -0.050367   0.387350  -0.043913  -0.029702
              31
     1  C    0.054610
     2  C   -0.042620
     3  C   -0.000559
     4  C    0.029193
     5  C   -0.049228
     6  C    0.008225
     7  H    0.000039
     8  H    0.000007
     9  H    0.000000
    10  H    0.000041
    11  C   -0.000258
    12  C   -0.000026
    13  C    0.000003
    14  C    0.000003
    15  C   -0.000004
    16  C    0.000000
    17  H    0.000000
    18  C    0.000000
    19  H    0.000000
    20  C    0.000000
    21  H    0.000000
    22  H    0.000000
    23  C    0.000000
    24  H    0.000000
    25  H    0.000000
    26  H    0.000000
    27  O   -0.050367
    28  C    0.387350
    29  H   -0.043913
    30  H   -0.029702
    31  H    0.542291
 Mulliken charges:
               1
     1  C    0.184266
     2  C   -0.573369
     3  C    0.399543
     4  C   -0.574147
     5  C    0.183411
     6  C   -0.209272
     7  H    0.191350
     8  H    0.195313
     9  H    0.195308
    10  H    0.191284
    11  C   -0.072096
    12  C    0.031327
    13  C   -0.030703
    14  C   -0.056842
    15  C   -0.057114
    16  C   -0.466075
    17  H    0.191209
    18  C   -0.467149
    19  H    0.191210
    20  C    0.474056
    21  H    0.176517
    22  H    0.176516
    23  C   -0.764737
    24  H    0.228273
    25  H    0.209319
    26  H    0.209301
    27  O   -0.393280
    28  C   -0.357357
    29  H    0.194812
    30  H    0.204214
    31  H    0.194915
 Sum of Mulliken charges =   0.00000
 Mulliken charges with hydrogens summed into heavy atoms:
               1
     1  C    0.375615
     2  C   -0.378056
     3  C    0.399543
     4  C   -0.378839
     5  C    0.374696
     6  C   -0.209272
    11  C   -0.072096
    12  C    0.031327
    13  C   -0.030703
    14  C    0.134366
    15  C    0.134097
    16  C   -0.289558
    18  C   -0.290634
    20  C    0.474056
    23  C   -0.117844
    27  O   -0.393280
    28  C    0.236584
 Electronic spatial extent (au):  <R**2>=           8305.2892
 Charge=              0.0000 electrons
 Dipole moment (field-independent basis, Debye):
    X=             -0.6889    Y=             -0.0051    Z=              1.3851  Tot=              1.5470
 Quadrupole moment (field-independent basis, Debye-Ang):
   XX=            -79.9352   YY=            -90.7657   ZZ=           -106.7692
   XY=             -0.0327   XZ=              9.0388   YZ=              0.0053
 Traceless Quadrupole moment (field-independent basis, Debye-Ang):
   XX=             12.5548   YY=              1.7244   ZZ=            -14.2791
   XY=             -0.0327   XZ=              9.0388   YZ=              0.0053
 Octapole moment (field-independent basis, Debye-Ang**2):
  XXX=            -16.3366  YYY=              0.0053  ZZZ=              1.0824  XYY=              7.4931
  XXY=             -0.2244  XXZ=             60.4297  XZZ=             13.7154  YZZ=              0.0013
  YYZ=             -0.0132  XYZ=             -0.0136
 Hexadecapole moment (field-independent basis, Debye-Ang**3):
 XXXX=          -9554.4774 YYYY=           -595.3528 ZZZZ=           -199.5498 XXXY=             -1.3464
 XXXZ=            373.6251 YYYX=              0.0219 YYYZ=              0.0270 ZZZX=             13.3336
 ZZZY=             -0.0004 XXYY=          -1759.1889 XXZZ=          -1881.9761 YYZZ=           -153.6133
 XXYZ=              0.0570 YYXZ=             -7.7831 ZZXY=              0.0060
 N-N= 9.768074482227D+02 E-N=-3.560416915199D+03  KE= 6.865709468122D+02
 Evaluate density.
 Using the total density.
 Monte-Carlo method of calculating molar volume:
 based on  0.001 e/bohr**3 density envelope.
 Number of points per bohr**3 =   20 CutOff= 1.00D-04
 Using the SCF density.
 There are       434 points.  Will hold       434 in memory.
 LenV=  4026254218 MDV=  4026531840.
 Box volume =10218.683 fraction occupied=0.233
 Integrated density= 9.8715367041451572D+01 error=-1.9284632958548428D+01
 Molar volume = 2378.081 bohr**3/mol (212.217 cm**3/mol)
 Recommended a0 for SCRF calculation =  5.32 angstrom ( 10.06 bohr)
 Calling FoFJK, ICntrl=      2127 FMM=F ISym2X=0 I1Cent= 0 IOpClX= 0 NMat=1 NMatS=1 NMatT=0.
 ***** Axes restored to original set *****
 -------------------------------------------------------------------
 Center     Atomic                   Forces (Hartrees/Bohr)
 Number     Number              X              Y              Z
 -------------------------------------------------------------------
      1        6           0.000026171    0.000013725   -0.000004188
      2        6          -0.000041709    0.000010751   -0.000000765
      3        6           0.000040752   -0.000000541    0.000015000
      4        6          -0.000034767   -0.000013792    0.000000745
      5        6           0.000020697   -0.000014425    0.000001366
      6        6           0.000026227   -0.000006087   -0.000045496
      7        1          -0.000005994    0.000000882   -0.000003561
      8        1           0.000001111   -0.000002068    0.000002419
      9        1           0.000001771    0.000002433    0.000002592
     10        1          -0.000005190   -0.000001534   -0.000003408
     11        6           0.000068991    0.000006534   -0.000011640
     12        6          -0.000044884   -0.000006269    0.000004042
     13        6          -0.000058333    0.000010642   -0.000008556
     14        6           0.000032876   -0.000020258   -0.000000999
     15        6           0.000033393    0.000012889    0.000000450
     16        6          -0.000022811   -0.000011218    0.000008358
     17        1           0.000000296    0.000003586   -0.000000445
     18        6          -0.000021722    0.000012888    0.000007968
     19        1           0.000000435   -0.000002482   -0.000001038
     20        6          -0.000002008   -0.000002133   -0.000004403
     21        1           0.000006624   -0.000000714   -0.000007133
     22        1           0.000007353    0.000000175   -0.000007396
     23        6           0.000013195   -0.000000069    0.000011421
     24        1          -0.000017978    0.000000220   -0.000008565
     25        1          -0.000000322    0.000005662    0.000006061
     26        1          -0.000000377   -0.000005634    0.000005956
     27        8          -0.000027649    0.000015175    0.000060841
     28        6           0.000020391   -0.000008517   -0.000036009
     29        1          -0.000017808    0.000002934    0.000003776
     30        1           0.000017509   -0.000001000    0.000008509
     31        1          -0.000016240   -0.000001756    0.000004099
 -------------------------------------------------------------------
 Cartesian Forces:  Max     0.000068991 RMS     0.000018822

 GradGradGradGradGradGradGradGradGradGradGradGradGradGradGradGradGradGrad
 Berny optimization.
 FormGI is forming the generalized inverse of G from B-inverse, IUseBI=4.
 Internal  Forces:  Max     0.000074298 RMS     0.000014608
 Search for a local minimum.
 Step number   1 out of a maximum of  158
 All quantities printed in internal units (Hartrees-Bohrs-Radians)
 Mixed Optimization -- En-DIIS/RFO-DIIS
 Second derivative matrix not updated -- first step.
 ITU=  0
     Eigenvalues ---    0.00230   0.00625   0.01019   0.01284   0.01388
     Eigenvalues ---    0.01475   0.01761   0.01875   0.01947   0.01969
     Eigenvalues ---    0.01983   0.02050   0.02052   0.02060   0.02068
     Eigenvalues ---    0.02088   0.02089   0.02099   0.02116   0.02123
     Eigenvalues ---    0.02126   0.02127   0.02148   0.02152   0.03780
     Eigenvalues ---    0.04502   0.07033   0.07149   0.10088   0.10567
     Eigenvalues ---    0.15998   0.15998   0.16000   0.16000   0.16000
     Eigenvalues ---    0.16000   0.16000   0.16000   0.16000   0.16000
     Eigenvalues ---    0.16000   0.16000   0.16000   0.16000   0.22000
     Eigenvalues ---    0.22000   0.22955   0.22968   0.23998   0.23998
     Eigenvalues ---    0.24982   0.24992   0.24999   0.25000   0.25000
     Eigenvalues ---    0.31282   0.33800   0.33800   0.33821   0.34150
     Eigenvalues ---    0.34151   0.34536   0.35027   0.35027   0.35239
     Eigenvalues ---    0.35239   0.35244   0.35244   0.35268   0.35268
     Eigenvalues ---    0.40869   0.40974   0.40992   0.41398   0.41526
     Eigenvalues ---    0.41741   0.41746   0.44477   0.44602   0.44605
     Eigenvalues ---    0.45037   0.45684   0.46092   0.46821   0.46835
     Eigenvalues ---    0.48975   0.96464
 RFO step:  Lambda=-9.74874285D-07 EMin= 2.30000000D-03
 Linear search not attempted -- first point.
 Iteration  1 RMS(Cart)=  0.00670505 RMS(Int)=  0.00000611
 Iteration  2 RMS(Cart)=  0.00002159 RMS(Int)=  0.00000005
 Iteration  3 RMS(Cart)=  0.00000000 RMS(Int)=  0.00000005
 Variable       Old X    -DE/DX   Delta X   Delta X   Delta X     New X
                                 (Linear)    (Quad)   (Total)
    R1        2.63202   0.00002   0.00000   0.00004   0.00004   2.63207
    R2        2.64324   0.00002   0.00000   0.00004   0.00004   2.64328
    R3        2.05288   0.00000   0.00000  -0.00001  -0.00001   2.05287
    R4        2.66649  -0.00001   0.00000  -0.00002  -0.00002   2.66648
    R5        2.05242   0.00000   0.00000  -0.00001  -0.00001   2.05241
    R6        2.66651   0.00000   0.00000   0.00000   0.00000   2.66650
    R7        2.69255   0.00000   0.00000   0.00001   0.00001   2.69256
    R8        2.63200   0.00002   0.00000   0.00004   0.00004   2.63204
    R9        2.05242   0.00000   0.00000  -0.00001  -0.00001   2.05241
   R10        2.64329   0.00002   0.00000   0.00004   0.00004   2.64333
   R11        2.05289   0.00000   0.00000   0.00000   0.00000   2.05289
   R12        2.60914  -0.00003   0.00000  -0.00005  -0.00005   2.60908
   R13        2.30089   0.00007   0.00000   0.00008   0.00008   2.30097
   R14        2.69247   0.00003   0.00000   0.00007   0.00007   2.69254
   R15        2.66435   0.00000   0.00000   0.00000   0.00000   2.66436
   R16        2.66437   0.00000   0.00000  -0.00001  -0.00001   2.66436
   R17        2.63216   0.00002   0.00000   0.00004   0.00004   2.63220
   R18        2.05281   0.00000   0.00000  -0.00001  -0.00001   2.05280
   R19        2.63216   0.00002   0.00000   0.00004   0.00004   2.63220
   R20        2.05280   0.00000   0.00000  -0.00001  -0.00001   2.05280
   R21        2.65201   0.00002   0.00000   0.00004   0.00004   2.65205
   R22        2.05631   0.00000   0.00000  -0.00001  -0.00001   2.05630
   R23        2.65200   0.00002   0.00000   0.00004   0.00004   2.65204
   R24        2.05631   0.00000   0.00000  -0.00001  -0.00001   2.05630
   R25        2.85477   0.00001   0.00000   0.00002   0.00002   2.85479
   R26        2.07632   0.00001   0.00000   0.00004   0.00004   2.07637
   R27        2.07077   0.00000   0.00000  -0.00001  -0.00001   2.07076
   R28        2.07076   0.00000   0.00000  -0.00001  -0.00001   2.07076
   R29        2.70390  -0.00001   0.00000  -0.00004  -0.00004   2.70386
   R30        2.07669   0.00000   0.00000   0.00001   0.00001   2.07670
   R31        2.06435   0.00002   0.00000   0.00004   0.00004   2.06439
   R32        2.07669   0.00000   0.00000   0.00001   0.00001   2.07671
    A1        2.09329  -0.00001   0.00000  -0.00002  -0.00002   2.09327
    A2        2.11116   0.00000   0.00000  -0.00002  -0.00002   2.11114
    A3        2.07865   0.00001   0.00000   0.00005   0.00005   2.07870
    A4        2.10574  -0.00001   0.00000  -0.00004  -0.00004   2.10570
    A5        2.09664   0.00000   0.00000   0.00002   0.00002   2.09666
    A6        2.08080   0.00000   0.00000   0.00002   0.00002   2.08082
    A7        2.07042   0.00002   0.00000   0.00009   0.00009   2.07051
    A8        2.10639  -0.00001   0.00000  -0.00005  -0.00005   2.10633
    A9        2.10635  -0.00001   0.00000  -0.00003  -0.00003   2.10632
   A10        2.10574  -0.00001   0.00000  -0.00004  -0.00004   2.10569
   A11        2.08079   0.00000   0.00000   0.00002   0.00002   2.08081
   A12        2.09665   0.00000   0.00000   0.00002   0.00002   2.09667
   A13        2.09329  -0.00001   0.00000  -0.00002  -0.00002   2.09327
   A14        2.11107   0.00000   0.00000  -0.00002  -0.00002   2.11105
   A15        2.07873   0.00001   0.00000   0.00005   0.00005   2.07878
   A16        2.09788   0.00001   0.00000   0.00004   0.00004   2.09792
   A17        2.09219   0.00000   0.00000  -0.00001  -0.00001   2.09218
   A18        2.09248   0.00000   0.00000   0.00001   0.00001   2.09249
   A19        2.10920  -0.00001   0.00000  -0.00006  -0.00006   2.10914
   A20        2.10915  -0.00001   0.00000  -0.00002  -0.00003   2.10912
   A21        2.06483   0.00002   0.00000   0.00008   0.00008   2.06491
   A22        2.10353  -0.00001   0.00000  -0.00004  -0.00004   2.10349
   A23        2.08126   0.00000   0.00000   0.00001   0.00001   2.08127
   A24        2.09839   0.00001   0.00000   0.00003   0.00003   2.09842
   A25        2.10353  -0.00001   0.00000  -0.00004  -0.00004   2.10349
   A26        2.08126   0.00000   0.00000   0.00001   0.00001   2.08126
   A27        2.09840   0.00001   0.00000   0.00003   0.00003   2.09843
   A28        2.11794   0.00000   0.00000  -0.00001  -0.00001   2.11793
   A29        2.08123   0.00000   0.00000  -0.00003  -0.00003   2.08119
   A30        2.08402   0.00001   0.00000   0.00005   0.00005   2.08407
   A31        2.11793   0.00000   0.00000  -0.00001  -0.00001   2.11793
   A32        2.08123  -0.00001   0.00000  -0.00004  -0.00004   2.08119
   A33        2.08402   0.00001   0.00000   0.00005   0.00005   2.08407
   A34        2.05859   0.00000   0.00000   0.00002   0.00002   2.05862
   A35        2.11215   0.00000   0.00000   0.00000   0.00000   2.11215
   A36        2.11218   0.00000   0.00000  -0.00001  -0.00001   2.11217
   A37        1.93601   0.00002   0.00000   0.00018   0.00018   1.93619
   A38        1.94634   0.00000   0.00000  -0.00004  -0.00004   1.94630
   A39        1.94635   0.00000   0.00000  -0.00004  -0.00004   1.94631
   A40        1.87297   0.00000   0.00000   0.00000   0.00000   1.87297
   A41        1.87298   0.00000   0.00000   0.00000   0.00000   1.87299
   A42        1.88581  -0.00001   0.00000  -0.00011  -0.00011   1.88571
   A43        1.99615  -0.00003   0.00000  -0.00011  -0.00011   1.99604
   A44        1.93717  -0.00002   0.00000  -0.00013  -0.00013   1.93704
   A45        1.85699   0.00003   0.00000   0.00024   0.00024   1.85723
   A46        1.93703  -0.00002   0.00000  -0.00012  -0.00012   1.93692
   A47        1.91356   0.00001   0.00000   0.00008   0.00008   1.91364
   A48        1.90498  -0.00001   0.00000  -0.00014  -0.00014   1.90483
   A49        1.91361   0.00001   0.00000   0.00008   0.00008   1.91369
   A50        3.14151   0.00001   0.00000   0.00012   0.00012   3.14163
   A51        3.14155   0.00000   0.00000   0.00007   0.00007   3.14162
   A52        3.14240   0.00004   0.00000   0.00167   0.00167   3.14407
   A53        3.14474  -0.00004   0.00000  -0.00421  -0.00421   3.14054
    D1        0.00148   0.00000   0.00000   0.00003   0.00003   0.00151
    D2       -3.13496  -0.00001   0.00000  -0.00053  -0.00053  -3.13549
    D3        3.12846   0.00001   0.00000   0.00056   0.00056   3.12901
    D4       -0.00798   0.00000   0.00000  -0.00001  -0.00001  -0.00799
    D5        0.00162   0.00001   0.00000   0.00041   0.00041   0.00203
    D6        3.10511   0.00003   0.00000   0.00150   0.00150   3.10660
    D7       -3.12563   0.00000   0.00000  -0.00010  -0.00010  -3.12573
    D8       -0.02215   0.00002   0.00000   0.00099   0.00099  -0.02116
    D9       -0.00444  -0.00002   0.00000  -0.00044  -0.00044  -0.00488
   D10       -3.13951  -0.00001   0.00000  -0.00107  -0.00107  -3.14058
   D11        3.13204   0.00000   0.00000   0.00012   0.00012   3.13217
   D12       -0.00302   0.00000   0.00000  -0.00051  -0.00051  -0.00353
   D13        0.00440   0.00001   0.00000   0.00041   0.00041   0.00480
   D14       -3.13197   0.00000   0.00000  -0.00012  -0.00012  -3.13209
   D15        3.13946   0.00001   0.00000   0.00104   0.00104   3.14050
   D16        0.00310   0.00000   0.00000   0.00051   0.00051   0.00361
   D17        3.13814   0.00004   0.00000   0.00375   0.00375  -3.14129
   D18       -0.00436   0.00000   0.00000  -0.00039  -0.00039  -0.00475
   D19        0.00376   0.00000   0.00000   0.00067   0.00067   0.00443
   D20       -3.13874  -0.00004   0.00000  -0.00347  -0.00347   3.14098
   D21       -0.00139   0.00000   0.00000   0.00003   0.00003  -0.00136
   D22       -3.12831  -0.00001   0.00000  -0.00054  -0.00054  -3.12885
   D23        3.13492   0.00001   0.00000   0.00056   0.00056   3.13549
   D24        0.00801   0.00000   0.00000   0.00000   0.00000   0.00801
   D25       -0.00167  -0.00001   0.00000  -0.00044  -0.00044  -0.00211
   D26       -3.10514  -0.00003   0.00000  -0.00153  -0.00153  -3.10667
   D27        3.12552   0.00000   0.00000   0.00011   0.00011   3.12563
   D28        0.02205  -0.00002   0.00000  -0.00097  -0.00097   0.02107
   D29        1.59317   0.00000   0.00000  -0.00004  -0.00004   1.59313
   D30       -1.58642   0.00002   0.00000   0.00105   0.00105  -1.58537
   D31        3.14088  -0.00002   0.00000  -0.00128  -0.00128   3.13960
   D32        0.00257  -0.00001   0.00000  -0.00084  -0.00084   0.00172
   D33        0.00182  -0.00001   0.00000  -0.00035  -0.00035   0.00148
   D34       -3.13649   0.00000   0.00000   0.00009   0.00009  -3.13640
   D35       -3.14087   0.00002   0.00000   0.00127   0.00127  -3.13960
   D36       -0.00258   0.00001   0.00000   0.00086   0.00086  -0.00172
   D37       -0.00182   0.00001   0.00000   0.00034   0.00034  -0.00148
   D38        3.13647   0.00000   0.00000  -0.00007  -0.00007   3.13640
   D39        0.00170   0.00000   0.00000   0.00000   0.00000   0.00169
   D40       -3.13853   0.00001   0.00000   0.00025   0.00025  -3.13828
   D41        3.13998  -0.00001   0.00000  -0.00044  -0.00044   3.13953
   D42       -0.00026   0.00000   0.00000  -0.00019  -0.00019  -0.00044
   D43       -0.00171   0.00000   0.00000   0.00003   0.00003  -0.00169
   D44        3.13852  -0.00001   0.00000  -0.00024  -0.00024   3.13829
   D45       -3.13997   0.00001   0.00000   0.00044   0.00044  -3.13953
   D46        0.00027   0.00000   0.00000   0.00018   0.00018   0.00044
   D47       -0.00512   0.00001   0.00000   0.00036   0.00036  -0.00475
   D48        3.11234   0.00002   0.00000   0.00085   0.00085   3.11319
   D49        3.13512   0.00001   0.00000   0.00010   0.00010   3.13522
   D50       -0.03062   0.00001   0.00000   0.00059   0.00059  -0.03003
   D51        0.00512  -0.00001   0.00000  -0.00037  -0.00037   0.00475
   D52       -3.11233  -0.00002   0.00000  -0.00086  -0.00086  -3.11319
   D53       -3.13511  -0.00001   0.00000  -0.00011  -0.00011  -3.13522
   D54        0.03062  -0.00001   0.00000  -0.00060  -0.00060   0.03003
   D55       -1.55785   0.00000   0.00000  -0.00026  -0.00026  -1.55810
   D56        0.52875   0.00000   0.00000  -0.00016  -0.00016   0.52859
   D57        2.63872  -0.00001   0.00000  -0.00035  -0.00035   2.63837
   D58        1.55886   0.00000   0.00000   0.00025   0.00025   1.55911
   D59       -2.63773   0.00001   0.00000   0.00034   0.00034  -2.63739
   D60       -0.52775   0.00000   0.00000   0.00015   0.00015  -0.52760
   D61        1.06086  -0.00002   0.00000  -0.00031  -0.00031   1.06055
   D62       -3.14156   0.00000   0.00000  -0.00014  -0.00014   3.14149
   D63       -1.06080   0.00002   0.00000   0.00004   0.00004  -1.06076
         Item               Value     Threshold  Converged?
 Maximum Force            0.000074     0.000450     YES
 RMS     Force            0.000015     0.000300     YES
 Maximum Displacement     0.026550     0.001800     NO 
 RMS     Displacement     0.006708     0.001200     NO 
 Predicted change in Energy=-4.874060D-07
 GradGradGradGradGradGradGradGradGradGradGradGradGradGradGradGradGradGrad

                          Input orientation:                          
 ---------------------------------------------------------------------
 Center     Atomic      Atomic             Coordinates (Angstroms)
 Number     Number       Type             X           Y           Z
 ---------------------------------------------------------------------
      1          6           0        3.690451    1.213663   -0.234732
      2          6           0        2.298493    1.214331   -0.185459
      3          6           0        1.579177    0.000735   -0.157219
      4          6           0        2.298859   -1.212649   -0.185966
      5          6           0        3.690798   -1.211547   -0.235329
      6          6           0        4.387482    0.001179   -0.258469
      7          1           0        4.248899    2.144861   -0.268357
      8          1           0        1.753879    2.153918   -0.172643
      9          1           0        1.754517   -2.152400   -0.173614
     10          1           0        4.249441   -2.142614   -0.269498
     11          6           0        0.155185    0.000505   -0.108054
     12          6           0       -1.061624    0.000272   -0.063622
     13          6           0       -2.485463    0.000046   -0.010424
     14          6           0       -3.207591   -1.210563    0.018274
     15          6           0       -3.207918    1.210438    0.019163
     16          6           0       -4.599407   -1.202906    0.072661
     17          1           0       -2.666086   -2.152109    0.001011
     18          6           0       -4.599736    1.202364    0.073541
     19          1           0       -2.666667    2.152142    0.002589
     20          6           0       -5.322458   -0.000377    0.098410
     21          1           0       -5.135655   -2.149427    0.097139
     22          1           0       -5.136238    2.148722    0.098708
     23          6           0       -6.832984   -0.000611    0.120652
     24          1           0       -7.240661   -0.000816   -0.899685
     25          1           0       -7.227271   -0.887373    0.629544
     26          1           0       -7.227555    0.886152    0.629316
     27          8           0        5.765167    0.001618   -0.349146
     28          6           0        6.439776   -0.003561    0.912651
     29          1           0        6.183440   -0.901339    1.492274
     30          1           0        7.509432   -0.002701    0.690761
     31          1           0        6.183444    0.889529    1.499480
 ---------------------------------------------------------------------
                    Distance matrix (angstroms):
                    1          2          3          4          5
     1  C    0.000000
     2  C    1.392830   0.000000
     3  C    2.436121   1.411039   0.000000
     4  C    2.797481   2.426980   1.411052   0.000000
     5  C    2.425210   2.797478   2.436118   1.392814   0.000000
     6  C    1.398761   2.416804   2.810129   2.416812   1.398788
     7  H    1.086335   2.162600   3.425937   3.883596   3.402652
     8  H    2.153659   1.086091   2.160314   3.410419   3.883548
     9  H    3.883550   3.410415   2.160325   1.086091   2.153648
    10  H    3.402686   3.883599   3.425910   2.162541   1.086340
    11  C    3.739774   2.464373   1.424840   2.464376   3.739763
    12  C    4.907527   3.574797   2.642459   3.574772   4.907495
    13  C    6.298023   4.938761   4.067290   4.938743   6.297995
    14  C    7.316001   6.019849   4.940767   5.510236   6.903049
    15  C    6.903041   5.510213   4.940725   6.019802   7.315945
    16  C    8.640373   7.313733   6.298928   6.903119   8.295929
    17  H    7.196497   6.001228   4.762566   5.056503   6.430435
    18  C    8.295924   6.903100   6.298898   7.313702   8.640331
    19  H    6.430397   5.056448   4.762486   6.001151   7.196413
    20  C    9.100407   7.722370   6.906367   7.722367   9.100390
    21  H    9.450961   8.164637   7.055272   7.498647   8.882366
    22  H    8.882340   7.498605   7.055221   8.164590   9.450902
    23  C   10.599219   9.217031   8.416749   9.217028  10.599201
    24  H   11.018455   9.642726   8.851034   9.642634  11.018350
    25  H   11.151592   9.788850   8.886015   9.566505  10.957068
    26  H   10.957039   9.566460   8.886007   9.788882  11.151609
    27  O    2.405533   3.676315   4.190388   3.676461   2.405770
    28  C    3.218215   4.454136   4.976953   4.451522   3.214649
    29  H    3.697402   4.731138   4.973310   4.243039   3.048624
    30  H    4.113478   5.422436   5.990577   5.420581   4.111073
    31  H    3.054107   4.247041   4.973318   4.727567   3.692881
                    6          7          8          9         10
     6  C    0.000000
     7  H    2.148180   0.000000
     8  H    3.402575   2.496872   0.000000
     9  H    3.402588   4.969645   4.306319   0.000000
    10  H    2.148260   4.287475   4.969648   2.496786   0.000000
    11  C    4.234969   4.624116   2.682756   2.682753   4.624063
    12  C    5.452589   5.730867   3.546426   3.546371   5.730773
    13  C    6.877419   7.072368   4.757888   4.757844   7.072273
    14  C    7.696105   8.181703   5.997696   5.054344   7.520562
    15  C    7.696069   7.520633   5.054342   5.997633   8.181594
    16  C    9.073237   9.466591   7.189762   6.429194   8.905181
    17  H    7.379485   8.145767   6.173177   4.424051   6.920823
    18  C    9.073210   8.905252   6.429189   7.189719   9.466493
    19  H    7.379417   6.920875   4.424017   6.173086   8.145643
    20  C    9.716496   9.815673   7.401959   7.401944   9.815589
    21  H    9.769426  10.326875   8.127560   6.895490   9.392258
    22  H    9.769379   9.392313   6.895460   8.127504  10.326767
    23  C   11.226869  11.294357   8.857891   8.857875  11.294270
    24  H   11.645809  11.705233   9.277565   9.277377  11.704994
    25  H   11.682490  11.903913   9.515987   9.105925  11.580105
    26  H   11.682483  11.580119   9.105851   9.516044  11.903895
    27  O    1.380666   2.626612   4.555654   4.555867   2.627070
    28  C    2.362933   3.287923   5.271642   5.267745   3.281857
    29  H    2.665541   4.015172   5.632723   4.894456   2.895679
    30  H    3.263071   4.020325   6.206680   6.203822   4.016076
[...]
 .00003482,-0.00007005,-0.00008771,0.00045214,-0.00003421,-0.00002442,-
 0.00007543,-0.00265701,-0.00327099,0.00168022,0.00030077,-0.00039126,0
 .00004460,-0.00007217,0.00006164,-0.00005165,0.05350769,0.11263756,-0.
 13274016,0.01064449,0.02443965,-0.01760721,-0.05553081,-0.12441001,0.1
 4077057,-0.00003391,0.00003122,-0.00000994,0.00000350,0.00003451,-0.00
 000115,0.00002025,0.00001127,-0.00000009,0.00000852,-0.00002530,0.0000
 0375,-0.00003540,-0.00004174,0.00000306,0.00010101,0.00002139,0.000000
 32,-0.00000604,-0.00000422,0.00000070,0.00000521,0.00000066,0.00000169
 ,0.00000653,-0.00000302,0.00000138,-0.00000582,0.00000450,-0.00000029,
 0.00003155,-0.00000716,-0.00001837,-0.00006798,-0.00009112,0.00007845,
 0.00015508,-0.00015251,0.00018793,-0.00016176,0.00125377,-0.00108512,-
 0.00013998,0.00003178,-0.00043414,-0.00557154,-0.00213513,0.00077120,-
 0.00046259,-0.00002794,-0.00005688,0.00130921,0.00166963,-0.00082718,0
 .00002765,-0.00001471,0.00002022,-0.01455601,0.02951863,0.00961943,0.0
 0005341,0.00006895,0.00027012,-0.00022160,-0.00124068,0.00063358,-0.09
 187102,0.08998804,0.03537550,0.00417690,-0.00891894,-0.00217812,0.0049
 0404,-0.00978248,-0.00521107,0.10244861,0.00002120,-0.00001433,0.00000
 305,-0.00000435,-0.00001900,0.00000106,0.00000214,-0.00000256,0.000011
 78,-0.00000660,0.00001516,0.00000086,0.00002122,0.00001856,-0.00000301
 ,-0.00005970,-0.00001058,-0.00000034,0.00000354,0.00000232,-0.00000120
 ,-0.00000456,-0.00000230,0.00000024,-0.00000443,0.00000306,-0.00000211
 ,0.00000283,-0.00000274,0.,-0.00005258,-0.00000329,0.00000993,0.000125
 45,0.00003046,-0.00016522,-0.00027722,0.00035396,0.00001398,-0.0002681
 7,-0.00005406,-0.00001390,0.00070212,0.00025334,0.00055128,0.00014509,
 0.00030819,-0.00052583,0.00003333,-0.00000004,-0.00001081,-0.00200463,
 0.00035390,0.00028062,0.00006681,0.00000048,-0.00004613,-0.00103320,0.
 00263715,0.00232275,-0.00020566,0.00038410,-0.00012463,-0.00002744,0.0
 0016892,-0.00050036,0.09210055,-0.24214074,-0.07080165,0.00123801,-0.0
 0396927,-0.00135039,0.00959109,-0.01937870,-0.00874731,-0.10016743,0.2
 6105682,0.00001580,-0.00001738,0.00000263,0.00000061,-0.00001162,0.000
 00070,-0.00002834,-0.00000313,0.00000328,-0.00000269,0.00000756,-0.000
 00052,0.00001724,0.00002176,-0.00000471,-0.00005279,-0.00001169,0.0000
 0040,0.00000269,0.00000229,0.00000032,-0.00000227,-0.00000008,0.000001
 08,-0.00000186,0.00000082,0.00000022,0.00000247,-0.00000223,0.00000073
 ,0.00003612,0.00000107,-0.00000538,-0.00007586,0.,0.00002505,0.0001277
 4,0.00043247,-0.00008102,-0.00082560,-0.00008015,0.00007827,0.00014724
 ,-0.00002156,-0.00014191,-0.00021316,0.00009904,0.00059422,-0.00005437
 ,-0.00000339,-0.00007849,0.00018484,-0.00028295,0.00039772,0.00001122,
 -0.00000885,-0.00001944,-0.00295531,0.00313700,0.00005078,-0.00000204,
 -0.00020803,0.00001754,0.00029164,0.00035806,0.00007865,0.03664265,-0.
 07118437,-0.07394148,0.01314205,-0.02795268,-0.00949549,-0.00932523,0.
 01661895,0.00698244,-0.03714605,0.07909717,0.07553483,-0.05507830,0.01
 218803,-0.00335705,0.00761843,0.00314996,-0.00041638,-0.00564598,-0.00
 319532,0.00039943,0.00255928,-0.00073908,0.00002179,-0.03672798,-0.013
 39114,0.00104135,-0.28127119,-0.04873239,0.00201211,0.00113276,-0.0008
 0175,0.00022735,-0.00106442,0.00013443,-0.00005321,-0.00120773,-0.0000
 5608,-0.00001747,0.00008296,0.00044344,-0.00000217,0.00250813,-0.00005
 198,0.00008382,-0.00250770,-0.00005862,-0.00004957,0.00221180,0.000097
 15,0.00001218,-0.00066417,0.00019770,-0.00006648,-0.00064725,-0.000246
 64,0.00000391,-0.00017873,0.00051890,-0.00009825,0.00012529,0.00004588
 ,0.00000899,-0.00012390,-0.00053643,0.00007237,0.00012704,-0.00003784,
 0.00002169,-0.00011706,0.00002906,0.00025444,-0.00016885,-0.00016358,0
 .00002931,-0.00017556,0.00014743,-0.00002043,0.00007745,-0.00004606,-0
 .00033114,-0.00031963,-0.00002492,-0.00007819,-0.00014414,-0.00006604,
 0.00010474,-0.00014956,0.00007988,0.00007995,0.52200692,0.04455543,0.0
 0972394,0.00049460,-0.00239220,-0.00823609,0.00190510,-0.00055878,0.00
 425059,-0.00089094,0.00508685,-0.00770400,0.00235487,-0.03989351,0.001
 48122,0.00015970,-0.01064650,-0.11116308,0.01073140,-0.00020421,0.0015
 3845,-0.00074182,0.00168755,0.00013440,0.00006450,-0.00161666,0.000093
 17,-0.00006732,0.00190799,0.00150752,-0.00062798,-0.00002553,0.0004771
 5,-0.00013851,0.00004189,-0.00002477,-0.00000269,-0.00010236,-0.000030
 07,0.00000561,0.00004182,-0.00004722,0.00001108,0.00002929,-0.00000084
 ,0.00000404,0.00002149,-0.00001190,0.00000350,-0.00000863,0.00000246,-
 0.00000292,0.00000726,0.00003020,-0.00000319,-0.00001400,0.00001644,-0
 .00000472,-0.00000646,0.00000284,-0.00001218,0.00001630,0.00001171,-0.
 00000245,0.00000550,-0.00000680,0.00000046,-0.00000451,0.00000141,0.00
 001607,0.00001624,-0.00000069,0.00000511,0.00000909,0.00000575,-0.0000
 0757,0.00000582,-0.00000319,-0.00000306,-0.08032478,0.33961417,-0.0084
 4261,-0.00026661,0.00604095,0.00045544,0.00203654,0.00394311,-0.000013
 88,-0.00095371,-0.00118768,-0.00089348,0.00221832,0.00615123,0.0052062
 2,0.00078422,0.00847244,-0.00397103,0.00983536,-0.04289907,0.00013301,
 -0.00075582,-0.00303097,-0.00029700,0.00002788,0.00028017,0.00022786,-
 0.00003071,-0.00008351,-0.00023266,-0.00066245,-0.00267598,0.00007262,
 -0.00013943,-0.00037914,-0.00006436,-0.00000725,-0.00005887,0.00006741
 ,0.00001167,0.00002535,-0.00002265,0.00001237,-0.00000088,-0.00002016,
 -0.00000375,0.00001510,-0.00000748,0.00001498,0.00000378,0.00000455,-0
 .00000085,-0.00000840,-0.00000400,-0.00001665,0.00000398,0.00000547,-0
 .00000485,-0.00000791,-0.00000269,0.00000316,0.00002467,-0.00000660,-0
 .00000617,-0.00000170,-0.00000492,0.00000410,-0.00000301,0.00000303,-0
 .00000253,-0.00001888,-0.00000944,-0.00000041,-0.00000140,-0.00000483,
 -0.00000363,0.00000340,-0.00000453,0.00000324,0.00000180,0.02330692,-0
 .04463398,0.07511096,-0.00065055,-0.00504302,0.00070986,-0.00145781,0.
 00147468,-0.00030400,0.00126130,0.00034207,-0.00003072,-0.00059100,0.0
 0184863,-0.00031146,0.00244766,0.00036062,0.00003039,-0.04470588,0.033
 30999,-0.00615521,-0.00002282,0.00041721,-0.00005082,-0.00022286,-0.00
 015671,0.00002634,0.00044898,0.00008166,-0.00000228,-0.00248609,0.0008
 1835,-0.00018433,-0.00081281,0.00005602,-0.00002104,0.00068309,0.00001
 112,0.00001220,-0.00057310,-0.00002728,0.00000032,0.00016457,-0.000034
 83,0.00001312,0.00016292,0.00004119,0.00000125,0.00003807,-0.00011862,
 0.00002333,-0.00003100,-0.00001270,-0.00000201,0.00002327,0.00012570,-
 0.00001622,-0.00003101,0.00001300,-0.00000580,0.00002717,-0.00000673,-
 0.00006432,0.00004219,0.00004021,-0.00000732,0.00004094,-0.00003551,0.
 00000472,-0.00002113,0.00000929,0.00008000,0.00007716,0.00000589,0.000
 02058,0.00003542,0.00001740,-0.00002624,0.00003607,-0.00001997,-0.0000
 1908,-0.12105754,0.04139904,-0.00793794,0.57462158,-0.00507806,0.00143
 351,0.00010078,0.00020926,-0.00003880,0.00026943,-0.00134714,0.0004747
 9,-0.00006366,0.00118480,-0.00137392,0.00029990,-0.00931126,0.00189955
 ,-0.00072001,0.01219058,0.00535521,-0.00141362,0.00006360,0.00007157,-
 0.00011224,-0.00036299,0.00008824,-0.00006907,-0.00045849,-0.00013170,
 0.00001022,-0.00149575,-0.00085315,0.00007991,0.00070983,-0.00012221,-
 0.00000783,-0.00070770,-0.00004183,-0.00002922,0.00068162,0.00004162,0
 .00001841,-0.00021871,0.00008853,-0.00002873,-0.00019581,-0.00007634,-
 0.00000059,-0.00005735,0.00015789,-0.00002972,0.00004236,0.00001065,0.
 00000566,-0.00004088,-0.00017325,0.00002354,0.00004156,-0.00001853,0.0
 0000857,-0.00003214,0.00001048,0.00007783,-0.00005822,-0.00005378,0.00
 001023,-0.00005205,0.00004476,-0.00000569,0.00002475,-0.00001469,-0.00
 010399,-0.00010071,-0.00000571,-0.00002511,-0.00004633,-0.00002177,0.0
 0003458,-0.00004545,0.00002353,0.00002428,0.07225778,-0.18096879,0.020
 69171,0.07999029,0.50458636,0.00071566,0.00010249,0.00284050,-0.000106
 09,0.00029882,0.00159332,0.00023476,-0.00002298,0.00028638,-0.00020816
 ,0.00031460,0.00029852,0.00155063,-0.00049231,-0.00117376,-0.00283775,
 -0.00091883,-0.00540087,0.00000495,-0.00010401,-0.00063684,0.00005876,
 -0.00006415,-0.00028502,0.00008254,0.00002301,0.00000058,0.00017950,0.
 00013418,-0.00013862,-0.00012310,-0.00002527,-0.00029149,0.00012862,-0
 .00000721,-0.00008401,-0.00012218,0.00000279,0.00005735,0.00003893,-0.
 00001541,0.00000198,0.00003465,0.00001194,-0.00000688,0.00001039,-0.00
 002948,-0.00000607,-0.00000772,-0.00000005,0.00001124,0.00000672,0.000
 02932,-0.00000757,-0.00000734,0.00000405,0.00000399,0.00000561,-0.0000
 0153,-0.00001150,0.00000997,0.00001009,0.00000242,0.00000906,-0.000007
 31,0.00000449,-0.00000440,0.00000187,0.00001884,0.00001639,0.00000118,
 0.00000270,0.00000862,0.00000537,-0.00000556,0.00000875,-0.00000491,-0
 .00000354,-0.01278625,0.01996696,-0.06352106,-0.01257347,0.01286731,0.
 57222654,-0.00130834,0.00053080,-0.00069603,0.00090774,0.00044141,-0.0
 0026287,0.00002941,-0.00091027,0.00008172,-0.00082909,0.00019686,-0.00
 059451,0.00010281,-0.00081348,0.00030406,0.00471196,0.00171654,0.00198
 020,0.00004918,-0.00009935,0.00015431,-0.00000335,0.00001227,0.0000452
 0,-0.00000614,0.00001369,0.00004291,-0.00185276,0.00001656,0.00148423,
 0.00001598,-0.00000655,0.00012934,-0.00000633,0.00001166,0.00001056,-0
 .00000827,-0.00000202,-0.00001816,0.00000358,-0.00000425,-0.00000631,0
 .00000187,0.00000646,0.00000796,0.00000197,-0.00000246,0.00000757,-0.0
 0000136,-0.00000121,-0.00000064,0.00000364,0.00000278,-0.00000643,-0.0
 0000114,0.00000048,-0.00000002,-0.00000122,-0.00000126,-0.00000193,0.0
 0000129,0.00000123,-0.00000025,0.00000148,-0.00000122,-0.00000014,-0.0
 0000047,0.00000003,0.00000270,0.00000243,0.00000037,0.00000059,0.00000
 087,0.00000060,-0.00000083,0.00000116,-0.00000057,-0.00000063,-0.00257
 760,0.02272562,0.01535243,-0.06017078,-0.03065502,-0.03279445,0.060781
 01,0.00134443,-0.00050488,0.00048202,-0.00051462,-0.00002953,0.0002176
 2,0.00035250,0.00024694,-0.00007065,0.00002940,0.00011786,-0.00007788,
 0.00068965,0.00046283,0.00033838,-0.00641637,-0.00058110,-0.00050290,-
 0.00009410,0.00013014,-0.00020824,0.00005646,-0.00002591,-0.00003672,0
 .00007206,0.00002732,0.00001251,-0.00030764,0.00049073,-0.00001643,-0.
 00017557,0.00003182,-0.00001602,0.00016696,0.00000214,0.00000168,-0.00
 014209,-0.00000794,0.00000153,0.00004242,-0.00001165,0.00000873,0.0000
 4130,0.00001202,-0.00000304,0.00001121,-0.00003094,0.00000555,-0.00000
 792,-0.00000261,-0.00000239,0.00000668,0.00003350,-0.00000080,-0.00000
 803,0.00000291,-0.00000284,0.00000729,-0.00000188,-0.00001666,0.000010
 94,0.00001027,-0.00000256,0.00001049,-0.00000911,0.00000055,-0.0000051
 0,0.00000260,0.00002005,0.00002012,0.00000154,0.00000529,0.00000901,0.
 00000403,-0.00000672,0.00000918,-0.00000457,-0.00000500,0.01121217,-0.
 03133554,-0.01542198,-0.02716091,-0.15437947,-0.11999485,0.02237375,0.
 17992079,0.00033468,0.00003268,-0.00029520,-0.00010211,0.00006019,-0.0
 0006771,0.00003962,-0.00005294,-0.00003902,-0.00014800,0.00047078,-0.0
 0011737,0.00033915,-0.00122593,0.00010478,-0.00085427,-0.00020084,0.00
 068130,-0.00004449,0.00006151,0.00001546,0.00001226,0.00000956,0.00001
 462,0.00002884,-0.00000659,0.00000636,0.00021007,0.00067047,-0.0002467
 2,-0.00005188,0.00005446,0.00001888,0.00001893,0.00000748,-0.00000188,
 -0.00001976,-0.00000532,0.00000130,0.00000514,-0.00000628,-0.00000069,
 0.00000409,0.00000110,0.00000215,0.00000054,-0.00000558,0.00000404,-0.
 00000011,0.00000152,-0.00000304,0.00000013,0.00000782,-0.00000146,-0.0
 0000003,0.00000005,-0.00000123,0.00000262,-0.00000029,-0.00000168,0.00
 000200,0.00000147,-0.00000109,0.00000039,-0.00000087,-0.00000051,-0.00
 000069,0.00000070,0.00000254,0.00000328,-0.00000017,0.00000106,0.00000
 159,0.00000021,-0.00000138,0.00000098,0.00000011,-0.00000079,0.0040262
 2,0.00421759,0.01095316,-0.02999425,-0.12239811,-0.19466954,0.03175420
 ,0.13499547,0.20138695,-0.00113183,-0.00035883,0.00002460,0.00001456,0
 .00036309,-0.00005698,-0.00003428,-0.00000485,0.00000175,0.00002444,-0
 .00009044,0.00001010,0.00013652,0.00020604,-0.00003654,0.00185157,0.00
 334557,-0.00049641,0.00001883,0.00003069,-0.00000481,-0.00010735,-0.00
 000275,-0.00000108,-0.00004350,-0.00001356,0.00000039,0.00010374,0.000
 01779,0.00001061,0.00008421,-0.00001006,0.00000411,-0.00009230,-0.0000
 0324,-0.00000174,0.00009795,0.00000433,0.00000090,-0.00003014,0.000009
 38,-0.00000308,-0.00002941,-0.00001175,0.00000060,-0.00000899,0.000020
 86,-0.00000410,0.00000693,0.00000396,0.00000006,-0.00000667,-0.0000218
 0,0.00000257,0.00000727,-0.00000329,0.00000121,-0.00000176,0.00000133,
 0.00001119,-0.00000796,-0.00000765,0.00000138,-0.00000854,0.00000705,-
 0.00000098,0.00000371,-0.00000174,-0.00001447,-0.00001418,-0.00000124,
 -0.00000382,-0.00000640,-0.00000339,0.00000479,-0.00000674,0.00000414,
 0.00000361,-0.02720055,0.00150069,-0.00088813,-0.28344199,-0.09418044,
 0.00938964,-0.00171502,-0.00255287,0.00014246,0.31445035,0.00155784,0.
 00045848,-0.00000101,-0.00017703,-0.00048950,0.00007435,-0.00008963,0.
 00016141,-0.00003950,0.00019681,0.00047069,-0.00003731,-0.00019138,-0.
 00126208,0.00024246,0.00198898,-0.00416218,0.00079709,-0.00005185,-0.0
 0001675,0.00000431,0.00012896,0.00001557,-0.00000632,0.00005918,-0.000
 00574,0.00000711,-0.00039826,0.00078195,-0.00020549,-0.00003227,0.0000
 5248,-0.00001078,0.00000576,-0.00000053,-0.00000142,-0.00000421,-0.000
 00348,0.00000018,0.00000156,-0.00000281,0.00000087,0.00000157,0.000000
 54,-0.00000086,0.00000010,-0.00000140,-0.00000020,0.00000051,0.0000014
 6,-0.00000022,-0.00000110,0.00000253,0.00000005,0.00000003,-0.00000031
 ,0.00000013,0.00000207,0.00000059,0.00000101,0.00000032,0.00000001,0.0
 0000005,-0.00000022,-0.00000007,0.00000010,0.00000004,-0.00000023,0.00
 000011,0.00000050,-0.00000005,-0.00000025,0.00000027,-0.00000019,-0.00
 000002,0.00000009,0.00000029,-0.00000007,0.03960544,0.00454500,0.00030
 349,-0.10736779,-0.08831083,0.00300035,-0.01899389,-0.00568337,0.00245
 845,0.09470978,0.09659397,-0.00027638,-0.00004627,0.00021827,0.0000278
 1,0.00008717,-0.00000165,0.00001505,-0.00003723,-0.00006925,-0.0000350
 6,-0.00004392,0.00021068,0.00002607,0.00025151,0.00026934,-0.00028387,
 0.00082926,0.00047806,0.00000816,0.00000628,0.00001784,-0.00002175,-0.
 00000943,-0.00004309,-0.00001104,0.00000539,0.00002948,0.00007595,-0.0
 0019567,-0.00043347,0.00000741,-0.00001083,-0.00001194,-0.00000283,-0.
 00000154,-0.00001096,0.00000287,0.00000129,0.00000441,-0.00000095,0.00
 000059,-0.00000055,-0.00000083,-0.00000131,-0.00000588,-0.00000021,0.0
 0000055,-0.00000106,0.00000007,-0.00000005,0.00000054,-0.00000009,-0.0
 0000047,0.00000291,0.00000015,0.00000009,0.00000072,-0.00000043,0.0000
 0061,0.00000429,-0.00000025,-0.00000015,0.00000026,-0.00000017,0.00000
 026,0.00000049,0.00000022,-0.00000018,-0.00000216,-0.00000051,-0.00000
 010,-0.00000022,-0.00000017,0.00000007,0.00000014,-0.00000012,-0.00000
 009,0.00000020,-0.00687498,-0.00059234,0.00048345,0.01146231,0.0033104
 5,-0.05341824,-0.02307439,-0.00887698,0.00242817,-0.00862487,-0.005392
 04,0.04875894,-0.00130912,0.00070968,0.00045006,0.00088855,0.00050939,
 0.00015618,0.00003068,-0.00088990,0.00020543,-0.00085995,0.00038630,0.
 00046471,0.00013137,-0.00091808,-0.00002443,0.00472048,0.00103772,-0.0
 0221654,0.00005272,-0.00013753,-0.00011441,-0.00000017,-0.00000205,-0.
 00004722,-0.00000219,-0.00000037,-0.00004549,-0.00177447,-0.00041592,-
 0.00149939,0.00001828,-0.00004391,-0.00012215,-0.00000372,0.00000906,-
 0.00001321,-0.00001101,0.00000298,0.00001775,0.00000369,-0.00000256,0.
 00000780,0.00000274,0.00000384,-0.00000914,0.00000237,-0.00000505,-0.0
 0000592,-0.00000145,-0.00000086,0.00000088,0.00000338,0.00000531,0.000
 00541,-0.00000118,0.00000050,-0.00000030,-0.00000079,-0.00000149,-0.00
 000276,0.00000141,0.00000138,-0.00000017,0.00000159,-0.00000123,0.0000
 0050,-0.00000048,0.00000074,0.00000296,0.00000230,0.00000017,0.0000006
 5,0.00000129,0.00000062,-0.00000091,0.00000126,-0.00000089,-0.00000061
 ,-0.00142221,0.01674027,-0.02200654,-0.06383402,-0.02295195,0.04907675
 ,0.00186547,0.00091920,-0.00571160,-0.00291245,-0.01095221,0.02758284,
 0.06440565,0.00118800,-0.00062174,-0.00031434,-0.00044145,-0.00011382,
 -0.00022230,0.00032254,0.00025203,-0.00000822,0.00006508,-0.00001568,0
 .00005342,0.00057165,0.00068581,-0.00050144,-0.00583922,-0.00029198,0.
 00051963,-0.00008401,0.00016056,0.00015645,0.00004790,-0.00001383,0.00
 004792,0.00006031,0.00002405,-0.00001564,-0.00036489,0.00022457,-0.000
 16424,-0.00015181,0.00001853,0.00000798,0.00015309,-0.00000061,0.00000
 426,-0.00012930,-0.00000612,-0.00000169,0.00003896,-0.00001084,-0.0000
 0135,0.00003807,0.00001221,0.00000362,0.00001028,-0.00002731,0.0000064
 3,-0.00000756,-0.00000264,0.00000046,0.00000652,0.00002841,-0.00000728
 ,-0.00000769,0.00000309,-0.00000031,0.00000643,-0.00000147,-0.00001378
 ,0.00000977,0.00000948,-0.00000125,0.00000990,-0.00000827,0.00000161,-
 0.00000479,0.00000269,0.00001856,0.00001790,0.00000127,0.00000442,0.00
 000833,0.00000413,-0.00000586,0.00000841,-0.00000487,-0.00000424,0.008
 36541,-0.02390344,0.02696374,-0.02037829,-0.08770193,0.08491395,0.0034
 4045,0.01111108,-0.01914869,-0.00295679,-0.00314544,0.01071507,0.01599
 682,0.10333209,-0.00078364,0.00010415,-0.00017767,0.00029522,-0.000020
 10,0.00003592,-0.00014179,-0.00008411,-0.00004596,0.00009514,-0.000484
 29,0.00004732,-0.00053004,0.00099306,-0.00014694,0.00297623,0.00057133
 ,0.00038336,0.00007514,-0.00011464,-0.00001848,-0.00002912,-0.00000059
 ,-0.00000062,-0.00005011,0.00000066,0.00000569,-0.00018172,-0.00084489
 ,-0.00005985,0.00010297,-0.00005589,0.00003088,-0.00006935,-0.00000785
 ,-0.00000316,0.00006183,0.00000791,0.00000238,-0.00001772,0.00000939,-
 0.00000307,-0.00001646,-0.00000431,-0.00000013,-0.00000399,0.00001543,
 -0.00000006,0.00000261,-0.00000165,-0.00000222,-0.00000196,-0.00001704
 ,0.00000395,0.00000249,-0.00000138,-0.00000089,-0.00000505,0.00000074,
 0.00000729,-0.00000518,-0.00000479,-0.00000016,-0.00000350,0.00000333,
 -0.00000124,0.00000227,-0.00000148,-0.00001028,-0.00000857,-0.00000029
 ,-0.00000172,-0.00000430,-0.00000209,0.00000307,-0.00000400,0.00000182
 ,0.00000192,-0.00755502,0.00779108,0.00236489,0.04532209,0.08717477,-0
 .25768829,0.00609962,0.00917325,-0.02017148,0.00052704,-0.00119462,0.0
 0109027,-0.04615112,-0.10300689,0.27435528\\0.00000297,-0.00000135,-0.
 00000178,-0.00000212,-0.00000333,-0.00000056,-0.00001357,-0.00000173,0
 .00000264,0.00001274,0.00000460,-0.00000321,-0.00000870,-0.00000338,0.
 00000121,0.00001005,0.00000096,-0.00000003,-0.00000097,0.00000161,0.00
 000216,0.00000219,0.00000142,0.00000059,-0.00000085,-0.00000082,0.0000
 0210,0.00000003,-0.00000035,-0.00000091,0.00000664,0.00000115,-0.00000
 070,-0.00000302,0.00000216,-0.00000357,0.00000942,-0.00000958,0.000005
 31,-0.00000217,0.00000569,-0.00000358,-0.00000528,0.00000138,-0.000002
 53,0.00000012,-0.00000043,-0.00000188,-0.00000057,-0.00000083,0.000000
 89,0.00000326,0.00000229,-0.00000057,0.00000015,0.00000093,0.00000143,
 -0.00000532,-0.00000047,0.00000146,0.00000060,0.00000013,0.00000119,0.
 00000069,0.00000087,0.00000149,0.00000104,0.00000110,0.00000528,-0.000
 00082,-0.00000037,-0.00000185,0.00000055,-0.00000035,-0.00000187,0.000
 00072,0.00000069,-0.00000270,-0.00000802,0.00000508,0.00000039,0.00000
 084,-0.00001202,0.00000289,0.00000267,0.00000199,0.00000201,-0.0000009
 8,0.00000177,-0.00000345,-0.00000231,0.00000121,-0.00000187\\\@


 KNIGHT- SIRE, I'VE JUST RETURNED FROM THE FRONT
 KING-   HOW GOES THE BATTLE                    
 KNIGHT- THE SITUATION IS QUITE FLUID           
 KING-   WHAT DOES *THAT* MEAN                  
 KNIGHT- WE'RE UP THE CREEK                     
                THE WIZARD OF ID                
 Job cpu time:       0 days  2 hours 42 minutes 49.0 seconds.
 Elapsed time:       0 days  0 hours  5 minutes 25.7 seconds.
 File lengths (MBytes):  RWF=    386 Int=      0 D2E=      0 Chk=     13 Scr=      1
 Normal termination of Gaussian 16 at Sun Sep 17 15:39:40 2023.
