 Entering Gaussian System, Link 0=/home/ubuntu/g16/g16
 Input=/home/ubuntu/ML products/molecule_102.gjf
 Output=/home/ubuntu/ML products/molecule_102.log
 Initial command:
 /home/ubuntu/g16/l1.exe "/home/ubuntu/Scratch/Gau-287469.inp" -scrdir="/home/ubuntu/Scratch/"
 Entering Link 1 = /home/ubuntu/g16/l1.exe PID=    287471.
  
 Copyright (c) 1988-2017, Gaussian, Inc.  All Rights Reserved.
  
 This is part of the Gaussian(R) 16 program.  It is based on
 the Gaussian(R) 09 system (copyright 2009, Gaussian, Inc.),
 the Gaussian(R) 03 system (copyright 2003, Gaussian, Inc.),
 the Gaussian(R) 98 system (copyright 1998, Gaussian, Inc.),
 the Gaussian(R) 94 system (copyright 1995, Gaussian, Inc.),
 the Gaussian 92(TM) system (copyright 1992, Gaussian, Inc.),
 the Gaussian 90(TM) system (copyright 1990, Gaussian, Inc.),
 the Gaussian 88(TM) system (copyright 1988, Gaussian, Inc.),
 the Gaussian 86(TM) system (copyright 1986, Carnegie Mellon
 University), and the Gaussian 82(TM) system (copyright 1983,
 Carnegie Mellon University). Gaussian is a federally registered
 trademark of Gaussian, Inc.
  
 This software contains proprietary and confidential information,
 including trade secrets, belonging to Gaussian, Inc.
  
 This software is provided under written license and may be
 used, copied, transmitted, or stored only in accord with that
 written license.
  
 The following legend is applicable only to US Government
 contracts under FAR:
  
                    RESTRICTED RIGHTS LEGEND
  
 Use, reproduction and disclosure by the US Government is
 subject to restrictions as set forth in subparagraphs (a)
 and (c) of the Commercial Computer Software - Restricted
 Rights clause in FAR 52.227-19.
  
 Gaussian, Inc.
 340 Quinnipiac St., Bldg. 40, Wallingford CT 06492
  
  
 ---------------------------------------------------------------
 Warning -- This program may not be used in any manner that
 competes with the business of Gaussian, Inc. or will provide
 assistance to any competitor of Gaussian, Inc.  The licensee
 of this program is prohibited from giving any competitor of
 Gaussian, Inc. access to this program.  By using this program,
 the user acknowledges that Gaussian, Inc. is engaged in the
 business of creating and licensing software in the field of
 computational chemistry and represents and warrants to the
 licensee that it is not a competitor of Gaussian, Inc. and that
 it will not use this program in any manner prohibited above.
 ---------------------------------------------------------------
  

 Cite this work as:
 Gaussian 16, Revision B.01,
 M. J. Frisch, G. W. Trucks, H. B. Schlegel, G. E. Scuseria, 
 M. A. Robb, J. R. Cheeseman, G. Scalmani, V. Barone, 
 G. A. Petersson, H. Nakatsuji, X. Li, M. Caricato, A. V. Marenich, 
 J. Bloino, B. G. Janesko, R. Gomperts, B. Mennucci, H. P. Hratchian, 
 J. V. Ortiz, A. F. Izmaylov, J. L. Sonnenberg, D. Williams-Young, 
 F. Ding, F. Lipparini, F. Egidi, J. Goings, B. Peng, A. Petrone, 
 T. Henderson, D. Ranasinghe, V. G. Zakrzewski, J. Gao, N. Rega, 
 G. Zheng, W. Liang, M. Hada, M. Ehara, K. Toyota, R. Fukuda, 
 J. Hasegawa, M. Ishida, T. Nakajima, Y. Honda, O. Kitao, H. Nakai, 
 T. Vreven, K. Throssell, J. A. Montgomery, Jr., J. E. Peralta, 
 F. Ogliaro, M. J. Bearpark, J. J. Heyd, E. N. Brothers, K. N. Kudin, 
 V. N. Staroverov, T. A. Keith, R. Kobayashi, J. Normand, 
 K. Raghavachari, A. P. Rendell, J. C. Burant, S. S. Iyengar, 
 J. Tomasi, M. Cossi, J. M. Millam, M. Klene, C. Adamo, R. Cammi, 
 J. W. Ochterski, R. L. Martin, K. Morokuma, O. Farkas, 
 J. B. Foresman, and D. J. Fox, Gaussian, Inc., Wallingford CT, 2016.
 
 ******************************************
 Gaussian 16:  EM64L-G16RevB.01 20-Dec-2017
                15-Sep-2023 
 ******************************************
 %nprocshared=30
 Will use up to   30 processors via shared memory.
 %mem=30GB
 %chk=molecule_102.chk
 ----------------------------------------------------------------------
 # opt freq b3lyp/6-31+g(d) geom=connectivity empiricaldispersion=gd3 v
 olume
 ----------------------------------------------------------------------
 1/18=20,19=15,26=3,38=1,57=2/1,3;
 2/9=110,12=2,17=6,18=5,40=1/2;
 3/5=1,6=6,7=11,11=2,25=1,30=1,71=1,74=-5,124=31/1,2,3;
 4//1;
 5/5=2,38=5/2;
 6/7=2,8=2,9=2,10=2,28=1,44=1/1,4;
 7//1,2,3,16;
 1/18=20,19=15,26=3/3(2);
 2/9=110/2;
 99//99;
 2/9=110/2;
 3/5=1,6=6,7=11,11=2,25=1,30=1,71=1,74=-5,124=31/1,2,3;
 4/5=5,16=3,69=1/1;
 5/5=2,38=5/2;
 7//1,2,3,16;
 1/18=20,19=15,26=3/3(-5);
 2/9=110/2;
 6/7=2,8=2,9=2,10=2,19=2,28=1,44=1/1,4;
 99/9=1/99;
 --------------
 ML molecule102
 --------------
 Symbolic Z-matrix:
 Charge =  0 Multiplicity = 1
 C                    -4.74942  -0.23058  -0.40002 
 C                    -4.8202    0.23854  -1.71867 
 C                    -4.55025   1.58484  -1.99888 
 C                    -4.20951   2.46203  -0.96044 
 C                    -4.13873   1.99291   0.35822 
 C                    -4.40868   0.64661   0.63842 
 H                    -5.08036  -0.43121  -2.51155 
 H                    -3.87857   2.66266   1.15109 
 H                    -4.35464   0.28843   1.64524 
 O                    -3.91049   3.9533   -1.27081 
 C                    -3.81752   4.69985  -2.77936 
 C                    -4.13168   3.88761  -3.87731 
 C                    -3.30395   5.98751  -2.98454 
 C                    -3.10452   6.46292  -4.28767 
 H                    -3.06408   6.60768  -2.14623 
 C                    -3.41867   5.65068  -5.38561 
 H                    -2.7124    7.44608  -4.44432 
 H                    -4.60429   1.94302  -3.0057 
 H                    -4.5238    2.90445  -3.72065 
 H                    -4.95553  -1.25851  -0.18608 
 H                    -3.26641   6.01366  -6.38058 
 N                    -3.93225   4.36302  -5.18043 
 

 GradGradGradGradGradGradGradGradGradGradGradGradGradGradGradGradGradGrad
 Berny optimization.
 Initialization pass.
                           ----------------------------
                           !    Initial Parameters    !
                           ! (Angstroms and Degrees)  !
 --------------------------                            --------------------------
 ! Name  Definition              Value          Derivative Info.                !
 --------------------------------------------------------------------------------
 ! R1    R(1,2)                  1.4014         estimate D2E/DX2                !
 ! R2    R(1,6)                  1.4014         estimate D2E/DX2                !
 ! R3    R(1,20)                 1.07           estimate D2E/DX2                !
 ! R4    R(2,3)                  1.4014         estimate D2E/DX2                !
 ! R5    R(2,7)                  1.07           estimate D2E/DX2                !
 ! R6    R(3,4)                  1.4014         estimate D2E/DX2                !
 ! R7    R(3,18)                 1.07           estimate D2E/DX2                !
 ! R8    R(4,5)                  1.4014         estimate D2E/DX2                !
 ! R9    R(4,10)                 1.5523         estimate D2E/DX2                !
 ! R10   R(5,6)                  1.4014         estimate D2E/DX2                !
 ! R11   R(5,8)                  1.07           estimate D2E/DX2                !
 ! R12   R(6,9)                  1.07           estimate D2E/DX2                !
 ! R13   R(10,11)                1.6857         estimate D2E/DX2                !
 ! R14   R(11,12)                1.4014         estimate D2E/DX2                !
 ! R15   R(11,13)                1.4014         estimate D2E/DX2                !
 ! R16   R(12,19)                1.07           estimate D2E/DX2                !
 ! R17   R(12,22)                1.4014         estimate D2E/DX2                !
 ! R18   R(13,14)                1.4014         estimate D2E/DX2                !
 ! R19   R(13,15)                1.07           estimate D2E/DX2                !
 ! R20   R(14,16)                1.4014         estimate D2E/DX2                !
 ! R21   R(14,17)                1.07           estimate D2E/DX2                !
 ! R22   R(16,21)                1.07           estimate D2E/DX2                !
 ! R23   R(16,22)                1.4014         estimate D2E/DX2                !
 ! A1    A(2,1,6)              120.0            estimate D2E/DX2                !
 ! A2    A(2,1,20)             120.0            estimate D2E/DX2                !
 ! A3    A(6,1,20)             120.0            estimate D2E/DX2                !
 ! A4    A(1,2,3)              120.0            estimate D2E/DX2                !
 ! A5    A(1,2,7)              120.0            estimate D2E/DX2                !
 ! A6    A(3,2,7)              120.0            estimate D2E/DX2                !
 ! A7    A(2,3,4)              120.0            estimate D2E/DX2                !
 ! A8    A(2,3,18)             120.0            estimate D2E/DX2                !
 ! A9    A(4,3,18)             120.0            estimate D2E/DX2                !
 ! A10   A(3,4,5)              120.0            estimate D2E/DX2                !
 ! A11   A(3,4,10)             120.0            estimate D2E/DX2                !
 ! A12   A(5,4,10)             120.0            estimate D2E/DX2                !
 ! A13   A(4,5,6)              120.0            estimate D2E/DX2                !
 ! A14   A(4,5,8)              120.0            estimate D2E/DX2                !
 ! A15   A(6,5,8)              120.0            estimate D2E/DX2                !
 ! A16   A(1,6,5)              120.0            estimate D2E/DX2                !
 ! A17   A(1,6,9)              120.0            estimate D2E/DX2                !
 ! A18   A(5,6,9)              120.0            estimate D2E/DX2                !
 ! A19   A(4,10,11)            127.9526         estimate D2E/DX2                !
 ! A20   A(10,11,12)           115.5989         estimate D2E/DX2                !
 ! A21   A(10,11,13)           123.9281         estimate D2E/DX2                !
 ! A22   A(12,11,13)           120.0            estimate D2E/DX2                !
 ! A23   A(11,12,19)           120.0            estimate D2E/DX2                !
 ! A24   A(11,12,22)           120.0            estimate D2E/DX2                !
 ! A25   A(19,12,22)           120.0            estimate D2E/DX2                !
 ! A26   A(11,13,14)           120.0            estimate D2E/DX2                !
 ! A27   A(11,13,15)           120.0            estimate D2E/DX2                !
 ! A28   A(14,13,15)           120.0            estimate D2E/DX2                !
 ! A29   A(13,14,16)           120.0            estimate D2E/DX2                !
 ! A30   A(13,14,17)           120.0            estimate D2E/DX2                !
 ! A31   A(16,14,17)           120.0            estimate D2E/DX2                !
 ! A32   A(14,16,21)           120.0            estimate D2E/DX2                !
 ! A33   A(14,16,22)           120.0            estimate D2E/DX2                !
 ! A34   A(21,16,22)           120.0            estimate D2E/DX2                !
 ! A35   A(12,22,16)           120.0            estimate D2E/DX2                !
 ! D1    D(6,1,2,3)              0.0001         estimate D2E/DX2                !
 ! D2    D(6,1,2,7)           -179.9998         estimate D2E/DX2                !
 ! D3    D(20,1,2,3)          -179.9999         estimate D2E/DX2                !
 ! D4    D(20,1,2,7)             0.0002         estimate D2E/DX2                !
 ! D5    D(2,1,6,5)             -0.0001         estimate D2E/DX2                !
 ! D6    D(2,1,6,9)            179.9998         estimate D2E/DX2                !
 ! D7    D(20,1,6,5)           179.9999         estimate D2E/DX2                !
 ! D8    D(20,1,6,9)            -0.0002         estimate D2E/DX2                !
 ! D9    D(1,2,3,4)              0.0001         estimate D2E/DX2                !
 ! D10   D(1,2,3,18)          -179.9999         estimate D2E/DX2                !
 ! D11   D(7,2,3,4)            179.9999         estimate D2E/DX2                !
 ! D12   D(7,2,3,18)            -0.0001         estimate D2E/DX2                !
 ! D13   D(2,3,4,5)             -0.0002         estimate D2E/DX2                !
 ! D14   D(2,3,4,10)           179.9998         estimate D2E/DX2                !
 ! D15   D(18,3,4,5)           179.9998         estimate D2E/DX2                !
 ! D16   D(18,3,4,10)           -0.0002         estimate D2E/DX2                !
 ! D17   D(3,4,5,6)              0.0001         estimate D2E/DX2                !
 ! D18   D(3,4,5,8)           -180.0            estimate D2E/DX2                !
 ! D19   D(10,4,5,6)          -179.9999         estimate D2E/DX2                !
 ! D20   D(10,4,5,8)             0.0            estimate D2E/DX2                !
 ! D21   D(3,4,10,11)           -5.2547         estimate D2E/DX2                !
 ! D22   D(5,4,10,11)          174.7453         estimate D2E/DX2                !
 ! D23   D(4,5,6,1)              0.0            estimate D2E/DX2                !
 ! D24   D(4,5,6,9)           -179.9999         estimate D2E/DX2                !
 ! D25   D(8,5,6,1)           -179.9999         estimate D2E/DX2                !
 ! D26   D(8,5,6,9)              0.0002         estimate D2E/DX2                !
 ! D27   D(4,10,11,12)           4.3564         estimate D2E/DX2                !
 ! D28   D(4,10,11,13)        -167.7268         estimate D2E/DX2                !
 ! D29   D(10,11,12,19)          7.5833         estimate D2E/DX2                !
 ! D30   D(10,11,12,22)       -172.4167         estimate D2E/DX2                !
 ! D31   D(13,11,12,19)       -179.9998         estimate D2E/DX2                !
 ! D32   D(13,11,12,22)          0.0002         estimate D2E/DX2                !
 ! D33   D(10,11,13,14)        171.7535         estimate D2E/DX2                !
 ! D34   D(10,11,13,15)         -8.2466         estimate D2E/DX2                !
 ! D35   D(12,11,13,14)          0.0            estimate D2E/DX2                !
 ! D36   D(12,11,13,15)        179.9999         estimate D2E/DX2                !
 ! D37   D(11,12,22,16)         -0.0002         estimate D2E/DX2                !
 ! D38   D(19,12,22,16)        179.9998         estimate D2E/DX2                !
 ! D39   D(11,13,14,16)         -0.0001         estimate D2E/DX2                !
 ! D40   D(11,13,14,17)        179.9999         estimate D2E/DX2                !
 ! D41   D(15,13,14,16)        179.9999         estimate D2E/DX2                !
 ! D42   D(15,13,14,17)          0.0            estimate D2E/DX2                !
 ! D43   D(13,14,16,21)       -179.9999         estimate D2E/DX2                !
 ! D44   D(13,14,16,22)          0.0001         estimate D2E/DX2                !
 ! D45   D(17,14,16,21)          0.0            estimate D2E/DX2                !
 ! D46   D(17,14,16,22)       -180.0            estimate D2E/DX2                !
 ! D47   D(14,16,22,12)          0.0001         estimate D2E/DX2                !
 ! D48   D(21,16,22,12)       -179.9999         estimate D2E/DX2                !
 --------------------------------------------------------------------------------
 Trust Radius=3.00D-01 FncErr=1.00D-07 GrdErr=1.00D-06 EigMax=2.50D+02 EigMin=1.00D-04
 Number of steps in this run=    116 maximum allowed number of steps=    132.
 GradGradGradGradGradGradGradGradGradGradGradGradGradGradGradGradGradGrad

                          Input orientation:                          
 ---------------------------------------------------------------------
 Center     Atomic      Atomic             Coordinates (Angstroms)
 Number     Number       Type             X           Y           Z
 ---------------------------------------------------------------------
      1          6           0       -4.749416   -0.230579   -0.400021
      2          6           0       -4.820199    0.238538   -1.718672
      3          6           0       -4.550247    1.584841   -1.998879
      4          6           0       -4.209510    2.462026   -0.960435
      5          6           0       -4.138728    1.992910    0.358216
      6          6           0       -4.408682    0.646607    0.638423
      7          1           0       -5.080361   -0.431212   -2.511547
      8          1           0       -3.878568    2.662660    1.151091
      9          1           0       -4.354640    0.288426    1.645243
     10          8           0       -3.910486    3.953296   -1.270814
     11          6           0       -3.817523    4.699853   -2.779363
     12          6           0       -4.131676    3.887607   -3.877310
     13          6           0       -3.303947    5.987511   -2.984541
     14          6           0       -3.104523    6.462923   -4.287666
     15          1           0       -3.064085    6.607679   -2.146234
     16          6           0       -3.418674    5.650677   -5.385613
     17          1           0       -2.712397    7.446079   -4.444324
     18          1           0       -4.604292    1.943023   -3.005698
     19          1           0       -4.523805    2.904453   -3.720651
     20          1           0       -4.955530   -1.258512   -0.186077
     21          1           0       -3.266408    6.013665   -6.380578
     22          7           0       -3.932249    4.363019   -5.180435
 ---------------------------------------------------------------------
                    Distance matrix (angstroms):
                    1          2          3          4          5
     1  C    0.000000
     2  C    1.401400   0.000000
     3  C    2.427296   1.401400   0.000000
     4  C    2.802800   2.427296   1.401400   0.000000
     5  C    2.427296   2.802800   2.427296   1.401400   0.000000
     6  C    1.401400   2.427296   2.802800   2.427296   1.401400
     7  H    2.146700   1.070000   2.146700   3.396345   3.872800
     8  H    3.396345   3.872800   3.396345   2.146700   1.070000
     9  H    2.146700   3.396345   3.872800   3.396345   2.146700
    10  O    4.355100   3.850660   2.559092   1.552300   2.559092
    11  C    5.553274   4.694012   3.293833   2.910330   4.156335
    12  C    5.425182   4.295286   3.001072   3.247537   4.640001
    13  C    6.887218   6.078827   4.680630   4.164864   5.275199
    14  C    7.913434   6.948831   5.578920   5.319647   6.529535
    15  H    7.256127   6.620627   5.240161   4.461452   5.359405
    16  C    7.824077   6.685954   5.411233   5.511362   6.847577
    17  H    8.912739   7.988783   6.611506   6.262556   7.405125
    18  H    3.396345   2.146700   1.070000   2.146700   3.396345
    19  H    4.572298   3.347069   2.169464   2.813062   4.197184
    20  H    1.070000   2.146700   3.396345   3.872800   3.396345
    21  H    8.772511   7.582857   6.360975   6.548399   7.895490
    22  N    6.679914   5.457435   4.268781   4.636706   6.027993
                    6          7          8          9         10
     6  C    0.000000
     7  H    3.396345   0.000000
     8  H    2.146700   4.942800   0.000000
     9  H    1.070000   4.280590   2.471400   0.000000
    10  O    3.850660   4.704459   2.744520   4.704459   0.000000
    11  C    5.334748   5.290965   4.427454   6.271070   1.685736
    12  C    5.565309   4.627906   5.181638   6.595635   2.616688
    13  C    6.547638   6.676779   5.337441   7.417441   2.728146
    14  C    7.732834   7.388345   6.679913   8.653706   4.006145
    15  H    6.715403   7.331085   5.205662   7.481563   2.920360
    16  C    7.893659   6.928985   7.201962   8.891721   4.478231
    17  H    8.657051   8.449532   7.453169   9.540010   4.868893
    18  H    3.872800   2.471400   4.280590   4.942800   2.744520
    19  H    4.910464   3.591427   4.920231   5.972021   2.734581
    20  H    2.146700   2.471400   4.280590   2.471400   5.425100
    21  H    8.909348   7.732804   8.266197   9.918488   5.547039
    22  N    6.920825   5.605869   6.556091   7.960565   3.931091
                   11         12         13         14         15
    11  C    0.000000
    12  C    1.401400   0.000000
    13  C    1.401400   2.427296   0.000000
    14  C    2.427296   2.802800   1.401400   0.000000
    15  H    2.146700   3.396345   1.070000   2.146700   0.000000
    16  C    2.802800   2.427296   2.427296   1.401400   3.396345
    17  H    3.396345   3.872800   2.146700   1.070000   2.471400
    18  H    2.875821   2.182769   4.248439   4.931759   4.986976
    19  H    2.146700   1.070000   3.396345   3.872800   4.280590
    20  H    6.597143   6.386429   7.941283   8.936992   8.324466
    21  H    3.872800   3.396345   3.396345   2.146700   4.280590
    22  N    2.427296   1.401400   2.802800   2.427296   3.872800
                   16         17         18         19         20
    16  C    0.000000
    17  H    2.146700   0.000000
    18  H    4.562498   5.994376   0.000000
    19  H    3.396345   4.942800   1.200826   0.000000
    20  H    8.782596   9.946568   4.280590   5.478127   0.000000
    21  H    1.070000   2.471400   5.454344   4.280590   9.701006
    22  N    1.401400   3.396345   3.322273   2.146700   7.588960
                   21         22
    21  H    0.000000
    22  N    2.146700   0.000000
 Stoichiometry    C11H9NO
 Framework group  C1[X(C11H9NO)]
 Deg. of freedom    60
 Full point group                 C1      NOp   1
 Largest Abelian subgroup         C1      NOp   1
 Largest concise Abelian subgroup C1      NOp   1
                         Standard orientation:                         
 ---------------------------------------------------------------------
 Center     Atomic      Atomic             Coordinates (Angstroms)
 Number     Number       Type             X           Y           Z
 ---------------------------------------------------------------------
      1          6           0        3.917891    0.742542    0.107004
      2          6           0        2.741615    1.497505    0.005369
      3          6           0        1.500190    0.852697   -0.078342
      4          6           0        1.435039   -0.547073   -0.060417
      5          6           0        2.611314   -1.302035    0.041217
      6          6           0        3.852740   -0.657228    0.124927
      7          1           0        2.791359    2.566260   -0.008318
      8          1           0        2.561570   -2.370791    0.054903
      9          1           0        4.750853   -1.233659    0.202524
     10          8           0        0.059939   -1.261311   -0.153138
     11          6           0       -1.473589   -0.561335   -0.158891
     12          6           0       -1.499615    0.839811   -0.164593
     13          6           0       -2.663706   -1.283614    0.001911
     14          6           0       -3.879849   -0.604746    0.157011
     15          1           0       -2.643835   -2.353420    0.006264
     16          6           0       -3.905875    0.796401    0.151310
     17          1           0       -4.788530   -1.156221    0.279785
     18          1           0        0.602077    1.429128   -0.155944
     19          1           0       -0.590935    1.391287   -0.287371
     20          1           0        4.865747    1.234867    0.170921
     21          1           0       -4.834427    1.314732    0.269733
     22          7           0       -2.715758    1.518680   -0.009490
 ---------------------------------------------------------------------
 Rotational constants (GHZ):           2.4833334           0.3860327           0.3351462
 Standard basis: 6-31+G(d) (6D, 7F)
 There are   265 symmetry adapted cartesian basis functions of A   symmetry.
 There are   265 symmetry adapted basis functions of A   symmetry.
   265 basis functions,   452 primitive gaussians,   265 cartesian basis functions
    45 alpha electrons       45 beta electrons
       nuclear repulsion energy       675.9646406144 Hartrees.
 NAtoms=   22 NActive=   22 NUniq=   22 SFac= 1.00D+00 NAtFMM=   60 NAOKFM=F Big=F
 Integral buffers will be    131072 words long.
 Raffenetti 2 integral format.
 Two-electron integral symmetry is turned on.
 Nuclear repulsion after empirical dispersion term =      675.9496458602 Hartrees.
 One-electron integrals computed using PRISM.
 NBasis=   265 RedAO= T EigKep=  1.11D-06  NBF=   265
 NBsUse=   265 1.00D-06 EigRej= -1.00D+00 NBFU=   265
 ExpMin= 4.38D-02 ExpMax= 5.48D+03 ExpMxC= 8.25D+02 IAcc=3 IRadAn=         5 AccDes= 0.00D+00
 Harris functional with IExCor=  402 and IRadAn=       5 diagonalized for initial guess.
 HarFok:  IExCor=  402 AccDes= 0.00D+00 IRadAn=         5 IDoV= 1 UseB2=F ITyADJ=14
 ICtDFT=  3500011 ScaDFX=  1.000000  1.000000  1.000000  1.000000
 FoFCou: FMM=F IPFlag=           0 FMFlag=      100000 FMFlg1=           0
         NFxFlg=           0 DoJE=T BraDBF=F KetDBF=T FulRan=T
         wScrn=  0.000000 ICntrl=       500 IOpCl=  0 I1Cent=   200000004 NGrid=           0
         NMat0=    1 NMatS0=      1 NMatT0=    0 NMatD0=    1 NMtDS0=    0 NMtDT0=    0
 Petite list used in FoFCou.
 Requested convergence on RMS density matrix=1.00D-08 within 128 cycles.
 Requested convergence on MAX density matrix=1.00D-06.
 Requested convergence on             energy=1.00D-06.
 No special actions if energy rises.
 SCF Done:  E(RB3LYP) =  -554.484061103     A.U. after   15 cycles
            NFock= 15  Conv=0.82D-08     -V/T= 2.0110

 **********************************************************************

            Population analysis using the SCF Density.

 **********************************************************************

 Orbital symmetries:
       Occupied  (A) (A) (A) (A) (A) (A) (A) (A) (A) (A) (A) (A)
                 (A) (A) (A) (A) (A) (A) (A) (A) (A) (A) (A) (A)
                 (A) (A) (A) (A) (A) (A) (A) (A) (A) (A) (A) (A)
                 (A) (A) (A) (A) (A) (A) (A) (A) (A)
       Virtual   (A) (A) (A) (A) (A) (A) (A) (A) (A) (A) (A) (A)
                 (A) (A) (A) (A) (A) (A) (A) (A) (A) (A) (A) (A)
                 (A) (A) (A) (A) (A) (A) (A) (A) (A) (A) (A) (A)
                 (A) (A) (A) (A) (A) (A) (A) (A) (A) (A) (A) (A)
                 (A) (A) (A) (A) (A) (A) (A) (A) (A) (A) (A) (A)
                 (A) (A) (A) (A) (A) (A) (A) (A) (A) (A) (A) (A)
                 (A) (A) (A) (A) (A) (A) (A) (A) (A) (A) (A) (A)
                 (A) (A) (A) (A) (A) (A) (A) (A) (A) (A) (A) (A)
                 (A) (A) (A) (A) (A) (A) (A) (A) (A) (A) (A) (A)
                 (A) (A) (A) (A) (A) (A) (A) (A) (A) (A) (A) (A)
                 (A) (A) (A) (A) (A) (A) (A) (A) (A) (A) (A) (A)
                 (A) (A) (A) (A) (A) (A) (A) (A) (A) (A) (A) (A)
                 (A) (A) (A) (A) (A) (A) (A) (A) (A) (A) (A) (A)
                 (A) (A) (A) (A) (A) (A) (A) (A) (A) (A) (A) (A)
                 (A) (A) (A) (A) (A) (A) (A) (A) (A) (A) (A) (A)
                 (A) (A) (A) (A) (A) (A) (A) (A) (A) (A) (A) (A)
                 (A) (A) (A) (A) (A) (A) (A) (A) (A) (A) (A) (A)
                 (A) (A) (A) (A) (A) (A) (A) (A) (A) (A) (A) (A)
                 (A) (A) (A) (A)
 The electronic state is 1-A.
 Alpha  occ. eigenvalues --  -19.19140 -14.36583 -10.29194 -10.27322 -10.24941
 Alpha  occ. eigenvalues --  -10.24926 -10.23814 -10.22784 -10.20875 -10.20809
 Alpha  occ. eigenvalues --  -10.20688 -10.20392 -10.20070  -0.97773  -0.93465
 Alpha  occ. eigenvalues --   -0.86304  -0.81866  -0.78341  -0.76312  -0.74937
 Alpha  occ. eigenvalues --   -0.66405  -0.63825  -0.62438  -0.60743  -0.55539
 Alpha  occ. eigenvalues --   -0.53700  -0.50009  -0.49045  -0.48586  -0.46652
 Alpha  occ. eigenvalues --   -0.44863  -0.43686  -0.42350  -0.41457  -0.41256
 Alpha  occ. eigenvalues --   -0.38991  -0.37831  -0.35847  -0.33878  -0.33152
 Alpha  occ. eigenvalues --   -0.30004  -0.28230  -0.27134  -0.26631  -0.23871
 Alpha virt. eigenvalues --   -0.05944  -0.04308  -0.02864  -0.02255  -0.01255
 Alpha virt. eigenvalues --    0.00397   0.00757   0.02162   0.02690   0.03101
 Alpha virt. eigenvalues --    0.04539   0.04910   0.05098   0.05715   0.06420
 Alpha virt. eigenvalues --    0.06835   0.07649   0.08102   0.08201   0.08807
 Alpha virt. eigenvalues --    0.09738   0.10427   0.10996   0.11391   0.12123
 Alpha virt. eigenvalues --    0.12589   0.12701   0.13439   0.13687   0.13854
 Alpha virt. eigenvalues --    0.14672   0.15089   0.15411   0.15750   0.16177
 Alpha virt. eigenvalues --    0.17168   0.17750   0.18696   0.18823   0.19479
 Alpha virt. eigenvalues --    0.19683   0.20078   0.20468   0.21546   0.21723
 Alpha virt. eigenvalues --    0.21863   0.22453   0.22901   0.23350   0.23683
 Alpha virt. eigenvalues --    0.25211   0.25743   0.26470   0.26786   0.26849
 Alpha virt. eigenvalues --    0.27444   0.27796   0.28540   0.28675   0.29309
 Alpha virt. eigenvalues --    0.29901   0.30198   0.30969   0.31194   0.31759
 Alpha virt. eigenvalues --    0.32053   0.33431   0.34421   0.34786   0.35497
 Alpha virt. eigenvalues --    0.37439   0.38599   0.39217   0.40508   0.42594
 Alpha virt. eigenvalues --    0.44806   0.48278   0.53044   0.54436   0.57560
 Alpha virt. eigenvalues --    0.60692   0.61722   0.65392   0.65968   0.66125
 Alpha virt. eigenvalues --    0.67513   0.69309   0.69605   0.70278   0.71173
 Alpha virt. eigenvalues --    0.71773   0.73187   0.73413   0.73930   0.74251
 Alpha virt. eigenvalues --    0.76257   0.76774   0.76873   0.77395   0.79435
 Alpha virt. eigenvalues --    0.81968   0.83563   0.88115   0.89723   0.90945
 Alpha virt. eigenvalues --    0.92751   0.93235   0.94239   0.94911   0.95342
 Alpha virt. eigenvalues --    0.96206   1.00428   1.00840   1.02608   1.03556
 Alpha virt. eigenvalues --    1.06853   1.07855   1.08596   1.10377   1.12576
 Alpha virt. eigenvalues --    1.13721   1.14288   1.16609   1.16967   1.18183
 Alpha virt. eigenvalues --    1.19031   1.19970   1.20527   1.22434   1.23355
 Alpha virt. eigenvalues --    1.24589   1.26830   1.28044   1.30873   1.31837
 Alpha virt. eigenvalues --    1.35378   1.37585   1.40260   1.41703   1.42402
 Alpha virt. eigenvalues --    1.43710   1.44673   1.46043   1.47102   1.47520
 Alpha virt. eigenvalues --    1.48031   1.49060   1.49650   1.51849   1.55648
 Alpha virt. eigenvalues --    1.63554   1.69674   1.75280   1.76550   1.78022
 Alpha virt. eigenvalues --    1.80196   1.82371   1.83249   1.85467   1.89162
 Alpha virt. eigenvalues --    1.92364   1.95468   1.95655   1.96380   1.97124
 Alpha virt. eigenvalues --    1.99290   2.01710   2.06415   2.09785   2.11986
 Alpha virt. eigenvalues --    2.12498   2.12654   2.13516   2.13744   2.15557
 Alpha virt. eigenvalues --    2.16180   2.19831   2.21296   2.25010   2.27082
 Alpha virt. eigenvalues --    2.27786   2.28703   2.28917   2.31367   2.37944
 Alpha virt. eigenvalues --    2.42323   2.48455   2.58300   2.60815   2.61356
 Alpha virt. eigenvalues --    2.62333   2.62717   2.64470   2.67523   2.69584
 Alpha virt. eigenvalues --    2.72720   2.73135   2.74473   2.78144   2.79202
 Alpha virt. eigenvalues --    2.80560   2.88918   3.00170   3.04451   3.06688
 Alpha virt. eigenvalues --    3.34104   3.40607   4.14846   4.21914   4.23807
 Alpha virt. eigenvalues --    4.25532   4.28049   4.30888   4.35260   4.38299
 Alpha virt. eigenvalues --    4.39261   4.40198   4.46133   4.63700   4.73118
          Condensed to atoms (all electrons):
               1          2          3          4          5          6
     1  C    5.537192  -0.255909   0.105086  -1.044597   1.137503   0.308468
     2  C   -0.255909  14.153333  -3.919747  -0.217302  -4.408028   1.146930
     3  C    0.105086  -3.919747  14.202260  -1.466682  -3.096301  -0.902240
     4  C   -1.044597  -0.217302  -1.466682  12.256797  -4.109388   0.099970
     5  C    1.137503  -4.408028  -3.096301  -4.109388  17.879146  -0.327538
     6  C    0.308468   1.146930  -0.902240   0.099970  -0.327538   5.583103
     7  H   -0.040583   0.445983  -0.089727   0.015923  -0.059315   0.024920
     8  H    0.019243  -0.033658   0.074341   0.012095   0.282226  -0.061621
     9  H   -0.019439   0.028734  -0.026931   0.040728  -0.054497   0.327472
    10  O   -0.016784  -0.009029  -0.163852   0.373882  -0.199234   0.024937
    11  C   -0.089060   1.091578   1.177076  -1.050985  -1.293728   0.084016
    12  C    0.079761  -1.218539  -1.655083   1.438261   1.659893  -0.077869
    13  C   -0.013637  -0.133694   0.539012  -0.198014  -0.692934  -0.013354
    14  C    0.000303   0.057023   0.126145  -0.119858  -0.055510   0.000537
    15  H    0.000009   0.000475   0.008022  -0.005532  -0.005222  -0.000221
    16  C    0.000828  -0.060089  -0.070226   0.081936   0.003190  -0.002431
    17  H   -0.000001  -0.000052  -0.001160   0.001786   0.000211   0.000004
    18  H    0.014791  -0.074110   0.064693   0.110329   0.105047   0.000051
    19  H   -0.002981  -0.173379  -0.149701   0.242453   0.081401  -0.003413
    20  H    0.300287  -0.038376   0.064957  -0.009504   0.019940  -0.044370
    21  H   -0.000005  -0.000266  -0.001100   0.001085   0.000083   0.000001
    22  N   -0.001215   0.071596   0.054851  -0.096096  -0.029034   0.001963
               7          8          9         10         11         12
     1  C   -0.040583   0.019243  -0.019439  -0.016784  -0.089060   0.079761
     2  C    0.445983  -0.033658   0.028734  -0.009029   1.091578  -1.218539
     3  C   -0.089727   0.074341  -0.026931  -0.163852   1.177076  -1.655083
     4  C    0.015923   0.012095   0.040728   0.373882  -1.050985   1.438261
     5  C   -0.059315   0.282226  -0.054497  -0.199234  -1.293728   1.659893
     6  C    0.024920  -0.061621   0.327472   0.024937   0.084016  -0.077869
     7  H    0.533727   0.000016  -0.000178  -0.000299   0.006769  -0.011402
     8  H    0.000016   0.518921  -0.005332  -0.004293  -0.001732   0.000812
     9  H   -0.000178  -0.005332   0.527681  -0.000163   0.001090  -0.000505
    10  O   -0.000299  -0.004293  -0.000163   8.388191   0.202575   0.003568
    11  C    0.006769  -0.001732   0.001090   0.202575  10.886535  -1.665489
    12  C   -0.011402   0.000812  -0.000505   0.003568  -1.665489   9.425919
    13  C    0.000389   0.000312   0.000041  -0.161499  -3.564767  -1.660296
    14  C    0.000008  -0.000076   0.000003   0.012047   0.358588  -0.373903
    15  H    0.000000   0.000000   0.000000  -0.002275   0.061961   0.002984
    16  C   -0.000043   0.000002  -0.000001  -0.002628  -0.819824   0.262102
    17  H    0.000000   0.000000   0.000000  -0.000091   0.024897   0.003885
    18  H   -0.008836  -0.000196   0.000015  -0.012473  -0.026289   0.045765
    19  H    0.000317   0.000004   0.000000  -0.001636  -0.291151   0.539617
    20  H   -0.004581  -0.000151  -0.004780   0.000068  -0.000097   0.000338
    21  H    0.000000   0.000000   0.000000   0.000032  -0.047162   0.043845
    22  N    0.000049  -0.000002   0.000000   0.004668   0.419198  -0.153077
              13         14         15         16         17         18
     1  C   -0.013637   0.000303   0.000009   0.000828  -0.000001   0.014791
     2  C   -0.133694   0.057023   0.000475  -0.060089  -0.000052  -0.074110
     3  C    0.539012   0.126145   0.008022  -0.070226  -0.001160   0.064693
     4  C   -0.198014  -0.119858  -0.005532   0.081936   0.001786   0.110329
     5  C   -0.692934  -0.055510  -0.005222   0.003190   0.000211   0.105047
     6  C   -0.013354   0.000537  -0.000221  -0.002431   0.000004   0.000051
     7  H    0.000389   0.000008   0.000000  -0.000043   0.000000  -0.008836
     8  H    0.000312  -0.000076   0.000000   0.000002   0.000000  -0.000196
     9  H    0.000041   0.000003   0.000000  -0.000001   0.000000   0.000015
    10  O   -0.161499   0.012047  -0.002275  -0.002628  -0.000091  -0.012473
    11  C   -3.564767   0.358588   0.061961  -0.819824   0.024897  -0.026289
    12  C   -1.660296  -0.373903   0.002984   0.262102   0.003885   0.045765
    13  C   11.034544   0.144955   0.240012   0.509045  -0.043416  -0.015759
    14  C    0.144955   5.612942  -0.001207  -0.025158   0.290940   0.005550
    15  H    0.240012  -0.001207   0.501318  -0.009792  -0.005335   0.000003
    16  C    0.509045  -0.025158  -0.009792   5.744059   0.015666  -0.006152
    17  H   -0.043416   0.290940  -0.005335   0.015666   0.514294   0.000000
    18  H   -0.015759   0.005550   0.000003  -0.006152   0.000000   0.664091
    19  H    0.052506  -0.018342  -0.000178   0.015266   0.000026  -0.009541
    20  H    0.000001  -0.000002   0.000000   0.000002   0.000000  -0.000199
    21  H    0.044411  -0.118026  -0.000128   0.424097  -0.001148   0.000000
    22  N   -0.153742   0.067312   0.000897   0.233566   0.004140   0.002658
              19         20         21         22
     1  C   -0.002981   0.300287  -0.000005  -0.001215
     2  C   -0.173379  -0.038376  -0.000266   0.071596
     3  C   -0.149701   0.064957  -0.001100   0.054851
     4  C    0.242453  -0.009504   0.001085  -0.096096
     5  C    0.081401   0.019940   0.000083  -0.029034
     6  C   -0.003413  -0.044370   0.000001   0.001963
     7  H    0.000317  -0.004581   0.000000   0.000049
     8  H    0.000004  -0.000151   0.000000  -0.000002
     9  H    0.000000  -0.004780   0.000000   0.000000
    10  O   -0.001636   0.000068   0.000032   0.004668
    11  C   -0.291151  -0.000097  -0.047162   0.419198
    12  C    0.539617   0.000338   0.043845  -0.153077
    13  C    0.052506   0.000001   0.044411  -0.153742
    14  C   -0.018342  -0.000002  -0.118026   0.067312
    15  H   -0.000178   0.000000  -0.000128   0.000897
    16  C    0.015266   0.000002   0.424097   0.233566
    17  H    0.000026   0.000000  -0.001148   0.004140
    18  H   -0.009541  -0.000199   0.000000   0.002658
    19  H    0.674096   0.000001   0.000028  -0.115531
    20  H    0.000001   0.538139   0.000000   0.000000
    21  H    0.000028   0.000000   0.529946  -0.072385
    22  N   -0.115531   0.000000  -0.072385   6.944437
 Mulliken charges:
               1
     1  C   -0.019259
     2  C   -0.453473
     3  C    1.126307
     4  C   -0.357287
     5  C   -0.837909
     6  C   -0.169314
     7  H    0.186863
     8  H    0.199091
     9  H    0.186062
    10  O   -0.435713
    11  C    0.536001
    12  C   -0.690587
    13  C    0.085883
    14  C    0.035727
    15  H    0.214209
    16  C   -0.293417
    17  H    0.195354
    18  H    0.140560
    19  H    0.160138
    20  H    0.178327
    21  H    0.196692
    22  N   -0.184255
 Sum of Mulliken charges =   0.00000
 Mulliken charges with hydrogens summed into heavy atoms:
               1
     1  C    0.159068
     2  C   -0.266611
     3  C    1.266867
     4  C   -0.357287
     5  C   -0.638817
     6  C    0.016749
    10  O   -0.435713
    11  C    0.536001
    12  C   -0.530449
    13  C    0.300092
    14  C    0.231082
    16  C   -0.096726
    22  N   -0.184255
 Electronic spatial extent (au):  <R**2>=           3108.2039
 Charge=              0.0000 electrons
 Dipole moment (field-independent basis, Debye):
    X=             -0.4877    Y=             -0.8607    Z=              0.2829  Tot=              1.0289
 Quadrupole moment (field-independent basis, Debye-Ang):
   XX=            -56.2480   YY=            -75.1814   ZZ=            -81.8092
   XY=              6.9005   XZ=             -0.6278   YZ=             -0.6261
 Traceless Quadrupole moment (field-independent basis, Debye-Ang):
   XX=             14.8315   YY=             -4.1019   ZZ=            -10.7296
   XY=              6.9005   XZ=             -0.6278   YZ=             -0.6261
 Octapole moment (field-independent basis, Debye-Ang**2):
  XXX=            -32.7487  YYY=            -16.4361  ZZZ=             -0.7561  XYY=             15.0921
  XXY=            -23.3124  XXZ=             10.7042  XZZ=             -5.2546  YZZ=             -1.1321
  YYZ=              0.7913  XYZ=             -0.7547
 Hexadecapole moment (field-independent basis, Debye-Ang**3):
 XXXX=          -3049.6755 YYYY=           -626.1266 ZZZZ=           -104.6510 XXXY=             22.2186
 XXXZ=            -18.8884 YYYX=             54.3091 YYYZ=             -1.7033 ZZZX=             -1.1061
 ZZZY=              0.4144 XXYY=           -665.3764 XXZZ=           -688.9294 YYZZ=           -133.7711
 XXYZ=              0.8968 YYXZ=             -1.3690 ZZXY=             -3.3306
 N-N= 6.759496458602D+02 E-N=-2.638089543332D+03  KE= 5.484713184163D+02
 Evaluate density.
 Using the total density.
 Monte-Carlo method of calculating molar volume:
 based on  0.001 e/bohr**3 density envelope.
 Number of points per bohr**3 =   20 CutOff= 1.00D-04
 Using the SCF density.
 There are       381 points.  Will hold       381 in memory.
 LenV=  4026358861 MDV=  4026531840.
 Box volume = 6944.359 fraction occupied=0.228
 Integrated density= 8.4966725061192477D+01 error=-5.0332749388075229D+00
 Molar volume = 1585.720 bohr**3/mol (141.508 cm**3/mol)
 Recommended a0 for SCRF calculation =  4.71 angstrom (  8.91 bohr)
 Calling FoFJK, ICntrl=      2127 FMM=F ISym2X=0 I1Cent= 0 IOpClX= 0 NMat=1 NMatS=1 NMatT=0.
 ***** Axes restored to original set *****
 -------------------------------------------------------------------
 Center     Atomic                   Forces (Hartrees/Bohr)
 Number     Number              X              Y              Z
 -------------------------------------------------------------------
      1        6           0.002108220    0.010833054   -0.003357587
      2        6           0.004541668    0.010076884    0.016473690
      3        6          -0.000929332   -0.010012489    0.014912697
      4        6           0.006524404    0.044605352   -0.040044899
      5        6           0.001038437    0.009145377   -0.007193330
      6        6          -0.001839975    0.005568051   -0.021296395
      7        1          -0.002818936   -0.006535184   -0.009580278
      8        1           0.003072313    0.008606420    0.007523146
      9        1           0.001072035   -0.002128077    0.011425395
     10        8          -0.002333956   -0.003218557   -0.025119797
     11        6          -0.002905833   -0.059599524    0.033661268
     12        6           0.018367182    0.055750523   -0.043013666
     13        6          -0.004810550   -0.013454839    0.014357982
     14        6          -0.009615814   -0.017000850   -0.001122709
     15        1           0.003656055    0.005759905    0.009984610
     16        6          -0.018643562   -0.047138521    0.046163792
     17        1           0.004348016    0.011521026    0.000232180
     18        1          -0.002609976   -0.021748933    0.011973971
     19        1           0.000451833    0.017130420   -0.024542962
     20        1          -0.002309561   -0.011540158    0.002454315
     21        1          -0.000933954   -0.004392144   -0.013186518
     22        7           0.004571289    0.017772264    0.019295094
 -------------------------------------------------------------------
 Cartesian Forces:  Max     0.059599524 RMS     0.019276197

 GradGradGradGradGradGradGradGradGradGradGradGradGradGradGradGradGradGrad
 Berny optimization.
 FormGI is forming the generalized inverse of G from B-inverse, IUseBI=4.
 Internal  Forces:  Max     0.163908792 RMS     0.027771564
 Search for a local minimum.
 Step number   1 out of a maximum of  116
 All quantities printed in internal units (Hartrees-Bohrs-Radians)
 Mixed Optimization -- RFO/linear search
 Second derivative matrix not updated -- first step.
 ITU=  0
     Eigenvalues ---    0.00230   0.00230   0.01736   0.01743   0.01786
     Eigenvalues ---    0.01922   0.01953   0.02036   0.02070   0.02070
     Eigenvalues ---    0.02070   0.02070   0.02070   0.02070   0.02070
     Eigenvalues ---    0.02070   0.02070   0.02070   0.02070   0.16000
     Eigenvalues ---    0.16000   0.16000   0.16000   0.16000   0.16000
     Eigenvalues ---    0.16000   0.16000   0.16000   0.18708   0.22000
     Eigenvalues ---    0.22000   0.22000   0.23189   0.23440   0.23485
     Eigenvalues ---    0.24763   0.25000   0.25000   0.27457   0.37230
     Eigenvalues ---    0.37230   0.37230   0.37230   0.37230   0.37230
     Eigenvalues ---    0.37230   0.37230   0.37230   0.41268   0.41393
     Eigenvalues ---    0.41459   0.41974   0.45389   0.45389   0.45389
     Eigenvalues ---    0.45389   0.45389   0.45389   0.45389   0.45389
 RFO step:  Lambda=-1.85062367D-01 EMin= 2.30000000D-03
 Linear search not attempted -- first point.
 Maximum step size (   0.300) exceeded in Quadratic search.
    -- Step size scaled by   0.464
 Iteration  1 RMS(Cart)=  0.24767565 RMS(Int)=  0.01379854
 Iteration  2 RMS(Cart)=  0.09220131 RMS(Int)=  0.00158861
 Iteration  3 RMS(Cart)=  0.00350208 RMS(Int)=  0.00013223
 Iteration  4 RMS(Cart)=  0.00000170 RMS(Int)=  0.00013223
 Iteration  5 RMS(Cart)=  0.00000000 RMS(Int)=  0.00013223
 Variable       Old X    -DE/DX   Delta X   Delta X   Delta X     New X
                                 (Linear)    (Quad)   (Total)
    R1        2.64826  -0.00975   0.00000  -0.00711  -0.00712   2.64114
    R2        2.64826  -0.00946   0.00000  -0.00706  -0.00706   2.64120
    R3        2.02201   0.01202   0.00000   0.01001   0.01001   2.03202
    R4        2.64826  -0.00148   0.00000  -0.00092  -0.00093   2.64734
    R5        2.02201   0.01188   0.00000   0.00989   0.00989   2.03189
    R6        2.64826   0.00370   0.00000   0.00287   0.00287   2.65113
    R7        2.02201  -0.01842   0.00000  -0.01533  -0.01533   2.00667
    R8        2.64826  -0.00678   0.00000  -0.00489  -0.00489   2.64338
    R9        2.93342  -0.04027   0.00000  -0.04066  -0.04066   2.89276
   R10        2.64826  -0.00547   0.00000  -0.00412  -0.00412   2.64414
   R11        2.02201   0.01171   0.00000   0.00975   0.00975   2.03176
   R12        2.02201   0.01152   0.00000   0.00959   0.00959   2.03160
   R13        3.18558  -0.05264   0.00000  -0.06565  -0.06565   3.11993
   R14        2.64826  -0.00167   0.00000  -0.00119  -0.00118   2.64708
   R15        2.64826  -0.01916   0.00000  -0.01307  -0.01306   2.63520
   R16        2.02201  -0.01950   0.00000  -0.01624  -0.01624   2.00577
   R17        2.64826  -0.05104   0.00000  -0.03790  -0.03790   2.61037
   R18        2.64826  -0.01294   0.00000  -0.00857  -0.00857   2.63969
   R19        2.02201   0.01198   0.00000   0.00998   0.00998   2.03198
   R20        2.64826  -0.00989   0.00000  -0.00720  -0.00721   2.64105
   R21        2.02201   0.01215   0.00000   0.01011   0.01011   2.03212
   R22        2.02201   0.01064   0.00000   0.00886   0.00886   2.03087
   R23        2.64826  -0.05808   0.00000  -0.04303  -0.04304   2.60522
    A1        2.09440  -0.00688   0.00000  -0.00840  -0.00841   2.08599
    A2        2.09440   0.00349   0.00000   0.00427   0.00427   2.09867
    A3        2.09440   0.00339   0.00000   0.00413   0.00413   2.09853
    A4        2.09440   0.00561   0.00000   0.00645   0.00644   2.10083
    A5        2.09440  -0.00160   0.00000  -0.00160  -0.00160   2.09280
    A6        2.09440  -0.00401   0.00000  -0.00485  -0.00484   2.08956
    A7        2.09440   0.00244   0.00000   0.00317   0.00317   2.09756
    A8        2.09440  -0.01825   0.00000  -0.02448  -0.02448   2.06992
    A9        2.09440   0.01580   0.00000   0.02131   0.02131   2.11571
   A10        2.09440  -0.01319   0.00000  -0.01391  -0.01390   2.08049
   A11        2.09440   0.10182   0.00000   0.10853   0.10852   2.20292
   A12        2.09440  -0.08862   0.00000  -0.09462  -0.09462   1.99977
   A13        2.09440   0.00863   0.00000   0.00953   0.00954   2.10394
   A14        2.09440  -0.00607   0.00000  -0.00712  -0.00713   2.08727
   A15        2.09440  -0.00256   0.00000  -0.00241  -0.00241   2.09198
   A16        2.09440   0.00338   0.00000   0.00316   0.00317   2.09756
   A17        2.09440   0.00022   0.00000   0.00099   0.00099   2.09538
   A18        2.09440  -0.00360   0.00000  -0.00415  -0.00415   2.09024
   A19        2.23319   0.16391   0.00000   0.17484   0.17484   2.40804
   A20        2.01758   0.10695   0.00000   0.11433   0.11439   2.13197
   A21        2.16295  -0.09285   0.00000  -0.09995  -0.10005   2.06290
   A22        2.09440  -0.01350   0.00000  -0.01283  -0.01282   2.08158
   A23        2.09440   0.01348   0.00000   0.02055   0.02054   2.11493
   A24        2.09440   0.01729   0.00000   0.01840   0.01840   2.11280
   A25        2.09440  -0.03076   0.00000  -0.03895  -0.03897   2.05543
   A26        2.09440  -0.00623   0.00000  -0.00454  -0.00454   2.08985
   A27        2.09440   0.00216   0.00000   0.00098   0.00098   2.09538
   A28        2.09440   0.00407   0.00000   0.00356   0.00356   2.09795
   A29        2.09440  -0.00490   0.00000  -0.00442  -0.00443   2.08996
   A30        2.09440   0.00039   0.00000  -0.00056  -0.00055   2.09384
   A31        2.09440   0.00451   0.00000   0.00498   0.00498   2.09938
   A32        2.09440   0.00285   0.00000   0.00582   0.00583   2.10022
   A33        2.09440   0.01244   0.00000   0.01275   0.01273   2.10713
   A34        2.09440  -0.01529   0.00000  -0.01857  -0.01856   2.07583
   A35        2.09440  -0.00510   0.00000  -0.00935  -0.00936   2.08503
    D1        0.00000  -0.00005   0.00000  -0.00011  -0.00011  -0.00011
    D2       -3.14159  -0.00007   0.00000  -0.00016  -0.00016   3.14144
    D3       -3.14159  -0.00001   0.00000  -0.00003  -0.00003   3.14156
    D4        0.00000  -0.00004   0.00000  -0.00009  -0.00009  -0.00008
    D5        0.00000  -0.00002   0.00000  -0.00004  -0.00004  -0.00004
    D6        3.14159   0.00003   0.00000   0.00007   0.00007  -3.14152
    D7        3.14159  -0.00005   0.00000  -0.00011  -0.00011   3.14148
    D8        0.00000   0.00000   0.00000   0.00000   0.00000   0.00000
    D9        0.00000   0.00004   0.00000   0.00009   0.00010   0.00010
   D10       -3.14159  -0.00025   0.00000  -0.00057  -0.00056   3.14103
   D11        3.14159   0.00007   0.00000   0.00015   0.00015  -3.14145
   D12        0.00000  -0.00023   0.00000  -0.00052  -0.00051  -0.00051
   D13        0.00000   0.00003   0.00000   0.00006   0.00006   0.00006
   D14        3.14159   0.00016   0.00000   0.00036   0.00037  -3.14123
   D15        3.14159   0.00032   0.00000   0.00073   0.00073  -3.14086
   D16        0.00000   0.00045   0.00000   0.00102   0.00104   0.00104
   D17        0.00000  -0.00009   0.00000  -0.00021  -0.00021  -0.00020
   D18       -3.14159  -0.00002   0.00000  -0.00004  -0.00005   3.14154
   D19       -3.14159  -0.00022   0.00000  -0.00050  -0.00048   3.14111
   D20        0.00000  -0.00015   0.00000  -0.00034  -0.00032  -0.00032
   D21       -0.09171   0.00077   0.00000   0.00192   0.00192  -0.08979
   D22        3.04988   0.00090   0.00000   0.00222   0.00222   3.05210
   D23        0.00000   0.00009   0.00000   0.00019   0.00020   0.00020
   D24       -3.14159   0.00004   0.00000   0.00008   0.00009  -3.14151
   D25       -3.14159   0.00001   0.00000   0.00003   0.00004  -3.14155
   D26        0.00000  -0.00003   0.00000  -0.00008  -0.00007  -0.00007
   D27        0.07603   0.01046   0.00000   0.02613   0.02586   0.10189
   D28       -2.92738   0.00526   0.00000   0.01282   0.01309  -2.91430
   D29        0.13235   0.00588   0.00000   0.00648   0.00597   0.13832
   D30       -3.00924   0.00333   0.00000  -0.00151  -0.00227  -3.01151
   D31       -3.14159   0.00358   0.00000   0.01125   0.01161  -3.12998
   D32        0.00000   0.00102   0.00000   0.00326   0.00338   0.00338
   D33        2.99766   0.01142   0.00000   0.01767   0.01710   3.01476
   D34       -0.14393   0.01035   0.00000   0.01680   0.01634  -0.12759
   D35        0.00000  -0.00255   0.00000  -0.00521  -0.00514  -0.00514
   D36        3.14159  -0.00362   0.00000  -0.00608  -0.00590   3.13569
   D37        0.00000   0.00134   0.00000   0.00154   0.00135   0.00135
   D38        3.14159  -0.00121   0.00000  -0.00645  -0.00661   3.13498
   D39        0.00000   0.00171   0.00000   0.00236   0.00227   0.00226
   D40        3.14159   0.00053   0.00000   0.00133   0.00135  -3.14024
   D41        3.14159   0.00278   0.00000   0.00322   0.00302  -3.13857
   D42        0.00000   0.00160   0.00000   0.00220   0.00211   0.00211
   D43       -3.14159  -0.00052   0.00000  -0.00011  -0.00004   3.14156
   D44        0.00000   0.00066   0.00000   0.00244   0.00253   0.00253
   D45        0.00000   0.00066   0.00000   0.00091   0.00087   0.00088
   D46       -3.14159   0.00184   0.00000   0.00347   0.00344  -3.13815
   D47        0.00000  -0.00218   0.00000  -0.00439  -0.00432  -0.00432
   D48       -3.14159  -0.00101   0.00000  -0.00183  -0.00179   3.13980
         Item               Value     Threshold  Converged?
 Maximum Force            0.163909     0.000450     NO 
 RMS     Force            0.027772     0.000300     NO 
 Maximum Displacement     1.133934     0.001800     NO 
 RMS     Displacement     0.332956     0.001200     NO 
 Predicted change in Energy=-7.444267D-02
 GradGradGradGradGradGradGradGradGradGradGradGradGradGradGradGradGradGrad

                          Input orientation:                          
 ---------------------------------------------------------------------
 Center     Atomic      Atomic             Coordinates (Angstroms)
 Number     Number       Type             X           Y           Z
 ---------------------------------------------------------------------
      1          6           0       -4.740009   -0.269132   -0.116050
      2          6           0       -4.878203   -0.034150   -1.486840
      3          6           0       -4.640346    1.241714   -2.014230
      4          6           0       -4.260844    2.294906   -1.168684
      5          6           0       -4.123884    2.053931    0.202394
      6          6           0       -4.361981    0.779080    0.727640
      7          1           0       -5.168587   -0.836039   -2.141651
      8          1           0       -3.833291    2.856545    0.856101
      9          1           0       -4.253049    0.607988    1.783408
     10          8           0       -3.968333    3.735964   -1.594221
     11          6           0       -3.853711    4.601660   -2.995373
     12          6           0       -4.165488    4.045752   -4.242741
     13          6           0       -3.288257    5.875097   -2.938686
     14          6           0       -3.035426    6.574273   -4.121251
     15          1           0       -3.048922    6.316239   -1.987719
     16          6           0       -3.353624    5.993269   -5.351873
     17          1           0       -2.598330    7.555994   -4.081877
     18          1           0       -4.753153    1.388623   -3.059837
     19          1           0       -4.606247    3.083338   -4.320703
     20          1           0       -4.923108   -1.249228    0.286631
     21          1           0       -3.163179    6.522739   -6.267485
     22          7           0       -3.917975    4.736926   -5.412840
 ---------------------------------------------------------------------
                    Distance matrix (angstroms):
                    1          2          3          4          5
     1  C    0.000000
     2  C    1.397633   0.000000
     3  C    2.428102   1.400909   0.000000
     4  C    2.812815   2.430403   1.402920   0.000000
     5  C    2.424384   2.789730   2.416579   1.398815   0.000000
     6  C    1.397665   2.414901   2.794525   2.429815   1.399220
     7  H    2.146653   1.075232   2.147634   3.401981   3.864954
     8  H    3.396627   3.864885   3.390843   2.144293   1.075159
     9  H    2.148118   3.390823   3.869582   3.400088   2.146401
    10  O    4.338349   3.879840   2.617115   1.530782   2.466021
    11  C    5.727185   4.981566   3.587572   2.970466   4.097516
    12  C    5.998157   4.974792   3.613084   3.538981   4.871172
    13  C    6.915664   6.289276   4.914367   4.110547   5.016570
    14  C    8.110452   7.348960   5.954115   5.341562   6.349185
    15  H    7.051953   6.627563   5.318283   4.279099   4.911152
    16  C    8.279709   7.320697   5.947503   5.656855   6.852852
    17  H    9.030348   8.339205   6.950908   6.239367   7.138277
    18  H    3.378492   2.124674   1.061886   2.154108   3.388328
    19  H    5.379225   4.221786   2.951704   3.267439   4.663771
    20  H    1.075297   2.150262   3.402750   3.888113   3.399516
    21  H    9.298176   8.293894   6.939843   6.713957   7.921651
    22  N    7.334327   6.252895   4.928375   4.908553   6.226695
                    6          7          8          9         10
     6  C    0.000000
     7  H    3.389992   0.000000
     8  H    2.147528   4.940112   0.000000
     9  H    1.075075   4.281298   2.468218   0.000000
    10  O    3.780100   4.758518   2.606856   4.612340   0.000000
    11  C    5.360157   5.659179   4.228440   6.240644   1.650998
    12  C    5.951003   5.408573   5.246214   6.938326   2.673854
    13  C    6.369004   7.015002   4.879460   7.139428   2.616482
    14  C    7.671750   7.961275   6.263556   8.481990   3.913080
    15  H    6.305349   7.461350   4.546651   6.946614   2.767305
    16  C    8.072486   7.761383   6.971949   8.984568   4.426425
    17  H    8.495203   8.988710   6.927740   9.241994   4.760039
    18  H    3.856104   2.442288   4.281999   4.931178   2.876453
    19  H    5.554731   4.519514   5.239103   6.596384   2.875162
    20  H    2.150206   2.475386   4.285950   2.477614   5.413071
    21  H    9.130089   8.671550   8.039622  10.049327   5.500344
    22  N    7.318961   6.581995   6.545429   8.303397   3.947951
                   11         12         13         14         15
    11  C    0.000000
    12  C    1.400773   0.000000
    13  C    1.394487   2.411762   0.000000
    14  C    2.414206   2.772222   1.396865   0.000000
    15  H    2.145421   3.389241   1.075279   2.149121   0.000000
    16  C    2.782041   2.383720   2.416963   1.397585   3.393330
    17  H    3.388888   3.847553   2.146695   1.075351   2.474979
    18  H    3.337179   2.967313   4.721128   5.564904   5.323086
    19  H    2.151305   1.061408   3.382453   3.833260   4.280155
    20  H    6.793236   7.008995   7.989456   9.176052   8.119208
    21  H    3.856695   3.352563   3.393522   2.150650   4.286268
    22  N    2.422101   1.381346   2.795249   2.413076   3.870521
                   16         17         18         19         20
    16  C    0.000000
    17  H    2.150691   0.000000
    18  H    5.330561   6.612435   0.000000
    19  H    3.331678   4.908505   2.117410   0.000000
    20  H    9.311808  10.100514   4.264503   6.332381   0.000000
    21  H    1.074688   2.482651   6.259088   4.207361  10.317813
    22  N    1.378624   3.385272   4.176755   2.097817   8.326362
                   21         22
    21  H    0.000000
    22  N    2.118788   0.000000
 Stoichiometry    C11H9NO
 Framework group  C1[X(C11H9NO)]
 Deg. of freedom    60
 Full point group                 C1      NOp   1
 Largest Abelian subgroup         C1      NOp   1
 Largest concise Abelian subgroup C1      NOp   1
                         Standard orientation:                         
 ---------------------------------------------------------------------
 Center     Atomic      Atomic             Coordinates (Angstroms)
 Number     Number       Type             X           Y           Z
 ---------------------------------------------------------------------
      1          6           0        4.154335    0.463753    0.116552
      2          6           0        3.141573    1.425282    0.060404
      3          6           0        1.799096    1.035430   -0.030793
      4          6           0        1.460757   -0.325615   -0.066381
      5          6           0        2.478477   -1.283589   -0.009686
      6          6           0        3.818880   -0.892598    0.081211
      7          1           0        3.392533    2.470472    0.087293
      8          1           0        2.226239   -2.328397   -0.036471
      9          1           0        4.590940   -1.639515    0.123942
     10          8           0        0.046795   -0.903858   -0.164560
     11          6           0       -1.508098   -0.348796   -0.161409
     12          6           0       -1.811475    1.018726   -0.164518
     13          6           0       -2.538079   -1.275213   -0.001772
     14          6           0       -3.852222   -0.829584    0.158461
     15          1           0       -2.320288   -2.328204   -0.002902
     16          6           0       -4.124924    0.541134    0.154821
     17          1           0       -4.649156   -1.540739    0.283100
     18          1           0        1.052480    1.789442   -0.071209
     19          1           0       -1.052774    1.749572   -0.294229
     20          1           0        5.184133    0.765227    0.186502
     21          1           0       -5.132471    0.894405    0.277301
     22          7           0       -3.110844    1.460718   -0.008312
 ---------------------------------------------------------------------
 Rotational constants (GHZ):           2.6496574           0.3549775           0.3139408
 Standard basis: 6-31+G(d) (6D, 7F)
 There are   265 symmetry adapted cartesian basis functions of A   symmetry.
 There are   265 symmetry adapted basis functions of A   symmetry.
   265 basis functions,   452 primitive gaussians,   265 cartesian basis functions
    45 alpha electrons       45 beta electrons
       nuclear repulsion energy       668.9098158354 Hartrees.
 NAtoms=   22 NActive=   22 NUniq=   22 SFac= 1.00D+00 NAtFMM=   60 NAOKFM=F Big=F
 Integral buffers will be    131072 words long.
 Raffenetti 2 integral format.
 Two-electron integral symmetry is turned on.
 Nuclear repulsion after empirical dispersion term =      668.8953949964 Hartrees.
 One-electron integrals computed using PRISM.
 NBasis=   265 RedAO= T EigKep=  1.67D-06  NBF=   265
 NBsUse=   265 1.00D-06 EigRej= -1.00D+00 NBFU=   265
 Initial guess from the checkpoint file:  "molecule_102.chk"
 B after Tr=     0.000000    0.000000    0.000000
         Rot=    0.999785   -0.020673   -0.000540    0.001349 Ang=  -2.37 deg.
 ExpMin= 4.38D-02 ExpMax= 5.48D+03 ExpMxC= 8.25D+02 IAcc=3 IRadAn=         5 AccDes= 0.00D+00
 Harris functional with IExCor=  402 and IRadAn=       5 diagonalized for initial guess.
 HarFok:  IExCor=  402 AccDes= 0.00D+00 IRadAn=         5 IDoV= 1 UseB2=F ITyADJ=14
 ICtDFT=  3500011 ScaDFX=  1.000000  1.000000  1.000000  1.000000
 FoFCou: FMM=F IPFlag=           0 FMFlag=      100000 FMFlg1=           0
         NFxFlg=           0 DoJE=T BraDBF=F KetDBF=T FulRan=T
         wScrn=  0.000000 ICntrl=       500 IOpCl=  0 I1Cent=   200000004 NGrid=           0
         NMat0=    1 NMatS0=      1 NMatT0=    0 NMatD0=    1 NMtDS0=    0 NMtDT0=    0
 Petite list used in FoFCou.
 Requested convergence on RMS density matrix=1.00D-08 within 128 cycles.
 Requested convergence on MAX density matrix=1.00D-06.
 Requested convergence on             energy=1.00D-06.
 No special actions if energy rises.
 SCF Done:  E(RB3LYP) =  -554.516408386     A.U. after   16 cycles
            NFock= 16  Conv=0.38D-08     -V/T= 2.0109
 Calling FoFJK, ICntrl=      2127 FMM=F ISym2X=0 I1Cent= 0 IOpClX= 0 NMat=1 NMatS=1 NMatT=0.
 ***** Axes restored to original set *****
 -------------------------------------------------------------------
 Center     Atomic                   Forces (Hartrees/Bohr)
 Number     Number              X              Y              Z
 -------------------------------------------------------------------
      1        6           0.000837461    0.005457589   -0.003629217
      2        6           0.003545798    0.008620329    0.009916782
      3        6           0.002862861    0.006350062    0.009345507
      4        6           0.005984534    0.038305522   -0.033432466
      5        6           0.001194839    0.006595730   -0.002327941
      6        6          -0.001552584    0.002414815   -0.013882379
      7        1          -0.002097730   -0.004992170   -0.006074084
      8        1           0.002198633    0.006897844    0.003160308
      9        1           0.001211928    0.000212796    0.008029367
     10        8          -0.001548317    0.005468854   -0.022276058
     11        6          -0.002633443   -0.057873409    0.032883124
     12        6           0.015963934    0.039064976   -0.014141726
     13        6          -0.003230203   -0.008902614    0.013229115
     14        6          -0.006747093   -0.008328035   -0.002844103
     15        1           0.002595779    0.001399756    0.007538442
     16        6          -0.015865970   -0.038611088    0.024143815
     17        1           0.003192958    0.007390081    0.001539104
     18        1          -0.001162155    0.004068339   -0.015973663
     19        1          -0.005965164   -0.014074707   -0.005393861
     20        1          -0.001389973   -0.007336992    0.002920689
     21        1          -0.000450521   -0.001446844   -0.009918773
     22        7           0.003054426    0.009319163    0.017188018
 -------------------------------------------------------------------
 Cartesian Forces:  Max     0.057873409 RMS     0.014728229

 GradGradGradGradGradGradGradGradGradGradGradGradGradGradGradGradGradGrad
 Berny optimization.
 Using GEDIIS/GDIIS optimizer.
 FormGI is forming the generalized inverse of G from B-inverse, IUseBI=4.
 Internal  Forces:  Max     0.092990096 RMS     0.015083567
 Search for a local minimum.
 Step number   2 out of a maximum of  116
 All quantities printed in internal units (Hartrees-Bohrs-Radians)
 Mixed Optimization -- RFO/linear search
 Update second derivatives using D2CorX and points    1    2
 DE= -3.23D-02 DEPred=-7.44D-02 R= 4.35D-01
 Trust test= 4.35D-01 RLast= 3.03D-01 DXMaxT set to 3.00D-01
 ITU=  0  0
 Use linear search instead of GDIIS.
     Eigenvalues ---    0.00230   0.00231   0.01728   0.01734   0.01783
     Eigenvalues ---    0.01927   0.01959   0.02035   0.02070   0.02070
     Eigenvalues ---    0.02070   0.02070   0.02070   0.02070   0.02070
     Eigenvalues ---    0.02070   0.02070   0.02070   0.02070   0.14949
     Eigenvalues ---    0.16000   0.16000   0.16000   0.16000   0.16000
     Eigenvalues ---    0.16000   0.16000   0.16063   0.16252   0.21987
     Eigenvalues ---    0.22000   0.22001   0.22700   0.23346   0.23466
     Eigenvalues ---    0.24155   0.24937   0.26378   0.36793   0.36967
     Eigenvalues ---    0.37230   0.37230   0.37230   0.37230   0.37230
     Eigenvalues ---    0.37230   0.37230   0.41111   0.41196   0.41409
     Eigenvalues ---    0.41485   0.44179   0.45378   0.45389   0.45389
     Eigenvalues ---    0.45389   0.45389   0.45389   0.45389   1.23958
 RFO step:  Lambda=-1.79548374D-01 EMin= 2.29998353D-03
 Quartic linear search produced a step of  0.89793.
 Maximum step size (   0.300) exceeded in Quadratic search.
    -- Step size scaled by   0.439
 Iteration  1 RMS(Cart)=  0.27281581 RMS(Int)=  0.01933957
 Iteration  2 RMS(Cart)=  0.06575332 RMS(Int)=  0.00078036
 Iteration  3 RMS(Cart)=  0.00104650 RMS(Int)=  0.00065613
 Iteration  4 RMS(Cart)=  0.00000074 RMS(Int)=  0.00065613
 Variable       Old X    -DE/DX   Delta X   Delta X   Delta X     New X
                                 (Linear)    (Quad)   (Total)
    R1        2.64114   0.00052  -0.00639  -0.00006  -0.00646   2.63468
    R2        2.64120   0.00238  -0.00634   0.00208  -0.00426   2.63694
    R3        2.03202   0.00802   0.00899   0.01262   0.02161   2.05362
    R4        2.64734  -0.00198  -0.00083  -0.00240  -0.00323   2.64411
    R5        2.03189   0.00799   0.00888   0.01256   0.02143   2.05333
    R6        2.65113  -0.01011   0.00258  -0.01168  -0.00909   2.64204
    R7        2.00667   0.01642  -0.01377   0.01924   0.00547   2.01214
    R8        2.64338  -0.00834  -0.00439  -0.01065  -0.01503   2.62834
    R9        2.89276  -0.07657  -0.03651  -0.13622  -0.17274   2.72002
   R10        2.64414  -0.00312  -0.00370  -0.00423  -0.00792   2.63622
   R11        2.03176   0.00767   0.00875   0.01210   0.02085   2.05261
   R12        2.03160   0.00797   0.00861   0.01248   0.02109   2.05269
   R13        3.11993  -0.09299  -0.05895  -0.21414  -0.27309   2.84685
   R14        2.64708  -0.00903  -0.00106  -0.01111  -0.01213   2.63494
   R15        2.63520  -0.01701  -0.01173  -0.02044  -0.03210   2.60309
   R16        2.00577   0.01564  -0.01458   0.01802   0.00345   2.00922
   R17        2.61037  -0.03758  -0.03403  -0.05045  -0.08452   2.52585
   R18        2.63969  -0.00680  -0.00770  -0.00754  -0.01519   2.62450
   R19        2.03198   0.00782   0.00896   0.01234   0.02130   2.05328
   R20        2.64105   0.00166  -0.00647   0.00136  -0.00514   2.63591
   R21        2.03212   0.00810   0.00908   0.01275   0.02183   2.05395
   R22        2.03087   0.00766   0.00795   0.01192   0.01988   2.05074
   R23        2.60522  -0.03417  -0.03865  -0.04676  -0.08549   2.51974
    A1        2.08599  -0.00051  -0.00755  -0.00287  -0.01044   2.07555
    A2        2.09867   0.00017   0.00384   0.00127   0.00511   2.10378
    A3        2.09853   0.00035   0.00371   0.00160   0.00532   2.10385
    A4        2.10083   0.00032   0.00578   0.00350   0.00928   2.11011
    A5        2.09280   0.00141  -0.00144   0.00241   0.00098   2.09377
    A6        2.08956  -0.00173  -0.00435  -0.00591  -0.01025   2.07930
    A7        2.09756  -0.00723   0.00284  -0.01239  -0.00954   2.08802
    A8        2.06992   0.00551  -0.02198   0.00011  -0.02188   2.04804
    A9        2.11571   0.00171   0.01914   0.01228   0.03142   2.14712
   A10        2.08049   0.01466  -0.01248   0.02058   0.00811   2.08860
   A11        2.20292  -0.00452   0.09745   0.02544   0.12288   2.32580
   A12        1.99977  -0.01015  -0.08496  -0.04602  -0.13099   1.86878
   A13        2.10394  -0.00816   0.00857  -0.01212  -0.00354   2.10039
   A14        2.08727   0.00214  -0.00640   0.00077  -0.00564   2.08163
   A15        2.09198   0.00602  -0.00217   0.01135   0.00918   2.10116
   A16        2.09756   0.00092   0.00284   0.00330   0.00613   2.10370
   A17        2.09538   0.00111   0.00089   0.00294   0.00382   2.09920
   A18        2.09024  -0.00203  -0.00373  -0.00623  -0.00996   2.08028
   A19        2.40804  -0.05676   0.15700  -0.04486   0.11213   2.52017
   A20        2.13197   0.00730   0.10272   0.04765   0.15040   2.28238
   A21        2.06290  -0.02030  -0.08984  -0.06613  -0.15653   1.90637
   A22        2.08158   0.01334  -0.01151   0.02115   0.00954   2.09112
   A23        2.11493   0.00276   0.01844   0.01807   0.03644   2.15137
   A24        2.11280   0.00297   0.01652   0.00895   0.02547   2.13826
   A25        2.05543  -0.00573  -0.03499  -0.02710  -0.06218   1.99325
   A26        2.08985  -0.01822  -0.00408  -0.03084  -0.03477   2.05509
   A27        2.09538   0.00761   0.00088   0.01156   0.01237   2.10775
   A28        2.09795   0.01061   0.00320   0.01927   0.02240   2.12035
   A29        2.08996  -0.00511  -0.00398  -0.00777  -0.01170   2.07826
   A30        2.09384   0.00130  -0.00049  -0.00010  -0.00062   2.09323
   A31        2.09938   0.00381   0.00447   0.00787   0.01232   2.11170
   A32        2.10022  -0.00038   0.00523   0.00528   0.01054   2.11076
   A33        2.10713   0.01386   0.01143   0.02897   0.04034   2.14747
   A34        2.07583  -0.01348  -0.01667  -0.03425  -0.05090   2.02494
   A35        2.08503  -0.00684  -0.00841  -0.02049  -0.02899   2.05605
    D1       -0.00011  -0.00002  -0.00010  -0.00017  -0.00027  -0.00038
    D2        3.14144   0.00000  -0.00014  -0.00015  -0.00028   3.14116
    D3        3.14156  -0.00002  -0.00003  -0.00010  -0.00014   3.14142
    D4       -0.00008   0.00000  -0.00008  -0.00008  -0.00015  -0.00023
    D5       -0.00004  -0.00002  -0.00003  -0.00010  -0.00015  -0.00018
    D6       -3.14152   0.00001   0.00007   0.00010   0.00018  -3.14134
    D7        3.14148  -0.00002  -0.00010  -0.00017  -0.00028   3.14120
    D8        0.00000   0.00001   0.00000   0.00003   0.00005   0.00004
    D9        0.00010   0.00003   0.00009   0.00020   0.00029   0.00039
   D10        3.14103   0.00000  -0.00050  -0.00052  -0.00097   3.14006
   D11       -3.14145   0.00001   0.00013   0.00018   0.00030  -3.14115
   D12       -0.00051  -0.00002  -0.00046  -0.00054  -0.00096  -0.00148
   D13        0.00006   0.00000   0.00005   0.00005   0.00010   0.00016
   D14       -3.14123   0.00010   0.00033   0.00073   0.00112  -3.14011
   D15       -3.14086   0.00003   0.00066   0.00079   0.00147  -3.13940
   D16        0.00104   0.00013   0.00094   0.00147   0.00248   0.00352
   D17       -0.00020  -0.00004  -0.00019  -0.00032  -0.00051  -0.00072
   D18        3.14154   0.00000  -0.00004  -0.00005  -0.00012   3.14142
   D19        3.14111  -0.00013  -0.00043  -0.00091  -0.00125   3.13987
   D20       -0.00032  -0.00009  -0.00029  -0.00064  -0.00086  -0.00118
   D21       -0.08979   0.00034   0.00173   0.00341   0.00514  -0.08465
   D22        3.05210   0.00043   0.00199   0.00405   0.00604   3.05814
   D23        0.00020   0.00005   0.00018   0.00035   0.00054   0.00074
   D24       -3.14151   0.00002   0.00008   0.00014   0.00022  -3.14129
   D25       -3.14155   0.00001   0.00003   0.00008   0.00014  -3.14141
   D26       -0.00007  -0.00002  -0.00006  -0.00013  -0.00018  -0.00025
   D27        0.10189   0.00164   0.02322   0.03177   0.05414   0.15603
   D28       -2.91430  -0.00236   0.01175   0.00582   0.01843  -2.89586
   D29        0.13832  -0.00147   0.00536  -0.00570  -0.00258   0.13574
   D30       -3.01151  -0.00190  -0.00204  -0.01678  -0.02228  -3.03379
   D31       -3.12998   0.00023   0.01043   0.01450   0.02648  -3.10349
   D32        0.00338  -0.00021   0.00304   0.00341   0.00678   0.01016
   D33        3.01476   0.00384   0.01535   0.02390   0.03593   3.05069
   D34       -0.12759   0.00331   0.01467   0.02253   0.03441  -0.09318
   D35       -0.00514   0.00032  -0.00462  -0.00349  -0.00749  -0.01263
   D36        3.13569  -0.00021  -0.00530  -0.00486  -0.00901   3.12668
   D37        0.00135   0.00025   0.00122   0.00082   0.00127   0.00262
   D38        3.13498  -0.00013  -0.00593  -0.00970  -0.01638   3.11861
   D39        0.00226  -0.00040   0.00203  -0.00044   0.00097   0.00324
   D40       -3.14024  -0.00018   0.00122   0.00081   0.00203  -3.13820
   D41       -3.13857   0.00014   0.00271   0.00093   0.00252  -3.13605
   D42        0.00211   0.00035   0.00190   0.00219   0.00358   0.00569
   D43        3.14156   0.00046  -0.00003   0.00254   0.00291  -3.13872
   D44        0.00253   0.00040   0.00227   0.00470   0.00733   0.00985
   D45        0.00088   0.00024   0.00079   0.00128   0.00184   0.00272
   D46       -3.13815   0.00018   0.00309   0.00345   0.00626  -3.13189
   D47       -0.00432  -0.00034  -0.00388  -0.00488  -0.00836  -0.01268
   D48        3.13980  -0.00041  -0.00161  -0.00280  -0.00422   3.13558
         Item               Value     Threshold  Converged?
 Maximum Force            0.092990     0.000450     NO 
 RMS     Force            0.015084     0.000300     NO 
 Maximum Displacement     0.934425     0.001800     NO 
 RMS     Displacement     0.318141     0.001200     NO 
 Predicted change in Energy=-1.502556D-02
 GradGradGradGradGradGradGradGradGradGradGradGradGradGradGradGradGradGrad

                          Input orientation:                          
 ---------------------------------------------------------------------
 Center     Atomic      Atomic             Coordinates (Angstroms)
 Number     Number       Type             X           Y           Z
 ---------------------------------------------------------------------
      1          6           0       -4.682416   -0.137177    0.044450
      2          6           0       -4.877378   -0.139345   -1.336063
      3          6           0       -4.690259    1.024408   -2.090003
      4          6           0       -4.302043    2.206412   -1.452147
      5          6           0       -4.105734    2.213205   -0.075227
      6          6           0       -4.295031    1.048808    0.669385
      7          1           0       -5.178710   -1.053528   -1.840159
      8          1           0       -3.804012    3.135047    0.413632
      9          1           0       -4.136791    1.075366    1.743705
     10          8           0       -4.033946    3.539622   -1.923816
     11          6           0       -3.914603    4.403391   -3.152295
     12          6           0       -4.220731    4.136634   -4.486215
     13          6           0       -3.306242    5.591994   -2.813740
     14          6           0       -3.006718    6.480004   -3.838709
     15          1           0       -3.073295    5.821763   -1.777625
     16          6           0       -3.334105    6.136587   -5.150397
     17          1           0       -2.523714    7.426939   -3.612041
     18          1           0       -4.853297    0.958320   -3.140150
     19          1           0       -4.719579    3.253357   -4.804702
     20          1           0       -4.829570   -1.044419    0.624313
     21          1           0       -3.111489    6.806477   -5.974630
     22          7           0       -3.936285    4.991626   -5.473451
 ---------------------------------------------------------------------
                    Distance matrix (angstroms):
                    1          2          3          4          5
     1  C    0.000000
     2  C    1.394213   0.000000
     3  C    2.430069   1.399201   0.000000
     4  C    2.806580   2.418070   1.398108   0.000000
     5  C    2.423052   2.778423   2.411272   1.390860   0.000000
     6  C    1.395410   2.402635   2.787656   2.416814   1.395027
     7  H    2.153546   1.086575   2.149146   3.397986   3.864946
     8  H    3.408129   3.864608   3.392406   2.142785   1.086192
     9  H    2.157645   3.392486   3.873789   3.394118   2.145729
    10  O    4.220597   3.819899   2.604739   1.439374   2.276361
    11  C    5.605843   4.986190   3.625966   2.804876   3.781771
    12  C    6.245442   5.351509   3.955785   3.596935   4.813483
    13  C    6.548779   6.123745   4.827229   3.782555   4.422088
    14  C    7.853277   7.319726   5.971248   5.063312   5.794584
    15  H    6.435697   6.243757   5.072156   3.832300   4.121381
    16  C    8.256179   7.504543   6.110608   5.482722   6.461091
    17  H    8.674432   8.244299   6.928413   5.922963   6.495757
    18  H    3.372090   2.111914   1.064780   2.170477   3.395194
    19  H    5.917041   4.854563   3.512643   3.536956   4.881255
    20  H    1.086730   2.159749   3.415694   3.893311   3.409605
    21  H    9.322632   8.536927   7.142490   6.559792   7.542522
    22  N    7.570242   6.658116   5.268303   4.905312   6.073645
                    6          7          8          9         10
     6  C    0.000000
     7  H    3.390946   0.000000
     8  H    2.158450   4.951115   0.000000
     9  H    1.086236   4.296727   2.474292   0.000000
    10  O    3.605137   4.734397   2.383320   4.419711   0.000000
    11  C    5.099332   5.753054   3.786391   5.924182   1.506486
    12  C    6.010025   5.903992   5.018499   6.941924   2.637650
    13  C    5.809510   6.972587   4.086599   6.469934   2.352392
    14  C    7.174994   8.091097   5.468712   7.851784   3.656208
    15  H    5.501055   7.190710   3.543162   6.004921   2.480401
    16  C    7.789656   8.127607   6.339438   8.590046   4.200575
    17  H    7.883446   9.061285   6.022087   8.463362   4.499126
    18  H    3.851286   2.417314   4.297500   4.937521   2.968825
    19  H    5.916578   5.248674   5.299364   6.925671   2.975154
    20  H    2.160871   2.489097   4.308607   2.495290   5.304659
    21  H    8.870990   9.118494   7.400599   9.667966   5.285108
    22  N    7.308143   7.161586   6.174312   8.213686   3.836373
                   11         12         13         14         15
    11  C    0.000000
    12  C    1.394352   0.000000
    13  C    1.377498   2.398236   0.000000
    14  C    2.368066   2.717438   1.388825   0.000000
    15  H    2.146927   3.390093   1.086551   2.164666   0.000000
    16  C    2.708017   2.286275   2.399442   1.394863   3.397459
[...]
 .00001601,0.01686361,0.00198973,0.01753764,-0.07737881,-0.10573278,-0.
 02011191,0.23636597,0.41794669,0.00018318,0.00019365,-0.00028425,-0.00
 006997,-0.00005090,0.00012268,0.00009104,0.00135945,-0.00002550,-0.004
 91561,-0.00683941,0.00006615,0.00064567,-0.00001792,0.00042694,-0.0000
 0136,0.00034669,0.00011273,-0.00007073,0.00008422,-0.00001478,-0.00012
 159,-0.00001635,0.00012406,-0.00000550,0.00005780,-0.00005491,-0.03135
 083,0.00771452,-0.03867479,-0.05003167,0.01545574,-0.15493677,0.074769
 63,-0.20074722,0.57157326,0.00010781,0.00000426,-0.00008586,-0.0001129
 2,-0.00030422,-0.00023385,-0.00048152,-0.00001162,0.00047884,0.0022291
 8,0.00227857,-0.00372778,-0.00005370,0.00058925,-0.00001467,0.00014561
 ,0.00006484,-0.00020919,-0.00006025,-0.00001225,0.00000671,0.00003011,
 -0.00000082,-0.00004503,0.00005262,0.00005242,-0.00000745,0.00699852,0
 .00062046,0.00697682,-0.22689406,-0.13880100,0.04555318,-0.03609487,-0
 .01524036,-0.02015601,0.58881930,0.00029916,-0.00024805,-0.00042918,-0
 .00033703,-0.00064997,0.00000733,-0.00054160,0.00066813,0.00003404,0.0
 0069512,0.00346941,0.00075811,-0.00032300,-0.00162345,0.00045028,0.000
 07862,0.00056045,0.00031491,-0.00007213,-0.00009148,-0.00000294,0.0000
 7397,0.00007462,-0.00011922,-0.00007204,-0.00010119,0.00003301,-0.0173
 1406,-0.01582862,0.02152229,-0.10483959,-0.17571729,0.06326843,-0.0340
 7393,0.00797282,-0.03912355,0.20853743,0.37308511,-0.00020614,0.000261
 50,0.00033406,0.00024535,0.00060621,0.00024533,0.00057747,0.00029991,-
 0.00002007,-0.00092331,-0.00573232,-0.00275023,0.00049743,0.00256969,-
 0.00052277,0.00011878,-0.00054930,-0.00053066,0.00008257,0.00013158,0.
 00000562,-0.00005505,-0.00008126,0.00011102,0.00006333,0.00019292,-0.0
 0007338,0.03111902,0.04238947,-0.02666868,-0.00762612,0.02904439,-0.11
 909569,0.01235077,-0.01840560,0.05176991,0.16128726,-0.17736174,0.6128
 5719,0.00019353,-0.00004029,-0.00030964,-0.00021288,-0.00038708,0.0000
 2035,-0.00018456,0.00040489,0.00016252,0.00006728,-0.00041132,0.001287
 04,-0.00008874,-0.00066318,0.00015679,-0.00008936,0.00036754,0.0001525
 3,-0.00006567,-0.00000338,-0.00000731,0.00002121,0.00000247,0.00002850
 ,-0.00001890,-0.00003419,-0.00000375,-0.00423090,-0.00743621,-0.000790
 04,0.04150445,0.01021844,0.02841975,-0.02165299,0.01126965,-0.03745241
 ,-0.11659006,-0.03017028,-0.01492333,0.56775308,-0.00004325,0.00006124
 ,0.00007979,0.00010866,0.00015952,0.00004027,0.00031500,-0.00002902,-0
 .00011973,-0.00162767,0.00100224,0.00097472,0.00006468,-0.00032278,-0.
 00006159,0.00000194,-0.00008829,0.00011217,0.00001474,0.00001908,-0.00
 000458,-0.00005434,-0.00000705,-0.00003203,-0.00000389,-0.00002714,0.0
 0000698,-0.00307481,0.00162571,0.00069507,-0.01030305,-0.01939736,0.02
 217024,0.00344912,-0.00499982,0.00096242,-0.00347085,-0.13352621,0.126
 83574,0.23612517,0.40315935,0.00031302,-0.00015418,-0.00044629,-0.0004
 2910,-0.00060860,0.00010610,-0.00031030,0.00051972,-0.00031926,0.00116
 045,0.00105689,-0.00109724,-0.00021362,-0.00048452,0.00044296,0.000029
 24,0.00048351,0.00010901,-0.00007168,-0.00001218,-0.00000737,0.0000343
 6,0.00000652,-0.00002494,-0.00000129,-0.00001357,0.00000701,-0.0069811
 2,-0.00025883,0.00684845,0.06437130,0.04260206,-0.00514897,-0.02338942
 ,0.01035449,-0.05005128,-0.06025562,0.09572943,-0.29062405,0.09272127,
 -0.20001800,0.57474015,0.00000762,0.00002692,-0.00000161,-0.00002269,0
 .00002167,0.00004577,0.00012573,0.00014404,-0.00007838,-0.00003425,-0.
 00015688,0.00017092,0.00003636,0.00004968,-0.00005902,-0.00001698,-0.0
 0001758,0.00000583,-0.00000015,0.00001844,-0.00000187,-0.00001705,-0.0
 0001039,0.00000954,0.00000331,0.00000273,-0.00000145,0.00045012,0.0026
 7405,0.00056009,-0.01319034,-0.00347537,-0.01620896,-0.00012219,-0.005
 42483,0.00131562,-0.23160546,-0.04817721,-0.13529429,0.00273015,-0.000
 63195,-0.00023570,0.23986633,0.00000228,0.00004241,-0.00001005,0.00000
 641,-0.00004641,-0.00004122,-0.00002312,0.00009671,0.00019667,0.000200
 77,-0.00079540,0.00014074,0.00006632,0.00015121,-0.00008247,-0.0000341
 4,-0.00000547,-0.00003044,-0.00001210,0.00000566,0.00000054,0.00000085
 ,-0.00000301,0.00001408,0.00000164,0.00000988,-0.00001382,0.00277969,-
 0.00078470,-0.00178158,-0.01730799,0.00292204,-0.01335663,-0.00499302,
 0.00077151,0.00427690,-0.04764252,-0.05704253,-0.02154869,0.01263630,0
 .00729529,0.00813905,0.05408284,0.04830223,-0.00000206,-0.00003358,-0.
 00000859,0.00000422,-0.00002395,-0.00004607,-0.00005725,-0.00007180,0.
 00012610,0.00015136,0.00012553,0.00004251,-0.00001232,-0.00009803,0.00
 006516,-0.00002076,0.00004098,-0.00002206,-0.00000408,-0.00001638,-0.0
 0000148,0.00002327,0.00000783,-0.00000605,-0.00000484,-0.00000321,0.00
 000282,0.00072724,-0.00217183,0.00049808,0.00733155,0.00363438,0.00840
 206,0.00045140,0.00335356,0.00136500,-0.13719489,-0.02303169,-0.152831
 28,-0.02224897,-0.00662872,-0.01021410,0.14938181,0.02166322,0.1562332
 2,-0.00037653,0.00014723,0.00058999,0.00045143,0.00071315,-0.00010824,
 0.00050241,-0.00069408,0.00032772,-0.00124010,-0.00063158,0.00076051,0
 .00023033,0.00052277,-0.00057858,-0.00002844,-0.00070769,-0.00011111,0
 .00008204,-0.00001147,0.00000308,-0.00003248,0.00000401,0.00000476,0.0
 0000401,-0.00000932,0.00001842,0.00507509,0.00147727,-0.00262381,-0.06
 339069,-0.02515594,-0.01326763,0.02636729,-0.02304845,0.06622437,0.019
 49179,0.04404718,-0.05893609,-0.23413447,-0.06725847,-0.07637878,0.003
 75699,-0.00264965,-0.00039747,0.52829264,-0.00020178,0.00001715,0.0002
 4421,0.00020791,0.00023757,-0.00007924,-0.00005469,-0.00034120,0.00008
 985,0.00027863,0.00040647,0.00005914,0.00002118,0.00020735,-0.00026079
 ,0.00004426,-0.00031199,-0.00005993,0.00005840,-0.00004073,0.00001552,
 -0.00000153,0.00000636,-0.00003496,-0.00000446,-0.00001258,0.00000816,
 0.00192179,-0.00073748,0.00048919,-0.03398927,-0.02177656,-0.01349306,
 -0.00160795,-0.03253172,0.06095456,0.02285980,0.03206014,-0.01558502,-
 0.03652940,-0.10268540,0.01907976,-0.00234297,0.00328987,0.00597240,0.
 17733602,0.39004946,0.00003358,0.00006810,-0.00009966,-0.00004442,0.00
 000603,0.00012178,0.00019429,0.00032552,-0.00021809,-0.00138067,-0.000
 82853,0.00065353,0.00002605,0.00001515,0.00010206,-0.00001359,0.000115
 41,0.00002929,-0.00000239,0.00005990,-0.00000986,-0.00002925,-0.000026
 85,0.00002043,0.00000186,0.00002218,-0.00001441,0.00215930,0.00182009,
 -0.00472685,-0.00304224,-0.00600782,0.00030692,0.02861018,0.03549272,-
 0.02739376,-0.02481426,0.00766704,-0.03157492,-0.12742729,-0.01499574,
 -0.18609864,-0.00131282,0.00557730,-0.00234563,0.12391078,-0.21063462,
 0.64704179,0.00000331,-0.00001088,-0.00000371,-0.00000667,0.00000803,0
 .00000005,-0.00000889,0.00000642,0.00000878,0.00006803,0.00010766,-0.0
 0008445,0.00001967,-0.00002379,0.00001720,0.00000892,0.00001423,0.0000
 0100,-0.00000084,-0.00000230,-0.00000179,-0.00000069,0.00000402,-0.000
 00550,-0.00000750,0.00000012,0.00000099,0.00006800,0.00016466,-0.00010
 955,0.00304270,-0.00183245,-0.00295463,0.00026392,0.00111268,-0.001548
 37,0.00678635,0.00388631,-0.00230265,-0.18714271,-0.13435128,0.0583320
 2,-0.00049707,0.00161970,0.00141487,-0.01081996,-0.01576575,0.01330977
 ,0.19193002,-0.00001799,-0.00002324,0.00001264,0.00003346,0.00002669,-
 0.00000173,0.00002166,-0.00011979,0.00000263,0.00000334,0.00046807,-0.
 00000103,-0.00004207,-0.00010262,0.00000694,0.00000625,0.00000811,0.00
 001409,-0.00000516,-0.00001376,-0.00000353,-0.00000199,0.00000676,-0.0
 0001091,0.00000050,-0.00001198,0.00000846,-0.00036636,-0.00080312,0.00
 046222,-0.00118225,0.00508108,0.00397329,0.00046721,0.00041217,-0.0003
 3582,-0.00979820,-0.00537999,0.00310824,-0.13425793,-0.16477868,0.0681
 1952,0.00199887,-0.00196422,-0.00146681,-0.00168037,-0.00178991,0.0029
 3593,0.14685608,0.16697165,0.00000078,0.00003383,-0.00000301,0.0000071
 1,-0.00000313,0.00000754,0.00001753,0.00005392,0.00000490,0.00005132,-
 0.00053187,-0.00033887,0.00001407,0.00024079,-0.00003661,0.00001601,-0
 .00003455,-0.00004708,-0.00000137,0.00001411,0.00000159,-0.00000254,-0
 .00000525,0.00000714,0.00001443,0.00002102,-0.00000741,0.00106846,0.00
 180232,-0.00048599,-0.00369155,0.00346484,-0.00191918,-0.00074356,0.00
 043343,-0.00156875,0.02097333,0.01817027,-0.00475676,0.05827412,0.0679
 0839,-0.08605447,0.00080935,-0.00193083,-0.00008077,-0.01096700,-0.013
 05860,0.01086082,-0.06208921,-0.07587370,0.08462823,0.00567171,-0.0024
 2957,0.00194598,-0.00091433,-0.00046990,0.00690404,-0.10025201,-0.0287
 0182,0.12252584,0.00090635,-0.00272401,0.00519389,0.00453477,0.0003663
 5,0.00204041,-0.00045655,0.00026002,-0.00056042,-0.00312217,0.00058256
 ,-0.00201847,0.00012956,-0.00016394,0.00027439,-0.00073532,0.00013142,
 -0.00031732,-0.00272495,0.00130827,-0.00187343,-0.00027818,0.00000282,
 0.00082705,0.00060101,-0.00003338,0.00012474,0.00027498,0.00033588,-0.
 00049519,0.00021869,-0.00016213,0.00045469,-0.00005257,-0.00000655,0.0
 0001063,-0.00049052,-0.00015976,-0.00000026,-0.00001226,-0.00002501,0.
 00000155,0.09684577,-0.00194129,-0.00503545,-0.00022128,-0.01387230,-0
 .00065156,0.02692617,-0.02907208,-0.06940427,0.04557635,0.01128592,0.0
 0951927,-0.02050984,-0.00008338,-0.00355679,-0.00306867,0.00008479,-0.
 00121958,-0.00022168,0.00074362,0.00069567,0.00004377,0.00048451,0.000
 34528,-0.00117832,0.00012079,0.00012029,0.00010638,0.00046355,0.001567
 11,0.00134255,0.00015765,-0.00162120,-0.00040494,0.00070114,-0.0009422
 2,0.00041016,-0.00011935,-0.00009559,0.00018156,-0.00002211,-0.0000440
 6,0.00000742,0.00000761,0.00003307,-0.00000277,-0.00004739,-0.00007401
 ,0.00006100,0.00002055,0.00000818,-0.00001392,0.03179390,0.07033366,0.
 00216772,0.00053615,0.00278698,0.00195421,-0.00015576,-0.00141809,0.12
 322095,0.04432127,-0.26629327,0.01033168,0.00706883,-0.01429072,0.0018
 3570,-0.00408538,0.00013144,-0.00057809,-0.00041770,0.00032128,-0.0018
 8074,0.00060405,-0.00009956,0.00050549,0.00034397,-0.00066250,-0.00031
 211,0.00011371,-0.00020698,-0.00195046,0.00128326,0.00021656,-0.000196
 91,0.00029039,0.00029404,0.00003681,0.00071491,-0.00002969,-0.00017225
 ,-0.00027798,0.00025305,-0.00012312,0.00003513,-0.00009435,0.00001718,
 -0.00007031,-0.00004222,0.00017844,0.00008455,-0.00002460,-0.00000848,
 0.00001412,0.00000252,-0.13511946,-0.05010791,0.27915673,-0.00021122,0
 .00003478,0.00021111,0.00030243,0.00039957,-0.00007947,0.00020229,0.00
 008942,0.00023142,-0.00052115,-0.00044396,-0.00050185,0.00036543,0.000
 35042,-0.00034176,-0.00000461,-0.00027666,-0.00002967,0.00001208,-0.00
 001625,-0.00001276,-0.00006736,0.00000168,0.00000969,-0.00000691,-0.00
 000614,0.00002790,0.00008635,0.00160547,0.00059540,-0.01270127,-0.0174
 0370,0.00824519,-0.20804471,-0.13654027,0.04514747,-0.00140315,-0.0020
 3941,-0.00483601,-0.00002133,0.00068097,-0.00090761,-0.00081418,-0.000
 62458,0.00057454,0.00476659,-0.00164140,-0.00374543,-0.00042542,0.0005
 7488,0.00042623,-0.00038381,-0.00004283,0.00007478,0.21108576,-0.00010
 096,0.00000318,0.00010916,0.00019017,0.00005684,-0.00012001,0.00059617
 ,-0.00078941,0.00084314,0.00072886,-0.00031020,0.00063790,0.00011373,0
 .00008397,-0.00020016,0.00001143,-0.00006465,-0.00004065,-0.00002959,-
 0.00001490,-0.00001307,-0.00004455,0.00000465,-0.00007157,0.00002240,-
 0.00000724,0.00000042,0.00142681,-0.00110036,-0.00112364,-0.00469697,0
 .00101077,0.00394354,-0.13768081,-0.15494811,0.04588667,-0.00225378,0.
 00381685,0.00095966,0.00024246,-0.00011669,0.00010162,0.00015851,-0.00
 029265,-0.00003840,-0.00283175,0.00604135,0.00439829,0.00049139,-0.000
 96544,-0.00059339,0.00000413,0.00008714,-0.00004484,0.14920725,0.16120
 962,0.00013886,-0.00002720,-0.00020661,-0.00024849,-0.00030137,0.00009
 037,-0.00077016,0.00091273,-0.00021236,-0.00042722,0.00048063,-0.00109
 759,-0.00001190,0.00001491,0.00000142,0.00001027,0.00023792,-0.0000276
 4,0.00000888,-0.00004683,0.00000473,0.00002173,-0.00001791,0.00001159,
 -0.00001246,0.00000021,-0.00000089,0.00199668,-0.00067385,0.00111485,-
 0.01396944,-0.01106133,0.01020197,0.04410163,0.04552353,-0.06800375,-0
 .00425130,0.00158019,-0.00162664,0.00018370,0.00044267,-0.00056259,-0.
 00063503,-0.00096471,0.00022602,-0.00260751,0.00542448,-0.00128311,0.0
 0056074,-0.00053191,-0.00014805,0.00025440,0.00000694,-0.00003456,-0.0
 4876395,-0.06401324,0.07870831,-0.06045402,-0.07499370,0.02686325,-0.0
 0096092,-0.01381394,0.00158261,0.00403577,-0.00092365,0.00489480,-0.00
 037455,0.00046867,0.00044377,0.00529184,0.00039754,0.00312428,0.004220
 66,0.00633860,-0.00182321,-0.00293038,0.00075436,-0.00171394,0.0003804
 2,0.00029964,0.00007467,-0.00292662,0.00050912,-0.00187006,-0.00074200
 ,0.00006259,-0.00029266,-0.00012868,0.00008242,-0.00009514,0.00011870,
 -0.00002856,0.00002287,0.00003469,0.00000615,-0.00003764,0.00003895,-0
 .00001477,0.00003740,-0.00000222,0.00000933,0.00000571,-0.00005592,-0.
 00002354,0.00001604,-0.00000219,-0.00000521,0.00000207,0.00012291,-0.0
 0069407,0.00019071,-0.00002293,-0.00000448,0.00002636,0.05435622,-0.07
 503098,-0.30514787,0.05667066,-0.00037642,-0.00162275,-0.00061216,-0.0
 0107530,0.00172305,0.00043990,0.00050617,0.00069702,-0.00069848,0.0005
 9370,-0.00122642,-0.00416353,-0.00705804,-0.01709959,0.00760403,0.0004
 6244,0.00066034,0.00067970,-0.00040995,-0.00084909,0.00042323,0.000828
 35,0.00060180,-0.00006492,0.00006012,-0.00026386,0.00040445,-0.0000456
 2,0.00011788,-0.00026147,0.00000432,-0.00000358,0.00003124,0.00001394,
 -0.00002727,0.00004464,0.00000398,-0.00000002,0.00000112,0.00000384,0.
 00000780,-0.00000471,-0.00001489,-0.00001025,0.00000388,-0.00000350,-0
 .00000620,0.00000774,-0.00002360,-0.00015484,-0.00012485,-0.00002737,0
 .00000209,-0.00001857,0.08156614,0.32260941,0.02664621,0.05667531,-0.0
 6875146,0.00670196,0.02730959,-0.00180277,0.00466459,-0.00051458,-0.00
 312106,0.00045893,-0.00070341,-0.00130769,0.00334093,-0.00315493,-0.00
 127786,-0.00662002,-0.02035668,0.00851044,-0.00181796,-0.00002388,-0.0
 0017299,-0.00017515,-0.00101077,0.00040185,-0.00173222,0.00061940,-0.0
 0012923,-0.00054283,0.00022568,0.00013431,-0.00003606,0.00002122,-0.00
 003145,0.00004865,0.00002343,0.00000811,-0.00001940,-0.00003055,0.0000
 1555,-0.00000698,-0.00000052,-0.00000755,0.00000213,-0.00000390,-0.000
 00091,0.00001629,0.00000167,0.00000864,0.00000104,0.00000113,-0.000000
 87,0.00045429,0.00132438,-0.00008772,0.00001878,-0.00000804,0.00000657
 ,-0.03137958,-0.06039181,0.06761113,-0.00001927,0.00001216,0.00001778,
 0.00003180,0.00002396,0.00000763,0.00003832,-0.00000975,0.00000110,-0.
 00005244,0.00000394,-0.00004379,0.00003103,0.00003181,-0.00003828,0.00
 000391,-0.00003422,0.00000028,0.00000358,0.00000197,-0.00000119,-0.000
 00730,-0.00000038,-0.00000270,0.00000104,-0.00000071,0.00000226,-0.000
 09916,0.00080371,0.00048903,-0.00073229,-0.00114047,0.00025468,0.00037
 241,-0.00640226,0.00047081,-0.00251296,-0.00392458,-0.00353925,0.00139
 844,0.01114626,-0.02282976,-0.00002681,0.00069731,-0.00112835,-0.06049
 273,0.01432753,-0.04899418,-0.00046481,0.00103856,0.00108142,-0.000027
 65,-0.00000518,0.00000765,0.00024852,-0.00050988,0.00062933,-0.0000032
 1,-0.00000137,0.00000096,0.06195644,0.00000862,-0.00002325,-0.00000618
 ,-0.00000976,0.00000856,-0.00000917,-0.00003803,-0.00002804,0.00004715
 ,0.00015034,0.00014644,-0.00000930,-0.00001397,-0.00004371,0.00002774,
 -0.00000423,0.00003992,-0.00000694,-0.00000517,-0.00001043,-0.00000231
 ,0.00000168,0.00000207,-0.00000168,-0.00000396,-0.00000225,0.00000257,
 0.00087375,-0.00113361,-0.00017037,-0.00081939,0.00039535,-0.00021032,
 -0.00523635,0.00398681,0.00384585,-0.00358118,0.00335860,0.00131689,-0
 .00212501,0.00735732,-0.00652989,-0.00002364,0.00016328,-0.00041263,0.
 01393505,-0.09292781,0.10788460,0.00151002,-0.00148738,-0.00082131,-0.
 00000314,0.00002593,-0.00000832,-0.00004595,0.00001583,0.00078260,0.00
 000003,-0.00000467,0.00000163,-0.00323702,0.09771225,0.00001876,0.0000
 1374,-0.00001622,-0.00002407,-0.00004198,-0.00000747,-0.00003448,0.000
 06397,0.00000991,0.00000367,-0.00028807,0.00007523,-0.00001352,0.00005
 072,-0.00000170,-0.00000395,0.00000946,-0.00000440,-0.00000083,0.00000
 804,0.00000353,0.00000269,-0.00000466,0.00001040,0.00000440,0.00000728
 ,-0.00000787,0.00039299,-0.00035113,-0.00044379,-0.00040268,-0.0001486
 4,0.00056508,-0.00095679,0.00294857,0.00371956,-0.00415714,0.00051684,
 0.00092610,-0.00072937,0.00849297,-0.01024594,0.00014145,0.00039384,-0
 .00058429,-0.04750600,0.10850526,-0.27586030,0.00027841,-0.00137161,-0
 .00032402,0.00002772,-0.00001796,-0.00002007,-0.00018111,0.00025071,-0
 .00014717,0.00000548,0.00000802,-0.00000324,0.04575855,-0.12523027,0.2
 8983675,0.00022063,0.00010812,-0.00025019,-0.00009901,-0.00029432,0.00
 004847,-0.00035331,0.00063753,0.00012256,0.00042026,-0.00244009,0.0004
 2723,0.00015673,0.00020556,-0.00002355,0.00007456,0.00021512,0.0000367
 7,-0.00006104,0.00003209,-0.00000284,-0.00009030,-0.00001130,-0.000008
 66,-0.00000072,0.00003374,-0.00003634,-0.00587697,-0.00300160,-0.00462
 725,0.03113210,0.02038400,-0.02293410,-0.10997476,-0.00535511,-0.04327
 135,-0.00916203,-0.01607495,0.02283309,-0.04949324,-0.03091011,-0.0254
 4975,-0.00057464,0.00119023,0.00099438,-0.21795875,-0.12473301,0.04254
 496,-0.00280190,-0.00361829,-0.00526254,0.00014457,0.00003596,-0.00017
 971,0.00755859,-0.00504055,0.02376487,0.00000348,0.00002406,-0.0000245
 4,0.00035313,-0.00133271,0.00737584,0.35638263,0.00006202,0.00002390,-
 0.00007774,0.00004625,0.00001618,-0.00006979,0.00013707,0.00001761,0.0
 0016400,-0.00036558,-0.00073842,-0.00047837,0.00029562,-0.00013703,0.0
 0005085,0.00003449,0.00012834,0.00002157,-0.00006606,0.00002791,-0.000
 02797,-0.00004855,0.00000735,-0.00000353,-0.00000556,-0.00000455,0.000
 01091,-0.00803307,0.00447911,-0.00013097,0.05292333,0.03616038,0.02349
 113,-0.01923577,-0.13606748,0.10555131,-0.01378483,-0.03473450,0.03132
 155,-0.05919051,0.00534277,-0.03812134,0.00107163,-0.00215658,-0.00079
 338,-0.11344164,-0.17907609,0.06604044,-0.00381192,0.00446360,0.000715
 90,0.00011745,0.00006397,-0.00011728,0.00616408,-0.01372264,0.02225009
 ,0.00000733,-0.00000299,-0.00000437,-0.01282139,-0.01755122,0.00618490
 ,0.16994562,0.33346039,-0.00031702,0.00036102,0.00058729,0.00040214,0.
 00043296,-0.00001336,0.00063098,-0.00044621,0.00005100,-0.00095399,-0.
 00263474,0.00115480,0.00022413,0.00108089,-0.00100725,-0.00003335,-0.0
 0106062,-0.00001456,0.00008185,0.00006447,0.00001370,-0.00004996,-0.00
 000131,0.00001773,0.00002716,0.00001429,-0.00000549,0.00080691,0.00284
 576,0.00048176,-0.07613090,-0.01003982,-0.04620074,-0.02025584,0.12085
 643,-0.28825016,0.02006857,0.03032468,-0.03544270,0.02261562,-0.006895
 62,0.05874339,0.00136944,-0.00056769,-0.00077752,0.02144786,0.05227748
 ,-0.12949543,-0.00481654,0.00093785,0.00025909,-0.00065508,-0.00023937
 ,0.00014172,0.00383711,0.00913588,-0.01701486,-0.00007779,0.00002191,-
 0.00000177,0.02785603,0.01950966,-0.00748009,0.00392266,-0.21597789,0.
 46425345\\-0.00000309,0.00000033,0.00000676,0.00000436,0.00000572,-0.0
 0000582,-0.00000163,-0.00001313,-0.00000293,-0.00000079,0.00001036,0.0
 0000393,0.00000234,0.00000527,-0.00000230,0.00000015,-0.00000678,-0.00
 000291,0.00000018,-0.00000034,0.00000097,-0.00000192,-0.00000175,0.000
 00024,0.00000002,0.00000079,0.00000015,-0.00000284,-0.00000015,0.00000
 074,0.00001944,-0.00000360,0.00000813,-0.00001361,0.00000702,-0.000026
 28,-0.00000554,-0.00000601,0.00001151,-0.00001167,0.00000077,-0.000012
 90,0.00000119,0.00000216,-0.00000296,0.00001656,0.00001663,0.00000091,
 0.00000207,-0.00000055,0.00000275,-0.00000021,0.00000150,0.00000135,0.
 00000033,0.00000064,0.00000481,0.00000063,0.00000061,-0.00000070,-0.00
 000165,-0.00000265,0.00000135,-0.00000432,-0.00001685,0.00001319\\\@


 KNOWLEDGE IS EXPERIMENT'S DAUGHTER.
 -- LEONARDO DA VINCI, IN "PENSIERI" CA. 1492
 Job cpu time:       0 days  1 hours 22 minutes 14.8 seconds.
 Elapsed time:       0 days  0 hours  2 minutes 44.6 seconds.
 File lengths (MBytes):  RWF=    166 Int=      0 D2E=      0 Chk=      7 Scr=      1
 Normal termination of Gaussian 16 at Fri Sep 15 09:44:14 2023.
