 Entering Gaussian System, Link 0=/home/ubuntu/g16/g16
 Input=/home/ubuntu/Downloads/MOLECULE24-vol.gjf
 Output=/home/ubuntu/Downloads/MOLECULE24-vol.log
 Initial command:
 /home/ubuntu/g16/l1.exe "/home/ubuntu/Scratch/Gau-168440.inp" -scrdir="/home/ubuntu/Scratch/"
 Entering Link 1 = /home/ubuntu/g16/l1.exe PID=    168444.
  
 Copyright (c) 1988-2017, Gaussian, Inc.  All Rights Reserved.
  
 This is part of the Gaussian(R) 16 program.  It is based on
 the Gaussian(R) 09 system (copyright 2009, Gaussian, Inc.),
 the Gaussian(R) 03 system (copyright 2003, Gaussian, Inc.),
 the Gaussian(R) 98 system (copyright 1998, Gaussian, Inc.),
 the Gaussian(R) 94 system (copyright 1995, Gaussian, Inc.),
 the Gaussian 92(TM) system (copyright 1992, Gaussian, Inc.),
 the Gaussian 90(TM) system (copyright 1990, Gaussian, Inc.),
 the Gaussian 88(TM) system (copyright 1988, Gaussian, Inc.),
 the Gaussian 86(TM) system (copyright 1986, Carnegie Mellon
 University), and the Gaussian 82(TM) system (copyright 1983,
 Carnegie Mellon University). Gaussian is a federally registered
 trademark of Gaussian, Inc.
  
 This software contains proprietary and confidential information,
 including trade secrets, belonging to Gaussian, Inc.
  
 This software is provided under written license and may be
 used, copied, transmitted, or stored only in accord with that
 written license.
  
 The following legend is applicable only to US Government
 contracts under FAR:
  
                    RESTRICTED RIGHTS LEGEND
  
 Use, reproduction and disclosure by the US Government is
 subject to restrictions as set forth in subparagraphs (a)
 and (c) of the Commercial Computer Software - Restricted
 Rights clause in FAR 52.227-19.
  
 Gaussian, Inc.
 340 Quinnipiac St., Bldg. 40, Wallingford CT 06492
  
  
 ---------------------------------------------------------------
 Warning -- This program may not be used in any manner that
 competes with the business of Gaussian, Inc. or will provide
 assistance to any competitor of Gaussian, Inc.  The licensee
 of this program is prohibited from giving any competitor of
 Gaussian, Inc. access to this program.  By using this program,
 the user acknowledges that Gaussian, Inc. is engaged in the
 business of creating and licensing software in the field of
 computational chemistry and represents and warrants to the
 licensee that it is not a competitor of Gaussian, Inc. and that
 it will not use this program in any manner prohibited above.
 ---------------------------------------------------------------
  

 Cite this work as:
 Gaussian 16, Revision B.01,
 M. J. Frisch, G. W. Trucks, H. B. Schlegel, G. E. Scuseria, 
 M. A. Robb, J. R. Cheeseman, G. Scalmani, V. Barone, 
 G. A. Petersson, H. Nakatsuji, X. Li, M. Caricato, A. V. Marenich, 
 J. Bloino, B. G. Janesko, R. Gomperts, B. Mennucci, H. P. Hratchian, 
 J. V. Ortiz, A. F. Izmaylov, J. L. Sonnenberg, D. Williams-Young, 
 F. Ding, F. Lipparini, F. Egidi, J. Goings, B. Peng, A. Petrone, 
 T. Henderson, D. Ranasinghe, V. G. Zakrzewski, J. Gao, N. Rega, 
 G. Zheng, W. Liang, M. Hada, M. Ehara, K. Toyota, R. Fukuda, 
 J. Hasegawa, M. Ishida, T. Nakajima, Y. Honda, O. Kitao, H. Nakai, 
 T. Vreven, K. Throssell, J. A. Montgomery, Jr., J. E. Peralta, 
 F. Ogliaro, M. J. Bearpark, J. J. Heyd, E. N. Brothers, K. N. Kudin, 
 V. N. Staroverov, T. A. Keith, R. Kobayashi, J. Normand, 
 K. Raghavachari, A. P. Rendell, J. C. Burant, S. S. Iyengar, 
 J. Tomasi, M. Cossi, J. M. Millam, M. Klene, C. Adamo, R. Cammi, 
 J. W. Ochterski, R. L. Martin, K. Morokuma, O. Farkas, 
 J. B. Foresman, and D. J. Fox, Gaussian, Inc., Wallingford CT, 2016.
 
 ******************************************
 Gaussian 16:  EM64L-G16RevB.01 20-Dec-2017
                20-Sep-2023 
 ******************************************
 %nprocshared=32
 Will use up to   32 processors via shared memory.
 %mem=60GB
 %chk=MOLECULE24-vol.chk
 ----------------------------------------------------------------------
 # opt freq b3lyp/gen empiricaldispersion=gd3 pseudo=read scf=maxcycle=
 1000 volume
 ----------------------------------------------------------------------
 1/18=20,19=15,26=3,38=1/1,3;
 2/9=110,12=2,17=6,18=5,40=1/2;
 3/5=7,11=2,16=1,17=8,25=1,30=1,71=1,74=-5,124=31/1,2,3;
 4//1;
 5/5=2,7=1000,38=5/2;
 6/7=2,8=2,9=2,10=2,28=1,44=1/1,4;
 7//1,2,3,16;
 1/18=20,19=15,26=3/3(2);
 2/9=110/2;
 99//99;
 2/9=110/2;
 3/5=7,6=1,11=2,16=1,17=8,25=1,30=1,71=1,74=-5,82=7,124=31/1,2,3;
 4/5=5,16=3,69=1/1;
 5/5=2,7=1000,38=5/2;
 7//1,2,3,16;
 1/18=20,19=15,26=3/3(-5);
 2/9=110/2;
 6/7=2,8=2,9=2,10=2,19=2,28=1,44=1/1,4;
 99/9=1/99;
 -------------------
 Title Card Required
 -------------------
 Symbolic Z-matrix:
 Charge =  0 Multiplicity = 1
 C                     2.31013   0.2985   -0.00001 
 C                     1.18676   0.74923   0.00001 
 Br                    4.01961  -0.36528  0. 
 C                    -0.18587   1.2596    0. 
 C                    -1.24914   0.14009   0.00001 
 H                    -0.33345   1.90315  -0.87902 
 H                    -0.33346   1.90316   0.87902 
 C                    -2.67808   0.69528  0. 
 H                    -1.096    -0.49866  -0.87995 
 H                    -1.09601  -0.49865   0.87997 
 H                    -2.81938   1.34103   0.88015 
 H                    -2.81937   1.34101  -0.88017 
 C                    -3.7498   -0.40227   0. 
 C                    -5.18317   0.14547  -0.00001 
 H                    -3.60849  -1.04848   0.87969 
 H                    -3.60848  -1.04849  -0.87967 
 C                    -6.24579  -0.96011   0. 
 H                    -5.32361   0.79092   0.87943 
 H                    -5.3236    0.7909   -0.87945 
 H                    -7.26008  -0.543    -0.00001 
 H                    -6.14743  -1.60133  -0.88559 
 H                    -6.14743  -1.60132   0.8856 
 

 GradGradGradGradGradGradGradGradGradGradGradGradGradGradGradGradGradGrad
 Berny optimization.
 Initialization pass.
                           ----------------------------
                           !    Initial Parameters    !
                           ! (Angstroms and Degrees)  !
 --------------------------                            --------------------------
 ! Name  Definition              Value          Derivative Info.                !
 --------------------------------------------------------------------------------
 ! R1    R(1,2)                  1.2104         estimate D2E/DX2                !
 ! R2    R(1,3)                  1.8338         estimate D2E/DX2                !
 ! R3    R(2,4)                  1.4644         estimate D2E/DX2                !
 ! R4    R(4,5)                  1.544          estimate D2E/DX2                !
 ! R5    R(4,6)                  1.0994         estimate D2E/DX2                !
 ! R6    R(4,7)                  1.0994         estimate D2E/DX2                !
 ! R7    R(5,8)                  1.533          estimate D2E/DX2                !
 ! R8    R(5,9)                  1.0981         estimate D2E/DX2                !
 ! R9    R(5,10)                 1.0981         estimate D2E/DX2                !
 ! R10   R(8,11)                 1.1007         estimate D2E/DX2                !
 ! R11   R(8,12)                 1.1007         estimate D2E/DX2                !
 ! R12   R(8,13)                 1.534          estimate D2E/DX2                !
 ! R13   R(13,14)                1.5345         estimate D2E/DX2                !
 ! R14   R(13,15)                1.1006         estimate D2E/DX2                !
 ! R15   R(13,16)                1.1006         estimate D2E/DX2                !
 ! R16   R(14,17)                1.5335         estimate D2E/DX2                !
 ! R17   R(14,18)                1.0999         estimate D2E/DX2                !
 ! R18   R(14,19)                1.0999         estimate D2E/DX2                !
 ! R19   R(17,20)                1.0967         estimate D2E/DX2                !
 ! R20   R(17,21)                1.0978         estimate D2E/DX2                !
 ! R21   R(17,22)                1.0978         estimate D2E/DX2                !
 ! A1    A(2,4,5)              113.1279         estimate D2E/DX2                !
 ! A2    A(2,4,6)              109.2591         estimate D2E/DX2                !
 ! A3    A(2,4,7)              109.259          estimate D2E/DX2                !
 ! A4    A(5,4,6)              109.3904         estimate D2E/DX2                !
 ! A5    A(5,4,7)              109.3905         estimate D2E/DX2                !
 ! A6    A(6,4,7)              106.1773         estimate D2E/DX2                !
 ! A7    A(4,5,8)              112.2916         estimate D2E/DX2                !
 ! A8    A(4,5,9)              109.0104         estimate D2E/DX2                !
 ! A9    A(4,5,10)             109.0103         estimate D2E/DX2                !
 ! A10   A(8,5,9)              109.9167         estimate D2E/DX2                !
 ! A11   A(8,5,10)             109.9166         estimate D2E/DX2                !
 ! A12   A(9,5,10)             106.521          estimate D2E/DX2                !
 ! A13   A(5,8,11)             109.3965         estimate D2E/DX2                !
 ! A14   A(5,8,12)             109.3965         estimate D2E/DX2                !
 ! A15   A(5,8,13)             113.0852         estimate D2E/DX2                !
 ! A16   A(11,8,12)            106.1853         estimate D2E/DX2                !
 ! A17   A(11,8,13)            109.2719         estimate D2E/DX2                !
 ! A18   A(12,8,13)            109.2719         estimate D2E/DX2                !
 ! A19   A(8,13,14)            113.4041         estimate D2E/DX2                !
 ! A20   A(8,13,15)            109.2916         estimate D2E/DX2                !
 ! A21   A(8,13,16)            109.2916         estimate D2E/DX2                !
 ! A22   A(14,13,15)           109.2396         estimate D2E/DX2                !
 ! A23   A(14,13,16)           109.2395         estimate D2E/DX2                !
 ! A24   A(15,13,16)           106.1162         estimate D2E/DX2                !
 ! A25   A(13,14,17)           112.9514         estimate D2E/DX2                !
 ! A26   A(13,14,18)           109.1927         estimate D2E/DX2                !
 ! A27   A(13,14,19)           109.1928         estimate D2E/DX2                !
 ! A28   A(17,14,18)           109.5488         estimate D2E/DX2                !
 ! A29   A(17,14,19)           109.5488         estimate D2E/DX2                !
 ! A30   A(18,14,19)           106.1797         estimate D2E/DX2                !
 ! A31   A(14,17,20)           111.5108         estimate D2E/DX2                !
 ! A32   A(14,17,21)           111.0409         estimate D2E/DX2                !
 ! A33   A(14,17,22)           111.041          estimate D2E/DX2                !
 ! A34   A(20,17,21)           107.7593         estimate D2E/DX2                !
 ! A35   A(20,17,22)           107.7593         estimate D2E/DX2                !
 ! A36   A(21,17,22)           107.5531         estimate D2E/DX2                !
 ! A37   L(2,1,3,10,-1)        180.5862         estimate D2E/DX2                !
 ! A38   L(1,2,4,9,-1)         178.6594         estimate D2E/DX2                !
 ! A39   L(2,1,3,10,-2)        180.4305         estimate D2E/DX2                !
 ! A40   L(1,2,4,9,-2)         179.2506         estimate D2E/DX2                !
 ! D1    D(2,4,5,8)           -179.9998         estimate D2E/DX2                !
 ! D2    D(2,4,5,9)            -57.9504         estimate D2E/DX2                !
 ! D3    D(2,4,5,10)            57.9509         estimate D2E/DX2                !
 ! D4    D(6,4,5,8)            -57.9564         estimate D2E/DX2                !
 ! D5    D(6,4,5,9)             64.0931         estimate D2E/DX2                !
 ! D6    D(6,4,5,10)           179.9943         estimate D2E/DX2                !
 ! D7    D(7,4,5,8)             57.9566         estimate D2E/DX2                !
 ! D8    D(7,4,5,9)           -179.9939         estimate D2E/DX2                !
 ! D9    D(7,4,5,10)           -64.0927         estimate D2E/DX2                !
 ! D10   D(4,5,8,11)           -57.9645         estimate D2E/DX2                !
 ! D11   D(4,5,8,12)            57.9649         estimate D2E/DX2                !
 ! D12   D(4,5,8,13)          -179.9998         estimate D2E/DX2                !
 ! D13   D(9,5,8,11)          -179.4972         estimate D2E/DX2                !
 ! D14   D(9,5,8,12)           -63.5678         estimate D2E/DX2                !
 ! D15   D(9,5,8,13)            58.4675         estimate D2E/DX2                !
 ! D16   D(10,5,8,11)           63.568          estimate D2E/DX2                !
 ! D17   D(10,5,8,12)          179.4974         estimate D2E/DX2                !
 ! D18   D(10,5,8,13)          -58.4673         estimate D2E/DX2                !
 ! D19   D(5,8,13,14)         -179.9999         estimate D2E/DX2                !
 ! D20   D(5,8,13,15)           57.8647         estimate D2E/DX2                !
 ! D21   D(5,8,13,16)          -57.8645         estimate D2E/DX2                !
 ! D22   D(11,8,13,14)          57.8951         estimate D2E/DX2                !
 ! D23   D(11,8,13,15)         -64.2403         estimate D2E/DX2                !
 ! D24   D(11,8,13,16)        -179.9696         estimate D2E/DX2                !
 ! D25   D(12,8,13,14)         -57.8948         estimate D2E/DX2                !
 ! D26   D(12,8,13,15)         179.9697         estimate D2E/DX2                !
 ! D27   D(12,8,13,16)          64.2405         estimate D2E/DX2                !
 ! D28   D(8,13,14,17)        -180.0            estimate D2E/DX2                !
 ! D29   D(8,13,14,18)         -57.8477         estimate D2E/DX2                !
 ! D30   D(8,13,14,19)          57.8477         estimate D2E/DX2                !
 ! D31   D(15,13,14,17)        -57.8356         estimate D2E/DX2                !
 ! D32   D(15,13,14,18)         64.3167         estimate D2E/DX2                !
 ! D33   D(15,13,14,19)       -179.9879         estimate D2E/DX2                !
 ! D34   D(16,13,14,17)         57.8357         estimate D2E/DX2                !
 ! D35   D(16,13,14,18)        179.988          estimate D2E/DX2                !
 ! D36   D(16,13,14,19)        -64.3166         estimate D2E/DX2                !
 ! D37   D(13,14,17,20)        180.0            estimate D2E/DX2                !
 ! D38   D(13,14,17,21)        -59.8085         estimate D2E/DX2                !
 ! D39   D(13,14,17,22)         59.8086         estimate D2E/DX2                !
 ! D40   D(18,14,17,20)         58.0476         estimate D2E/DX2                !
 ! D41   D(18,14,17,21)        178.2391         estimate D2E/DX2                !
 ! D42   D(18,14,17,22)        -62.1438         estimate D2E/DX2                !
 ! D43   D(19,14,17,20)        -58.0476         estimate D2E/DX2                !
 ! D44   D(19,14,17,21)         62.1439         estimate D2E/DX2                !
 ! D45   D(19,14,17,22)       -178.239          estimate D2E/DX2                !
 --------------------------------------------------------------------------------
 Trust Radius=3.00D-01 FncErr=1.00D-07 GrdErr=1.00D-06 EigMax=2.50D+02 EigMin=1.00D-04
 Number of steps in this run=    116 maximum allowed number of steps=    132.
 GradGradGradGradGradGradGradGradGradGradGradGradGradGradGradGradGradGrad

                          Input orientation:                          
 ---------------------------------------------------------------------
 Center     Atomic      Atomic             Coordinates (Angstroms)
 Number     Number       Type             X           Y           Z
 ---------------------------------------------------------------------
      1          6           0        2.310133    0.298496   -0.000007
      2          6           0        1.186755    0.749227    0.000007
      3         35           0        4.019615   -0.365283   -0.000001
      4          6           0       -0.185870    1.259599    0.000003
      5          6           0       -1.249137    0.140094    0.000005
      6          1           0       -0.333453    1.903148   -0.879019
      7          1           0       -0.333455    1.903156    0.879019
      8          6           0       -2.678082    0.695278   -0.000003
      9          1           0       -1.095998   -0.498660   -0.879952
     10          1           0       -1.096005   -0.498648    0.879972
     11          1           0       -2.819377    1.341028    0.880151
     12          1           0       -2.819373    1.341013   -0.880169
     13          6           0       -3.749799   -0.402272    0.000004
     14          6           0       -5.183168    0.145468   -0.000007
     15          1           0       -3.608486   -1.048478    0.879687
     16          1           0       -3.608480   -1.048495   -0.879666
     17          6           0       -6.245791   -0.960111    0.000001
     18          1           0       -5.323608    0.790920    0.879425
     19          1           0       -5.323602    0.790902   -0.879453
     20          1           0       -7.260083   -0.542997   -0.000007
     21          1           0       -6.147428   -1.601334   -0.885586
     22          1           0       -6.147435   -1.601315    0.885602
 ---------------------------------------------------------------------
                    Distance matrix (angstroms):
                    1          2          3          4          5
     1  C    0.000000
     2  C    1.210428   0.000000
     3  Br   1.833830   3.044212   0.000000
     4  C    2.674650   1.464438   4.508475   0.000000
     5  C    3.562793   2.510899   5.292934   1.543965   0.000000
     6  H    3.214983   2.101250   4.986748   1.099371   2.172446
     7  H    3.214993   2.101250   4.986753   1.099371   2.172447
     8  C    5.003971   3.865214   6.781146   2.555304   1.533008
     9  H    3.607144   2.746363   5.192456   2.166594   1.098081
    10  H    3.607156   2.746366   5.192466   2.166593   1.098081
    11  H    5.307864   4.144150   7.103378   2.777886   2.163921
    12  H    5.307858   4.144150   7.103372   2.777889   2.163921
    13  C    6.100316   5.069074   7.769502   3.932354   2.558803
    14  C    7.494863   6.398472   9.216945   5.119988   3.934035
    15  H    6.133372   5.196144   7.708990   4.220825   2.784434
    16  H    6.133365   5.196144   7.708983   4.220826   2.784432
    17  C    8.648001   7.626570  10.282625   6.453662   5.116347
    18  H    7.699992   6.569623   9.455475   5.233488   4.218799
    19  H    7.699987   6.569622   9.455470   5.233489   4.218799
    20  H    9.607140   8.545111  11.281098   7.300263   6.049635
    21  H    8.713435   7.752397  10.280119   6.671535   5.273528
    22  H    8.713440   7.752398  10.280125   6.671534   5.273529
                    6          7          8          9         10
     6  H    0.000000
     7  H    1.758038   0.000000
     8  C    2.780091   2.780094   0.000000
     9  H    2.519952   3.073137   2.168591   0.000000
    10  H    3.073135   2.519950   2.168590   1.759924   0.000000
    11  H    3.096849   2.548685   1.100740   3.074484   2.520797
    12  H    2.548685   3.096859   1.100740   2.520797   3.074483
    13  C    4.214150   4.214151   1.534012   2.797548   2.797544
    14  C    5.232766   5.232769   2.564712   4.230149   4.230148
    15  H    4.746681   4.408852   2.163375   3.116284   2.571940
    16  H    4.408855   4.746684   2.163375   2.571942   3.116278
    17  C    6.627720   6.627721   3.933047   5.244771   5.244768
    18  H    5.406554   5.112602   2.789507   4.757217   4.419911
    19  H    5.112600   5.406561   2.789508   4.419910   4.757215
    20  H    7.398276   7.398279   4.746373   6.226734   6.226732
    21  H    6.788501   7.014097   4.253827   5.170384   5.463514
    22  H    7.014095   6.788499   4.253827   5.463519   5.170382
                   11         12         13         14         15
    11  H    0.000000
    12  H    1.760320   0.000000
    13  C    2.163201   2.163201   0.000000
    14  C    2.791335   2.791333   1.534459   0.000000
    15  H    2.516432   3.070743   1.100633   2.163098   0.000000
    16  H    3.070743   2.516434   1.100634   2.163097   1.759353
    17  C    4.220215   4.220215   2.557569   1.533451   2.781552
    18  H    2.563941   3.109657   2.161935   1.099878   2.514961
    19  H    3.109660   2.563939   2.161935   1.099878   3.069123
    20  H    4.903478   4.903477   3.513104   2.188049   3.789925
    21  H    4.780298   4.442228   2.823233   2.182972   3.141348
    22  H    4.442227   4.780297   2.823233   2.182972   2.598447
                   16         17         18         19         20
    16  H    0.000000
    17  C    2.781553   0.000000
    18  H    3.069122   2.165622   0.000000
    19  H    2.514960   2.165622   1.758878   0.000000
    20  H    3.789925   1.096710   2.510512   2.510512   0.000000
    21  H    2.598446   1.097773   3.084935   2.530123   1.772661
    22  H    3.141349   1.097773   2.530122   3.084935   1.772661
                   21         22
    21  H    0.000000
    22  H    1.771188   0.000000
 Stoichiometry    C8H13Br
 Framework group  C1[X(C8H13Br)]
 Deg. of freedom    60
 Full point group                 C1      NOp   1
 Largest Abelian subgroup         C1      NOp   1
 Largest concise Abelian subgroup C1      NOp   1
                         Standard orientation:                         
 ---------------------------------------------------------------------
 Center     Atomic      Atomic             Coordinates (Angstroms)
 Number     Number       Type             X           Y           Z
 ---------------------------------------------------------------------
      1          6           0        2.310133    0.298496   -0.000007
      2          6           0        1.186755    0.749227    0.000007
      3         35           0        4.019615   -0.365283   -0.000001
      4          6           0       -0.185870    1.259599    0.000003
      5          6           0       -1.249137    0.140094    0.000005
      6          1           0       -0.333453    1.903148   -0.879019
      7          1           0       -0.333455    1.903156    0.879019
      8          6           0       -2.678082    0.695278   -0.000003
      9          1           0       -1.095998   -0.498660   -0.879952
     10          1           0       -1.096005   -0.498648    0.879972
     11          1           0       -2.819377    1.341028    0.880151
     12          1           0       -2.819373    1.341013   -0.880169
     13          6           0       -3.749799   -0.402272    0.000004
     14          6           0       -5.183168    0.145468   -0.000007
     15          1           0       -3.608486   -1.048478    0.879687
     16          1           0       -3.608480   -1.048495   -0.879666
     17          6           0       -6.245791   -0.960111    0.000001
     18          1           0       -5.323608    0.790920    0.879425
     19          1           0       -5.323602    0.790902   -0.879453
     20          1           0       -7.260083   -0.542997   -0.000007
     21          1           0       -6.147428   -1.601334   -0.885586
     22          1           0       -6.147435   -1.601315    0.885602
 ---------------------------------------------------------------------
 Rotational constants (GHZ):           5.8735897           0.1924358           0.1876288
 General basis read from cards:  (5D, 7F)
 ======================================================================================================
                                       Pseudopotential Parameters
 ======================================================================================================
  Center     Atomic      Valence      Angular      Power
  Number     Number     Electrons     Momentum     of R      Exponent        Coefficient   SO-Coeffient
 ======================================================================================================
    1          6
                                   No pseudopotential on this center.
    2          6
                                   No pseudopotential on this center.
    3         35            7
                                      G and up 
                                                     2        1.0000000        0.00000000    0.00000000
                                      S - G
                                                     2        5.0218000       61.51372100    0.00000000
                                                     2        2.5109000        9.02149300    0.00000000
                                      P - G
                                                     2        4.2814000       53.87586400    0.00000000
                                                     2        2.1407000        4.62940200    0.00000000
                                      D - G
                                                     2        2.8800000       20.84967700    0.00000000
                                                     2        1.4400000        2.96544400    0.00000000
                                      F - G
                                                     2        2.7207000       -8.16149300    0.00000000
    4          6
                                   No pseudopotential on this center.
    5          6
                                   No pseudopotential on this center.
    6          1
                                   No pseudopotential on this center.
    7          1
                                   No pseudopotential on this center.
    8          6
                                   No pseudopotential on this center.
    9          1
                                   No pseudopotential on this center.
   10          1
                                   No pseudopotential on this center.
   11          1
                                   No pseudopotential on this center.
   12          1
                                   No pseudopotential on this center.
   13          6
                                   No pseudopotential on this center.
   14          6
                                   No pseudopotential on this center.
   15          1
                                   No pseudopotential on this center.
   16          1
                                   No pseudopotential on this center.
   17          6
                                   No pseudopotential on this center.
   18          1
                                   No pseudopotential on this center.
   19          1
                                   No pseudopotential on this center.
   20          1
                                   No pseudopotential on this center.
   21          1
                                   No pseudopotential on this center.
   22          1
                                   No pseudopotential on this center.
 ======================================================================================================
 There are   189 symmetry adapted cartesian basis functions of A   symmetry.
 There are   181 symmetry adapted basis functions of A   symmetry.
   181 basis functions,   327 primitive gaussians,   189 cartesian basis functions
    34 alpha electrons       34 beta electrons
       nuclear repulsion energy       373.2278776040 Hartrees.
 NAtoms=   22 NActive=   22 NUniq=   22 SFac= 1.00D+00 NAtFMM=   60 NAOKFM=F Big=F
 Integral buffers will be    131072 words long.
 Raffenetti 2 integral format.
 Two-electron integral symmetry is turned on.
 Nuclear repulsion after empirical dispersion term =      373.2124156789 Hartrees.
 One-electron integrals computed using PRISM.
   1 Symmetry operations used in ECPInt.
 ECPInt:  NShTT=    2556 NPrTT=   12592 LenC2=    2430 LenP2D=    8514.
 LDataN:  DoStor=T MaxTD1= 6 Len=  172
 NBasis=   181 RedAO= T EigKep=  4.79D-06  NBF=   181
 NBsUse=   180 1.00D-06 EigRej=  2.97D-07 NBFU=   180
 ExpMin= 3.61D-02 ExpMax= 3.05D+03 ExpMxC= 4.57D+02 IAcc=3 IRadAn=         5 AccDes= 0.00D+00
 Harris functional with IExCor=  402 and IRadAn=       5 diagonalized for initial guess.
 HarFok:  IExCor=  402 AccDes= 0.00D+00 IRadAn=         5 IDoV= 1 UseB2=F ITyADJ=14
 ICtDFT=  3500011 ScaDFX=  1.000000  1.000000  1.000000  1.000000
 FoFCou: FMM=F IPFlag=           0 FMFlag=      100000 FMFlg1=           0
         NFxFlg=           0 DoJE=T BraDBF=F KetDBF=T FulRan=T
         wScrn=  0.000000 ICntrl=       500 IOpCl=  0 I1Cent=   200000004 NGrid=           0
         NMat0=    1 NMatS0=      1 NMatT0=    0 NMatD0=    1 NMtDS0=    0 NMtDT0=    0
 Petite list used in FoFCou.
 Requested convergence on RMS density matrix=1.00D-08 within1000 cycles.
 Requested convergence on MAX density matrix=1.00D-06.
 Requested convergence on             energy=1.00D-06.
 No special actions if energy rises.
 SCF Done:  E(RB3LYP) =  -326.004483213     A.U. after   13 cycles
            NFock= 13  Conv=0.20D-08     -V/T= 2.0350

 **********************************************************************

            Population analysis using the SCF Density.

 **********************************************************************

 Orbital symmetries:
       Occupied  (A) (A) (A) (A) (A) (A) (A) (A) (A) (A) (A) (A)
                 (A) (A) (A) (A) (A) (A) (A) (A) (A) (A) (A) (A)
                 (A) (A) (A) (A) (A) (A) (A) (A) (A) (A)
       Virtual   (A) (A) (A) (A) (A) (A) (A) (A) (A) (A) (A) (A)
                 (A) (A) (A) (A) (A) (A) (A) (A) (A) (A) (A) (A)
                 (A) (A) (A) (A) (A) (A) (A) (A) (A) (A) (A) (A)
                 (A) (A) (A) (A) (A) (A) (A) (A) (A) (A) (A) (A)
                 (A) (A) (A) (A) (A) (A) (A) (A) (A) (A) (A) (A)
                 (A) (A) (A) (A) (A) (A) (A) (A) (A) (A) (A) (A)
                 (A) (A) (A) (A) (A) (A) (A) (A) (A) (A) (A) (A)
                 (A) (A) (A) (A) (A) (A) (A) (A) (A) (A) (A) (A)
                 (A) (A) (A) (A) (A) (A) (A) (A) (A) (A) (A) (A)
                 (A) (A) (A) (A) (A) (A) (A) (A) (A) (A) (A) (A)
                 (A) (A) (A) (A) (A) (A) (A) (A) (A) (A) (A) (A)
                 (A) (A) (A) (A) (A) (A) (A) (A) (A) (A) (A) (A)
                 (A) (A)
 The electronic state is 1-A.
 Alpha  occ. eigenvalues --  -10.22344 -10.21210 -10.19832 -10.18952 -10.18401
 Alpha  occ. eigenvalues --  -10.18073 -10.18042 -10.17197  -0.86440  -0.82315
 Alpha  occ. eigenvalues --   -0.79316  -0.74986  -0.70947  -0.65592  -0.59907
 Alpha  occ. eigenvalues --   -0.58440  -0.50457  -0.49243  -0.46422  -0.46274
 Alpha  occ. eigenvalues --   -0.43717  -0.41957  -0.40652  -0.39833  -0.37453
 Alpha  occ. eigenvalues --   -0.35949  -0.35384  -0.35338  -0.34132  -0.33609
 Alpha  occ. eigenvalues --   -0.33050  -0.32625  -0.25867  -0.25824
 Alpha virt. eigenvalues --   -0.02617   0.01185   0.01592   0.01887   0.02741
 Alpha virt. eigenvalues --    0.03131   0.03799   0.03949   0.04210   0.04963
 Alpha virt. eigenvalues --    0.05287   0.05847   0.06332   0.06651   0.06831
 Alpha virt. eigenvalues --    0.07266   0.07645   0.08921   0.08964   0.10136
 Alpha virt. eigenvalues --    0.10493   0.10806   0.13004   0.13064   0.13894
 Alpha virt. eigenvalues --    0.14708   0.15797   0.15841   0.17603   0.18323
 Alpha virt. eigenvalues --    0.18942   0.19984   0.20223   0.20711   0.21371
 Alpha virt. eigenvalues --    0.21603   0.22739   0.22929   0.23305   0.23486
 Alpha virt. eigenvalues --    0.24828   0.26397   0.26572   0.28074   0.28759
 Alpha virt. eigenvalues --    0.29547   0.29549   0.30818   0.31627   0.32979
 Alpha virt. eigenvalues --    0.33912   0.34607   0.36279   0.37583   0.38932
 Alpha virt. eigenvalues --    0.39612   0.41051   0.48793   0.50523   0.56207
 Alpha virt. eigenvalues --    0.62199   0.63947   0.64525   0.65395   0.66349
 Alpha virt. eigenvalues --    0.68187   0.69647   0.70246   0.71826   0.71962
 Alpha virt. eigenvalues --    0.73262   0.73605   0.75795   0.79006   0.80297
 Alpha virt. eigenvalues --    0.83191   0.84159   0.84723   0.86608   0.88915
 Alpha virt. eigenvalues --    0.89416   0.90902   0.92791   0.94647   0.97447
 Alpha virt. eigenvalues --    0.97559   1.00746   1.01592   1.02866   1.04394
 Alpha virt. eigenvalues --    1.06149   1.11143   1.11749   1.11781   1.13047
 Alpha virt. eigenvalues --    1.14165   1.15618   1.17798   1.23696   1.36197
 Alpha virt. eigenvalues --    1.36538   1.42775   1.46618   1.49149   1.52460
 Alpha virt. eigenvalues --    1.52883   1.54802   1.58534   1.59729   1.67409
 Alpha virt. eigenvalues --    1.69087   1.76652   1.78343   1.85619   1.87114
 Alpha virt. eigenvalues --    1.88108   1.90223   1.92018   1.95016   1.96018
 Alpha virt. eigenvalues --    1.98734   2.01778   2.02259   2.04275   2.06025
 Alpha virt. eigenvalues --    2.08591   2.09920   2.21077   2.22462   2.26413
 Alpha virt. eigenvalues --    2.28403   2.33401   2.33896   2.40685   2.43550
 Alpha virt. eigenvalues --    2.43619   2.52552   2.61000   2.63782   2.67903
 Alpha virt. eigenvalues --    2.69296   2.72876   2.79979   2.89091   3.34444
 Alpha virt. eigenvalues --    7.53964
          Condensed to atoms (all electrons):
               1          2          3          4          5          6
     1  C    6.169727  -0.727037   0.126182   1.126403  -0.181398   0.002936
     2  C   -0.727037  12.213034  -0.157376  -6.082853   1.192485  -0.022766
     3  Br   0.126182  -0.157376   6.678251   0.091655   0.001152   0.000214
     4  C    1.126403  -6.082853   0.091655  11.448506  -1.304979   0.383573
     5  C   -0.181398   1.192485   0.001152  -1.304979   7.905439  -0.032087
     6  H    0.002936  -0.022766   0.000214   0.383573  -0.032087   0.519330
     7  H    0.002932  -0.022750   0.000214   0.383564  -0.032083  -0.036782
     8  C    0.099826  -0.757785   0.003988   0.687582  -1.090051  -0.035646
     9  H   -0.001158   0.033466  -0.000053  -0.049550   0.450015  -0.005403
    10  H   -0.001157   0.033461  -0.000053  -0.049548   0.450013   0.004405
    11  H    0.001156  -0.013568  -0.000010   0.006089  -0.072619  -0.000420
    12  H    0.001156  -0.013569  -0.000010   0.006088  -0.072621   0.003151
    13  C    0.076666  -0.571111   0.000471   0.397370  -0.665418  -0.005967
    14  C   -0.003253   0.012353  -0.000049  -0.058554   0.037926  -0.000948
    15  H    0.000201  -0.004863   0.000001  -0.009222  -0.017726  -0.000002
    16  H    0.000201  -0.004863   0.000001  -0.009222  -0.017724   0.000008
    17  C    0.001413  -0.011040   0.000012   0.014002  -0.115229  -0.000089
    18  H   -0.000030   0.000330   0.000000   0.000118  -0.013563   0.000001
    19  H   -0.000030   0.000331   0.000000   0.000118  -0.013563  -0.000002
    20  H    0.000000  -0.000005   0.000000   0.000026  -0.001131   0.000000
    21  H    0.000000   0.000016   0.000000   0.000164  -0.001948   0.000000
    22  H    0.000000   0.000016   0.000000   0.000164  -0.001948   0.000000
               7          8          9         10         11         12
     1  C    0.002932   0.099826  -0.001158  -0.001157   0.001156   0.001156
     2  C   -0.022750  -0.757785   0.033466   0.033461  -0.013568  -0.013569
     3  Br   0.000214   0.003988  -0.000053  -0.000053  -0.000010  -0.000010
     4  C    0.383564   0.687582  -0.049550  -0.049548   0.006089   0.006088
     5  C   -0.032083  -1.090051   0.450015   0.450013  -0.072619  -0.072621
     6  H   -0.036782  -0.035646  -0.005403   0.004405  -0.000420   0.003151
     7  H    0.519331  -0.035652   0.004405  -0.005403   0.003151  -0.000420
     8  C   -0.035652   7.742083  -0.095086  -0.095085   0.435606   0.435606
     9  H    0.004405  -0.095086   0.521618  -0.035270   0.004594  -0.005260
    10  H   -0.005403  -0.095085  -0.035270   0.521619  -0.005260   0.004594
    11  H    0.003151   0.435606   0.004594  -0.005260   0.543276  -0.039381
    12  H   -0.000420   0.435606  -0.005260   0.004594  -0.039381   0.543275
    13  C   -0.005968  -0.923223  -0.024777  -0.024775  -0.054666  -0.054662
    14  C   -0.000948   0.258622  -0.007291  -0.007291   0.002074   0.002075
    15  H    0.000008  -0.115201  -0.000372   0.002857  -0.005521   0.004738
    16  H   -0.000002  -0.115200   0.002857  -0.000372   0.004738  -0.005521
    17  C   -0.000089  -0.160298  -0.001106  -0.001106  -0.003690  -0.003690
    18  H   -0.000002   0.005496  -0.000002   0.000009   0.002923  -0.000455
    19  H    0.000001   0.005497   0.000009  -0.000002  -0.000455   0.002923
    20  H    0.000000  -0.006366   0.000000   0.000000   0.000001   0.000001
    21  H    0.000000  -0.004316  -0.000001   0.000000  -0.000001   0.000005
    22  H    0.000000  -0.004316   0.000000  -0.000001   0.000005  -0.000001
              13         14         15         16         17         18
     1  C    0.076666  -0.003253   0.000201   0.000201   0.001413  -0.000030
     2  C   -0.571111   0.012353  -0.004863  -0.004863  -0.011040   0.000330
     3  Br   0.000471  -0.000049   0.000001   0.000001   0.000012   0.000000
     4  C    0.397370  -0.058554  -0.009222  -0.009222   0.014002   0.000118
     5  C   -0.665418   0.037926  -0.017726  -0.017724  -0.115229  -0.013563
     6  H   -0.005967  -0.000948  -0.000002   0.000008  -0.000089   0.000001
     7  H   -0.005968  -0.000948   0.000008  -0.000002  -0.000089  -0.000002
     8  C   -0.923223   0.258622  -0.115201  -0.115200  -0.160298   0.005496
     9  H   -0.024777  -0.007291  -0.000372   0.002857  -0.001106  -0.000002
    10  H   -0.024775  -0.007291   0.002857  -0.000372  -0.001106   0.000009
    11  H   -0.054666   0.002074  -0.005521   0.004738  -0.003690   0.002923
    12  H   -0.054662   0.002075   0.004738  -0.005521  -0.003690  -0.000455
    13  C    7.832570  -0.617124   0.470800   0.470799   0.280086  -0.106899
    14  C   -0.617124   6.601450  -0.031992  -0.031992  -0.506959   0.428876
    15  H    0.470800  -0.031992   0.541738  -0.038915   0.008598  -0.005580
    16  H    0.470799  -0.031992  -0.038915   0.541739   0.008597   0.004800
    17  C    0.280086  -0.506959   0.008598   0.008597   6.039548  -0.008728
    18  H   -0.106899   0.428876  -0.005580   0.004800  -0.008728   0.543149
    19  H   -0.106900   0.428875   0.004800  -0.005580  -0.008728  -0.037982
    20  H    0.025793  -0.108932  -0.000026  -0.000026   0.440860  -0.002784
    21  H    0.001171  -0.111054  -0.000397   0.002908   0.459046   0.004401
    22  H    0.001171  -0.111054   0.002908  -0.000397   0.459046  -0.004840
              19         20         21         22
     1  C   -0.000030   0.000000   0.000000   0.000000
     2  C    0.000331  -0.000005   0.000016   0.000016
     3  Br   0.000000   0.000000   0.000000   0.000000
     4  C    0.000118   0.000026   0.000164   0.000164
     5  C   -0.013563  -0.001131  -0.001948  -0.001948
     6  H   -0.000002   0.000000   0.000000   0.000000
     7  H    0.000001   0.000000   0.000000   0.000000
     8  C    0.005497  -0.006366  -0.004316  -0.004316
     9  H    0.000009   0.000000  -0.000001   0.000000
    10  H   -0.000002   0.000000   0.000000  -0.000001
    11  H   -0.000455   0.000001  -0.000001   0.000005
    12  H    0.002923   0.000001   0.000005  -0.000001
    13  C   -0.106900   0.025793   0.001171   0.001171
    14  C    0.428875  -0.108932  -0.111054  -0.111054
    15  H    0.004800  -0.000026  -0.000397   0.002908
    16  H   -0.005580  -0.000026   0.002908  -0.000397
    17  C   -0.008728   0.440860   0.459046   0.459046
    18  H   -0.037982  -0.002784   0.004401  -0.004840
    19  H    0.543149  -0.002784  -0.004840   0.004401
    20  H   -0.002784   0.516689  -0.028894  -0.028894
    21  H   -0.004840  -0.028894   0.517354  -0.032817
    22  H    0.004401  -0.028894  -0.032817   0.517354
 Mulliken charges:
               1
     1  C   -0.694735
     2  C    0.904094
     3  Br   0.255409
     4  C   -0.981495
     5  C   -0.402939
     6  H    0.226494
     7  H    0.226494
     8  C   -0.236081
     9  H    0.208365
    10  H    0.208365
    11  H    0.191979
    12  H    0.191979
    13  C   -0.395407
    14  C   -0.174809
    15  H    0.193168
    16  H    0.193168
    17  C   -0.890455
    18  H    0.190764
    19  H    0.190764
    20  H    0.196472
    21  H    0.199204
    22  H    0.199204
 Sum of Mulliken charges =   0.00000
 Mulliken charges with hydrogens summed into heavy atoms:
               1
     1  C   -0.694735
     2  C    0.904094
     3  Br   0.255409
     4  C   -0.528507
     5  C    0.013791
     8  C    0.147877
    13  C   -0.009072
    14  C    0.206719
    17  C   -0.295576
 Electronic spatial extent (au):  <R**2>=           3607.8561
 Charge=              0.0000 electrons
 Dipole moment (field-independent basis, Debye):
    X=             -1.4583    Y=              0.3135    Z=              0.0000  Tot=              1.4916
 Quadrupole moment (field-independent basis, Debye-Ang):
   XX=            -65.2662   YY=            -67.0886   ZZ=            -66.7588
   XY=             -2.5336   XZ=              0.0000   YZ=              0.0000
 Traceless Quadrupole moment (field-independent basis, Debye-Ang):
   XX=              1.1050   YY=             -0.7174   ZZ=             -0.3876
   XY=             -2.5336   XZ=              0.0000   YZ=              0.0000
 Octapole moment (field-independent basis, Debye-Ang**2):
  XXX=            198.7929  YYY=            -14.8716  ZZZ=              0.0000  XYY=             58.5039
  XXY=            -11.9264  XXZ=              0.0001  XZZ=             52.2473  YZZ=             -5.0001
  YYZ=              0.0000  XYZ=              0.0000
 Hexadecapole moment (field-independent basis, Debye-Ang**3):
 XXXX=          -5466.4073 YYYY=           -316.1885 ZZZZ=           -124.6366 XXXY=           -151.5100
 XXXZ=              0.0005 YYYX=            -73.6962 YYYZ=              0.0002 ZZZX=              0.0000
 ZZZY=             -0.0001 XXYY=          -1004.3090 XXZZ=           -956.4991 YYZZ=            -68.4145
 XXYZ=              0.0000 YYXZ=              0.0001 ZZXY=            -22.1360
 N-N= 3.732124156789D+02 E-N=-1.495430592456D+03  KE= 3.149769737804D+02
 Evaluate density.
 Using the total density.
 Monte-Carlo method of calculating molar volume:
 based on  0.001 e/bohr**3 density envelope.
 Number of points per bohr**3 =   20 CutOff= 1.00D-04
 Using the SCF density.
 There are       477 points.  Will hold       477 in memory.
 LenV=  8052937193 MDV=  8053063680.
 Box volume =13620.869 fraction occupied=0.115
 Integrated density= 4.7119157925653511D+01 error=-2.0880842074346489D+01
 Molar volume = 1570.540 bohr**3/mol (140.153 cm**3/mol)
 Recommended a0 for SCRF calculation =  4.70 angstrom (  8.88 bohr)
   1 Symmetry operations used in ECPInt.
 ECPInt:  NShTT=    2556 NPrTT=   12592 LenC2=    2430 LenP2D=    8514.
 LDataN:  DoStor=T MaxTD1= 7 Len=  274
 Calling FoFJK, ICntrl=      2127 FMM=F ISym2X=0 I1Cent= 0 IOpClX= 0 NMat=1 NMatS=1 NMatT=0.
 ***** Axes restored to original set *****
 -------------------------------------------------------------------
 Center     Atomic                   Forces (Hartrees/Bohr)
 Number     Number              X              Y              Z
 -------------------------------------------------------------------
      1        6          -0.000006495    0.000004088    0.000000418
      2        6           0.000006366   -0.000000305   -0.000000642
      3       35          -0.000000216    0.000002109   -0.000000057
      4        6          -0.000002008   -0.000004412    0.000000094
      5        6           0.000006506    0.000005283    0.000000403
      6        1          -0.000000341    0.000001052    0.000000204
      7        1          -0.000000607    0.000000897   -0.000000266
      8        6          -0.000002652   -0.000000101   -0.000000197
      9        1          -0.000000775    0.000000176    0.000000140
     10        1          -0.000000765    0.000000025   -0.000000206
     11        1          -0.000000066   -0.000000510   -0.000000266
     12        1          -0.000000053   -0.000000598    0.000000403
     13        6          -0.000000530    0.000000726   -0.000000310
     14        6          -0.000000038   -0.000002152    0.000000215
     15        1           0.000000398   -0.000000098   -0.000000109
     16        1           0.000000434   -0.000000009    0.000000291
     17        6          -0.000001092   -0.000000914   -0.000000221
     18        1           0.000000007   -0.000000883   -0.000000079
     19        1           0.000000034   -0.000000885    0.000000010
     20        1           0.000000345   -0.000001608   -0.000000041
     21        1           0.000000724   -0.000000867    0.000000150
     22        1           0.000000825   -0.000001014    0.000000065
 -------------------------------------------------------------------
 Cartesian Forces:  Max     0.000006506 RMS     0.000001849

 GradGradGradGradGradGradGradGradGradGradGradGradGradGradGradGradGradGrad
 Berny optimization.
 FormGI is forming the generalized inverse of G from B-inverse, IUseBI=4.
 Internal  Forces:  Max     0.000007306 RMS     0.000000931
 Search for a local minimum.
 Step number   1 out of a maximum of  116
 All quantities printed in internal units (Hartrees-Bohrs-Radians)
 Mixed Optimization -- En-DIIS/RFO-DIIS
 Second derivative matrix not updated -- first step.
 ITU=  0
     Eigenvalues ---    0.00230   0.00310   0.00316   0.00323   0.00329
     Eigenvalues ---    0.00717   0.00717   0.01236   0.01236   0.03406
     Eigenvalues ---    0.03444   0.03451   0.03493   0.04770   0.04777
     Eigenvalues ---    0.04782   0.04785   0.05200   0.05426   0.05491
     Eigenvalues ---    0.06020   0.08239   0.08377   0.08401   0.08450
     Eigenvalues ---    0.12143   0.12240   0.12258   0.12295   0.16000
     Eigenvalues ---    0.16000   0.16000   0.16000   0.16000   0.21896
     Eigenvalues ---    0.21899   0.21902   0.21906   0.21907   0.22307
     Eigenvalues ---    0.28171   0.29015   0.29056   0.29107   0.29147
     Eigenvalues ---    0.33600   0.33600   0.33612   0.33612   0.33696
     Eigenvalues ---    0.33696   0.33752   0.33752   0.33895   0.33895
     Eigenvalues ---    0.33930   0.33930   0.34049   0.36414   0.99753
 RFO step:  Lambda= 0.00000000D+00 EMin= 2.30000000D-03
 Linear search not attempted -- first point.
 Iteration  1 RMS(Cart)=  0.00002164 RMS(Int)=  0.00000000
 Iteration  2 RMS(Cart)=  0.00000000 RMS(Int)=  0.00000000
 Variable       Old X    -DE/DX   Delta X   Delta X   Delta X     New X
                                 (Linear)    (Quad)   (Total)
    R1        2.28738  -0.00001   0.00000  -0.00001  -0.00001   2.28737
    R2        3.46544   0.00000   0.00000   0.00000   0.00000   3.46543
    R3        2.76739   0.00000   0.00000   0.00000   0.00000   2.76739
    R4        2.91767   0.00000   0.00000  -0.00001  -0.00001   2.91766
    R5        2.07751   0.00000   0.00000   0.00000   0.00000   2.07751
    R6        2.07751   0.00000   0.00000   0.00000   0.00000   2.07751
    R7        2.89696   0.00000   0.00000   0.00001   0.00001   2.89697
    R8        2.07507   0.00000   0.00000   0.00000   0.00000   2.07507
    R9        2.07507   0.00000   0.00000   0.00000   0.00000   2.07507
   R10        2.08010   0.00000   0.00000   0.00000   0.00000   2.08010
   R11        2.08010   0.00000   0.00000   0.00000   0.00000   2.08010
   R12        2.89886   0.00000   0.00000   0.00000   0.00000   2.89886
   R13        2.89971   0.00000   0.00000   0.00000   0.00000   2.89971
   R14        2.07990   0.00000   0.00000   0.00000   0.00000   2.07989
   R15        2.07990   0.00000   0.00000   0.00000   0.00000   2.07990
   R16        2.89780   0.00000   0.00000   0.00000   0.00000   2.89780
   R17        2.07847   0.00000   0.00000   0.00000   0.00000   2.07847
   R18        2.07847   0.00000   0.00000   0.00000   0.00000   2.07847
   R19        2.07248   0.00000   0.00000   0.00000   0.00000   2.07248
   R20        2.07449   0.00000   0.00000   0.00000   0.00000   2.07449
   R21        2.07449   0.00000   0.00000   0.00000   0.00000   2.07449
    A1        1.97445   0.00000   0.00000   0.00001   0.00001   1.97446
    A2        1.90693   0.00000   0.00000   0.00000   0.00000   1.90693
    A3        1.90693   0.00000   0.00000   0.00000   0.00000   1.90693
    A4        1.90922   0.00000   0.00000   0.00000   0.00000   1.90922
    A5        1.90922   0.00000   0.00000   0.00000   0.00000   1.90922
    A6        1.85314   0.00000   0.00000  -0.00001  -0.00001   1.85314
    A7        1.95986   0.00000   0.00000   0.00001   0.00001   1.95987
    A8        1.90259   0.00000   0.00000   0.00000   0.00000   1.90260
    A9        1.90259   0.00000   0.00000   0.00001   0.00001   1.90260
   A10        1.91841   0.00000   0.00000  -0.00001  -0.00001   1.91840
   A11        1.91841   0.00000   0.00000  -0.00001  -0.00001   1.91840
   A12        1.85914   0.00000   0.00000   0.00000   0.00000   1.85914
   A13        1.90933   0.00000   0.00000   0.00000   0.00000   1.90933
   A14        1.90933   0.00000   0.00000   0.00000   0.00000   1.90933
   A15        1.97371   0.00000   0.00000   0.00000   0.00000   1.97371
   A16        1.85328   0.00000   0.00000   0.00000   0.00000   1.85328
   A17        1.90715   0.00000   0.00000   0.00000   0.00000   1.90716
   A18        1.90715   0.00000   0.00000   0.00000   0.00000   1.90715
   A19        1.97928   0.00000   0.00000   0.00001   0.00001   1.97928
   A20        1.90750   0.00000   0.00000   0.00000   0.00000   1.90750
   A21        1.90750   0.00000   0.00000   0.00000   0.00000   1.90750
   A22        1.90659   0.00000   0.00000   0.00000   0.00000   1.90659
   A23        1.90659   0.00000   0.00000   0.00000   0.00000   1.90659
   A24        1.85208   0.00000   0.00000   0.00000   0.00000   1.85208
   A25        1.97137   0.00000   0.00000   0.00001   0.00001   1.97138
   A26        1.90577   0.00000   0.00000   0.00000   0.00000   1.90577
   A27        1.90577   0.00000   0.00000   0.00000   0.00000   1.90577
   A28        1.91199   0.00000   0.00000   0.00000   0.00000   1.91199
   A29        1.91199   0.00000   0.00000   0.00000   0.00000   1.91199
   A30        1.85319   0.00000   0.00000   0.00000   0.00000   1.85319
   A31        1.94623   0.00000   0.00000   0.00000   0.00000   1.94623
   A32        1.93803   0.00000   0.00000   0.00000   0.00000   1.93803
   A33        1.93803   0.00000   0.00000   0.00000   0.00000   1.93803
   A34        1.88076   0.00000   0.00000   0.00000   0.00000   1.88076
   A35        1.88075   0.00000   0.00000   0.00000   0.00000   1.88076
   A36        1.87716   0.00000   0.00000   0.00000   0.00000   1.87716
   A37        3.15182   0.00000   0.00000  -0.00002  -0.00002   3.15181
   A38        3.11820   0.00000   0.00000  -0.00001  -0.00001   3.11819
   A39        3.14911   0.00000   0.00000  -0.00002  -0.00002   3.14908
   A40        3.12851   0.00000   0.00000  -0.00005  -0.00005   3.12847
    D1       -3.14159   0.00000   0.00000   0.00000   0.00000  -3.14159
    D2       -1.01142   0.00000   0.00000  -0.00001  -0.00001  -1.01143
    D3        1.01143   0.00000   0.00000   0.00000   0.00000   1.01143
    D4       -1.01153   0.00000   0.00000   0.00000   0.00000  -1.01153
    D5        1.11864   0.00000   0.00000   0.00000   0.00000   1.11863
    D6        3.14149   0.00000   0.00000   0.00000   0.00000   3.14149
    D7        1.01153   0.00000   0.00000   0.00000   0.00000   1.01153
    D8       -3.14149   0.00000   0.00000  -0.00001  -0.00001  -3.14149
    D9       -1.11863   0.00000   0.00000  -0.00001  -0.00001  -1.11863
   D10       -1.01167   0.00000   0.00000   0.00000   0.00000  -1.01167
   D11        1.01168   0.00000   0.00000   0.00000   0.00000   1.01168
   D12       -3.14159   0.00000   0.00000   0.00000   0.00000  -3.14159
   D13       -3.13282   0.00000   0.00000  -0.00001  -0.00001  -3.13283
   D14       -1.10947   0.00000   0.00000  -0.00001  -0.00001  -1.10948
   D15        1.02045   0.00000   0.00000  -0.00001  -0.00001   1.02044
   D16        1.10947   0.00000   0.00000   0.00001   0.00001   1.10948
   D17        3.13282   0.00000   0.00000   0.00001   0.00001   3.13283
   D18       -1.02045   0.00000   0.00000   0.00001   0.00001  -1.02044
   D19       -3.14159   0.00000   0.00000   0.00000   0.00000  -3.14159
   D20        1.00993   0.00000   0.00000   0.00000   0.00000   1.00993
   D21       -1.00993   0.00000   0.00000   0.00000   0.00000  -1.00993
   D22        1.01046   0.00000   0.00000   0.00000   0.00000   1.01046
   D23       -1.12121   0.00000   0.00000   0.00000   0.00000  -1.12121
   D24       -3.14106   0.00000   0.00000   0.00000   0.00000  -3.14106
   D25       -1.01046   0.00000   0.00000   0.00000   0.00000  -1.01046
   D26        3.14106   0.00000   0.00000   0.00000   0.00000   3.14106
   D27        1.12121   0.00000   0.00000   0.00000   0.00000   1.12121
   D28       -3.14159   0.00000   0.00000   0.00000   0.00000  -3.14159
   D29       -1.00963   0.00000   0.00000   0.00000   0.00000  -1.00963
   D30        1.00963   0.00000   0.00000   0.00000   0.00000   1.00963
   D31       -1.00942   0.00000   0.00000   0.00000   0.00000  -1.00942
   D32        1.12254   0.00000   0.00000   0.00000   0.00000   1.12254
   D33       -3.14138   0.00000   0.00000   0.00000   0.00000  -3.14138
   D34        1.00942   0.00000   0.00000   0.00000   0.00000   1.00942
   D35        3.14138   0.00000   0.00000   0.00000   0.00000   3.14138
   D36       -1.12254   0.00000   0.00000   0.00000   0.00000  -1.12254
   D37        3.14159   0.00000   0.00000   0.00000   0.00000  -3.14159
   D38       -1.04386   0.00000   0.00000   0.00000   0.00000  -1.04385
   D39        1.04386   0.00000   0.00000   0.00000   0.00000   1.04385
   D40        1.01312   0.00000   0.00000   0.00000   0.00000   1.01312
   D41        3.11086   0.00000   0.00000   0.00000   0.00000   3.11086
   D42       -1.08461   0.00000   0.00000   0.00000   0.00000  -1.08462
   D43       -1.01312   0.00000   0.00000   0.00000   0.00000  -1.01312
   D44        1.08462   0.00000   0.00000   0.00000   0.00000   1.08462
   D45       -3.11086   0.00000   0.00000   0.00000   0.00000  -3.11086
         Item               Value     Threshold  Converged?
 Maximum Force            0.000007     0.000450     YES
 RMS     Force            0.000001     0.000300     YES
 Maximum Displacement     0.000126     0.001800     YES
 RMS     Displacement     0.000022     0.001200     YES
 Predicted change in Energy=-1.380332D-10
 Optimization completed.
    -- Stationary point found.
                           ----------------------------
                           !   Optimized Parameters   !
                           ! (Angstroms and Degrees)  !
 --------------------------                            --------------------------
 ! Name  Definition              Value          Derivative Info.                !
 --------------------------------------------------------------------------------
 ! R1    R(1,2)                  1.2104         -DE/DX =    0.0                 !
 ! R2    R(1,3)                  1.8338         -DE/DX =    0.0                 !
 ! R3    R(2,4)                  1.4644         -DE/DX =    0.0                 !
 ! R4    R(4,5)                  1.544          -DE/DX =    0.0                 !
 ! R5    R(4,6)                  1.0994         -DE/DX =    0.0                 !
 ! R6    R(4,7)                  1.0994         -DE/DX =    0.0                 !
 ! R7    R(5,8)                  1.533          -DE/DX =    0.0                 !
 ! R8    R(5,9)                  1.0981         -DE/DX =    0.0                 !
 ! R9    R(5,10)                 1.0981         -DE/DX =    0.0                 !
 ! R10   R(8,11)                 1.1007         -DE/DX =    0.0                 !
 ! R11   R(8,12)                 1.1007         -DE/DX =    0.0                 !
 ! R12   R(8,13)                 1.534          -DE/DX =    0.0                 !
 ! R13   R(13,14)                1.5345         -DE/DX =    0.0                 !
 ! R14   R(13,15)                1.1006         -DE/DX =    0.0                 !
 ! R15   R(13,16)                1.1006         -DE/DX =    0.0                 !
 ! R16   R(14,17)                1.5335         -DE/DX =    0.0                 !
 ! R17   R(14,18)                1.0999         -DE/DX =    0.0                 !
 ! R18   R(14,19)                1.0999         -DE/DX =    0.0                 !
 ! R19   R(17,20)                1.0967         -DE/DX =    0.0                 !
 ! R20   R(17,21)                1.0978         -DE/DX =    0.0                 !
 ! R21   R(17,22)                1.0978         -DE/DX =    0.0                 !
 ! A1    A(2,4,5)              113.1279         -DE/DX =    0.0                 !
 ! A2    A(2,4,6)              109.2591         -DE/DX =    0.0                 !
 ! A3    A(2,4,7)              109.259          -DE/DX =    0.0                 !
 ! A4    A(5,4,6)              109.3904         -DE/DX =    0.0                 !
 ! A5    A(5,4,7)              109.3905         -DE/DX =    0.0                 !
 ! A6    A(6,4,7)              106.1773         -DE/DX =    0.0                 !
 ! A7    A(4,5,8)              112.2916         -DE/DX =    0.0                 !
 ! A8    A(4,5,9)              109.0104         -DE/DX =    0.0                 !
 ! A9    A(4,5,10)             109.0103         -DE/DX =    0.0                 !
 ! A10   A(8,5,9)              109.9167         -DE/DX =    0.0                 !
 ! A11   A(8,5,10)             109.9166         -DE/DX =    0.0                 !
 ! A12   A(9,5,10)             106.521          -DE/DX =    0.0                 !
 ! A13   A(5,8,11)             109.3965         -DE/DX =    0.0                 !
 ! A14   A(5,8,12)             109.3965         -DE/DX =    0.0                 !
 ! A15   A(5,8,13)             113.0852         -DE/DX =    0.0                 !
 ! A16   A(11,8,12)            106.1853         -DE/DX =    0.0                 !
 ! A17   A(11,8,13)            109.2719         -DE/DX =    0.0                 !
 ! A18   A(12,8,13)            109.2719         -DE/DX =    0.0                 !
 ! A19   A(8,13,14)            113.4041         -DE/DX =    0.0                 !
 ! A20   A(8,13,15)            109.2916         -DE/DX =    0.0                 !
 ! A21   A(8,13,16)            109.2916         -DE/DX =    0.0                 !
 ! A22   A(14,13,15)           109.2396         -DE/DX =    0.0                 !
 ! A23   A(14,13,16)           109.2395         -DE/DX =    0.0                 !
 ! A24   A(15,13,16)           106.1162         -DE/DX =    0.0                 !
 ! A25   A(13,14,17)           112.9514         -DE/DX =    0.0                 !
 ! A26   A(13,14,18)           109.1927         -DE/DX =    0.0                 !
 ! A27   A(13,14,19)           109.1928         -DE/DX =    0.0                 !
 ! A28   A(17,14,18)           109.5488         -DE/DX =    0.0                 !
 ! A29   A(17,14,19)           109.5488         -DE/DX =    0.0                 !
 ! A30   A(18,14,19)           106.1797         -DE/DX =    0.0                 !
 ! A31   A(14,17,20)           111.5108         -DE/DX =    0.0                 !
 ! A32   A(14,17,21)           111.0409         -DE/DX =    0.0                 !
 ! A33   A(14,17,22)           111.041          -DE/DX =    0.0                 !
 ! A34   A(20,17,21)           107.7593         -DE/DX =    0.0                 !
 ! A35   A(20,17,22)           107.7593         -DE/DX =    0.0                 !
 ! A36   A(21,17,22)           107.5531         -DE/DX =    0.0                 !
 ! A37   L(2,1,3,10,-1)        180.5862         -DE/DX =    0.0                 !
 ! A38   L(1,2,4,9,-1)         178.6594         -DE/DX =    0.0                 !
 ! A39   L(2,1,3,10,-2)        180.4305         -DE/DX =    0.0                 !
 ! A40   L(1,2,4,9,-2)         179.2506         -DE/DX =    0.0                 !
 ! D1    D(2,4,5,8)           -179.9998         -DE/DX =    0.0                 !
 ! D2    D(2,4,5,9)            -57.9504         -DE/DX =    0.0                 !
 ! D3    D(2,4,5,10)            57.9509         -DE/DX =    0.0                 !
 ! D4    D(6,4,5,8)            -57.9564         -DE/DX =    0.0                 !
 ! D5    D(6,4,5,9)             64.0931         -DE/DX =    0.0                 !
 ! D6    D(6,4,5,10)           179.9943         -DE/DX =    0.0                 !
 ! D7    D(7,4,5,8)             57.9566         -DE/DX =    0.0                 !
 ! D8    D(7,4,5,9)           -179.9939         -DE/DX =    0.0                 !
 ! D9    D(7,4,5,10)           -64.0927         -DE/DX =    0.0                 !
 ! D10   D(4,5,8,11)           -57.9645         -DE/DX =    0.0                 !
 ! D11   D(4,5,8,12)            57.9649         -DE/DX =    0.0                 !
 ! D12   D(4,5,8,13)          -179.9998         -DE/DX =    0.0                 !
 ! D13   D(9,5,8,11)          -179.4972         -DE/DX =    0.0                 !
 ! D14   D(9,5,8,12)           -63.5678         -DE/DX =    0.0                 !
 ! D15   D(9,5,8,13)            58.4675         -DE/DX =    0.0                 !
 ! D16   D(10,5,8,11)           63.568          -DE/DX =    0.0                 !
 ! D17   D(10,5,8,12)          179.4974         -DE/DX =    0.0                 !
 ! D18   D(10,5,8,13)          -58.4673         -DE/DX =    0.0                 !
 ! D19   D(5,8,13,14)         -179.9999         -DE/DX =    0.0                 !
 ! D20   D(5,8,13,15)           57.8647         -DE/DX =    0.0                 !
 ! D21   D(5,8,13,16)          -57.8645         -DE/DX =    0.0                 !
 ! D22   D(11,8,13,14)          57.8951         -DE/DX =    0.0                 !
 ! D23   D(11,8,13,15)         -64.2403         -DE/DX =    0.0                 !
 ! D24   D(11,8,13,16)        -179.9696         -DE/DX =    0.0                 !
 ! D25   D(12,8,13,14)         -57.8948         -DE/DX =    0.0                 !
 ! D26   D(12,8,13,15)         179.9697         -DE/DX =    0.0                 !
 ! D27   D(12,8,13,16)          64.2405         -DE/DX =    0.0                 !
 ! D28   D(8,13,14,17)        -180.0            -DE/DX =    0.0                 !
 ! D29   D(8,13,14,18)         -57.8477         -DE/DX =    0.0                 !
 ! D30   D(8,13,14,19)          57.8477         -DE/DX =    0.0                 !
 ! D31   D(15,13,14,17)        -57.8356         -DE/DX =    0.0                 !
 ! D32   D(15,13,14,18)         64.3167         -DE/DX =    0.0                 !
 ! D33   D(15,13,14,19)       -179.9879         -DE/DX =    0.0                 !
 ! D34   D(16,13,14,17)         57.8357         -DE/DX =    0.0                 !
 ! D35   D(16,13,14,18)        179.988          -DE/DX =    0.0                 !
 ! D36   D(16,13,14,19)        -64.3166         -DE/DX =    0.0                 !
 ! D37   D(13,14,17,20)       -180.0            -DE/DX =    0.0                 !
 ! D38   D(13,14,17,21)        -59.8085         -DE/DX =    0.0                 !
 ! D39   D(13,14,17,22)         59.8086         -DE/DX =    0.0                 !
 ! D40   D(18,14,17,20)         58.0476         -DE/DX =    0.0                 !
 ! D41   D(18,14,17,21)        178.2391         -DE/DX =    0.0                 !
 ! D42   D(18,14,17,22)        -62.1438         -DE/DX =    0.0                 !
 ! D43   D(19,14,17,20)        -58.0476         -DE/DX =    0.0                 !
 ! D44   D(19,14,17,21)         62.1439         -DE/DX =    0.0                 !
 ! D45   D(19,14,17,22)       -178.239          -DE/DX =    0.0                 !
 --------------------------------------------------------------------------------
 GradGradGradGradGradGradGradGradGradGradGradGradGradGradGradGradGradGrad

                          Input orientation:                          
 ---------------------------------------------------------------------
 Center     Atomic      Atomic             Coordinates (Angstroms)
 Number     Number       Type             X           Y           Z
 ---------------------------------------------------------------------
      1          6           0        2.310133    0.298496   -0.000007
      2          6           0        1.186755    0.749227    0.000007
      3         35           0        4.019615   -0.365283   -0.000001
      4          6           0       -0.185870    1.259599    0.000003
      5          6           0       -1.249137    0.140094    0.000005
      6          1           0       -0.333453    1.903148   -0.879019
      7          1           0       -0.333455    1.903156    0.879019
      8          6           0       -2.678082    0.695278   -0.000003
      9          1           0       -1.095998   -0.498660   -0.879952
     10          1           0       -1.096005   -0.498648    0.879972
     11          1           0       -2.819377    1.341028    0.880151
     12          1           0       -2.819373    1.341013   -0.880169
     13          6           0       -3.749799   -0.402272    0.000004
     14          6           0       -5.183168    0.145468   -0.000007
     15          1           0       -3.608486   -1.048478    0.879687
     16          1           0       -3.608480   -1.048495   -0.879666
     17          6           0       -6.245791   -0.960111    0.000001
     18          1           0       -5.323608    0.790920    0.879425
     19          1           0       -5.323602    0.790902   -0.879453
     20          1           0       -7.260083   -0.542997   -0.000007
     21          1           0       -6.147428   -1.601334   -0.885586
     22          1           0       -6.147435   -1.601315    0.885602
 ---------------------------------------------------------------------
                    Distance matrix (angstroms):
                    1          2          3          4          5
     1  C    0.000000
     2  C    1.210428   0.000000
     3  Br   1.833830   3.044212   0.000000
     4  C    2.674650   1.464438   4.508475   0.000000
     5  C    3.562793   2.510899   5.292934   1.543965   0.000000
     6  H    3.214983   2.101250   4.986748   1.099371   2.172446
     7  H    3.214993   2.101250   4.986753   1.099371   2.172447
     8  C    5.003971   3.865214   6.781146   2.555304   1.533008
     9  H    3.607144   2.746363   5.192456   2.166594   1.098081
    10  H    3.607156   2.746366   5.192466   2.166593   1.098081
    11  H    5.307864   4.144150   7.103378   2.777886   2.163921
    12  H    5.307858   4.144150   7.103372   2.777889   2.163921
    13  C    6.100316   5.069074   7.769502   3.932354   2.558803
    14  C    7.494863   6.398472   9.216945   5.119988   3.934035
    15  H    6.133372   5.196144   7.708990   4.220825   2.784434
    16  H    6.133365   5.196144   7.708983   4.220826   2.784432
    17  C    8.648001   7.626570  10.282625   6.453662   5.116347
    18  H    7.699992   6.569623   9.455475   5.233488   4.218799
    19  H    7.699987   6.569622   9.455470   5.233489   4.218799
    20  H    9.607140   8.545111  11.281098   7.300263   6.049635
    21  H    8.713435   7.752397  10.280119   6.671535   5.273528
    22  H    8.713440   7.752398  10.280125   6.671534   5.273529
                    6          7          8          9         10
     6  H    0.000000
     7  H    1.758038   0.000000
     8  C    2.780091   2.780094   0.000000
     9  H    2.519952   3.073137   2.168591   0.000000
    10  H    3.073135   2.519950   2.168590   1.759924   0.000000
    11  H    3.096849   2.548685   1.100740   3.074484   2.520797
    12  H    2.548685   3.096859   1.100740   2.520797   3.074483
    13  C    4.214150   4.214151   1.534012   2.797548   2.797544
    14  C    5.232766   5.232769   2.564712   4.230149   4.230148
    15  H    4.746681   4.408852   2.163375   3.116284   2.571940
    16  H    4.408855   4.746684   2.163375   2.571942   3.116278
    17  C    6.627720   6.627721   3.933047   5.244771   5.244768
    18  H    5.406554   5.112602   2.789507   4.757217   4.419911
    19  H    5.112600   5.406561   2.789508   4.419910   4.757215
    20  H    7.398276   7.398279   4.746373   6.226734   6.226732
    21  H    6.788501   7.014097   4.253827   5.170384   5.463514
    22  H    7.014095   6.788499   4.253827   5.463519   5.170382
                   11         12         13         14         15
    11  H    0.000000
    12  H    1.760320   0.000000
    13  C    2.163201   2.163201   0.000000
    14  C    2.791335   2.791333   1.534459   0.000000
    15  H    2.516432   3.070743   1.100633   2.163098   0.000000
    16  H    3.070743   2.516434   1.100634   2.163097   1.759353
    17  C    4.220215   4.220215   2.557569   1.533451   2.781552
    18  H    2.563941   3.109657   2.161935   1.099878   2.514961
    19  H    3.109660   2.563939   2.161935   1.099878   3.069123
    20  H    4.903478   4.903477   3.513104   2.188049   3.789925
    21  H    4.780298   4.442228   2.823233   2.182972   3.141348
    22  H    4.442227   4.780297   2.823233   2.182972   2.598447
                   16         17         18         19         20
    16  H    0.000000
    17  C    2.781553   0.000000
    18  H    3.069122   2.165622   0.000000
    19  H    2.514960   2.165622   1.758878   0.000000
    20  H    3.789925   1.096710   2.510512   2.510512   0.000000
    21  H    2.598446   1.097773   3.084935   2.530123   1.772661
    22  H    3.141349   1.097773   2.530122   3.084935   1.772661
                   21         22
    21  H    0.000000
    22  H    1.771188   0.000000
 Stoichiometry    C8H13Br
 Framework group  C1[X(C8H13Br)]
 Deg. of freedom    60
 Full point group                 C1      NOp   1
 Largest Abelian subgroup         C1      NOp   1
 Largest concise Abelian subgroup C1      NOp   1
                         Standard orientation:                         
 ---------------------------------------------------------------------
 Center     Atomic      Atomic             Coordinates (Angstroms)
 Number     Number       Type             X           Y           Z
 ---------------------------------------------------------------------
      1          6           0        2.310133    0.298496   -0.000007
      2          6           0        1.186755    0.749227    0.000007
      3         35           0        4.019615   -0.365283   -0.000001
      4          6           0       -0.185870    1.259599    0.000003
      5          6           0       -1.249137    0.140094    0.000005
      6          1           0       -0.333453    1.903148   -0.879019
      7          1           0       -0.333455    1.903156    0.879019
      8          6           0       -2.678082    0.695278   -0.000003
      9          1           0       -1.095998   -0.498660   -0.879952
     10          1           0       -1.096005   -0.498648    0.879972
     11          1           0       -2.819377    1.341028    0.880151
     12          1           0       -2.819373    1.341013   -0.880169
     13          6           0       -3.749799   -0.402272    0.000004
     14          6           0       -5.183168    0.145468   -0.000007
     15          1           0       -3.608486   -1.048478    0.879687
     16          1           0       -3.608480   -1.048495   -0.879666
     17          6           0       -6.245791   -0.960111    0.000001
     18          1           0       -5.323608    0.790920    0.879425
     19          1           0       -5.323602    0.790902   -0.879453
     20          1           0       -7.260083   -0.542997   -0.000007
     21          1           0       -6.147428   -1.601334   -0.885586
     22          1           0       -6.147435   -1.601315    0.885602
 ---------------------------------------------------------------------
 Rotational constants (GHZ):           5.8735897           0.1924358           0.1876288
 1\1\GINC-IP-172-31-20-208\FOpt\RB3LYP\Gen\C8H13Br1\UBUNTU\20-Sep-2023\
 0\\# opt freq b3lyp/gen empiricaldispersion=gd3 pseudo=read scf=maxcyc
 le=1000 volume\\Title Card Required\\0,1\C,2.310133,0.298496,-0.000007
 \C,1.186755,0.749227,0.000007\Br,4.019615,-0.365283,-0.000001\C,-0.185
 87,1.259599,0.000003\C,-1.249137,0.140094,0.000005\H,-0.333453,1.90314
 8,-0.879019\H,-0.333455,1.903156,0.879019\C,-2.678082,0.695278,-0.0000
 03\H,-1.095998,-0.49866,-0.879952\H,-1.096005,-0.498648,0.879972\H,-2.
 819377,1.341028,0.880151\H,-2.819373,1.341013,-0.880169\C,-3.749799,-0
 .402272,0.000004\C,-5.183168,0.145468,-0.000007\H,-3.608486,-1.048478,
 0.879687\H,-3.60848,-1.048495,-0.879666\C,-6.245791,-0.960111,0.000001
 \H,-5.323608,0.79092,0.879425\H,-5.323602,0.790902,-0.879453\H,-7.2600
 83,-0.542997,-0.000007\H,-6.147428,-1.601334,-0.885586\H,-6.147435,-1.
 601315,0.885602\\Version=EM64L-G16RevB.01\State=1-A\HF=-326.0044832\RM
 SD=2.037e-09\RMSF=1.849e-06\Dipole=-0.5737322,0.1233599,0.0000029\Quad
 rupole=0.8215585,-0.5333671,-0.2881914,-1.8836574,0.0000115,0.0000112\
 PG=C01 [X(C8H13Br1)]\\@


 A DANDELION FROM A LOVER MEANS MORE THAN AN ORCHID FROM A FRIEND.
 Job cpu time:       0 days  0 hours  7 minutes 28.7 seconds.
 Elapsed time:       0 days  0 hours  0 minutes 14.1 seconds.
 File lengths (MBytes):  RWF=     21 Int=      0 D2E=      0 Chk=      4 Scr=      1
 Normal termination of Gaussian 16 at Wed Sep 20 06:05:38 2023.
 Link1:  Proceeding to internal job step number  2.
 ------------------------------------------------------------------
 #N Geom=AllCheck Guess=TCheck SCRF=Check GenChk RB3LYP/ChkBas Freq
 ------------------------------------------------------------------
 1/10=4,29=7,30=1,38=1,40=1/1,3;
 2/12=2,40=1/2;
 3/5=7,6=2,11=2,14=-4,16=1,17=8,25=1,30=1,67=1,70=2,71=2,74=-5,82=7,116=1,124=31,140=1/1,2,3;
 4/5=101/1;
 5/5=2,7=1000,38=6,98=1/2;
 8/6=4,10=90,11=11/1;
 11/6=1,8=1,9=11,15=111,16=1/1,2,10;
 10/6=1/2;
 6/7=2,8=2,9=2,10=2,28=1/1;
 7/8=1,10=1,25=1/1,2,3,16;
 1/10=4,30=1/3;
 99//99;
 Structure from the checkpoint file:  "MOLECULE24-vol.chk"
 -------------------
 Title Card Required
 -------------------
 Charge =  0 Multiplicity = 1
 Redundant internal coordinates found in file.  (old form).
 C,0,2.310133,0.298496,-0.000007
 C,0,1.186755,0.749227,0.000007
 Br,0,4.019615,-0.365283,-0.000001
 C,0,-0.18587,1.259599,0.000003
 C,0,-1.249137,0.140094,0.000005
 H,0,-0.333453,1.903148,-0.879019
 H,0,-0.333455,1.903156,0.879019
 C,0,-2.678082,0.695278,-0.000003
 H,0,-1.095998,-0.49866,-0.879952
 H,0,-1.096005,-0.498648,0.879972
 H,0,-2.819377,1.341028,0.880151
 H,0,-2.819373,1.341013,-0.880169
 C,0,-3.749799,-0.402272,0.000004
 C,0,-5.183168,0.145468,-0.000007
 H,0,-3.608486,-1.048478,0.879687
 H,0,-3.60848,-1.048495,-0.879666
 C,0,-6.245791,-0.960111,0.000001
 H,0,-5.323608,0.79092,0.879425
 H,0,-5.323602,0.790902,-0.879453
 H,0,-7.260083,-0.542997,-0.000007
 H,0,-6.147428,-1.601334,-0.885586
 H,0,-6.147435,-1.601315,0.885602
 Recover connectivity data from disk.

 GradGradGradGradGradGradGradGradGradGradGradGradGradGradGradGradGradGrad
 Berny optimization.
 Initialization pass.
                           ----------------------------
                           !    Initial Parameters    !
                           ! (Angstroms and Degrees)  !
 --------------------------                            --------------------------
 ! Name  Definition              Value          Derivative Info.                !
 --------------------------------------------------------------------------------
 ! R1    R(1,2)                  1.2104         calculate D2E/DX2 analytically  !
 ! R2    R(1,3)                  1.8338         calculate D2E/DX2 analytically  !
 ! R3    R(2,4)                  1.4644         calculate D2E/DX2 analytically  !
 ! R4    R(4,5)                  1.544          calculate D2E/DX2 analytically  !
 ! R5    R(4,6)                  1.0994         calculate D2E/DX2 analytically  !
 ! R6    R(4,7)                  1.0994         calculate D2E/DX2 analytically  !
 ! R7    R(5,8)                  1.533          calculate D2E/DX2 analytically  !
 ! R8    R(5,9)                  1.0981         calculate D2E/DX2 analytically  !
 ! R9    R(5,10)                 1.0981         calculate D2E/DX2 analytically  !
 ! R10   R(8,11)                 1.1007         calculate D2E/DX2 analytically  !
 ! R11   R(8,12)                 1.1007         calculate D2E/DX2 analytically  !
 ! R12   R(8,13)                 1.534          calculate D2E/DX2 analytically  !
 ! R13   R(13,14)                1.5345         calculate D2E/DX2 analytically  !
 ! R14   R(13,15)                1.1006         calculate D2E/DX2 analytically  !
 ! R15   R(13,16)                1.1006         calculate D2E/DX2 analytically  !
 ! R16   R(14,17)                1.5335         calculate D2E/DX2 analytically  !
 ! R17   R(14,18)                1.0999         calculate D2E/DX2 analytically  !
 ! R18   R(14,19)                1.0999         calculate D2E/DX2 analytically  !
 ! R19   R(17,20)                1.0967         calculate D2E/DX2 analytically  !
 ! R20   R(17,21)                1.0978         calculate D2E/DX2 analytically  !
 ! R21   R(17,22)                1.0978         calculate D2E/DX2 analytically  !
 ! A1    A(2,4,5)              113.1279         calculate D2E/DX2 analytically  !
 ! A2    A(2,4,6)              109.2591         calculate D2E/DX2 analytically  !
 ! A3    A(2,4,7)              109.259          calculate D2E/DX2 analytically  !
 ! A4    A(5,4,6)              109.3904         calculate D2E/DX2 analytically  !
 ! A5    A(5,4,7)              109.3905         calculate D2E/DX2 analytically  !
 ! A6    A(6,4,7)              106.1773         calculate D2E/DX2 analytically  !
 ! A7    A(4,5,8)              112.2916         calculate D2E/DX2 analytically  !
 ! A8    A(4,5,9)              109.0104         calculate D2E/DX2 analytically  !
 ! A9    A(4,5,10)             109.0103         calculate D2E/DX2 analytically  !
 ! A10   A(8,5,9)              109.9167         calculate D2E/DX2 analytically  !
 ! A11   A(8,5,10)             109.9166         calculate D2E/DX2 analytically  !
 ! A12   A(9,5,10)             106.521          calculate D2E/DX2 analytically  !
 ! A13   A(5,8,11)             109.3965         calculate D2E/DX2 analytically  !
 ! A14   A(5,8,12)             109.3965         calculate D2E/DX2 analytically  !
 ! A15   A(5,8,13)             113.0852         calculate D2E/DX2 analytically  !
 ! A16   A(11,8,12)            106.1853         calculate D2E/DX2 analytically  !
 ! A17   A(11,8,13)            109.2719         calculate D2E/DX2 analytically  !
 ! A18   A(12,8,13)            109.2719         calculate D2E/DX2 analytically  !
 ! A19   A(8,13,14)            113.4041         calculate D2E/DX2 analytically  !
 ! A20   A(8,13,15)            109.2916         calculate D2E/DX2 analytically  !
 ! A21   A(8,13,16)            109.2916         calculate D2E/DX2 analytically  !
 ! A22   A(14,13,15)           109.2396         calculate D2E/DX2 analytically  !
 ! A23   A(14,13,16)           109.2395         calculate D2E/DX2 analytically  !
 ! A24   A(15,13,16)           106.1162         calculate D2E/DX2 analytically  !
 ! A25   A(13,14,17)           112.9514         calculate D2E/DX2 analytically  !
 ! A26   A(13,14,18)           109.1927         calculate D2E/DX2 analytically  !
 ! A27   A(13,14,19)           109.1928         calculate D2E/DX2 analytically  !
 ! A28   A(17,14,18)           109.5488         calculate D2E/DX2 analytically  !
 ! A29   A(17,14,19)           109.5488         calculate D2E/DX2 analytically  !
 ! A30   A(18,14,19)           106.1797         calculate D2E/DX2 analytically  !
 ! A31   A(14,17,20)           111.5108         calculate D2E/DX2 analytically  !
 ! A32   A(14,17,21)           111.0409         calculate D2E/DX2 analytically  !
 ! A33   A(14,17,22)           111.041          calculate D2E/DX2 analytically  !
 ! A34   A(20,17,21)           107.7593         calculate D2E/DX2 analytically  !
[...]
 0.00056215,-0.00001635,-0.00006309,0.00001114,-0.05166292,0.01836920,-
 0.02471077,0.00119520,-0.00030514,0.00049005,-0.00585748,0.00225285,0.
 00029016,0.00026910,-0.00268535,0.00336466,0.06201822,-0.00000678,0.00
 000581,-0.00001515,-0.00006730,0.00006435,-0.00025743,0.00001105,-0.00
 001151,0.00001566,-0.00070412,0.00043202,-0.00038412,0.00244084,-0.008
 02339,0.01090829,0.00020461,0.00061220,-0.00008238,0.00005641,0.000025
 69,-0.00008687,0.01847351,-0.13063385,0.11301451,-0.00029672,-0.000199
 72,-0.00002812,0.00231893,-0.00039057,-0.00020702,-0.00268534,0.011781
 19,-0.01534323,-0.01900618,0.14356136,0.00002944,-0.00001765,0.0000092
 7,-0.00003738,-0.00034132,0.00018625,0.00000124,0.00002747,-0.00001710
 ,0.00005441,0.00000702,0.00012632,0.00014049,-0.00024519,0.00006044,-0
 .00055159,-0.00033804,0.00025081,0.00002220,0.00012839,-0.00010338,-0.
 02493121,0.11340567,-0.21267263,-0.00049986,0.00002572,0.00089426,0.00
 021595,-0.00016191,0.00169697,-0.00336452,0.01534264,-0.02226639,0.028
 00709,-0.12737017,0.22878127,-0.00025219,0.00017423,0.,-0.00034746,-0.
 00144312,0.,-0.00012132,0.00012859,0.,-0.00417858,0.00288207,-0.000000
 02,-0.02761307,-0.02308364,0.00000010,-0.00003258,-0.00002668,0.000253
 90,-0.00003258,-0.00002668,-0.00025390,-0.12395082,-0.05205540,0.00000
 034,0.00131854,-0.00079756,-0.00016666,0.00131854,-0.00079757,0.000166
 69,0.00152291,0.00161216,-0.00006999,0.00152281,0.00161206,0.00006997,
 0.45977013,0.00031845,-0.00025931,0.,0.00080276,0.00143205,0.,0.000316
 86,-0.00020686,0.,0.00415257,-0.00195371,0.00000002,0.00464832,0.01213
 219,-0.00000009,-0.00014527,-0.00005153,-0.00021352,-0.00014527,-0.000
 05152,0.00021353,-0.05201026,-0.14024848,0.00000040,0.00121348,0.00030
 725,-0.00007466,0.00121346,0.00030726,0.00007466,-0.01408058,-0.015558
 14,0.00013895,-0.01408023,-0.01555775,-0.00013874,-0.01509066,0.527635
 23,0.,0.,-0.00017868,0.,-0.00000001,0.00073760,-0.00000001,0.,0.000013
 06,-0.00000005,0.00000002,-0.00057371,-0.00000012,-0.00000018,-0.00138
 001,-0.00003863,-0.00028938,0.00028568,0.00003864,0.00028938,0.0002856
 8,0.00000037,0.00000042,-0.07987562,0.00119280,0.00036850,0.00003298,-
 0.00119282,-0.00036850,0.00003299,-0.01978148,-0.02107119,-0.00009685,
 0.01978173,0.02107146,-0.00009713,-0.00000017,0.00000005,0.58708298,0.
 00001032,0.00000334,0.,-0.00023594,-0.00012270,0.,0.00000293,0.0000034
 6,0.,-0.00023180,0.00076130,0.,-0.00093965,-0.00264063,0.00000002,0.00
 001453,-0.00000526,0.00002462,0.00001453,-0.00000526,-0.00002462,-0.02
 707365,0.00465905,-0.00000012,-0.00013742,0.00001005,0.00011898,-0.000
 13742,0.00001005,-0.00011898,0.00123650,0.00129004,0.00026868,0.001236
 48,0.00129004,-0.00026870,-0.16622041,0.04076308,-0.00000072,0.4548003
 0,-0.00016156,0.00010709,0.,-0.00031765,-0.00070755,0.,-0.00018446,0.0
 0011431,0.,-0.00181639,0.00111277,0.,-0.00267976,-0.00551669,0.0000000
 3,0.00008650,0.00007934,0.00005739,0.00008650,0.00007934,-0.00005739,-
 0.02373864,0.01202073,-0.00000020,0.00004853,0.00011511,0.00035752,0.0
 0004854,0.00011510,-0.00035752,-0.00074968,0.00031698,-0.00001243,-0.0
 0074966,0.00031699,0.00001242,0.03988463,-0.09772919,0.00000035,-0.012
 01510,0.53058407,0.,0.,-0.00005475,0.,0.,0.00005783,0.,0.,0.00001403,0
 .00000002,0.,0.00060800,0.00000002,0.00000005,-0.00067103,-0.00004920,
 -0.00006548,-0.00002708,0.00004920,0.00006548,-0.00002708,0.00000015,-
 0.00000012,-0.00117646,-0.00016845,0.00023223,0.00030623,0.00016844,-0
 .00023224,0.00030624,-0.00127190,-0.00019145,-0.00000082,0.00127192,0.
 00019146,-0.00000081,-0.00000072,0.00000035,-0.08038189,-0.00000030,0.
 00000034,0.58941274,-0.00000872,0.00001003,-0.00000252,-0.00003371,0.0
 0009439,-0.00007702,-0.00000834,-0.00000396,0.00000513,0.00008578,-0.0
 0008407,-0.00007310,0.00116197,-0.00081282,0.00128145,0.00000222,0.000
 18915,-0.00016189,0.00002842,0.00000230,0.00002445,0.00130683,-0.01413
 799,0.01978965,-0.00003822,0.00003197,0.00000338,-0.00060417,0.0001845
 2,-0.00048805,0.00074370,0.00074470,-0.00041818,-0.00319133,-0.0036149
 6,-0.00008049,-0.05146598,0.01814536,-0.02495684,-0.00638955,0.0184330
 3,-0.02675720,0.06182699,-0.00002580,0.00000849,-0.00000446,-0.0000510
 1,0.00003689,-0.00007698,-0.00003217,0.00001032,0.00000694,-0.00000675
 ,0.00007562,-0.00028955,0.00125053,0.00024778,0.00021336,0.00019217,0.
 00018211,-0.00011329,0.00001998,-0.00005471,0.00002647,0.00156794,-0.0
 1549234,0.02089120,-0.00007738,0.00004263,-0.00009251,-0.00076942,0.00
 061018,-0.00036947,0.00073082,0.00027588,-0.00023318,-0.00358678,-0.00
 320000,-0.00014886,0.01806615,-0.13105077,0.11339484,0.00265516,-0.007
 96212,0.01093368,-0.01873883,0.14398970,0.00002191,-0.00003638,0.00000
 809,0.00006407,0.00008569,-0.00000215,0.00003167,-0.00001002,-0.000002
 98,0.00024189,-0.00025088,0.00030701,-0.00023687,0.00002941,0.00001097
 ,-0.00017067,-0.00012435,-0.00001962,-0.00001926,-0.00001303,-0.000026
 32,0.00001368,-0.00033185,-0.00001285,-0.00004473,0.00008897,-0.000063
 32,0.00063850,-0.00011694,0.00029859,0.00043309,0.00024873,0.00092698,
 -0.00010248,-0.00020270,0.00169787,-0.02483939,0.11381705,-0.21275267,
 0.00022583,-0.00014121,-0.00012984,0.02794633,-0.12763116,0.22884814,-
 0.00000872,0.00001003,0.00000252,-0.00003371,0.00009439,0.00007702,-0.
 00000834,-0.00000396,-0.00000513,0.00008579,-0.00008407,0.00007310,0.0
 0116196,-0.00081284,-0.00128142,0.00002842,0.00000230,-0.00002445,0.00
 000221,0.00018915,0.00016189,0.00130696,-0.01413838,-0.01978938,-0.000
 60416,0.00018453,0.00048805,-0.00003822,0.00003197,-0.00000338,-0.0031
 9133,-0.00361496,0.00008053,0.00074369,0.00074470,0.00041817,-0.051466
 34,0.01814656,0.02495752,-0.00638977,0.01843358,0.02675680,0.00023898,
 -0.00263835,-0.00339262,0.06182744,-0.00002580,0.00000849,0.00000446,-
 0.00005101,0.00003689,0.00007698,-0.00003217,0.00001032,-0.00000694,-0
 .00000676,0.00007562,0.00028956,0.00125054,0.00024779,-0.00021336,0.00
 001998,-0.00005471,-0.00002647,0.00019217,0.00018211,0.00011329,0.0015
 6808,-0.01549273,-0.02089090,-0.00076944,0.00061019,0.00036946,-0.0000
 7738,0.00004263,0.00009250,-0.00358678,-0.00320000,0.00014893,0.000730
 81,0.00027587,0.00023319,0.01806733,-0.13105490,-0.11339587,0.00265526
 ,-0.00796235,-0.01093353,-0.00263840,0.01178762,0.01535415,-0.01874020
 ,0.14399438,-0.00002191,0.00003638,0.00000809,-0.00006407,-0.00008569,
 -0.00000215,-0.00003167,0.00001002,-0.00000298,-0.00024189,0.00025088,
 0.00030700,0.00023686,-0.00002942,0.00001097,0.00001927,0.00001304,-0.
 00002632,0.00017067,0.00012435,-0.00001962,-0.00001372,0.00033203,-0.0
 0001260,-0.00063849,0.00011693,0.00029857,0.00004473,-0.00008897,-0.00
 006332,0.00010252,0.00020276,0.00169786,-0.00043310,-0.00024872,0.0009
 2697,0.02484006,-0.11381807,-0.21274754,-0.00022592,0.00014147,-0.0001
 2945,0.00339284,-0.01535483,-0.02226902,-0.02794704,0.12763228,0.22884
 244,-0.00003684,0.00002726,0.,-0.00010461,-0.00020598,0.,-0.00005305,0
 .00003299,0.,-0.00052677,0.00034641,0.,-0.00035681,-0.00176473,0.00000
 001,0.00001858,0.00001820,0.00002002,0.00001858,0.00001820,-0.00002002
 ,-0.00430727,0.00362774,-0.00000005,0.00005192,0.00001392,0.00006911,0
 .00005192,0.00001392,-0.00006911,-0.00003638,-0.00008610,-0.00027916,-
 0.00003638,-0.00008609,0.00027916,-0.02799529,-0.02403235,0.00000015,-
 0.13028503,-0.05494930,0.00000040,0.00129316,-0.00086307,0.00014468,0.
 00129315,-0.00086307,-0.00014466,0.52915020,0.00004830,-0.00003550,0.,
 0.00006150,0.00019942,0.,0.00007510,-0.00004241,0.,0.00040735,-0.00025
 260,0.,0.00075879,0.00121802,0.,-0.00000574,-0.00000960,-0.00001076,-0
 .00000574,-0.00000960,0.00001076,0.00335265,-0.00215333,0.00000003,-0.
 00007264,0.00000379,-0.00005282,-0.00007264,0.00000379,0.00005282,-0.0
 0009104,0.00008429,0.00027879,-0.00009104,0.00008428,-0.00027879,0.005
 04807,0.01116422,-0.00000011,-0.05641737,-0.14171027,0.00000047,0.0009
 6251,0.00048325,-0.00008965,0.00096254,0.00048326,0.00008965,-0.051385
 81,0.51625191,0.,0.,0.00003567,0.,0.,-0.00005266,0.,0.,-0.00000952,0.,
 0.,-0.00001542,-0.00000001,-0.00000001,0.00067987,-0.00000428,0.000006
 03,0.00000397,0.00000428,-0.00000603,0.00000397,-0.00000005,0.00000004
 ,-0.00052155,-0.00008280,0.00003193,-0.00003400,0.00008280,-0.00003193
 ,-0.00003400,0.00008551,0.00031287,0.00032360,-0.00008551,-0.00031287,
 0.00032361,-0.00000015,-0.00000021,-0.00047373,0.00000041,0.00000048,-
 0.08043324,-0.00107924,-0.00052644,0.00012271,0.00107923,0.00052643,0.
 00012270,0.00000039,-0.00000015,0.56636367,-0.00000078,-0.00000984,-0.
 00000471,0.00002804,0.00000929,-0.00000383,0.00000157,0.00000171,0.000
 00144,0.00002315,-0.00008345,-0.00008133,-0.00007516,0.00006985,-0.000
 18338,-0.00000603,0.00000052,0.00000418,-0.00004661,-0.00004520,-0.000
 01279,0.00128276,0.00122009,0.00122411,0.00019256,-0.00018930,-0.00020
 051,0.00002625,0.00002006,0.00002314,-0.00061357,-0.00077584,-0.000630
 25,-0.00003569,-0.00007930,-0.00003449,-0.00650541,0.01847536,0.026901
 47,-0.05161751,0.01874631,0.02506865,0.00121746,-0.00031725,-0.0004886
 8,-0.00599136,0.00233543,-0.00015666,0.00202756,-0.01486150,-0.0201872
 4,0.06166414,0.00000741,-0.00000413,0.00000511,0.00000015,0.00001909,-
 0.00000228,0.00000960,-0.00000600,-0.00000208,0.00003711,0.00001108,0.
 00003684,0.00000137,0.00014274,0.00025393,-0.00000090,-0.00000009,0.00
 000059,0.00001860,0.00001738,-0.00000185,-0.00080917,0.00023592,0.0003
 1336,-0.00020443,0.00000196,0.00003848,0.00001955,-0.00004757,-0.00000
 524,0.00020884,0.00065010,0.00016478,0.00003590,0.00004214,0.00008510,
 0.00271034,-0.00796252,-0.01102745,0.01872326,-0.13206410,-0.11422971,
 -0.00030189,-0.00021972,0.00006704,0.00245231,-0.00043256,0.00015781,0
 .00192052,-0.01483737,-0.02006468,-0.01913692,0.14444713,0.00000460,-0
 .00000225,0.00000493,0.00001734,0.00004249,0.00000074,0.00000335,-0.00
 000547,-0.00000196,0.00008774,-0.00004587,-0.00002944,0.00011998,0.000
 37524,0.00034019,0.00000214,-0.00000453,-0.00001079,0.00001606,0.00000
 357,0.00002217,-0.00018420,-0.00009747,-0.00001477,-0.00021643,0.00003
 835,-0.00001901,-0.00002326,0.00000154,-0.00002529,0.00053733,0.000407
 31,0.00033221,-0.00000076,-0.00009440,-0.00006724,-0.00003746,0.000166
 58,-0.00014290,0.02530023,-0.11493629,-0.21396065,0.00047794,-0.000034
 64,0.00094180,-0.00009843,0.00017851,0.00174829,-0.00017614,0.00098955
 ,0.00092059,-0.02811728,0.12823956,0.22980512,-0.00000078,-0.00000984,
 0.00000471,0.00002804,0.00000930,0.00000384,0.00000157,0.00000171,-0.0
 0000144,0.00002315,-0.00008345,0.00008133,-0.00007516,0.00006986,0.000
 18338,-0.00004662,-0.00004520,0.00001279,-0.00000603,0.00000052,-0.000
 00418,0.00128276,0.00122007,-0.00122413,0.00002625,0.00002005,-0.00002
 314,0.00019255,-0.00018930,0.00020051,-0.00003569,-0.00007930,0.000034
 49,-0.00061358,-0.00077583,0.00063025,-0.00650520,0.01847479,-0.026901
 88,-0.05161716,0.01874504,-0.02506796,-0.00599136,0.00233542,0.0001565
 6,0.00121746,-0.00031724,0.00048869,0.00202742,-0.01486106,0.02018755,
 0.00020732,-0.00267777,0.00339771,0.06166373,0.00000741,-0.00000413,-0
 .00000511,0.00000015,0.00001909,0.00000228,0.00000960,-0.00000600,0.00
 000208,0.00003711,0.00001108,-0.00003684,0.00000136,0.00014273,-0.0002
 5392,0.00001860,0.00001738,0.00000185,-0.00000090,-0.00000009,-0.00000
 059,-0.00080916,0.00023591,-0.00031337,0.00001955,-0.00004757,0.000005
 24,-0.00020442,0.00000196,-0.00003848,0.00003590,0.00004214,-0.0000851
 1,0.00020883,0.00065009,-0.00016478,0.00271025,-0.00796229,0.01102761,
 0.01872198,-0.13205952,0.11422834,0.00245231,-0.00043257,-0.00015775,-
 0.00030190,-0.00021972,-0.00006702,0.00192039,-0.01483696,0.02006501,-
 0.00267773,0.01194664,-0.01529445,-0.01913548,0.14444197,-0.00000460,0
 .00000225,0.00000493,-0.00001734,-0.00004249,0.00000074,-0.00000335,0.
 00000547,-0.00000196,-0.00008774,0.00004586,-0.00002944,-0.00011998,-0
 .00037524,0.00034020,-0.00001606,-0.00000357,0.00002217,-0.00000214,0.
 00000453,-0.00001079,0.00018422,0.00009748,-0.00001478,0.00002326,-0.0
 0000154,-0.00002529,0.00021643,-0.00003835,-0.00001901,0.00000076,0.00
 009440,-0.00006723,-0.00053734,-0.00040732,0.00033222,0.00003738,-0.00
 016631,-0.00014330,-0.02529954,0.11493492,-0.21396586,0.00009833,-0.00
 017845,0.00174830,-0.00047793,0.00003466,0.00094180,0.00017610,-0.0009
 8934,0.00092034,-0.00339750,0.01529372,-0.02234012,0.02811655,-0.12823
 810,0.22981093,-0.00001607,-0.00000336,0.,-0.00003795,-0.00010337,0.,-
 0.00006084,0.00003372,0.,-0.00016036,0.00016926,0.,-0.00015905,-0.0006
 3335,0.,0.00000347,0.00000388,0.00000732,0.00000347,0.00000388,-0.0000
 0732,-0.00100741,0.00140833,-0.00000002,0.00001251,0.00001610,0.000023
 77,0.00001251,0.00001610,-0.00002377,-0.00000691,-0.00005874,-0.000103
 59,-0.00000691,-0.00005873,0.00010359,-0.00162484,-0.00573089,0.000000
 05,-0.01948117,0.01030081,-0.00000018,0.00038178,-0.00001546,-0.000090
 15,0.00038178,-0.00001546,0.00009015,-0.26931852,0.09447750,-0.0000018
 0,0.00053192,-0.00009493,-0.00074630,0.00053191,-0.00009491,0.00074630
 ,0.29394620,-0.00001798,0.00001031,0.,-0.00002227,-0.00006458,0.,-0.00
 001825,0.00001104,0.,-0.00015364,0.00009921,0.,-0.00022871,-0.00049272
 ,0.,0.00000412,0.00000370,0.00000547,0.00000412,0.00000370,-0.00000547
 ,-0.00137456,0.00099349,0.,0.00001333,-0.00000027,0.00002425,0.0000133
 3,-0.00000027,-0.00002425,0.00007319,0.00004448,-0.00006183,0.00007319
 ,0.00004448,0.00006183,-0.00223518,-0.00425565,0.00000004,-0.02478181,
 0.01111167,-0.00000023,-0.00006549,0.00000382,-0.00030942,-0.00006550,
 0.00000384,0.00030943,0.09543146,-0.08878111,0.00000077,0.00066944,0.0
 0094851,-0.00018724,0.00066945,0.00094851,0.00018723,-0.10184762,0.094
 87194,0.,0.,0.00000171,0.,0.,-0.00000921,0.,0.,0.00000012,0.,0.,0.0000
 1026,0.,0.,-0.00000763,0.00000023,0.00000150,-0.00000189,-0.00000023,-
 0.00000150,-0.00000189,0.,0.,0.00059563,-0.00000124,-0.00000485,0.0000
 0306,0.00000124,0.00000485,0.00000306,0.00006365,0.00006204,-0.0000219
 1,-0.00006365,-0.00006205,-0.00002191,0.00000002,0.00000003,0.00021304
 ,0.00000020,-0.00000009,-0.00132796,0.00040290,-0.00024901,0.00024304,
 -0.00040289,0.00024901,0.00024303,-0.00000179,0.00000076,-0.04910120,-
 0.00039674,0.00018078,-0.00002386,0.00039673,-0.00018080,-0.00002385,0
 .00000198,-0.00000088,0.04763336,0.00000110,0.00000077,0.00000135,0.00
 000633,0.00001443,-0.00000185,0.00000772,-0.00000472,-0.00000034,0.000
 02710,-0.00001088,0.00001411,0.00000835,0.00010485,0.00005654,0.000000
 22,-0.00000134,-0.00000236,0.00000739,0.00000347,0.00000254,-0.0000405
 1,-0.00015364,0.00010226,-0.00004977,0.00001638,0.00001496,-0.00000734
 ,-0.00000257,-0.00000327,0.00002321,0.00020914,0.00017420,0.00003008,0
 .00002006,-0.00002953,0.00142957,-0.00067779,-0.00143719,0.00172052,-0
 .01372585,-0.02021336,-0.00006074,0.00005433,0.00001414,-0.00049514,0.
 00024978,0.00054749,-0.05143798,0.01585581,0.02113262,-0.00310770,-0.0
 0376579,-0.00005358,0.00079711,0.00084685,0.00031057,-0.00196284,0.016
 92994,0.02595521,0.05362664,-0.00000023,0.00000356,0.00000373,0.000000
 52,-0.00001613,0.00000021,-0.00001551,0.00000631,-0.00000143,0.0000006
 7,0.00000884,-0.00000788,-0.00000540,0.00002303,0.00007360,-0.00000027
 ,-0.00000567,-0.00000130,0.00000345,0.00000052,0.00000505,-0.00005745,
 0.00007978,0.00024705,-0.00004908,0.00001765,0.00000507,-0.00000174,0.
 00000240,-0.00000025,0.00019833,0.00017341,0.00011916,0.00001515,-0.00
 005308,-0.00000486,0.00133033,0.00046221,-0.00004317,0.00222109,-0.015
 18107,-0.02094589,-0.00007381,0.00004909,0.00007954,-0.00077807,0.0006
 0886,0.00035524,0.01543342,-0.13365617,-0.11976827,-0.00410669,-0.0030
 7605,0.00056038,0.00073493,0.00018743,0.00030049,0.00111365,-0.0077521
 4,-0.01030582,-0.01352422,0.14559267,-0.00000084,0.00000439,0.00000359
 ,-0.00000074,-0.00001500,0.00000069,-0.00001320,0.00000445,-0.00000127
 ,-0.00002088,0.00001646,0.00000106,-0.00003237,-0.00007710,-0.00003666
 ,0.00000066,0.00000018,-0.00000198,0.00000214,0.00000635,0.00000268,-0
 .00023696,0.00027297,0.00028975,-0.00001622,-0.00000073,0.00002374,-0.
 00000350,-0.00000231,-0.00000993,0.00016484,0.00011255,-0.00001740,0.0
 0001876,0.00001374,-0.00002226,0.00018506,0.00012192,0.00008002,-0.000
 14526,0.00061402,0.00079106,0.00002527,-0.00008218,-0.00009641,-0.0006
 4686,0.00008147,0.00022169,0.02044505,-0.12012077,-0.21956973,0.000207
 56,0.00028554,0.00165619,-0.00046484,-0.00021063,0.00086379,0.00043811
 ,0.00128060,0.00079769,-0.02324525,0.13351209,0.23635589,0.00000110,0.
 00000077,-0.00000135,0.00000633,0.00001443,0.00000185,0.00000772,-0.00
 000472,0.00000034,0.00002710,-0.00001088,-0.00001411,0.00000835,0.0001
 0485,-0.00005654,0.00000739,0.00000347,-0.00000254,0.00000022,-0.00000
 134,0.00000236,-0.00004051,-0.00015364,-0.00010226,-0.00000734,-0.0000
 0257,0.00000327,-0.00004977,0.00001638,-0.00001496,0.00003007,0.000020
 06,0.00002953,0.00002321,0.00020914,-0.00017420,0.00142956,-0.00067776
 ,0.00143721,0.00172038,-0.01372541,0.02021366,-0.00049515,0.00024977,-
 0.00054749,-0.00006074,0.00005433,-0.00001415,-0.05143757,0.01585446,-
 0.02113172,0.00079711,0.00084684,-0.00031059,-0.00310770,-0.00376579,0
 .00005362,-0.00196266,0.01692942,-0.02595561,-0.00052332,-0.00243906,0
 .00333947,0.05362622,-0.00000023,0.00000356,-0.00000373,0.00000052,-0.
 00001613,-0.00000022,-0.00001551,0.00000631,0.00000143,0.00000067,0.00
 000884,0.00000788,-0.00000540,0.00002303,-0.00007361,0.00000345,0.0000
 0052,-0.00000505,-0.00000027,-0.00000567,0.00000130,-0.00005744,0.0000
 7977,-0.00024704,-0.00000174,0.00000240,0.00000025,-0.00004908,0.00001
 765,-0.00000507,0.00001515,-0.00005308,0.00000486,0.00019833,0.0001734
 0,-0.00011917,0.00133032,0.00046221,0.00004317,0.00222096,-0.01518062,
 0.02094623,-0.00077806,0.00060885,-0.00035525,-0.00007381,0.00004909,-
 0.00007955,0.01543209,-0.13365134,0.11976703,0.00073494,0.00018743,-0.
 00030047,-0.00410669,-0.00307607,-0.00056031,0.00111358,-0.00775195,0.
 01030602,-0.00243901,0.01252455,-0.01581800,-0.01352276,0.14558726,0.0
 0000084,-0.00000439,0.00000359,0.00000074,0.00001500,0.00000069,0.0000
 1321,-0.00000445,-0.00000127,0.00002088,-0.00001646,0.00000106,0.00003
 237,0.00007710,-0.00003666,-0.00000214,-0.00000635,0.00000268,-0.00000
 066,-0.00000018,-0.00000198,0.00023696,-0.00027297,0.00028976,0.000003
 50,0.00000231,-0.00000993,0.00001622,0.00000073,0.00002374,-0.00001875
 ,-0.00001374,-0.00002226,-0.00016485,-0.00011255,-0.00001739,-0.000185
 08,-0.00012193,0.00008003,0.00014521,-0.00061381,0.00079080,0.00064687
 ,-0.00008148,0.00022170,-0.00002527,0.00008218,-0.00009641,-0.02044415
 ,0.12011955,-0.21957567,0.00046482,0.00021065,0.00086379,-0.00020751,-
 0.00028547,0.00165621,-0.00043815,-0.00128028,0.00079730,-0.00333926,0
 .01581725,-0.02133218,0.02324420,-0.13351072,0.23636242\\0.00000651,-0
 .00000409,-0.00000042,-0.00000638,0.00000031,0.00000064,0.00000022,-0.
 00000211,0.00000006,0.00000201,0.00000442,-0.00000009,-0.00000652,-0.0
 0000529,-0.00000040,0.00000034,-0.00000105,-0.00000020,0.00000061,-0.0
 0000090,0.00000027,0.00000265,0.00000011,0.00000020,0.00000078,-0.0000
 0018,-0.00000014,0.00000077,-0.00000002,0.00000021,0.00000007,0.000000
 51,0.00000027,0.00000005,0.00000060,-0.00000040,0.00000053,-0.00000073
 ,0.00000031,0.00000003,0.00000215,-0.00000021,-0.00000040,0.00000010,0
 .00000011,-0.00000043,0.,-0.00000029,0.00000109,0.00000092,0.00000022,
 0.,0.00000088,0.00000008,-0.00000003,0.00000089,0.,-0.00000034,0.00000
 161,0.00000004,-0.00000072,0.00000087,-0.00000015,-0.00000083,0.000001
 01,-0.00000007\\\@


 IT IS THE BEHAVIOR AND DISTRIBUTION OF THE ELECTRONS 
 AROUND THE NUCLEUS THAT GIVES THE FUNDAMENTAL 
 CHARACTER OF AN ATOM:  IT MUST BE THE SAME FOR MOLECULES.

                               -- C. A. COULSON, 1951
 Job cpu time:       0 days  0 hours 43 minutes 20.8 seconds.
 Elapsed time:       0 days  0 hours  1 minutes 21.5 seconds.
 File lengths (MBytes):  RWF=     84 Int=      0 D2E=      0 Chk=      4 Scr=      1
 Normal termination of Gaussian 16 at Wed Sep 20 06:07:00 2023.
