 Entering Gaussian System, Link 0=g16
 Input=/home/ubuntu/Downloads/ARYLHALIDE-coch3-gen-volume.gjf
 Output=/home/ubuntu/Downloads/ARYLHALIDE-coch3-gen-volume.log
 Initial command:
 /home/ubuntu/g16/l1.exe "/home/ubuntu/Scratch/Gau-14827.inp" -scrdir="/home/ubuntu/Scratch/"
 Entering Link 1 = /home/ubuntu/g16/l1.exe PID=     14831.
  
 Copyright (c) 1988-2017, Gaussian, Inc.  All Rights Reserved.
  
 This is part of the Gaussian(R) 16 program.  It is based on
 the Gaussian(R) 09 system (copyright 2009, Gaussian, Inc.),
 the Gaussian(R) 03 system (copyright 2003, Gaussian, Inc.),
 the Gaussian(R) 98 system (copyright 1998, Gaussian, Inc.),
 the Gaussian(R) 94 system (copyright 1995, Gaussian, Inc.),
 the Gaussian 92(TM) system (copyright 1992, Gaussian, Inc.),
 the Gaussian 90(TM) system (copyright 1990, Gaussian, Inc.),
 the Gaussian 88(TM) system (copyright 1988, Gaussian, Inc.),
 the Gaussian 86(TM) system (copyright 1986, Carnegie Mellon
 University), and the Gaussian 82(TM) system (copyright 1983,
 Carnegie Mellon University). Gaussian is a federally registered
 trademark of Gaussian, Inc.
  
 This software contains proprietary and confidential information,
 including trade secrets, belonging to Gaussian, Inc.
  
 This software is provided under written license and may be
 used, copied, transmitted, or stored only in accord with that
 written license.
  
 The following legend is applicable only to US Government
 contracts under FAR:
  
                    RESTRICTED RIGHTS LEGEND
  
 Use, reproduction and disclosure by the US Government is
 subject to restrictions as set forth in subparagraphs (a)
 and (c) of the Commercial Computer Software - Restricted
 Rights clause in FAR 52.227-19.
  
 Gaussian, Inc.
 340 Quinnipiac St., Bldg. 40, Wallingford CT 06492
  
  
 ---------------------------------------------------------------
 Warning -- This program may not be used in any manner that
 competes with the business of Gaussian, Inc. or will provide
 assistance to any competitor of Gaussian, Inc.  The licensee
 of this program is prohibited from giving any competitor of
 Gaussian, Inc. access to this program.  By using this program,
 the user acknowledges that Gaussian, Inc. is engaged in the
 business of creating and licensing software in the field of
 computational chemistry and represents and warrants to the
 licensee that it is not a competitor of Gaussian, Inc. and that
 it will not use this program in any manner prohibited above.
 ---------------------------------------------------------------
  

 Cite this work as:
 Gaussian 16, Revision B.01,
 M. J. Frisch, G. W. Trucks, H. B. Schlegel, G. E. Scuseria, 
 M. A. Robb, J. R. Cheeseman, G. Scalmani, V. Barone, 
 G. A. Petersson, H. Nakatsuji, X. Li, M. Caricato, A. V. Marenich, 
 J. Bloino, B. G. Janesko, R. Gomperts, B. Mennucci, H. P. Hratchian, 
 J. V. Ortiz, A. F. Izmaylov, J. L. Sonnenberg, D. Williams-Young, 
 F. Ding, F. Lipparini, F. Egidi, J. Goings, B. Peng, A. Petrone, 
 T. Henderson, D. Ranasinghe, V. G. Zakrzewski, J. Gao, N. Rega, 
 G. Zheng, W. Liang, M. Hada, M. Ehara, K. Toyota, R. Fukuda, 
 J. Hasegawa, M. Ishida, T. Nakajima, Y. Honda, O. Kitao, H. Nakai, 
 T. Vreven, K. Throssell, J. A. Montgomery, Jr., J. E. Peralta, 
 F. Ogliaro, M. J. Bearpark, J. J. Heyd, E. N. Brothers, K. N. Kudin, 
 V. N. Staroverov, T. A. Keith, R. Kobayashi, J. Normand, 
 K. Raghavachari, A. P. Rendell, J. C. Burant, S. S. Iyengar, 
 J. Tomasi, M. Cossi, J. M. Millam, M. Klene, C. Adamo, R. Cammi, 
 J. W. Ochterski, R. L. Martin, K. Morokuma, O. Farkas, 
 J. B. Foresman, and D. J. Fox, Gaussian, Inc., Wallingford CT, 2016.
 
 ******************************************
 Gaussian 16:  EM64L-G16RevB.01 20-Dec-2017
                13-Sep-2023 
 ******************************************
 %nprocshared=32
 Will use up to   32 processors via shared memory.
 %mem=60GB
 %chk=ARYLHALIDE-coch3-gen-volume.chk
 ----------------------------------------------------------------------
 # opt freq rb3lyp/gen nosymm empiricaldispersion=gd3 pseudo=read scf=m
 axcycle=1000 volume
 ----------------------------------------------------------------------
 1/18=20,19=15,26=3,38=1/1,3;
 2/9=110,12=2,15=1,17=6,18=5,40=1/2;
 3/5=7,11=2,16=1,17=8,25=1,30=1,71=1,74=-5,116=1,124=31/1,2,3;
 4//1;
 5/5=2,7=1000,38=5/2;
 6/7=2,8=2,9=2,10=2,28=1,44=1/1,4;
 7/30=1/1,2,3,16;
 1/18=20,19=15,26=3/3(2);
 2/9=110,15=1/2;
 99//99;
 2/9=110,15=1/2;
 3/5=7,6=1,11=2,16=1,17=8,25=1,30=1,71=1,74=-5,82=7,116=1,124=31/1,2,3;
 4/5=5,16=3,69=1/1;
 5/5=2,7=1000,38=5/2;
 7/30=1/1,2,3,16;
 1/18=20,19=15,26=3/3(-5);
 2/9=110,15=1/2;
 6/7=2,8=2,9=2,10=2,19=2,28=1,44=1/1,4;
 99/9=1/99;
 -----
 reac1
 -----
 Symbolic Z-matrix:
 Charge =  0 Multiplicity = 1
 C                    -0.46219   0.01908  -0.00007 
 C                     0.20397   1.2492    0.00005 
 C                     0.24606  -1.18417  -0.00018 
 C                     1.59708   1.26627   0.00006 
 H                    -0.35274   2.18052   0.00014 
 C                     1.64264  -1.15088  -0.00017 
 H                    -0.27546  -2.13552  -0.00027 
 C                     2.3344    0.07051  -0.00006 
 H                     2.13534   2.20919   0.00014 
 H                     2.18241  -2.09278  -0.00026 
 C                     3.83292   0.15062  -0.00007 
 O                     4.39775   1.23645   0.00034 
 C                     4.63717  -1.13826   0.00019 
 H                     4.40611  -1.74545   0.88437 
 H                     4.40664  -1.74544  -0.88412 
 H                     5.70008  -0.88941   0.0005 
 I                    -2.60606  -0.01974  -0.00007 
 

 GradGradGradGradGradGradGradGradGradGradGradGradGradGradGradGradGradGrad
 Berny optimization.
 Initialization pass.
                           ----------------------------
                           !    Initial Parameters    !
                           ! (Angstroms and Degrees)  !
 --------------------------                            --------------------------
 ! Name  Definition              Value          Derivative Info.                !
 --------------------------------------------------------------------------------
 ! R1    R(1,2)                  1.3989         estimate D2E/DX2                !
 ! R2    R(1,3)                  1.3962         estimate D2E/DX2                !
 ! R3    R(1,17)                 2.1442         estimate D2E/DX2                !
 ! R4    R(2,4)                  1.3932         estimate D2E/DX2                !
 ! R5    R(2,5)                  1.085          estimate D2E/DX2                !
 ! R6    R(3,6)                  1.397          estimate D2E/DX2                !
 ! R7    R(3,7)                  1.0849         estimate D2E/DX2                !
 ! R8    R(4,8)                  1.4048         estimate D2E/DX2                !
 ! R9    R(4,9)                  1.0857         estimate D2E/DX2                !
 ! R10   R(6,8)                  1.4037         estimate D2E/DX2                !
 ! R11   R(6,10)                 1.0856         estimate D2E/DX2                !
 ! R12   R(8,11)                 1.5007         estimate D2E/DX2                !
 ! R13   R(11,12)                1.224          estimate D2E/DX2                !
 ! R14   R(11,13)                1.5192         estimate D2E/DX2                !
 ! R15   R(13,14)                1.0972         estimate D2E/DX2                !
 ! R16   R(13,15)                1.0972         estimate D2E/DX2                !
 ! R17   R(13,16)                1.0916         estimate D2E/DX2                !
 ! A1    A(2,1,3)              121.0809         estimate D2E/DX2                !
 ! A2    A(2,1,17)             119.475          estimate D2E/DX2                !
 ! A3    A(3,1,17)             119.4442         estimate D2E/DX2                !
 ! A4    A(1,2,4)              119.1398         estimate D2E/DX2                !
 ! A5    A(1,2,5)              120.6931         estimate D2E/DX2                !
 ! A6    A(4,2,5)              120.1671         estimate D2E/DX2                !
 ! A7    A(1,3,6)              119.1162         estimate D2E/DX2                !
 ! A8    A(1,3,7)              120.7877         estimate D2E/DX2                !
 ! A9    A(6,3,7)              120.0961         estimate D2E/DX2                !
 ! A10   A(2,4,8)              120.9561         estimate D2E/DX2                !
 ! A11   A(2,4,9)              120.4222         estimate D2E/DX2                !
 ! A12   A(8,4,9)              118.6217         estimate D2E/DX2                !
 ! A13   A(3,6,8)              120.8914         estimate D2E/DX2                !
 ! A14   A(3,6,10)             118.4501         estimate D2E/DX2                !
 ! A15   A(8,6,10)             120.6585         estimate D2E/DX2                !
 ! A16   A(4,8,6)              118.8156         estimate D2E/DX2                !
 ! A17   A(4,8,11)             118.5982         estimate D2E/DX2                !
 ! A18   A(6,8,11)             122.5863         estimate D2E/DX2                !
 ! A19   A(8,11,12)            120.5429         estimate D2E/DX2                !
 ! A20   A(8,11,13)            118.9035         estimate D2E/DX2                !
 ! A21   A(12,11,13)           120.5535         estimate D2E/DX2                !
 ! A22   A(11,13,14)           110.9865         estimate D2E/DX2                !
 ! A23   A(11,13,15)           110.985          estimate D2E/DX2                !
 ! A24   A(11,13,16)           108.787          estimate D2E/DX2                !
 ! A25   A(14,13,15)           107.3977         estimate D2E/DX2                !
 ! A26   A(14,13,16)           109.3276         estimate D2E/DX2                !
 ! A27   A(15,13,16)           109.3274         estimate D2E/DX2                !
 ! D1    D(3,1,2,4)              0.0001         estimate D2E/DX2                !
 ! D2    D(3,1,2,5)           -180.0            estimate D2E/DX2                !
 ! D3    D(17,1,2,4)           180.0            estimate D2E/DX2                !
 ! D4    D(17,1,2,5)             0.0            estimate D2E/DX2                !
 ! D5    D(2,1,3,6)              0.0001         estimate D2E/DX2                !
 ! D6    D(2,1,3,7)            180.0            estimate D2E/DX2                !
 ! D7    D(17,1,3,6)          -179.9999         estimate D2E/DX2                !
 ! D8    D(17,1,3,7)             0.0            estimate D2E/DX2                !
 ! D9    D(1,2,4,8)              0.0001         estimate D2E/DX2                !
 ! D10   D(1,2,4,9)            179.9997         estimate D2E/DX2                !
 ! D11   D(5,2,4,8)           -179.9999         estimate D2E/DX2                !
 ! D12   D(5,2,4,9)             -0.0003         estimate D2E/DX2                !
 ! D13   D(1,3,6,8)             -0.0004         estimate D2E/DX2                !
 ! D14   D(1,3,6,10)           179.9999         estimate D2E/DX2                !
 ! D15   D(7,3,6,8)            179.9997         estimate D2E/DX2                !
 ! D16   D(7,3,6,10)            -0.0001         estimate D2E/DX2                !
 ! D17   D(2,4,8,6)             -0.0004         estimate D2E/DX2                !
 ! D18   D(2,4,8,11)           179.9993         estimate D2E/DX2                !
 ! D19   D(9,4,8,6)            180.0            estimate D2E/DX2                !
 ! D20   D(9,4,8,11)            -0.0003         estimate D2E/DX2                !
 ! D21   D(3,6,8,4)              0.0005         estimate D2E/DX2                !
 ! D22   D(3,6,8,11)          -179.9992         estimate D2E/DX2                !
 ! D23   D(10,6,8,4)          -179.9997         estimate D2E/DX2                !
 ! D24   D(10,6,8,11)            0.0006         estimate D2E/DX2                !
 ! D25   D(4,8,11,12)            0.0173         estimate D2E/DX2                !
 ! D26   D(4,8,11,13)          179.9834         estimate D2E/DX2                !
 ! D27   D(6,8,11,12)         -179.983          estimate D2E/DX2                !
 ! D28   D(6,8,11,13)           -0.0169         estimate D2E/DX2                !
 ! D29   D(8,11,13,14)         -59.6542         estimate D2E/DX2                !
 ! D30   D(8,11,13,15)          59.6948         estimate D2E/DX2                !
 ! D31   D(8,11,13,16)        -179.9803         estimate D2E/DX2                !
 ! D32   D(12,11,13,14)        120.3119         estimate D2E/DX2                !
 ! D33   D(12,11,13,15)       -120.3391         estimate D2E/DX2                !
 ! D34   D(12,11,13,16)         -0.0142         estimate D2E/DX2                !
 --------------------------------------------------------------------------------
 Trust Radius=3.00D-01 FncErr=1.00D-07 GrdErr=1.00D-06 EigMax=2.50D+02 EigMin=1.00D-04
 Number of steps in this run=     88 maximum allowed number of steps=    102.
 GradGradGradGradGradGradGradGradGradGradGradGradGradGradGradGradGradGrad

                          Input orientation:                          
 ---------------------------------------------------------------------
 Center     Atomic      Atomic             Coordinates (Angstroms)
 Number     Number       Type             X           Y           Z
 ---------------------------------------------------------------------
      1          6           0       -0.462192    0.019080   -0.000065
      2          6           0        0.203972    1.249198    0.000053
      3          6           0        0.246056   -1.184170   -0.000179
      4          6           0        1.597079    1.266274    0.000055
      5          1           0       -0.352735    2.180516    0.000142
      6          6           0        1.642636   -1.150882   -0.000173
      7          1           0       -0.275459   -2.135525   -0.000270
      8          6           0        2.334399    0.070510   -0.000062
      9          1           0        2.135341    2.209185    0.000141
     10          1           0        2.182407   -2.092784   -0.000260
     11          6           0        3.832922    0.150624   -0.000069
     12          8           0        4.397752    1.236453    0.000343
     13          6           0        4.637173   -1.138260    0.000191
     14          1           0        4.406112   -1.745445    0.884368
     15          1           0        4.406635   -1.745443   -0.884123
     16          1           0        5.700080   -0.889412    0.000503
     17         53           0       -2.606058   -0.019743   -0.000069
 ---------------------------------------------------------------------
                    Distance matrix (angstroms):
                    1          2          3          4          5
     1  C    0.000000
     2  C    1.398916   0.000000
     3  C    1.396218   2.433732   0.000000
     4  C    2.407507   1.393212   2.798203   0.000000
     5  H    2.164206   1.085023   3.417552   2.153512   0.000000
     6  C    2.408135   2.798238   1.396977   2.417585   3.883261
     7  H    2.162682   3.418509   1.084921   3.883122   4.316733
     8  C    2.797064   2.434754   2.436267   1.404810   3.416550
     9  H    3.397608   2.156794   3.883846   1.085729   2.488241
    10  H    3.384357   3.883690   2.138933   3.409674   4.968706
    11  C    4.297128   3.791588   3.827177   2.498733   4.651901
    12  O    5.010095   4.193799   4.805829   2.800832   4.843385
    13  C    5.229050   5.035199   4.391357   3.876075   5.992784
    14  H    5.253204   5.235254   4.289932   4.212259   6.232307
    15  H    5.253625   5.235649   4.290315   4.212578   6.232711
    16  H    6.228881   5.897530   5.461983   4.634825   6.786827
    17  I    2.144217   3.083258   3.080657   4.395475   3.149382
                    6          7          8          9         10
     6  C    0.000000
     7  H    2.156064   0.000000
     8  C    1.403686   3.417301   0.000000
     9  H    3.395999   4.968749   2.147919   0.000000
    10  H    1.085602   2.458238   2.168627   4.302226   0.000000
    11  C    2.547797   4.701624   1.500663   2.668231   2.785153
    12  O    3.645550   5.762737   2.369989   2.462663   3.998946
    13  C    2.994564   5.012833   2.600749   4.179061   2.633817
    14  H    2.961877   4.780361   2.893424   4.645143   2.418279
    15  H    2.962189   4.780728   2.893685   4.645404   2.418481
    16  H    4.065860   6.104086   3.499894   4.723205   3.717812
    17  I    4.396689   3.147733   4.941281   5.239178   5.217940
                   11         12         13         14         15
    11  C    0.000000
    12  O    1.223952   0.000000
    13  C    1.519224   2.386752   0.000000
    14  H    2.169298   3.110191   1.097193   0.000000
    15  H    2.169278   3.110316   1.097192   1.768491   0.000000
    16  H    2.137277   2.493062   1.091649   1.785599   1.785596
    17  I    6.441233   7.115573   7.329084   7.275356   7.275813
                   16         17
    16  H    0.000000
    17  I    8.351542   0.000000
 Symmetry turned off by external request.
 Stoichiometry    C8H7IO
 Framework group  C1[X(C8H7IO)]
 Deg. of freedom    45
 Full point group                 C1      NOp   1
 Rotational constants (GHZ):           3.6629308           0.2809275           0.2613418
 General basis read from cards:  (5D, 7F)
 ======================================================================================================
                                       Pseudopotential Parameters
 ======================================================================================================
  Center     Atomic      Valence      Angular      Power
  Number     Number     Electrons     Momentum     of R      Exponent        Coefficient   SO-Coeffient
 ======================================================================================================
    1          6
                                   No pseudopotential on this center.
    2          6
                                   No pseudopotential on this center.
    3          6
                                   No pseudopotential on this center.
    4          6
                                   No pseudopotential on this center.
    5          1
                                   No pseudopotential on this center.
    6          6
                                   No pseudopotential on this center.
    7          1
                                   No pseudopotential on this center.
    8          6
                                   No pseudopotential on this center.
    9          1
                                   No pseudopotential on this center.
   10          1
                                   No pseudopotential on this center.
   11          6
                                   No pseudopotential on this center.
   12          8
                                   No pseudopotential on this center.
   13          6
                                   No pseudopotential on this center.
   14          1
                                   No pseudopotential on this center.
   15          1
                                   No pseudopotential on this center.
   16          1
                                   No pseudopotential on this center.
   17         53            7
                                      G and up 
                                                     2        1.0000000        0.00000000    0.00000000
                                      S - G
                                                     2        3.5112000       83.11386300    0.00000000
                                                     2        1.7556000        5.20187600    0.00000000
                                      P - G
                                                     2        2.9688000       82.81110900    0.00000000
                                                     2        1.4844000        3.37968200    0.00000000
                                      D - G
                                                     2        1.9066000       10.30427700    0.00000000
                                                     2        0.9533000        7.58803200    0.00000000
                                      F - G
                                                     2        2.3075000      -21.47793600    0.00000000
 ======================================================================================================
   187 basis functions,   335 primitive gaussians,   196 cartesian basis functions
    35 alpha electrons       35 beta electrons
       nuclear repulsion energy       444.2270265999 Hartrees.
 NAtoms=   17 NActive=   17 NUniq=   17 SFac= 1.00D+00 NAtFMM=   60 NAOKFM=F Big=F
 Integral buffers will be    131072 words long.
 Raffenetti 2 integral format.
 Two-electron integral symmetry is turned off.
 Nuclear repulsion after empirical dispersion term =      444.2128510302 Hartrees.
 One-electron integrals computed using PRISM.
   1 Symmetry operations used in ECPInt.
 ECPInt:  NShTT=    2080 NPrTT=   10774 LenC2=    2055 LenP2D=    7692.
 LDataN:  DoStor=T MaxTD1= 6 Len=  172
 NBasis=   187 RedAO= T EigKep=  2.46D-06  NBF=   187
 NBsUse=   187 1.00D-06 EigRej= -1.00D+00 NBFU=   187
 Defaulting to unpruned grid for atomic number  53.
 ExpMin= 3.26D-02 ExpMax= 5.48D+03 ExpMxC= 8.25D+02 IAcc=3 IRadAn=         5 AccDes= 0.00D+00
 Harris functional with IExCor=  402 and IRadAn=       5 diagonalized for initial guess.
 HarFok:  IExCor=  402 AccDes= 0.00D+00 IRadAn=         5 IDoV= 1 UseB2=F ITyADJ=14
 ICtDFT=  3500011 ScaDFX=  1.000000  1.000000  1.000000  1.000000
 Defaulting to unpruned grid for atomic number  53.
 FoFCou: FMM=F IPFlag=           0 FMFlag=      100000 FMFlg1=           0
         NFxFlg=           0 DoJE=T BraDBF=F KetDBF=T FulRan=T
         wScrn=  0.000000 ICntrl=       500 IOpCl=  0 I1Cent=   200000004 NGrid=           0
         NMat0=    1 NMatS0=      1 NMatT0=    0 NMatD0=    1 NMtDS0=    0 NMtDT0=    0
 Symmetry not used in FoFCou.
 Requested convergence on RMS density matrix=1.00D-08 within1000 cycles.
 Requested convergence on MAX density matrix=1.00D-06.
 Requested convergence on             energy=1.00D-06.
 No special actions if energy rises.
 Defaulting to unpruned grid for atomic number  53.
 Defaulting to unpruned grid for atomic number  53.
 Defaulting to unpruned grid for atomic number  53.
 Defaulting to unpruned grid for atomic number  53.
 Defaulting to unpruned grid for atomic number  53.
 Defaulting to unpruned grid for atomic number  53.
 Defaulting to unpruned grid for atomic number  53.
 Defaulting to unpruned grid for atomic number  53.
 Defaulting to unpruned grid for atomic number  53.
 Defaulting to unpruned grid for atomic number  53.
 Defaulting to unpruned grid for atomic number  53.
 Defaulting to unpruned grid for atomic number  53.
 Defaulting to unpruned grid for atomic number  53.
 Defaulting to unpruned grid for atomic number  53.
 Defaulting to unpruned grid for atomic number  53.
 Defaulting to unpruned grid for atomic number  53.
 Defaulting to unpruned grid for atomic number  53.
 Defaulting to unpruned grid for atomic number  53.
 Defaulting to unpruned grid for atomic number  53.
 Defaulting to unpruned grid for atomic number  53.
 Defaulting to unpruned grid for atomic number  53.
 Defaulting to unpruned grid for atomic number  53.
 Defaulting to unpruned grid for atomic number  53.
 Defaulting to unpruned grid for atomic number  53.
 Defaulting to unpruned grid for atomic number  53.
 Defaulting to unpruned grid for atomic number  53.
 Defaulting to unpruned grid for atomic number  53.
 Defaulting to unpruned grid for atomic number  53.
 Defaulting to unpruned grid for atomic number  53.
 Defaulting to unpruned grid for atomic number  53.
 Defaulting to unpruned grid for atomic number  53.
 Defaulting to unpruned grid for atomic number  53.
 SCF Done:  E(RB3LYP) =  -395.727311204     A.U. after   15 cycles
            NFock= 15  Conv=0.93D-08     -V/T= 2.0276

 **********************************************************************

            Population analysis using the SCF Density.

 **********************************************************************

 Alpha  occ. eigenvalues --  -19.15251 -10.29141 -10.26290 -10.22328 -10.22184
 Alpha  occ. eigenvalues --  -10.21987 -10.21926 -10.21565 -10.19587  -1.05351
 Alpha  occ. eigenvalues --   -0.89036  -0.80226  -0.77973  -0.75309  -0.70611
 Alpha  occ. eigenvalues --   -0.63864  -0.63135  -0.57557  -0.51363  -0.49086
 Alpha  occ. eigenvalues --   -0.47711  -0.45843  -0.45674  -0.45361  -0.43333
 Alpha  occ. eigenvalues --   -0.40417  -0.40217  -0.37511  -0.37364  -0.36094
 Alpha  occ. eigenvalues --   -0.30919  -0.28374  -0.28055  -0.26766  -0.25708
 Alpha virt. eigenvalues --   -0.07914  -0.05426  -0.03856  -0.00354   0.00973
 Alpha virt. eigenvalues --    0.01102   0.02093   0.03440   0.03867   0.03972
 Alpha virt. eigenvalues --    0.04850   0.05318   0.05937   0.06339   0.07487
 Alpha virt. eigenvalues --    0.07961   0.08631   0.08777   0.09409   0.11023
 Alpha virt. eigenvalues --    0.11444   0.11679   0.13211   0.13933   0.14016
 Alpha virt. eigenvalues --    0.14387   0.14552   0.16044   0.16197   0.17270
 Alpha virt. eigenvalues --    0.18530   0.18713   0.18899   0.19921   0.20640
 Alpha virt. eigenvalues --    0.21421   0.22046   0.22389   0.22439   0.23538
 Alpha virt. eigenvalues --    0.24594   0.25553   0.26193   0.27614   0.28567
 Alpha virt. eigenvalues --    0.28887   0.29275   0.30638   0.30804   0.31140
 Alpha virt. eigenvalues --    0.31853   0.32898   0.33779   0.34783   0.39201
 Alpha virt. eigenvalues --    0.40360   0.42849   0.47932   0.53578   0.55004
 Alpha virt. eigenvalues --    0.63989   0.64176   0.65566   0.66112   0.66743
 Alpha virt. eigenvalues --    0.68385   0.69594   0.70126   0.70896   0.71759
 Alpha virt. eigenvalues --    0.72000   0.73341   0.73867   0.75300   0.77471
 Alpha virt. eigenvalues --    0.79458   0.79978   0.82745   0.84087   0.86685
 Alpha virt. eigenvalues --    0.89873   0.93115   0.93632   0.94216   0.98328
 Alpha virt. eigenvalues --    0.99329   1.04758   1.07319   1.09159   1.10060
 Alpha virt. eigenvalues --    1.12425   1.13453   1.17890   1.20306   1.21731
 Alpha virt. eigenvalues --    1.24278   1.24996   1.27930   1.31936   1.32497
 Alpha virt. eigenvalues --    1.34789   1.36898   1.37723   1.40228   1.41748
 Alpha virt. eigenvalues --    1.45354   1.45523   1.46430   1.46790   1.47951
 Alpha virt. eigenvalues --    1.50669   1.70402   1.71597   1.74136   1.76580
 Alpha virt. eigenvalues --    1.77478   1.81756   1.84619   1.85932   1.96922
 Alpha virt. eigenvalues --    1.98497   2.00855   2.01919   2.05425   2.07355
 Alpha virt. eigenvalues --    2.07981   2.12133   2.14431   2.15167   2.16690
 Alpha virt. eigenvalues --    2.25155   2.26506   2.27113   2.28035   2.29892
 Alpha virt. eigenvalues --    2.41720   2.41980   2.51011   2.56810   2.60026
 Alpha virt. eigenvalues --    2.61157   2.62100   2.64249   2.73893   2.74683
 Alpha virt. eigenvalues --    2.78129   2.88184   2.98610   3.10408   3.19577
 Alpha virt. eigenvalues --    3.36590  15.06213
          Condensed to atoms (all electrons):
               1          2          3          4          5          6
     1  C    7.072929   0.436525   0.450290  -0.524262   0.000644  -0.505537
     2  C    0.436525   7.764319  -0.772712  -0.723213   0.277660  -0.003208
     3  C    0.450290  -0.772712   8.348020   0.069473   0.062735  -1.312627
     4  C   -0.524262  -0.723213   0.069473  11.329360  -0.011112  -4.185792
     5  H    0.000644   0.277660   0.062735  -0.011112   0.500682  -0.037218
     6  C   -0.505537  -0.003208  -1.312627  -4.185792  -0.037218  12.457242
     7  H    0.007410   0.043185   0.221946  -0.012782  -0.000144   0.026639
     8  C   -0.948330  -0.994122  -1.108251  -1.908258   0.009683   1.357141
     9  H    0.031355  -0.120000  -0.035621   0.363711  -0.004659   0.050658
    10  H    0.018879  -0.022837   0.024605   0.084137   0.000013   0.126670
    11  C   -0.032192   0.411966   0.529253   1.185595   0.002239  -1.040045
    12  O    0.002139   0.066514   0.016865   0.244324   0.000196  -0.179568
    13  C   -0.012327  -0.057746  -0.052862   0.035167   0.000078  -0.167533
    14  H    0.001967  -0.001696   0.027922  -0.028078   0.000000   0.053157
    15  H    0.001957  -0.001701   0.027972  -0.027960   0.000000   0.052891
    16  H    0.000427  -0.002078  -0.007006  -0.018563   0.000000  -0.002468
    17  I   -0.708306   0.179691   0.141447   0.178105  -0.003967   0.218295
               7          8          9         10         11         12
     1  C    0.007410  -0.948330   0.031355   0.018879  -0.032192   0.002139
     2  C    0.043185  -0.994122  -0.120000  -0.022837   0.411966   0.066514
     3  C    0.221946  -1.108251  -0.035621   0.024605   0.529253   0.016865
     4  C   -0.012782  -1.908258   0.363711   0.084137   1.185595   0.244324
     5  H   -0.000144   0.009683  -0.004659   0.000013   0.002239   0.000196
     6  C    0.026639   1.357141   0.050658   0.126670  -1.040045  -0.179568
     7  H    0.503670   0.018323   0.000012  -0.005322  -0.001554   0.000027
     8  C    0.018323  12.183637   0.013650   0.048328  -2.820283  -0.494481
     9  H    0.000012   0.013650   0.487234  -0.000133  -0.030252   0.005981
    10  H   -0.005322   0.048328  -0.000133   0.536013   0.006908  -0.000179
    11  C   -0.001554  -2.820283  -0.030252   0.006908   7.903352   0.563910
    12  O    0.000027  -0.494481   0.005981  -0.000179   0.563910   8.243180
    13  C    0.001981  -0.032383   0.012362  -0.003421  -0.824979  -0.052712
    14  H   -0.000002  -0.028647  -0.000003  -0.000938  -0.086642   0.002481
    15  H   -0.000002  -0.028597  -0.000003  -0.000938  -0.086553   0.002501
    16  H    0.000000   0.081470  -0.000007   0.000103  -0.164134   0.001149
    17  I   -0.003941   0.031578  -0.000544  -0.000508  -0.003340  -0.000032
              13         14         15         16         17
     1  C   -0.012327   0.001967   0.001957   0.000427  -0.708306
     2  C   -0.057746  -0.001696  -0.001701  -0.002078   0.179691
     3  C   -0.052862   0.027922   0.027972  -0.007006   0.141447
     4  C    0.035167  -0.028078  -0.027960  -0.018563   0.178105
     5  H    0.000078   0.000000   0.000000   0.000000  -0.003967
     6  C   -0.167533   0.053157   0.052891  -0.002468   0.218295
     7  H    0.001981  -0.000002  -0.000002   0.000000  -0.003941
     8  C   -0.032383  -0.028647  -0.028597   0.081470   0.031578
     9  H    0.012362  -0.000003  -0.000003  -0.000007  -0.000544
    10  H   -0.003421  -0.000938  -0.000938   0.000103  -0.000508
    11  C   -0.824979  -0.086642  -0.086553  -0.164134  -0.003340
    12  O   -0.052712   0.002481   0.002501   0.001149  -0.000032
    13  C    6.828117   0.395241   0.395186   0.459335   0.000291
    14  H    0.395241   0.489370  -0.030112  -0.021105   0.000005
    15  H    0.395186  -0.030112   0.489390  -0.021106   0.000005
    16  H    0.459335  -0.021105  -0.021106   0.450111  -0.000002
    17  I    0.000291   0.000005   0.000005  -0.000002   6.883945
 Mulliken charges:
               1
     1  C    0.706433
     2  C   -0.480546
     3  C   -0.631448
     4  C   -0.049853
     5  H    0.203170
     6  C   -0.908697
     7  H    0.200554
     8  C    0.619542
     9  H    0.226261
    10  H    0.188617
    11  C    0.486751
    12  O   -0.422294
    13  C   -0.923795
    14  H    0.227080
    15  H    0.227072
    16  H    0.243873
    17  I    0.087280
 Sum of Mulliken charges =   0.00000
 Mulliken charges with hydrogens summed into heavy atoms:
               1
     1  C    0.706433
     2  C   -0.277377
     3  C   -0.430893
     4  C    0.176408
     6  C   -0.720080
     8  C    0.619542
    11  C    0.486751
    12  O   -0.422294
    13  C   -0.225770
    17  I    0.087280
 Electronic spatial extent (au):  <R**2>=           2485.8364
 Charge=              0.0000 electrons
 Dipole moment (field-independent basis, Debye):
    X=             -0.5195    Y=             -2.4682    Z=             -0.0005  Tot=              2.5223
 Quadrupole moment (field-independent basis, Debye-Ang):
   XX=            -81.1057   YY=            -69.7397   ZZ=            -75.8703
   XY=            -12.3268   XZ=             -0.0025   YZ=             -0.0003
 Traceless Quadrupole moment (field-independent basis, Debye-Ang):
   XX=             -5.5338   YY=              5.8322   ZZ=             -0.2984
   XY=            -12.3268   XZ=             -0.0025   YZ=             -0.0003
 Octapole moment (field-independent basis, Debye-Ang**2):
  XXX=           -230.3335  YYY=             -1.8128  ZZZ=              0.0023  XYY=            -62.0418
  XXY=            -56.9266  XXZ=             -0.0101  XZZ=            -54.8514  YZZ=             -0.2539
  YYZ=             -0.0004  XYZ=             -0.0044
 Hexadecapole moment (field-independent basis, Debye-Ang**3):
 XXXX=          -3546.1376 YYYY=           -452.4482 ZZZZ=           -109.3469 XXXY=           -241.1698
 XXXZ=             -0.0901 YYYX=              1.9395 YYYZ=             -0.0105 ZZZX=             -0.0478
 ZZZY=             -0.0153 XXYY=           -696.1959 XXZZ=           -586.3098 YYZZ=           -102.4630
 XXYZ=             -0.0247 YYXZ=             -0.0201 ZZXY=              3.9409
 N-N= 4.442128510302D+02 E-N=-1.803077462621D+03  KE= 3.851082358600D+02
 Evaluate density.
 Using the total density.
 Monte-Carlo method of calculating molar volume:
 based on  0.001 e/bohr**3 density envelope.
 Number of points per bohr**3 =   20 CutOff= 1.00D-04
 Using the SCF density.
 There are       508 points.  Will hold       508 in memory.
 LenV=  8052925196 MDV=  8053063680.
 Box volume =16418.063 fraction occupied=0.089
 Integrated density= 5.5103613472172889D+01 error=-1.4896386527827111D+01
 Molar volume = 1454.356 bohr**3/mol (129.785 cm**3/mol)
 Recommended a0 for SCRF calculation =  4.59 angstrom (  8.68 bohr)
   1 Symmetry operations used in ECPInt.
 ECPInt:  NShTT=    2080 NPrTT=   10774 LenC2=    2055 LenP2D=    7692.
 LDataN:  DoStor=T MaxTD1= 7 Len=  274
 Calling FoFJK, ICntrl=      2127 FMM=F ISym2X=0 I1Cent= 0 IOpClX= 0 NMat=1 NMatS=1 NMatT=0.
 Defaulting to unpruned grid for atomic number  53.
 Defaulting to unpruned grid for atomic number  53.
 Defaulting to unpruned grid for atomic number  53.
 Defaulting to unpruned grid for atomic number  53.
 Defaulting to unpruned grid for atomic number  53.
 Defaulting to unpruned grid for atomic number  53.
 Defaulting to unpruned grid for atomic number  53.
 Defaulting to unpruned grid for atomic number  53.
 Defaulting to unpruned grid for atomic number  53.
 Defaulting to unpruned grid for atomic number  53.
 Defaulting to unpruned grid for atomic number  53.
 Defaulting to unpruned grid for atomic number  53.
 Defaulting to unpruned grid for atomic number  53.
 Defaulting to unpruned grid for atomic number  53.
 Defaulting to unpruned grid for atomic number  53.
 Defaulting to unpruned grid for atomic number  53.
 Defaulting to unpruned grid for atomic number  53.
 Defaulting to unpruned grid for atomic number  53.
 Defaulting to unpruned grid for atomic number  53.
 Defaulting to unpruned grid for atomic number  53.
 Defaulting to unpruned grid for atomic number  53.
 Defaulting to unpruned grid for atomic number  53.
 Defaulting to unpruned grid for atomic number  53.
 Defaulting to unpruned grid for atomic number  53.
 Defaulting to unpruned grid for atomic number  53.
 Defaulting to unpruned grid for atomic number  53.
 Defaulting to unpruned grid for atomic number  53.
 Defaulting to unpruned grid for atomic number  53.
 Defaulting to unpruned grid for atomic number  53.
 Defaulting to unpruned grid for atomic number  53.
 Defaulting to unpruned grid for atomic number  53.
 Defaulting to unpruned grid for atomic number  53.
 -------------------------------------------------------------------
 Center     Atomic                   Forces (Hartrees/Bohr)
 Number     Number              X              Y              Z
 -------------------------------------------------------------------
      1        6           0.000029934   -0.000002013   -0.000000030
      2        6          -0.000031972   -0.000009362    0.000001122
      3        6           0.000005460    0.000045774    0.000001595
      4        6           0.000077577    0.000008785   -0.000001955
      5        1           0.000003826   -0.000017638    0.000000106
      6        6           0.000060465    0.000032760   -0.000002318
      7        1           0.000000627    0.000012369    0.000000242
      8        6          -0.000145539   -0.000103799   -0.000021988
      9        1          -0.000017195   -0.000024993    0.000000026
     10        1          -0.000016895    0.000012595   -0.000001175
     11        6           0.000026466   -0.000083442    0.000078453
     12        8           0.000045156    0.000013205   -0.000027446
     13        6          -0.000002693   -0.000008007   -0.000025739
     14        1          -0.000013008    0.000076793    0.000009769
     15        1          -0.000008932    0.000067539   -0.000009712
     16        1           0.000025196   -0.000015023   -0.000000808
     17       53          -0.000038473   -0.000005544   -0.000000142
 -------------------------------------------------------------------
 Cartesian Forces:  Max     0.000145539 RMS     0.000039617

 GradGradGradGradGradGradGradGradGradGradGradGradGradGradGradGradGradGrad
 Berny optimization.
 FormGI is forming the generalized inverse of G from B-inverse, IUseBI=4.
 Internal  Forces:  Max     0.000101316 RMS     0.000028839
 Search for a local minimum.
 Step number   1 out of a maximum of   88
 All quantities printed in internal units (Hartrees-Bohrs-Radians)
 Mixed Optimization -- En-DIIS/RFO-DIIS
 Second derivative matrix not updated -- first step.
 ITU=  0
     Eigenvalues ---    0.00512   0.00610   0.00757   0.01639   0.02045
     Eigenvalues ---    0.02081   0.02100   0.02117   0.02121   0.02132
     Eigenvalues ---    0.02134   0.02148   0.07156   0.07320   0.12589
     Eigenvalues ---    0.16000   0.16000   0.16000   0.16000   0.16000
     Eigenvalues ---    0.16000   0.16000   0.22000   0.22978   0.24000
     Eigenvalues ---    0.25000   0.25000   0.25000   0.25000   0.30441
     Eigenvalues ---    0.32308   0.33994   0.33995   0.34623   0.35311
     Eigenvalues ---    0.35326   0.35394   0.35406   0.41629   0.41773
     Eigenvalues ---    0.45222   0.45496   0.46098   0.46536   0.93654
 RFO step:  Lambda=-4.72786076D-07 EMin= 5.11650243D-03
 Linear search not attempted -- first point.
 Iteration  1 RMS(Cart)=  0.00075793 RMS(Int)=  0.00000066
 Iteration  2 RMS(Cart)=  0.00000093 RMS(Int)=  0.00000037
 Variable       Old X    -DE/DX   Delta X   Delta X   Delta X     New X
                                 (Linear)    (Quad)   (Total)
    R1        2.64357  -0.00003   0.00000  -0.00006  -0.00006   2.64351
    R2        2.63847  -0.00003   0.00000  -0.00006  -0.00006   2.63841
    R3        4.05198   0.00004   0.00000   0.00031   0.00031   4.05229
    R4        2.63279   0.00003   0.00000   0.00006   0.00006   2.63285
    R5        2.05040  -0.00002   0.00000  -0.00005  -0.00005   2.05035
    R6        2.63990   0.00000   0.00000   0.00001   0.00001   2.63991
    R7        2.05020  -0.00001   0.00000  -0.00003  -0.00003   2.05017
    R8        2.65471  -0.00003   0.00000  -0.00006  -0.00006   2.65465
    R9        2.05173  -0.00003   0.00000  -0.00009  -0.00009   2.05165
   R10        2.65258  -0.00008   0.00000  -0.00017  -0.00017   2.65241
   R11        2.05149  -0.00002   0.00000  -0.00006  -0.00006   2.05144
   R12        2.83584   0.00007   0.00000   0.00023   0.00023   2.83607
   R13        2.31293   0.00003   0.00000   0.00003   0.00003   2.31297
   R14        2.87092  -0.00010   0.00000  -0.00033  -0.00033   2.87058
   R15        2.07339  -0.00003   0.00000  -0.00009  -0.00009   2.07330
   R16        2.07339  -0.00003   0.00000  -0.00008  -0.00008   2.07331
   R17        2.06292   0.00002   0.00000   0.00006   0.00006   2.06298
    A1        2.11326  -0.00002   0.00000  -0.00008  -0.00008   2.11318
    A2        2.08523   0.00002   0.00000   0.00007   0.00007   2.08531
    A3        2.08469   0.00000   0.00000   0.00001   0.00001   2.08470
    A4        2.07938  -0.00001   0.00000  -0.00001  -0.00001   2.07937
    A5        2.10649   0.00000   0.00000  -0.00003  -0.00003   2.10647
    A6        2.09731   0.00001   0.00000   0.00004   0.00004   2.09735
    A7        2.07897   0.00003   0.00000   0.00013   0.00013   2.07910
    A8        2.10814  -0.00002   0.00000  -0.00010  -0.00010   2.10804
    A9        2.09607  -0.00001   0.00000  -0.00003  -0.00003   2.09605
   A10        2.11108   0.00000   0.00000   0.00001   0.00001   2.11109
   A11        2.10176   0.00000   0.00000  -0.00002  -0.00002   2.10174
   A12        2.07034   0.00000   0.00000   0.00001   0.00001   2.07035
   A13        2.10995  -0.00002   0.00000  -0.00008  -0.00008   2.10987
   A14        2.06734   0.00000   0.00000  -0.00001  -0.00001   2.06733
   A15        2.10589   0.00002   0.00000   0.00010   0.00010   2.10599
   A16        2.07372   0.00001   0.00000   0.00004   0.00004   2.07377
   A17        2.06993  -0.00005   0.00000  -0.00021  -0.00021   2.06972
   A18        2.13953   0.00004   0.00000   0.00017   0.00017   2.13970
   A19        2.10387   0.00004   0.00000   0.00015   0.00015   2.10402
   A20        2.07526   0.00001   0.00000   0.00002   0.00002   2.07528
   A21        2.10406  -0.00004   0.00000  -0.00017  -0.00017   2.10388
   A22        1.93708  -0.00009   0.00000  -0.00054  -0.00054   1.93654
   A23        1.93705  -0.00007   0.00000  -0.00042  -0.00042   1.93663
   A24        1.89869   0.00005   0.00000   0.00034   0.00034   1.89903
   A25        1.87444   0.00008   0.00000   0.00051   0.00051   1.87496
   A26        1.90813   0.00001   0.00000   0.00006   0.00006   1.90819
   A27        1.90812   0.00001   0.00000   0.00006   0.00006   1.90818
    D1        0.00000   0.00000   0.00000   0.00000   0.00000   0.00000
    D2       -3.14159   0.00000   0.00000   0.00000   0.00000   3.14159
    D3        3.14159   0.00000   0.00000   0.00000   0.00000  -3.14159
    D4        0.00000   0.00000   0.00000   0.00001   0.00001   0.00001
    D5        0.00000   0.00000   0.00000   0.00000   0.00000   0.00000
    D6        3.14159   0.00000   0.00000   0.00001   0.00001  -3.14158
    D7       -3.14159   0.00000   0.00000  -0.00001  -0.00001   3.14158
    D8        0.00000   0.00000   0.00000   0.00000   0.00000   0.00000
    D9        0.00000   0.00000   0.00000  -0.00002  -0.00002  -0.00002
   D10        3.14159   0.00000   0.00000   0.00002   0.00002  -3.14158
   D11       -3.14159   0.00000   0.00000  -0.00002  -0.00002   3.14157
   D12        0.00000   0.00000   0.00000   0.00002   0.00002   0.00001
   D13       -0.00001   0.00000   0.00000   0.00003   0.00003   0.00003
   D14        3.14159   0.00000   0.00000   0.00001   0.00001  -3.14158
   D15        3.14159   0.00000   0.00000   0.00002   0.00002  -3.14157
   D16        0.00000   0.00000   0.00000   0.00000   0.00000   0.00000
   D17       -0.00001   0.00000   0.00000   0.00005   0.00005   0.00004
   D18        3.14158   0.00000   0.00000   0.00006   0.00006  -3.14154
   D19        3.14159   0.00000   0.00000   0.00001   0.00001  -3.14158
   D20        0.00000   0.00000   0.00000   0.00002   0.00002   0.00002
   D21        0.00001   0.00000   0.00000  -0.00006  -0.00006  -0.00005
   D22       -3.14158   0.00000   0.00000  -0.00007  -0.00007   3.14154
   D23       -3.14159   0.00000   0.00000  -0.00004  -0.00004   3.14156
   D24        0.00001   0.00000   0.00000  -0.00005  -0.00005  -0.00004
   D25        0.00030  -0.00001   0.00000  -0.00194  -0.00194  -0.00164
   D26        3.14130   0.00001   0.00000   0.00164   0.00164  -3.14024
   D27       -3.14130  -0.00001   0.00000  -0.00193  -0.00193   3.13996
   D28       -0.00029   0.00001   0.00000   0.00165   0.00165   0.00136
   D29       -1.04116  -0.00001   0.00000  -0.00194  -0.00194  -1.04310
   D30        1.04187  -0.00001   0.00000  -0.00193  -0.00193   1.03994
   D31       -3.14125  -0.00001   0.00000  -0.00190  -0.00190   3.14004
   D32        2.09984   0.00001   0.00000   0.00164   0.00164   2.10148
   D33       -2.10031   0.00001   0.00000   0.00165   0.00165  -2.09866
   D34       -0.00025   0.00001   0.00000   0.00168   0.00168   0.00143
         Item               Value     Threshold  Converged?
 Maximum Force            0.000101     0.000450     YES
 RMS     Force            0.000029     0.000300     YES
 Maximum Displacement     0.002743     0.001800     NO 
 RMS     Displacement     0.000758     0.001200     YES
 Predicted change in Energy=-2.363892D-07
 GradGradGradGradGradGradGradGradGradGradGradGradGradGradGradGradGradGrad

                          Input orientation:                          
 ---------------------------------------------------------------------
 Center     Atomic      Atomic             Coordinates (Angstroms)
 Number     Number       Type             X           Y           Z
 ---------------------------------------------------------------------
      1          6           0       -0.462233    0.019106   -0.000369
      2          6           0        0.204032    1.249131   -0.000140
      3          6           0        0.245983   -1.184125   -0.000069
      4          6           0        1.597172    1.266054    0.000400
      5          1           0       -0.352597    2.180466   -0.000377
      6          6           0        1.642571   -1.151031    0.000467
      7          1           0       -0.275632   -2.135406   -0.000256
      8          6           0        2.334357    0.070244    0.000737
      9          1           0        2.135497    2.208877    0.000599
     10          1           0        2.182183   -2.092991    0.000686
     11          6           0        3.832992    0.150533    0.001383
     12          8           0        4.397867    1.236357   -0.000116
     13          6           0        4.637324   -1.138092   -0.000047
     14          1           0        4.407114   -1.745315    0.884264
     15          1           0        4.405441   -1.744507   -0.884483
     16          1           0        5.700312   -0.889450   -0.000942
     17         53           0       -2.606262   -0.019674   -0.001208
 ---------------------------------------------------------------------
                    Distance matrix (angstroms):
                    1          2          3          4          5
     1  C    0.000000
     2  C    1.398883   0.000000
     3  C    1.396186   2.433618   0.000000
     4  C    2.407495   1.393242   2.798051   0.000000
     5  H    2.164140   1.084998   3.417422   2.153543   0.000000
     6  C    2.408199   2.798245   1.396980   2.417512   3.883242
     7  H    2.162577   3.418358   1.084904   3.882953   4.316558
     8  C    2.797058   2.434760   2.436133   1.404779   3.416542
     9  H    3.397544   2.156773   3.883648   1.085684   2.488256
    10  H    3.384360   3.883666   2.138903   3.409607   4.968656
    11  C    4.297236   3.791605   3.827263   2.498656   4.651858
    12  O    5.010218   4.193854   4.805921   2.800853   4.843372
    13  C    5.229206   5.035168   4.391582   3.875880   5.992674
    14  H    5.254170   5.235912   4.290919   4.212521   6.232912
    15  H    5.252261   5.234097   4.289208   4.211042   6.231050
    16  H    6.229160   5.897679   5.462283   4.634863   6.786905
    17  I    2.144379   3.083443   3.080787   4.395675   3.149544
                    6          7          8          9         10
     6  C    0.000000
     7  H    2.156037   0.000000
     8  C    1.403595   3.417152   0.000000
     9  H    3.395874   4.968534   2.147859   0.000000
    10  H    1.085573   2.458181   2.168580   4.302121   0.000000
    11  C    2.547943   4.701734   1.500784   2.668008   2.785420
    12  O    3.645721   5.762845   2.370211   2.462542   3.999227
    13  C    2.994781   5.013160   2.600718   4.178677   2.634302
    14  H    2.962595   4.781490   2.893648   4.645077   2.419071
    15  H    2.961216   4.779864   2.892460   4.643841   2.418231
    16  H    4.066164   6.104450   3.500095   4.723085   3.718298
    17  I    4.396880   3.147723   4.941437   5.239344   5.218031
                   11         12         13         14         15
    11  C    0.000000
    12  O    1.223970   0.000000
    13  C    1.519048   2.386493   0.000000
    14  H    2.168718   3.110078   1.097144   0.000000
    15  H    2.168786   3.109295   1.097149   1.768749   0.000000
    16  H    2.137394   2.493074   1.091680   1.785625   1.785626
    17  I    6.441503   7.115859   7.329420   7.276629   7.274559
                   16         17
    16  H    0.000000
    17  I    8.351986   0.000000
 Symmetry turned off by external request.
 Stoichiometry    C8H7IO
 Framework group  C1[X(C8H7IO)]
 Deg. of freedom    45
 Full point group                 C1      NOp   1
 Rotational constants (GHZ):           3.6634362           0.2809024           0.2613228
 Basis read from rwf:  (5D, 7F)
 Pseudo-potential data read from rwf file.
   187 basis functions,   335 primitive gaussians,   196 cartesian basis functions
    35 alpha electrons       35 beta electrons
       nuclear repulsion energy       444.2282633774 Hartrees.
 NAtoms=   17 NActive=   17 NUniq=   17 SFac= 1.00D+00 NAtFMM=   60 NAOKFM=F Big=F
 Integral buffers will be    131072 words long.
 Raffenetti 2 integral format.
 Two-electron integral symmetry is turned off.
 Nuclear repulsion after empirical dispersion term =      444.2140872900 Hartrees.
 One-electron integrals computed using PRISM.
   1 Symmetry operations used in ECPInt.
 ECPInt:  NShTT=    2080 NPrTT=   10774 LenC2=    2055 LenP2D=    7692.
 LDataN:  DoStor=T MaxTD1= 6 Len=  172
 NBasis=   187 RedAO= T EigKep=  2.46D-06  NBF=   187
 NBsUse=   187 1.00D-06 EigRej= -1.00D+00 NBFU=   187
 Defaulting to unpruned grid for atomic number  53.
 Initial guess from the checkpoint file:  "ARYLHALIDE-coch3-gen-volume.chk"
 B after Tr=    -0.000147    0.000002   -0.000803
         Rot=    1.000000    0.000019    0.000102    0.000010 Ang=   0.01 deg.
 Requested convergence on RMS density matrix=1.00D-08 within1000 cycles.
 Requested convergence on MAX density matrix=1.00D-06.
 Requested convergence on             energy=1.00D-06.
 No special actions if energy rises.
 Defaulting to unpruned grid for atomic number  53.
 Defaulting to unpruned grid for atomic number  53.
 Defaulting to unpruned grid for atomic number  53.
 Defaulting to unpruned grid for atomic number  53.
 Defaulting to unpruned grid for atomic number  53.
 Defaulting to unpruned grid for atomic number  53.
 Defaulting to unpruned grid for atomic number  53.
 Defaulting to unpruned grid for atomic number  53.
 Defaulting to unpruned grid for atomic number  53.
 Defaulting to unpruned grid for atomic number  53.
 Defaulting to unpruned grid for atomic number  53.
 Defaulting to unpruned grid for atomic number  53.
 Defaulting to unpruned grid for atomic number  53.
 Defaulting to unpruned grid for atomic number  53.
 Defaulting to unpruned grid for atomic number  53.
 Defaulting to unpruned grid for atomic number  53.
 Defaulting to unpruned grid for atomic number  53.
 Defaulting to unpruned grid for atomic number  53.
 Defaulting to unpruned grid for atomic number  53.
 Defaulting to unpruned grid for atomic number  53.
 Defaulting to unpruned grid for atomic number  53.
 Defaulting to unpruned grid for atomic number  53.
 Defaulting to unpruned grid for atomic number  53.
 Defaulting to unpruned grid for atomic number  53.
 Defaulting to unpruned grid for atomic number  53.
 Defaulting to unpruned grid for atomic number  53.
 Defaulting to unpruned grid for atomic number  53.
 Defaulting to unpruned grid for atomic number  53.
 Defaulting to unpruned grid for atomic number  53.
 Defaulting to unpruned grid for atomic number  53.
 Defaulting to unpruned grid for atomic number  53.
 Defaulting to unpruned grid for atomic number  53.
 SCF Done:  E(RB3LYP) =  -395.727310945     A.U. after   10 cycles
            NFock= 10  Conv=0.69D-08     -V/T= 2.0276
   1 Symmetry operations used in ECPInt.
 ECPInt:  NShTT=    2080 NPrTT=   10774 LenC2=    2055 LenP2D=    7692.
 LDataN:  DoStor=T MaxTD1= 7 Len=  274
 Calling FoFJK, ICntrl=      2127 FMM=F ISym2X=0 I1Cent= 0 IOpClX= 0 NMat=1 NMatS=1 NMatT=0.
 Defaulting to unpruned grid for atomic number  53.
 Defaulting to unpruned grid for atomic number  53.
 Defaulting to unpruned grid for atomic number  53.
 Defaulting to unpruned grid for atomic number  53.
 Defaulting to unpruned grid for atomic number  53.
 Defaulting to unpruned grid for atomic number  53.
 Defaulting to unpruned grid for atomic number  53.
 Defaulting to unpruned grid for atomic number  53.
 Defaulting to unpruned grid for atomic number  53.
 Defaulting to unpruned grid for atomic number  53.
 Defaulting to unpruned grid for atomic number  53.
 Defaulting to unpruned grid for atomic number  53.
 Defaulting to unpruned grid for atomic number  53.
 Defaulting to unpruned grid for atomic number  53.
 Defaulting to unpruned grid for atomic number  53.
 Defaulting to unpruned grid for atomic number  53.
 Defaulting to unpruned grid for atomic number  53.
 Defaulting to unpruned grid for atomic number  53.
 Defaulting to unpruned grid for atomic number  53.
 Defaulting to unpruned grid for atomic number  53.
 Defaulting to unpruned grid for atomic number  53.
 Defaulting to unpruned grid for atomic number  53.
 Defaulting to unpruned grid for atomic number  53.
 Defaulting to unpruned grid for atomic number  53.
 Defaulting to unpruned grid for atomic number  53.
 Defaulting to unpruned grid for atomic number  53.
 Defaulting to unpruned grid for atomic number  53.
 Defaulting to unpruned grid for atomic number  53.
 Defaulting to unpruned grid for atomic number  53.
 Defaulting to unpruned grid for atomic number  53.
 Defaulting to unpruned grid for atomic number  53.
 Defaulting to unpruned grid for atomic number  53.
 -------------------------------------------------------------------
 Center     Atomic                   Forces (Hartrees/Bohr)
 Number     Number              X              Y              Z
 -------------------------------------------------------------------
      1        6           0.000005580   -0.000002038   -0.000000053
      2        6          -0.000010770    0.000001925   -0.000005328
      3        6          -0.000010717    0.000005393   -0.000008121
      4        6           0.000016710    0.000005960    0.000009496
      5        1           0.000000331    0.000001450   -0.000000694
      6        6           0.000021423    0.000004441    0.000012328
      7        1          -0.000000074   -0.000003304   -0.000001148
      8        6          -0.000036604   -0.000020037    0.000109855
      9        1          -0.000001820    0.000001779    0.000000016
     10        1          -0.000002482   -0.000004076    0.000005743
     11        6           0.000044796   -0.000005052   -0.000394431
     12        8          -0.000019264    0.000025381    0.000138832
     13        6          -0.000007896   -0.000016389    0.000128341
     14        1           0.000010298   -0.000017973    0.000003447
     15        1          -0.000010901    0.000027579   -0.000003428
     16        1          -0.000005931   -0.000002914    0.000004376
     17       53           0.000007321   -0.000002125    0.000000769
 -------------------------------------------------------------------
 Cartesian Forces:  Max     0.000394431 RMS     0.000064393

 GradGradGradGradGradGradGradGradGradGradGradGradGradGradGradGradGradGrad
 Berny optimization.
 Using GEDIIS/GDIIS optimizer.
 FormGI is forming the generalized inverse of G from B-inverse, IUseBI=4.
 Internal  Forces:  Max     0.000062529 RMS     0.000022382
 Search for a local minimum.
 Step number   2 out of a maximum of   88
 All quantities printed in internal units (Hartrees-Bohrs-Radians)
 Mixed Optimization -- En-DIIS/RFO-DIIS
 Swapping is turned off.
 Update second derivatives using D2CorX and points    1    2
 DE=  2.59D-07 DEPred=-2.36D-07 R=-1.10D+00
 Trust test=-1.10D+00 RLast= 5.80D-03 DXMaxT set to 1.50D-01
 ITU= -1  0
     Eigenvalues ---    0.00512   0.00757   0.01639   0.02022   0.02081
     Eigenvalues ---    0.02097   0.02117   0.02121   0.02132   0.02134
     Eigenvalues ---    0.02148   0.03020   0.07160   0.07355   0.10772
     Eigenvalues ---    0.13001   0.16000   0.16000   0.16000   0.16000
     Eigenvalues ---    0.16000   0.16406   0.21781   0.22752   0.24039
     Eigenvalues ---    0.24212   0.25000   0.25000   0.25387   0.29134
     Eigenvalues ---    0.31889   0.33871   0.34020   0.34608   0.35217
     Eigenvalues ---    0.35322   0.35384   0.35405   0.41404   0.41738
     Eigenvalues ---    0.44762   0.45276   0.46075   0.46517   0.93484
 En-DIIS/RFO-DIIS/Sim-DIIS IScMMF=       -3 using points:     2    1
 RFO step:  Lambda=-9.79230053D-07.
 DidBck=T Rises=T En-DIIS coefs:    0.41155    0.58845
 Iteration  1 RMS(Cart)=  0.00071326 RMS(Int)=  0.00000052
 Iteration  2 RMS(Cart)=  0.00000086 RMS(Int)=  0.00000014
 Variable       Old X    -DE/DX   Delta X   Delta X   Delta X     New X
                                 (Linear)    (Quad)   (Total)
    R1        2.64351   0.00000   0.00004  -0.00008  -0.00004   2.64347
    R2        2.63841   0.00000   0.00004  -0.00008  -0.00004   2.63837
    R3        4.05229  -0.00001  -0.00018   0.00036   0.00018   4.05247
    R4        2.63285   0.00000  -0.00003   0.00007   0.00004   2.63289
    R5        2.05035   0.00000   0.00003  -0.00006  -0.00003   2.05032
    R6        2.63991   0.00000   0.00000   0.00001   0.00001   2.63992
    R7        2.05017   0.00000   0.00002  -0.00004  -0.00002   2.05015
    R8        2.65465   0.00000   0.00003  -0.00007  -0.00004   2.65461
    R9        2.05165   0.00000   0.00005  -0.00010  -0.00005   2.05159
   R10        2.65241  -0.00001   0.00010  -0.00022  -0.00012   2.65229
   R11        2.05144   0.00000   0.00003  -0.00007  -0.00003   2.05140
   R12        2.83607   0.00001  -0.00014   0.00030   0.00016   2.83623
   R13        2.31297   0.00001  -0.00002   0.00005   0.00003   2.31299
   R14        2.87058   0.00000   0.00020  -0.00041  -0.00022   2.87037
   R15        2.07330   0.00001   0.00005  -0.00010  -0.00005   2.07325
   R16        2.07331  -0.00001   0.00005  -0.00011  -0.00006   2.07325
   R17        2.06298  -0.00001  -0.00004   0.00007   0.00003   2.06301
    A1        2.11318   0.00001   0.00005  -0.00009  -0.00004   2.11313
    A2        2.08531   0.00000  -0.00004   0.00009   0.00005   2.08535
    A3        2.08470  -0.00001  -0.00001   0.00000   0.00000   2.08470
    A4        2.07937  -0.00001   0.00001  -0.00003  -0.00002   2.07935
    A5        2.10647   0.00000   0.00002  -0.00002  -0.00001   2.10646
    A6        2.09735   0.00000  -0.00002   0.00005   0.00003   2.09738
    A7        2.07910   0.00000  -0.00007   0.00016   0.00008   2.07918
    A8        2.10804   0.00000   0.00006  -0.00012  -0.00006   2.10798
    A9        2.09605   0.00000   0.00002  -0.00003  -0.00002   2.09603
   A10        2.11109  -0.00001  -0.00001   0.00001   0.00000   2.11109
   A11        2.10174   0.00000   0.00001  -0.00003  -0.00001   2.10173
   A12        2.07035   0.00000   0.00000   0.00002   0.00001   2.07036
   A13        2.10987  -0.00001   0.00005  -0.00012  -0.00007   2.10980
   A14        2.06733   0.00000   0.00001  -0.00002  -0.00001   2.06732
   A15        2.10599   0.00001  -0.00006   0.00014   0.00008   2.10606
   A16        2.07377   0.00001  -0.00003   0.00007   0.00005   2.07381
   A17        2.06972  -0.00002   0.00012  -0.00028  -0.00016   2.06956
   A18        2.13970   0.00000  -0.00010   0.00021   0.00011   2.13982
   A19        2.10402  -0.00002  -0.00009   0.00016   0.00007   2.10409
   A20        2.07528  -0.00002  -0.00001   0.00000  -0.00001   2.07527
   A21        2.10388   0.00004   0.00010  -0.00016  -0.00005   2.10383
   A22        1.93654   0.00004   0.00032  -0.00059  -0.00027   1.93627
   A23        1.93663  -0.00005   0.00025  -0.00063  -0.00038   1.93625
   A24        1.89903   0.00000  -0.00020   0.00043   0.00023   1.89926
   A25        1.87496   0.00001  -0.00030   0.00065   0.00035   1.87530
   A26        1.90819  -0.00001  -0.00004   0.00008   0.00004   1.90823
   A27        1.90818   0.00001  -0.00004   0.00008   0.00004   1.90823
    D1        0.00000   0.00000   0.00000   0.00000   0.00001   0.00000
    D2        3.14159   0.00000   0.00000   0.00000   0.00000  -3.14159
    D3       -3.14159   0.00000   0.00000   0.00000  -0.00001   3.14159
    D4        0.00001   0.00000   0.00000   0.00000  -0.00001   0.00000
    D5        0.00000   0.00000   0.00000   0.00000   0.00000   0.00000
    D6       -3.14158   0.00000   0.00000   0.00000  -0.00001   3.14159
    D7        3.14158   0.00000   0.00001   0.00000   0.00001  -3.14159
    D8        0.00000   0.00000   0.00000   0.00000   0.00000   0.00000
    D9       -0.00002   0.00000   0.00001   0.00001   0.00002   0.00000
   D10       -3.14158   0.00000  -0.00001  -0.00001  -0.00002   3.14159
   D11        3.14157   0.00000   0.00001   0.00001   0.00002  -3.14159
   D12        0.00001   0.00000  -0.00001   0.00000  -0.00001   0.00000
   D13        0.00003   0.00000  -0.00002  -0.00001  -0.00003  -0.00001
   D14       -3.14158   0.00000  -0.00001   0.00000  -0.00001   3.14159
   D15       -3.14157   0.00000  -0.00001  -0.00001  -0.00002   3.14159
   D16        0.00000   0.00000   0.00000   0.00000   0.00000   0.00000
   D17        0.00004  -0.00001  -0.00003  -0.00002  -0.00005  -0.00001
   D18       -3.14154  -0.00001  -0.00004  -0.00002  -0.00006   3.14158
   D19       -3.14158   0.00000  -0.00001  -0.00001  -0.00001   3.14159
   D20        0.00002   0.00000  -0.00001  -0.00001  -0.00002   0.00000
   D21       -0.00005   0.00001   0.00003   0.00002   0.00006   0.00001
   D22        3.14154   0.00001   0.00004   0.00003   0.00007  -3.14158
   D23        3.14156   0.00000   0.00002   0.00001   0.00004  -3.14159
   D24       -0.00004   0.00000   0.00003   0.00002   0.00005   0.00001
   D25       -0.00164   0.00006   0.00114   0.00075   0.00189   0.00026
   D26       -3.14024  -0.00005  -0.00097  -0.00062  -0.00159   3.14136
   D27        3.13996   0.00006   0.00113   0.00075   0.00188  -3.14134
   D28        0.00136  -0.00005  -0.00097  -0.00063  -0.00160  -0.00024
   D29       -1.04310   0.00006   0.00114   0.00072   0.00186  -1.04124
   D30        1.03994   0.00006   0.00114   0.00073   0.00187   1.04181
   D31        3.14004   0.00005   0.00112   0.00071   0.00183  -3.14132
   D32        2.10148  -0.00005  -0.00097  -0.00066  -0.00163   2.09985
   D33       -2.09866  -0.00005  -0.00097  -0.00064  -0.00161  -2.10028
   D34        0.00143  -0.00006  -0.00099  -0.00066  -0.00165  -0.00022
         Item               Value     Threshold  Converged?
 Maximum Force            0.000063     0.000450     YES
 RMS     Force            0.000022     0.000300     YES
 Maximum Displacement     0.002659     0.001800     NO 
 RMS     Displacement     0.000713     0.001200     YES
 Predicted change in Energy=-4.896230D-07
 GradGradGradGradGradGradGradGradGradGradGradGradGradGradGradGradGradGrad

                          Input orientation:                          
 ---------------------------------------------------------------------
 Center     Atomic      Atomic             Coordinates (Angstroms)
 Number     Number       Type             X           Y           Z
 ---------------------------------------------------------------------
      1          6           0       -0.462245    0.019122   -0.000076
      2          6           0        0.204081    1.249091    0.000045
      3          6           0        0.245944   -1.184099   -0.000175
      4          6           0        1.597243    1.265909    0.000064
      5          1           0       -0.352496    2.180439    0.000123
      6          6           0        1.642539   -1.151139   -0.000152
      7          1           0       -0.275740   -2.135331   -0.000268
      8          6           0        2.334328    0.070061   -0.000038
      9          1           0        2.135612    2.208674    0.000154
     10          1           0        2.182040   -2.093141   -0.000230
     11          6           0        3.833041    0.150484   -0.000024
     12          8           0        4.397904    1.236333    0.000345
     13          6           0        4.637411   -1.137984    0.000181
     14          1           0        4.405968   -1.744561    0.884581
     15          1           0        4.406408   -1.744543   -0.884346
     16          1           0        5.700453   -0.889500    0.000447
     17         53           0       -2.606370   -0.019638   -0.000105
 ---------------------------------------------------------------------
                    Distance matrix (angstroms):
                    1          2          3          4          5
     1  C    0.000000
     2  C    1.398862   0.000000
     3  C    1.396163   2.433549   0.000000
     4  C    2.407482   1.393264   2.797954   0.000000
     5  H    2.164102   1.084982   3.417344   2.153565   0.000000
     6  C    2.408241   2.798261   1.396983   2.417473   3.883243
     7  H    2.162510   3.418265   1.084895   3.882846   4.316452
     8  C    2.797038   2.434762   2.436035   1.404759   3.416536
     9  H    3.397499   2.156760   3.883523   1.085655   2.488267
    10  H    3.384361   3.883663   2.138884   3.409576   4.968637
    11  C    4.297295   3.791608   3.827320   2.498593   4.651821
    12  O    5.010255   4.193843   4.805961   2.800817   4.843308
    13  C    5.229282   5.035131   4.391709   3.875735   5.992587
    14  H    5.252875   5.234521   4.289838   4.211204   6.231442
    15  H    5.253212   5.234840   4.290141   4.211462   6.231768
    16  H    6.229322   5.897770   5.462459   4.634882   6.786952
    17  I    2.144475   3.083554   3.080855   4.395792   3.149649
                    6          7          8          9         10
     6  C    0.000000
     7  H    2.156021   0.000000
     8  C    1.403532   3.417047   0.000000
     9  H    3.395801   4.968399   2.147825   0.000000
    10  H    1.085555   2.458142   2.168556   4.302065   0.000000
    11  C    2.548043   4.701812   1.500869   2.667848   2.785617
    12  O    3.645828   5.762904   2.370345   2.462400   3.999431
    13  C    2.994901   5.013357   2.600685   4.178411   2.634610
    14  H    2.961662   4.780590   2.892594   4.643791   2.418730
    15  H    2.961908   4.780880   2.892802   4.644005   2.418882
    16  H    4.066341   6.104668   3.500222   4.723005   3.718600
    17  I    4.396990   3.147697   4.941513   5.239443   5.218074
                   11         12         13         14         15
    11  C    0.000000
    12  O    1.223984   0.000000
    13  C    1.518934   2.386367   0.000000
    14  H    2.168402   3.109288   1.097117   0.000000
    15  H    2.168387   3.109401   1.097117   1.768927   0.000000
    16  H    2.137474   2.493151   1.091698   1.785642   1.785640
    17  I    6.441659   7.115990   7.329602   7.275364   7.275729
                   16         17
    16  H    0.000000
    17  I    8.352244   0.000000
 Symmetry turned off by external request.
 Stoichiometry    C8H7IO
 Framework group  C1[X(C8H7IO)]
 Deg. of freedom    45
 Full point group                 C1      NOp   1
 Rotational constants (GHZ):           3.6637143           0.2808893           0.2613130
 Basis read from rwf:  (5D, 7F)
 Pseudo-potential data read from rwf file.
   187 basis functions,   335 primitive gaussians,   196 cartesian basis functions
    35 alpha electrons       35 beta electrons
       nuclear repulsion energy       444.2296842922 Hartrees.
 NAtoms=   17 NActive=   17 NUniq=   17 SFac= 1.00D+00 NAtFMM=   60 NAOKFM=F Big=F
 Integral buffers will be    131072 words long.
 Raffenetti 2 integral format.
 Two-electron integral symmetry is turned off.
 Nuclear repulsion after empirical dispersion term =      444.2155078518 Hartrees.
 One-electron integrals computed using PRISM.
   1 Symmetry operations used in ECPInt.
 ECPInt:  NShTT=    2080 NPrTT=   10774 LenC2=    2055 LenP2D=    7692.
 LDataN:  DoStor=T MaxTD1= 6 Len=  172
 NBasis=   187 RedAO= T EigKep=  2.46D-06  NBF=   187
 NBsUse=   187 1.00D-06 EigRej= -1.00D+00 NBFU=   187
 Defaulting to unpruned grid for atomic number  53.
 Initial guess from the checkpoint file:  "ARYLHALIDE-coch3-gen-volume.chk"
 B after Tr=    -0.000076   -0.000002    0.000779
         Rot=    1.000000   -0.000019   -0.000099    0.000005 Ang=  -0.01 deg.
 Requested convergence on RMS density matrix=1.00D-08 within1000 cycles.
 Requested convergence on MAX density matrix=1.00D-06.
 Requested convergence on             energy=1.00D-06.
 No special actions if energy rises.
 Defaulting to unpruned grid for atomic number  53.
 Defaulting to unpruned grid for atomic number  53.
 Defaulting to unpruned grid for atomic number  53.
 Defaulting to unpruned grid for atomic number  53.
 Defaulting to unpruned grid for atomic number  53.
 Defaulting to unpruned grid for atomic number  53.
 Defaulting to unpruned grid for atomic number  53.
 Defaulting to unpruned grid for atomic number  53.
 Defaulting to unpruned grid for atomic number  53.
 Defaulting to unpruned grid for atomic number  53.
 Defaulting to unpruned grid for atomic number  53.
 Defaulting to unpruned grid for atomic number  53.
 Defaulting to unpruned grid for atomic number  53.
 Defaulting to unpruned grid for atomic number  53.
 Defaulting to unpruned grid for atomic number  53.
 Defaulting to unpruned grid for atomic number  53.
 Defaulting to unpruned grid for atomic number  53.
 Defaulting to unpruned grid for atomic number  53.
 Defaulting to unpruned grid for atomic number  53.
 Defaulting to unpruned grid for atomic number  53.
 Defaulting to unpruned grid for atomic number  53.
 Defaulting to unpruned grid for atomic number  53.
 Defaulting to unpruned grid for atomic number  53.
 Defaulting to unpruned grid for atomic number  53.
 Defaulting to unpruned grid for atomic number  53.
 Defaulting to unpruned grid for atomic number  53.
 Defaulting to unpruned grid for atomic number  53.
 Defaulting to unpruned grid for atomic number  53.
 Defaulting to unpruned grid for atomic number  53.
 Defaulting to unpruned grid for atomic number  53.
 Defaulting to unpruned grid for atomic number  53.
 Defaulting to unpruned grid for atomic number  53.
 SCF Done:  E(RB3LYP) =  -395.727311303     A.U. after   10 cycles
            NFock= 10  Conv=0.64D-08     -V/T= 2.0276
   1 Symmetry operations used in ECPInt.
 ECPInt:  NShTT=    2080 NPrTT=   10774 LenC2=    2055 LenP2D=    7692.
 LDataN:  DoStor=T MaxTD1= 7 Len=  274
 Calling FoFJK, ICntrl=      2127 FMM=F ISym2X=0 I1Cent= 0 IOpClX= 0 NMat=1 NMatS=1 NMatT=0.
 Defaulting to unpruned grid for atomic number  53.
 Defaulting to unpruned grid for atomic number  53.
 Defaulting to unpruned grid for atomic number  53.
 Defaulting to unpruned grid for atomic number  53.
 Defaulting to unpruned grid for atomic number  53.
 Defaulting to unpruned grid for atomic number  53.
 Defaulting to unpruned grid for atomic number  53.
 Defaulting to unpruned grid for atomic number  53.
 Defaulting to unpruned grid for atomic number  53.
 Defaulting to unpruned grid for atomic number  53.
 Defaulting to unpruned grid for atomic number  53.
 Defaulting to unpruned grid for atomic number  53.
 Defaulting to unpruned grid for atomic number  53.
 Defaulting to unpruned grid for atomic number  53.
 Defaulting to unpruned grid for atomic number  53.
 Defaulting to unpruned grid for atomic number  53.
 Defaulting to unpruned grid for atomic number  53.
 Defaulting to unpruned grid for atomic number  53.
 Defaulting to unpruned grid for atomic number  53.
 Defaulting to unpruned grid for atomic number  53.
 Defaulting to unpruned grid for atomic number  53.
 Defaulting to unpruned grid for atomic number  53.
 Defaulting to unpruned grid for atomic number  53.
 Defaulting to unpruned grid for atomic number  53.
 Defaulting to unpruned grid for atomic number  53.
 Defaulting to unpruned grid for atomic number  53.
 Defaulting to unpruned grid for atomic number  53.
 Defaulting to unpruned grid for atomic number  53.
 Defaulting to unpruned grid for atomic number  53.
 Defaulting to unpruned grid for atomic number  53.
 Defaulting to unpruned grid for atomic number  53.
 Defaulting to unpruned grid for atomic number  53.
 -------------------------------------------------------------------
 Center     Atomic                   Forces (Hartrees/Bohr)
 Number     Number              X              Y              Z
 -------------------------------------------------------------------
      1        6          -0.000011180   -0.000001899    0.000000059
      2        6           0.000005888    0.000008555    0.000000826
      3        6          -0.000019360   -0.000022275    0.000001390
      4        6          -0.000027722    0.000002785   -0.000001546
      5        1          -0.000002210    0.000013164    0.000000120
      6        6          -0.000008873   -0.000014434   -0.000002144
      7        1          -0.000000432   -0.000012530    0.000000191
      8        6           0.000041676    0.000037930   -0.000018249
      9        1           0.000008431    0.000018232   -0.000000008
     10        1           0.000007233   -0.000013545   -0.000000918
     11        6           0.000047987    0.000050497    0.000065524
     12        8          -0.000055524    0.000022490   -0.000022960
     13        6          -0.000009539   -0.000015905   -0.000021678
     14        1           0.000004936   -0.000035710   -0.000001506
     15        1           0.000008517   -0.000043283    0.000001759
     16        1          -0.000023589    0.000005552   -0.000000720
     17       53           0.000033763    0.000000375   -0.000000139
 -------------------------------------------------------------------
 Cartesian Forces:  Max     0.000065524 RMS     0.000022457

 GradGradGradGradGradGradGradGradGradGradGradGradGradGradGradGradGradGrad
 Berny optimization.
 Using GEDIIS/GDIIS optimizer.
 FormGI is forming the generalized inverse of G from B-inverse, IUseBI=4.
 Internal  Forces:  Max     0.000085084 RMS     0.000020053
 Search for a local minimum.
 Step number   3 out of a maximum of   88
 All quantities printed in internal units (Hartrees-Bohrs-Radians)
 Mixed Optimization -- En-DIIS/RFO-DIIS
 Swapping is turned off.
 Update second derivatives using D2CorX and points    1    2    3
 DE= -3.58D-07 DEPred=-4.90D-07 R= 7.32D-01
 Trust test= 7.32D-01 RLast= 5.58D-03 DXMaxT set to 1.50D-01
 ITU=  0 -1  0
     Eigenvalues ---    0.00512   0.00757   0.01639   0.02027   0.02081
     Eigenvalues ---    0.02098   0.02117   0.02121   0.02132   0.02134
     Eigenvalues ---    0.02148   0.03582   0.07162   0.07379   0.12740
     Eigenvalues ---    0.13469   0.16000   0.16000   0.16000   0.16000
     Eigenvalues ---    0.16073   0.16445   0.21755   0.22730   0.23969
     Eigenvalues ---    0.24265   0.25000   0.25000   0.27385   0.31741
     Eigenvalues ---    0.32165   0.34019   0.34132   0.34856   0.35316
     Eigenvalues ---    0.35368   0.35398   0.35968   0.41555   0.41744
     Eigenvalues ---    0.45008   0.45553   0.46082   0.46513   0.93419
 En-DIIS/RFO-DIIS/Sim-DIIS IScMMF=       -3 using points:     3    2    1
 RFO step:  Lambda=-1.32671444D-07.
 RFO-DIIS uses    2 points instead of    3
 DidBck=F Rises=F RFO-DIIS coefs:    0.84461    0.15539    0.00000
 Iteration  1 RMS(Cart)=  0.00017411 RMS(Int)=  0.00000005
 Iteration  2 RMS(Cart)=  0.00000003 RMS(Int)=  0.00000005
 Variable       Old X    -DE/DX   Delta X   Delta X   Delta X     New X
                                 (Linear)    (Quad)   (Total)
    R1        2.64347   0.00002   0.00001   0.00003   0.00004   2.64350
    R2        2.63837   0.00001   0.00001   0.00003   0.00003   2.63840
    R3        4.05247  -0.00003  -0.00003  -0.00019  -0.00022   4.05225
    R4        2.63289  -0.00001  -0.00001  -0.00002  -0.00003   2.63286
    R5        2.05032   0.00001   0.00000   0.00003   0.00003   2.05035
    R6        2.63992   0.00001   0.00000   0.00001   0.00000   2.63992
    R7        2.05015   0.00001   0.00000   0.00002   0.00002   2.05018
    R8        2.65461   0.00002   0.00001   0.00003   0.00004   2.65465
    R9        2.05159   0.00002   0.00001   0.00004   0.00005   2.05164
   R10        2.65229   0.00004   0.00002   0.00007   0.00009   2.65238
   R11        2.05140   0.00002   0.00001   0.00003   0.00004   2.05144
   R12        2.83623  -0.00003  -0.00002  -0.00008  -0.00011   2.83613
   R13        2.31299  -0.00001   0.00000  -0.00001  -0.00001   2.31298
   R14        2.87037   0.00007   0.00003   0.00017   0.00020   2.87057
   R15        2.07325   0.00002   0.00001   0.00004   0.00005   2.07330
   R16        2.07325   0.00002   0.00001   0.00004   0.00005   2.07330
   R17        2.06301  -0.00002  -0.00001  -0.00004  -0.00005   2.06296
    A1        2.11313   0.00002   0.00001   0.00006   0.00007   2.11320
    A2        2.08535  -0.00001  -0.00001  -0.00004  -0.00005   2.08531
    A3        2.08470  -0.00001   0.00000  -0.00002  -0.00002   2.08468
    A4        2.07935   0.00000   0.00000  -0.00001  -0.00001   2.07934
    A5        2.10646   0.00001   0.00000   0.00003   0.00003   2.10649
    A6        2.09738   0.00000   0.00000  -0.00002  -0.00002   2.09736
    A7        2.07918  -0.00002  -0.00001  -0.00006  -0.00008   2.07910
    A8        2.10798   0.00002   0.00001   0.00005   0.00006   2.10804
    A9        2.09603   0.00000   0.00000   0.00001   0.00001   2.09604
   A10        2.11109  -0.00001   0.00000  -0.00002  -0.00002   2.11108
   A11        2.10173   0.00000   0.00000   0.00001   0.00001   2.10174
   A12        2.07036   0.00000   0.00000   0.00001   0.00001   2.07037
   A13        2.10980   0.00000   0.00001   0.00001   0.00002   2.10983
   A14        2.06732   0.00000   0.00000   0.00000   0.00000   2.06732
   A15        2.10606   0.00000  -0.00001  -0.00001  -0.00002   2.10604
   A16        2.07381   0.00001  -0.00001   0.00002   0.00001   2.07382
   A17        2.06956   0.00001   0.00002   0.00005   0.00008   2.06964
   A18        2.13982  -0.00002  -0.00002  -0.00007  -0.00009   2.13973
   A19        2.10409  -0.00005  -0.00001  -0.00013  -0.00014   2.10394
   A20        2.07527  -0.00003   0.00000  -0.00007  -0.00007   2.07520
   A21        2.10383   0.00009   0.00001   0.00021   0.00022   2.10405
   A22        1.93627   0.00003   0.00004   0.00021   0.00025   1.93652
   A23        1.93625   0.00005   0.00006   0.00021   0.00027   1.93652
   A24        1.89926  -0.00003  -0.00004  -0.00014  -0.00018   1.89908
   A25        1.87530  -0.00004  -0.00005  -0.00022  -0.00027   1.87503
   A26        1.90823   0.00000  -0.00001  -0.00003  -0.00004   1.90819
   A27        1.90823  -0.00001  -0.00001  -0.00003  -0.00004   1.90819
    D1        0.00000   0.00000   0.00000   0.00000   0.00000   0.00000
    D2       -3.14159   0.00000   0.00000   0.00000   0.00000  -3.14159
    D3        3.14159   0.00000   0.00000   0.00000   0.00000  -3.14159
    D4        0.00000   0.00000   0.00000   0.00000   0.00000   0.00000
    D5        0.00000   0.00000   0.00000   0.00000   0.00000   0.00000
    D6        3.14159   0.00000   0.00000   0.00000   0.00000  -3.14159
    D7       -3.14159   0.00000   0.00000   0.00000   0.00000  -3.14159
    D8        0.00000   0.00000   0.00000   0.00000   0.00000   0.00000
    D9        0.00000   0.00000   0.00000   0.00000   0.00000   0.00000
   D10        3.14159   0.00000   0.00000   0.00000   0.00000   3.14159
[...]
   xx         0.188255D+03      0.278966D+02      0.310391D+02
   yx        -0.247686D+02     -0.367033D+01     -0.408379D+01
   yy         0.755177D+02      0.111906D+02      0.124512D+02
   zx        -0.182975D+02     -0.271141D+01     -0.301685D+01
   zy         0.384603D+01      0.569923D+00      0.634125D+00
   zz         0.119163D+03      0.176581D+02      0.196473D+02

 ----------------------------------------------------------------------
 1\1\GINC-IP-172-31-38-84\Freq\RB3LYP\Gen\C8H7I1O1\UBUNTU\13-Sep-2023\0
 \\#N Geom=AllCheck Guess=TCheck SCRF=Check GenChk RB3LYP/ChkBas Freq\\
 reac1\\0,1\C,-0.4622454219,0.0191217463,-0.0000756606\C,0.2040805302,1
 .2490905801,0.0000454896\C,0.2459441406,-1.1840987894,-0.000175483\C,1
 .597242538,1.2659090279,0.0000641732\H,-0.3524956587,2.1804386374,0.00
 01231481\C,1.6425387487,-1.1511391618,-0.0001524458\H,-0.2757395374,-2
 .1353308374,-0.0002683797\C,2.3343282325,0.0700612885,-0.0000381722\H,
 2.1356115115,2.2086737709,0.0001539701\H,2.1820403416,-2.0931411462,-0
 .0002297852\C,3.8330414644,0.1504842273,-0.0000243645\O,4.3979036759,1
 .2363331764,0.0003450115\C,4.6374105922,-1.137984057,0.0001810473\H,4.
 4059678836,-1.7445611717,0.8845813857\H,4.4064077849,-1.7445434753,-0.
 8843460588\H,5.7004534162,-0.8895001652,0.0004469555\I,-2.6063702423,-
 0.0196376509,-0.0001048313\\Version=EM64L-G16RevB.01\HF=-395.7273113\R
 MSD=4.234e-09\RMSF=2.246e-05\ZeroPoint=0.1277245\Thermal=0.137116\Dipo
 le=-0.2039393,-0.9710801,-0.0001767\DipoleDeriv=1.3557691,0.0262746,0.
 0000242,0.0011623,0.0834716,0.000013,0.0000305,0.0000137,-0.0767113,-0
 .5535506,-0.2411711,-0.0000307,-0.0412724,-0.0093228,0.0000118,-0.0000
 229,0.000012,-0.1009541,-0.6051807,0.1917905,0.0000045,0.0712929,-0.00
 0539,0.0000116,-0.0000092,0.0000096,-0.1012758,0.1621244,0.1586032,0.0
 000074,-0.2585431,0.0285932,-0.0000046,0.0000309,0.0000094,-0.0596096,
 0.0346428,0.0653482,0.0000027,0.0530773,0.0034184,-0.0000101,-0.000003
 6,-0.0000138,0.1289362,0.2363112,-0.1192327,-0.0000119,0.2293734,0.023
 8778,0.0000142,0.0000894,0.000007,-0.084971,0.0415487,-0.0581705,-0.00
 00079,-0.0508144,-0.0053462,-0.0000134,-0.000016,-0.0000075,0.1298548,
 -0.9281148,0.0112522,-0.0000414,0.1194613,-0.0944723,0.0000125,-0.0000
 029,0.0000049,-0.0163464,0.0676924,-0.0513003,-0.0000023,-0.0103134,0.
 0216195,-0.0000076,0.0000026,-0.0000112,0.1284331,0.0105744,0.0738719,
 0.0000094,0.0741146,-0.0285282,-0.0000122,0.0000072,-0.0000108,0.12220
 32,2.0315419,0.0049335,0.0001066,0.1294632,1.0635069,0.0000074,0.00016
 75,0.0000506,0.1422991,-1.1360835,-0.2088317,-0.0000418,-0.4929287,-0.
 9017639,-0.0000252,-0.0001939,-0.0001407,-0.3258647,-0.1720928,0.18246
 84,-0.0000115,0.2430581,-0.2699258,0.000049,-0.0000986,0.0001154,0.080
 8613,0.0518235,-0.0183575,0.0675221,-0.0044685,0.0244785,0.0488175,0.0
 472246,0.0714612,-0.0236224,0.0518956,-0.0183376,-0.0674882,-0.0044315
 ,0.0244683,-0.0488481,-0.0471521,-0.0715006,-0.0237002,-0.098526,0.011
 1245,-0.0000301,-0.0472702,0.0606504,-0.0000145,-0.0000473,0.0000031,0
 .0922124,-0.5503756,-0.0102654,-0.0000111,-0.0109608,-0.0241864,-0.000
 0016,-0.0000062,-0.0000023,-0.0117447\Polar=197.8402897,2.1741065,114.
 7797319,0.0045551,0.0046143,70.315962\Quadrupole=-4.1112288,4.3321374,
 -0.2209086,-9.1642669,-0.0017144,-0.0002389\PG=C01 [X(C8H7I1O1)]\NImag
 =0\\0.43438886,-0.00631222,0.62993615,0.00000351,0.00004778,0.10503405
 ,-0.14584043,-0.05290240,-0.00000597,0.67974069,-0.11055611,-0.2834891
 1,-0.00002218,-0.05072116,0.71818273,-0.00001114,-0.00002193,-0.058036
 95,0.00000254,0.00005371,0.12928152,-0.15371292,0.06078333,0.00000473,
 0.06059852,0.02269927,0.00000214,0.66967584,0.11797850,-0.28132873,-0.
 00001864,-0.01910788,-0.05337976,-0.00000570,0.04534412,0.72688237,0.0
 0000948,-0.00001865,-0.05821928,-0.00000150,-0.00000510,0.00609507,0.0
 0001198,0.00005386,0.12771364,-0.02853082,-0.08247908,-0.00000801,-0.3
 4563841,0.03536031,-0.00000074,-0.04848080,0.02642902,0.00000208,0.703
 14856,-0.02632743,0.03037944,0.00000185,-0.03498619,-0.12793474,-0.000
 00543,0.02778318,-0.01593857,-0.00000131,0.03897239,0.70732900,-0.0000
 0281,0.00000117,0.00813950,-0.00000621,-0.00000510,-0.06237036,0.00000
 220,-0.00000079,-0.00426338,0.00000845,0.00005140,0.14084918,0.0094669
 0,-0.01598952,-0.00000135,-0.13211228,0.12866436,0.00001036,-0.0011861
 5,-0.00320000,-0.00000048,-0.01208778,0.02798324,0.00000234,0.14068713
 ,0.01551751,-0.01949008,-0.00000172,0.12559728,-0.27005807,-0.00001976
 ,-0.00394348,-0.00282093,-0.00000085,-0.00212122,0.00533272,0.00000009
 ,-0.13358695,0.28521933,0.00000152,-0.00000214,0.00140111,0.00001017,-
 0.00001971,-0.03692255,-0.00000044,-0.00000079,0.00592046,-0.00000046,
 0.00000048,0.00410386,-0.00001062,0.00002210,0.02514550,-0.03249621,0.
 08114813,0.00000657,-0.04711412,-0.02812167,-0.00000279,-0.33519796,-0
 .04352769,-0.00000869,0.06004296,-0.01763840,-0.00000113,-0.00084498,-
 0.00082529,-0.00000005,0.68398424,0.02352239,0.03256632,0.00000219,-0.
 02752046,-0.01758954,-0.00000092,0.02770898,-0.12620648,-0.00000590,0.
 02131547,-0.05702765,-0.00000608,-0.00090710,0.00027808,0.00000009,-0.
 03389189,0.71333769,0.00000164,0.00000327,0.00843313,-0.00000303,-0.00
 000150,-0.00437231,-0.00000077,-0.00000695,-0.06178766,0.00000252,-0.0
 0000551,0.00718742,-0.00000003,0.00000008,-0.00062014,0.00000225,0.000
 04979,0.13691594,0.00951216,0.01699745,0.00000163,-0.00152357,0.003177
 92,0.00000011,-0.12302606,-0.12318210,-0.00001254,-0.00081704,0.000844
 72,0.00000011,0.00072454,0.00080565,0.00000008,-0.01092660,-0.02857818
 ,-0.00000281,0.13104897,-0.01462711,-0.01939494,-0.00000201,0.00401143
 ,-0.00260750,-0.00000074,-0.12036770,-0.27924108,-0.00002342,0.0008264
 8,0.00028470,0.00000010,-0.00076062,-0.00081334,-0.00000012,0.00188289
 ,0.00423907,0.00000011,0.12784325,0.29492337,-0.00000114,-0.00000174,0
 .00135134,0.00000036,-0.00000075,0.00591243,-0.00001230,-0.00002334,-0
 .03599853,0.00000005,0.00000008,-0.00070108,-0.00000006,-0.00000010,0.
 00039250,0.00000002,-0.00000036,0.00357019,0.00001311,0.00002593,0.024
 84770,0.00357508,0.00131170,0.00000013,-0.03254919,0.02311718,0.000002
 63,-0.02899254,-0.02580653,-0.00000199,-0.16588528,0.10444618,0.000009
 75,-0.00509309,-0.00086039,-0.00000025,-0.16589205,-0.10370815,-0.0000
 0748,-0.00529653,0.00056897,-0.00000021,0.60966155,0.00162629,-0.06543
 849,-0.00000517,0.06681236,0.03397684,0.00000210,-0.07027339,0.0293831
 2,0.00000166,0.05609656,-0.26793281,-0.00001821,-0.00175213,0.00142354
 ,-0.00000072,-0.05412257,-0.27870429,-0.00001914,0.00181716,0.00151237
 ,-0.00000025,0.00667101,0.69764757,0.00000013,-0.00000565,-0.00784493,
 0.00000554,0.00000139,0.00850626,-0.00000755,0.00000331,0.00931274,0.0
 0000691,-0.00001739,-0.06709983,-0.00000005,-0.00000052,0.00748047,-0.
 00000106,-0.00001939,-0.06373822,0.00000040,-0.00000055,0.00711860,0.0
 0001138,0.00005146,0.14185086,-0.00400272,0.00054412,-0.00000011,-0.01
 110092,-0.02713680,-0.00000248,-0.00082890,0.00079885,0.00000009,-0.12
 659125,-0.12234873,-0.00001120,0.00081007,0.00019020,0.00000013,-0.001
 95423,0.00329466,0.00000027,0.00006249,-0.00006944,0.,0.01402121,0.013
 26880,0.00000090,0.13223988,0.00048976,0.00127811,-0.00000056,0.002851
 43,0.00511529,0.,0.00059465,0.00035416,0.00000012,-0.12142854,-0.27654
 453,-0.00002210,-0.00024067,0.00078575,0.00000050,0.00394929,-0.002842
 43,-0.00000082,-0.00009855,0.00000705,0.00000008,-0.01318467,-0.019842
 16,-0.00000240,0.13039372,0.29235091,-0.00000003,-0.00000022,0.0073819
 0,-0.00000031,-0.00000014,0.00483333,0.00000036,0.00000004,-0.00087334
 ,-0.00001082,-0.00002326,-0.04017460,0.,0.00000045,-0.00445916,0.00000
 005,-0.00000098,0.00572795,0.00000001,0.00000007,-0.00082387,-0.000001
 60,-0.00000101,0.00433923,0.00001237,0.00002506,0.02720573,-0.00420584
 ,-0.00084837,-0.00000026,-0.00073463,-0.00072885,-0.00000004,-0.012752
 49,0.02882170,0.00000263,-0.00134544,-0.00333468,-0.00000046,0.0000796
 7,0.00007960,0.00000002,-0.12842186,0.12115251,0.00000999,0.00066477,-
 0.00022280,0.00000006,0.01268923,-0.01284398,-0.00000141,0.00058067,-0
 .00080369,-0.00000003,0.13905805,-0.00053155,0.00146534,-0.00000046,-0
 .00063421,0.00026692,0.00000005,-0.00264165,0.00427384,-0.00000012,-0.
 00430722,-0.00317065,-0.00000072,0.00011848,0.00000706,0.00000008,0.12
 096545,-0.27287345,-0.00001967,0.00018847,0.00089178,0.00000044,0.0152
 5140,-0.01845601,-0.00000176,0.00104789,-0.00093151,-0.00000013,-0.131
 03800,0.28750187,-0.00000014,-0.00000088,0.00713271,0.00000024,0.00000
 017,-0.00073831,-0.00000082,0.00000021,0.00443843,-0.00000050,-0.00000
 063,0.00618831,0.00000004,0.00000010,-0.00098459,0.00001071,-0.0000184
 2,-0.03701604,0.00000003,0.00000049,-0.00421903,0.00000030,-0.00000287
 ,0.00241840,0.00000011,-0.00000011,0.00052850,-0.00000958,0.00002192,0
 .02518279,-0.00434391,-0.00018936,0.00000019,0.00689527,0.00448073,-0.
 00000070,0.00755483,-0.00221157,-0.00000133,-0.03281212,0.01663743,0.0
 0000077,0.00030881,-0.00031355,-0.00000002,-0.01550548,-0.01648400,-0.
 00000281,0.00091080,0.00040336,0.00000012,-0.17536184,0.01642748,0.000
 01155,0.00024719,-0.00252362,0.00000042,0.00063603,0.00238957,0.000001
 08,0.57402605,-0.00150468,-0.00430798,-0.00000030,0.00676217,-0.005626
 56,-0.00000151,-0.00274252,-0.00512276,-0.00000126,0.02480450,0.015158
 29,-0.00000025,0.00204738,0.00007693,0.00000018,-0.03040924,0.00281753
 ,0.00000120,-0.00131254,0.00014076,-0.00000018,0.03185588,-0.10556377,
 0.00000065,0.00114775,-0.00299533,0.00000003,-0.00056717,-0.00098627,0
 .00000049,0.15234103,0.84172686,-0.00000126,-0.00000063,-0.00059851,0.
 00000169,-0.00000054,0.00669741,0.00000028,-0.00000074,0.00764000,-0.0
 0000208,0.00000430,0.00253719,0.00000017,-0.00000006,0.00026618,-0.000
 00344,-0.00000340,-0.00059623,-0.00000002,-0.00000001,0.00048608,0.000
 00098,0.00000335,-0.07769635,0.00000007,-0.00000022,-0.00367313,0.0000
 0016,0.00000073,-0.00400538,0.00009045,0.00014145,0.22200084,0.0018444
 0,-0.00185526,-0.00000019,0.00000703,-0.00178035,-0.00000011,-0.004213
 00,-0.00127799,0.00000077,-0.00036979,-0.00354471,-0.00000058,-0.00009
 563,0.00012052,-0.00000009,-0.00515210,0.00806398,0.00000046,-0.000992
 21,-0.00005893,0.00000001,-0.04109232,-0.05312186,-0.00001845,-0.00269
 940,-0.00055819,-0.00000036,0.00021079,-0.00065698,-0.00000042,-0.2220
 4994,-0.24147716,-0.00008271,0.25314174,0.00218575,0.00034118,-0.00000
 002,-0.00289227,0.00068681,0.00000055,-0.00225801,0.00087435,0.0000007
 4,0.00764397,-0.00861976,0.00000052,-0.00049243,0.00005528,-0.00000009
 ,0.00137731,0.00531521,0.00000030,-0.00037482,-0.00005153,0.00000002,-
 0.04520381,-0.00941448,-0.00001259,0.00010596,0.00275107,0.00000007,0.
 00058110,0.00047618,-0.00000032,-0.23061625,-0.57973467,-0.00015192,0.
 28308389,0.65523121,0.00000090,0.00000028,-0.00010591,-0.00000111,-0.0
 0000023,-0.00051890,-0.00000061,-0.00000045,-0.00163263,0.00000262,-0.
 00000276,-0.00000539,-0.00000012,0.00000004,0.00013225,-0.00000137,0.0
 0000269,0.00307534,-0.00000027,0.00000002,-0.00033809,-0.00001341,-0.0
 0001254,0.01896596,-0.00000011,0.00000056,-0.00023524,0.00000010,-0.00
 000018,0.00065643,-0.00008325,-0.00016276,-0.06707603,0.00010085,0.000
 18104,0.02443302,0.00035290,0.00028732,-0.00000004,-0.00072096,0.00168
 288,0.00000064,0.00010137,0.00031032,0.00000042,-0.00473601,-0.0026323
 7,-0.00000065,-0.00046385,-0.00003200,0.00000006,-0.00254905,0.0005959
 8,-0.00000021,-0.00006468,-0.00003681,-0.00000004,-0.01369031,0.025797
 07,-0.00000722,0.00001133,0.00010229,-0.00000011,-0.00207030,0.0004375
 5,-0.00000060,-0.13624886,0.05329556,-0.00000192,0.01950215,-0.0153645
 0,-0.00000627,0.57416356,-0.00026400,-0.00051980,-0.00000002,0.0006084
 7,0.00134747,-0.00000002,0.00001619,-0.00004663,0.,-0.00372018,0.00082
 106,0.00000063,-0.00021568,0.00002307,-0.00000004,0.00079982,-0.000661
 97,-0.00000017,-0.00000191,0.00002152,0.,0.00374388,0.00555457,0.00000
 347,-0.00043999,0.00025895,0.,-0.00025734,0.00025723,-0.00000016,0.048
 23450,-0.13338357,0.00000593,0.00743746,-0.06007557,-0.00000510,0.0627
 2916,0.49779150,0.00000030,0.00000030,0.00040087,-0.00000047,0.0000001
 1,-0.00079022,0.00000013,0.,-0.00162817,0.00000010,-0.00000107,0.00181
 904,-0.00000005,0.00000001,-0.00025181,-0.00000147,0.00000095,-0.00107
 676,-0.00000004,-0.00000004,0.00003678,-0.00000042,0.00000101,0.015682
 23,0.,-0.00000008,0.00014558,-0.00000064,0.00000004,0.00157470,-0.0000
 1399,0.00002412,-0.08864474,-0.00000114,-0.00001978,0.02545819,0.00000
 352,0.00001969,0.52956287,-0.00001399,0.00023809,0.00009469,-0.0002717
 7,-0.00032509,-0.00020942,0.00006806,-0.00010586,-0.00034858,0.0005673
 5,-0.00032014,0.00034362,0.00001001,-0.00000135,-0.00004167,-0.0010067
 9,0.00034601,-0.00018551,0.00000139,-0.00000553,0.00000091,-0.00135104
 ,-0.00000887,0.00176731,0.00007809,-0.00005417,0.00002623,-0.00172710,
 -0.00014379,-0.00057859,0.00650636,0.00545748,-0.01750200,-0.00026318,
 0.00242382,0.00197516,-0.06120193,-0.02853616,0.04462664,0.06146127,-0
 .00002607,0.00028611,-0.00006996,-0.00021988,-0.00002749,0.00019373,0.
 00039703,-0.00004756,0.00008570,0.00025623,-0.00020092,-0.00041737,0.0
 0000652,-0.00001091,0.00004798,-0.00029384,0.00023728,-0.00032440,0.00
 000513,0.00000363,-0.00000345,0.00033734,0.00016719,-0.00187166,-0.000
 14503,0.00005587,-0.00002562,-0.00016878,0.00032546,0.00001469,-0.0105
 4474,-0.01404891,0.02386018,0.00349882,-0.00515446,-0.00365227,-0.0299
 8924,-0.12417417,0.12247702,0.03356762,0.13470838,0.00000299,-0.000082
 06,-0.00005901,0.00012036,-0.00000194,0.00000123,0.00002209,-0.0003645
 5,0.00022474,-0.00028384,-0.00006471,0.00002489,-0.00001914,-0.0000049
 2,0.00000112,0.00032592,0.00095701,0.00037435,-0.00002441,0.00000791,0
 .00000257,-0.00014291,0.00049599,-0.00018730,0.00007550,-0.00005475,0.
 00001871,-0.00030618,-0.00059037,-0.00037996,0.00016914,-0.00172233,0.
 00218470,-0.00055063,-0.00086389,-0.00093290,0.04526970,0.11855531,-0.
 21639848,-0.05061996,-0.12986745,0.23517104,-0.00001403,0.00023789,-0.
 00009463,-0.00027148,-0.00032504,0.00020935,0.00006804,-0.00010602,0.0
 0034830,0.00056688,-0.00031980,-0.00034380,0.00001001,-0.00000135,0.00
 004167,-0.00100505,0.00034587,0.00018488,0.00000140,-0.00000552,-0.000
 00090,-0.00135044,-0.00000866,-0.00176757,0.00007810,-0.00005416,-0.00
 002624,-0.00172669,-0.00014395,0.00057804,0.00649943,0.00545396,0.0175
 0368,-0.00026178,0.00242557,-0.00197382,-0.06115848,-0.02847395,-0.044
 54726,0.00074488,0.00398728,0.00595107,0.06140646,-0.00002604,0.000286
 06,0.00006998,-0.00021988,-0.00002746,-0.00019369,0.00039691,-0.000047
 61,-0.00008565,0.00025646,-0.00020096,0.00041729,0.00000653,-0.0000109
 1,-0.00004797,-0.00029379,0.00023719,0.00032413,0.00000513,0.00000364,
 0.00000346,0.00033743,0.00016663,0.00187149,-0.00014504,0.00005585,0.0
 0002561,-0.00016844,0.00032534,-0.00001479,-0.01053466,-0.01404644,-0.
 02386595,0.00349728,-0.00515944,0.00365150,-0.02992534,-0.12417110,-0.
 12248657,0.00397854,0.01178094,0.01552600,0.03350047,0.13470906,-0.000
 00306,0.00008193,-0.00005901,-0.00012018,0.00000190,0.00000134,-0.0000
 2222,0.00036453,0.00022496,0.00028380,0.00006483,0.00002467,0.00001915
 ,0.00000492,0.00000115,-0.00032603,-0.00095711,0.00037387,0.00002442,-
 0.00000790,0.00000256,0.00014302,-0.00049629,-0.00018849,-0.00007547,0
 .00005472,0.00001868,0.00030551,0.00059023,-0.00037957,-0.00016675,0.0
 0172214,0.00219304,0.00055122,0.00086551,-0.00093311,-0.04519163,-0.11
 856494,-0.21644411,-0.00593933,-0.01552458,-0.02139262,0.05053057,0.12
 988296,0.23522337,0.00017050,0.00007874,0.00000002,-0.00017899,0.00033
 711,0.00000007,0.00003317,-0.00005907,-0.00000007,-0.00076019,-0.00059
 613,-0.00000007,-0.00010219,-0.00000483,0.,0.00058234,0.00038187,0.000
 00007,-0.00003649,-0.00000599,0.,-0.00022417,0.00323592,-0.00000071,0.
 00000479,0.00006258,-0.00000002,0.00013370,0.00003607,0.00000015,-0.02
 039847,-0.00558554,-0.00000434,0.00394010,-0.00161142,0.00000107,-0.31
 098155,-0.06185513,-0.00006509,-0.00358582,-0.00068648,-0.00003095,-0.
 00357149,-0.00068368,0.00002816,0.33506189,-0.00009618,-0.00008543,0.,
 0.00019017,-0.00038381,-0.00000005,-0.00005371,0.00036978,0.00000002,0
 .00140743,0.00057400,-0.00000008,0.00013235,0.00000404,0.00000002,-0.0
 0045200,-0.00109005,-0.00000022,0.00003964,0.00000139,0.,0.00116478,-0
 .00516381,0.00000004,0.00000048,0.00001847,0.00000002,-0.00018032,0.00
 056184,0.00000011,0.03249900,0.00583203,0.00000748,-0.00137691,0.00234
 407,0.00000017,-0.06724916,-0.06306239,-0.00001570,-0.01649511,-0.0039
 0023,-0.00190456,-0.01649709,-0.00390057,0.00189647,0.06696333,0.06785
 701,0.00000007,-0.00000005,-0.00000886,0.00000002,0.00000014,-0.000198
 24,-0.00000010,-0.00000006,0.00018966,-0.00000028,-0.00000018,0.000357
 64,-0.00000002,0.,-0.00004001,0.00000037,0.00000016,0.00012750,-0.0000
 0002,0.,0.00000568,0.00000020,0.00000055,0.00148410,0.00000001,0.,0.00
 007803,0.00000014,-0.00000007,-0.00041901,-0.00000499,-0.00000178,-0.0
 0096529,0.00000142,-0.00000010,-0.00107818,-0.00006562,-0.00001455,-0.
 04955394,0.02656076,0.00507108,0.00136550,-0.02656363,-0.00507141,0.00
 135187,0.00007169,0.00001630,0.04731509,-0.08614994,-0.00105056,-0.000
 00091,-0.02918479,0.00017530,-0.00000039,-0.02970899,-0.00109783,-0.00
 000056,0.00372917,-0.00461856,-0.00000032,-0.00011117,-0.00062036,-0.0
 0000005,0.00345694,0.00436206,0.00000057,-0.00024333,0.00062408,0.0000
 0005,-0.00316828,0.00037881,-0.00000011,-0.00095640,0.00050255,0.00000
 005,-0.00106855,-0.00033752,-0.00000003,0.00313584,0.00043314,0.000000
 30,-0.00145685,-0.00101387,-0.00000035,-0.00024533,0.00019487,-0.00000
 014,-0.00001581,0.00001808,0.00004124,-0.00001577,0.00001810,-0.000041
 18,-0.00008715,0.00000332,-0.00000001,0.14209043,-0.00104883,-0.022484
 16,-0.00000073,-0.01762899,0.00154799,-0.00000037,0.01655678,0.0020424
 8,0.00000018,0.00068744,-0.00230862,-0.00000049,-0.00181376,-0.0000015
 9,0.00000015,-0.00054653,-0.00203251,-0.00000051,0.00182357,0.00007911
 ,0.00000017,-0.00004220,0.00068399,0.00000010,-0.00050740,0.00012449,0
 .00000002,0.00052749,0.00006502,0.00000002,0.00000464,0.00006385,0.000
 00007,0.00000642,0.00013456,0.,-0.00000871,0.00001983,0.,-0.00001549,-
 0.00000021,-0.00002070,-0.00001549,-0.00000021,0.00002069,-0.00000734,
 0.00002368,0.,0.00202839,0.02204230,-0.00000094,-0.00000077,-0.0143421
 7,-0.00000213,-0.00000020,0.00261924,0.00000089,0.00000010,0.00264328,
 0.00000020,-0.00000069,0.00338294,-0.00000014,0.00000014,-0.00156634,0
 .00000015,-0.00000033,0.00342167,0.00000022,0.00000016,-0.00164583,-0.
 00000012,0.00000009,-0.00040375,-0.00000009,0.00000002,-0.00003831,0.,
 0.,0.00002161,0.00000012,0.00000010,-0.00074980,-0.00000003,-0.0000000
 4,0.00013519,-0.00000003,0.,0.00010797,0.00002974,0.00000639,-0.000018
 59,-0.00002972,-0.00000638,-0.00001860,0.,0.,-0.00001154,0.00000186,0.
 00000141,0.00646303\\0.00001121,0.00000188,-0.00000006,-0.00000590,-0.
 00000857,-0.00000083,0.00001936,0.00002229,-0.00000139,0.00002773,-0.0
 0000279,0.00000155,0.00000221,-0.00001316,-0.00000012,0.00000885,0.000
 01444,0.00000215,0.00000044,0.00001254,-0.00000019,-0.00004168,-0.0000
 3794,0.00001825,-0.00000843,-0.00001823,0.,-0.00000723,0.00001355,0.00
 000092,-0.00004799,-0.00005051,-0.00006553,0.00005552,-0.00002249,0.00
 002296,0.00000954,0.00001591,0.00002168,-0.00000494,0.00003571,0.00000
 151,-0.00000852,0.00004328,-0.00000176,0.00002359,-0.00000555,0.000000
 72,-0.00003377,-0.00000037,0.00000014\\\@


 IT PROBABLY IS NOT POSSIBLE FOR A SCIENTIST TO INTERROGATE NATURE 
 FROM A WHOLLY DISINTERESTED VIEWPOINT.
 EVEN IF HE HAS NO PARTICULAR AXE TO GRIND, HE IS LIKELY TO HAVE 
 A DISTINCTIVE WAY OF VIEWING NATURE.

                                                   -- JOHN LOSEE
 Job cpu time:       0 days  0 hours 37 minutes 42.5 seconds.
 Elapsed time:       0 days  0 hours  1 minutes 10.8 seconds.
 File lengths (MBytes):  RWF=     71 Int=      0 D2E=      0 Chk=      4 Scr=      1
 Normal termination of Gaussian 16 at Wed Sep 13 08:17:08 2023.
