 Entering Gaussian System, Link 0=/home/ubuntu/g16/g16
 Input=/home/ubuntu/Downloads/ARYLHALIDE-o-ch3-gen-vol.gjf
 Output=/home/ubuntu/Downloads/ARYLHALIDE-o-ch3-gen-vol.log
 Initial command:
 /home/ubuntu/g16/l1.exe "/home/ubuntu/Scratch/Gau-19785.inp" -scrdir="/home/ubuntu/Scratch/"
 Entering Link 1 = /home/ubuntu/g16/l1.exe PID=     19787.
  
 Copyright (c) 1988-2017, Gaussian, Inc.  All Rights Reserved.
  
 This is part of the Gaussian(R) 16 program.  It is based on
 the Gaussian(R) 09 system (copyright 2009, Gaussian, Inc.),
 the Gaussian(R) 03 system (copyright 2003, Gaussian, Inc.),
 the Gaussian(R) 98 system (copyright 1998, Gaussian, Inc.),
 the Gaussian(R) 94 system (copyright 1995, Gaussian, Inc.),
 the Gaussian 92(TM) system (copyright 1992, Gaussian, Inc.),
 the Gaussian 90(TM) system (copyright 1990, Gaussian, Inc.),
 the Gaussian 88(TM) system (copyright 1988, Gaussian, Inc.),
 the Gaussian 86(TM) system (copyright 1986, Carnegie Mellon
 University), and the Gaussian 82(TM) system (copyright 1983,
 Carnegie Mellon University). Gaussian is a federally registered
 trademark of Gaussian, Inc.
  
 This software contains proprietary and confidential information,
 including trade secrets, belonging to Gaussian, Inc.
  
 This software is provided under written license and may be
 used, copied, transmitted, or stored only in accord with that
 written license.
  
 The following legend is applicable only to US Government
 contracts under FAR:
  
                    RESTRICTED RIGHTS LEGEND
  
 Use, reproduction and disclosure by the US Government is
 subject to restrictions as set forth in subparagraphs (a)
 and (c) of the Commercial Computer Software - Restricted
 Rights clause in FAR 52.227-19.
  
 Gaussian, Inc.
 340 Quinnipiac St., Bldg. 40, Wallingford CT 06492
  
  
 ---------------------------------------------------------------
 Warning -- This program may not be used in any manner that
 competes with the business of Gaussian, Inc. or will provide
 assistance to any competitor of Gaussian, Inc.  The licensee
 of this program is prohibited from giving any competitor of
 Gaussian, Inc. access to this program.  By using this program,
 the user acknowledges that Gaussian, Inc. is engaged in the
 business of creating and licensing software in the field of
 computational chemistry and represents and warrants to the
 licensee that it is not a competitor of Gaussian, Inc. and that
 it will not use this program in any manner prohibited above.
 ---------------------------------------------------------------
  

 Cite this work as:
 Gaussian 16, Revision B.01,
 M. J. Frisch, G. W. Trucks, H. B. Schlegel, G. E. Scuseria, 
 M. A. Robb, J. R. Cheeseman, G. Scalmani, V. Barone, 
 G. A. Petersson, H. Nakatsuji, X. Li, M. Caricato, A. V. Marenich, 
 J. Bloino, B. G. Janesko, R. Gomperts, B. Mennucci, H. P. Hratchian, 
 J. V. Ortiz, A. F. Izmaylov, J. L. Sonnenberg, D. Williams-Young, 
 F. Ding, F. Lipparini, F. Egidi, J. Goings, B. Peng, A. Petrone, 
 T. Henderson, D. Ranasinghe, V. G. Zakrzewski, J. Gao, N. Rega, 
 G. Zheng, W. Liang, M. Hada, M. Ehara, K. Toyota, R. Fukuda, 
 J. Hasegawa, M. Ishida, T. Nakajima, Y. Honda, O. Kitao, H. Nakai, 
 T. Vreven, K. Throssell, J. A. Montgomery, Jr., J. E. Peralta, 
 F. Ogliaro, M. J. Bearpark, J. J. Heyd, E. N. Brothers, K. N. Kudin, 
 V. N. Staroverov, T. A. Keith, R. Kobayashi, J. Normand, 
 K. Raghavachari, A. P. Rendell, J. C. Burant, S. S. Iyengar, 
 J. Tomasi, M. Cossi, J. M. Millam, M. Klene, C. Adamo, R. Cammi, 
 J. W. Ochterski, R. L. Martin, K. Morokuma, O. Farkas, 
 J. B. Foresman, and D. J. Fox, Gaussian, Inc., Wallingford CT, 2016.
 
 ******************************************
 Gaussian 16:  EM64L-G16RevB.01 20-Dec-2017
                16-Sep-2023 
 ******************************************
 %nprocshared=32
 Will use up to   32 processors via shared memory.
 %mem=62GB
 %chk=ARYLHALIDE-o-ch3-gen-vol.chk
 ----------------------------------------------------------------------
 # opt freq rb3lyp/gen nosymm empiricaldispersion=gd3 pseudo=read scf=m
 axcycle=1000 volume
 ----------------------------------------------------------------------
 1/18=20,19=15,26=3,38=1/1,3;
 2/9=110,12=2,15=1,17=6,18=5,40=1/2;
 3/5=7,11=2,16=1,17=8,25=1,30=1,71=1,74=-5,116=1,124=31/1,2,3;
 4//1;
 5/5=2,7=1000,38=5/2;
 6/7=2,8=2,9=2,10=2,28=1,44=1/1,4;
 7/30=1/1,2,3,16;
 1/18=20,19=15,26=3/3(2);
 2/9=110,15=1/2;
 99//99;
 2/9=110,15=1/2;
 3/5=7,6=1,11=2,16=1,17=8,25=1,30=1,71=1,74=-5,82=7,116=1,124=31/1,2,3;
 4/5=5,16=3,69=1/1;
 5/5=2,7=1000,38=5/2;
 7/30=1/1,2,3,16;
 1/18=20,19=15,26=3/3(-5);
 2/9=110,15=1/2;
 6/7=2,8=2,9=2,10=2,19=2,28=1,44=1/1,4;
 99/9=1/99;
 -----
 reac1
 -----
 Symbolic Z-matrix:
 Charge =  0 Multiplicity = 1
 C                    -0.45249   0.02046  -0.00012 
 C                     0.21193   1.24922   0.00005 
 C                     0.23623  -1.20319  -0.00018 
 C                     1.60899   1.2776    0.00017 
 H                    -0.35151   2.17657   0.00009 
 C                     1.64081  -1.13738  -0.00006 
 C                     2.32483   0.07889   0.00011 
 H                     2.12647   2.23324   0.0003 
 H                     2.20284  -2.06857  -0.0001 
 I                    -2.61255   0.0647   -0.00029 
 H                     3.41173   0.08867   0.0002 
 C                    -0.45986  -2.54191  -0.00037 
 H                    -1.1038   -2.65542   0.88036 
 H                    -1.10366  -2.65526  -0.88121 
 H                     0.26729  -3.36022  -0.00038 
 

 GradGradGradGradGradGradGradGradGradGradGradGradGradGradGradGradGradGrad
 Berny optimization.
 Initialization pass.
                           ----------------------------
                           !    Initial Parameters    !
                           ! (Angstroms and Degrees)  !
 --------------------------                            --------------------------
 ! Name  Definition              Value          Derivative Info.                !
 --------------------------------------------------------------------------------
 ! R1    R(1,2)                  1.3969         estimate D2E/DX2                !
 ! R2    R(1,3)                  1.4042         estimate D2E/DX2                !
 ! R3    R(1,10)                 2.1605         estimate D2E/DX2                !
 ! R4    R(2,4)                  1.3973         estimate D2E/DX2                !
 ! R5    R(2,5)                  1.0851         estimate D2E/DX2                !
 ! R6    R(3,6)                  1.4061         estimate D2E/DX2                !
 ! R7    R(3,12)                 1.5089         estimate D2E/DX2                !
 ! R8    R(4,7)                  1.3962         estimate D2E/DX2                !
 ! R9    R(4,8)                  1.0868         estimate D2E/DX2                !
 ! R10   R(6,7)                  1.3954         estimate D2E/DX2                !
 ! R11   R(6,9)                  1.0877         estimate D2E/DX2                !
 ! R12   R(7,11)                 1.0869         estimate D2E/DX2                !
 ! R13   R(12,13)                1.0969         estimate D2E/DX2                !
 ! R14   R(12,14)                1.0969         estimate D2E/DX2                !
 ! R15   R(12,15)                1.0947         estimate D2E/DX2                !
 ! A1    A(2,1,3)              122.2262         estimate D2E/DX2                !
 ! A2    A(2,1,10)             117.2281         estimate D2E/DX2                !
 ! A3    A(3,1,10)             120.5458         estimate D2E/DX2                !
 ! A4    A(1,2,4)              119.5648         estimate D2E/DX2                !
 ! A5    A(1,2,5)              120.3162         estimate D2E/DX2                !
 ! A6    A(4,2,5)              120.119          estimate D2E/DX2                !
 ! A7    A(1,3,6)              116.6899         estimate D2E/DX2                !
 ! A8    A(1,3,12)             123.1544         estimate D2E/DX2                !
 ! A9    A(6,3,12)             120.1557         estimate D2E/DX2                !
 ! A10   A(2,4,7)              119.6813         estimate D2E/DX2                !
 ! A11   A(2,4,8)              119.5989         estimate D2E/DX2                !
 ! A12   A(7,4,8)              120.7198         estimate D2E/DX2                !
 ! A13   A(3,6,7)              122.0357         estimate D2E/DX2                !
 ! A14   A(3,6,9)              118.4309         estimate D2E/DX2                !
 ! A15   A(7,6,9)              119.5334         estimate D2E/DX2                !
 ! A16   A(4,7,6)              119.8021         estimate D2E/DX2                !
 ! A17   A(4,7,11)             120.3292         estimate D2E/DX2                !
 ! A18   A(6,7,11)             119.8686         estimate D2E/DX2                !
 ! A19   A(3,12,13)            111.2561         estimate D2E/DX2                !
 ! A20   A(3,12,14)            111.2561         estimate D2E/DX2                !
 ! A21   A(3,12,15)            110.9024         estimate D2E/DX2                !
 ! A22   A(13,12,14)           106.8291         estimate D2E/DX2                !
 ! A23   A(13,12,15)           108.2163         estimate D2E/DX2                !
 ! A24   A(14,12,15)           108.2163         estimate D2E/DX2                !
 ! D1    D(3,1,2,4)             -0.0001         estimate D2E/DX2                !
 ! D2    D(3,1,2,5)            180.0            estimate D2E/DX2                !
 ! D3    D(10,1,2,4)           179.9999         estimate D2E/DX2                !
 ! D4    D(10,1,2,5)             0.0            estimate D2E/DX2                !
 ! D5    D(2,1,3,6)              0.0001         estimate D2E/DX2                !
 ! D6    D(2,1,3,12)          -180.0            estimate D2E/DX2                !
 ! D7    D(10,1,3,6)          -179.9999         estimate D2E/DX2                !
 ! D8    D(10,1,3,12)            0.0            estimate D2E/DX2                !
 ! D9    D(1,2,4,7)              0.0001         estimate D2E/DX2                !
 ! D10   D(1,2,4,8)            180.0            estimate D2E/DX2                !
 ! D11   D(5,2,4,7)            180.0            estimate D2E/DX2                !
 ! D12   D(5,2,4,8)             -0.0001         estimate D2E/DX2                !
 ! D13   D(1,3,6,7)             -0.0001         estimate D2E/DX2                !
 ! D14   D(1,3,6,9)            180.0            estimate D2E/DX2                !
 ! D15   D(12,3,6,7)          -180.0            estimate D2E/DX2                !
 ! D16   D(12,3,6,9)             0.0001         estimate D2E/DX2                !
 ! D17   D(1,3,12,13)          -59.4947         estimate D2E/DX2                !
 ! D18   D(1,3,12,14)           59.4948         estimate D2E/DX2                !
 ! D19   D(1,3,12,15)         -180.0            estimate D2E/DX2                !
 ! D20   D(6,3,12,13)          120.5052         estimate D2E/DX2                !
 ! D21   D(6,3,12,14)         -120.5053         estimate D2E/DX2                !
 ! D22   D(6,3,12,15)           -0.0001         estimate D2E/DX2                !
 ! D23   D(2,4,7,6)             -0.0001         estimate D2E/DX2                !
 ! D24   D(2,4,7,11)           180.0            estimate D2E/DX2                !
 ! D25   D(8,4,7,6)           -180.0            estimate D2E/DX2                !
 ! D26   D(8,4,7,11)             0.0001         estimate D2E/DX2                !
 ! D27   D(3,6,7,4)              0.0001         estimate D2E/DX2                !
 ! D28   D(3,6,7,11)          -180.0            estimate D2E/DX2                !
 ! D29   D(9,6,7,4)           -180.0            estimate D2E/DX2                !
 ! D30   D(9,6,7,11)             0.0            estimate D2E/DX2                !
 --------------------------------------------------------------------------------
 Trust Radius=3.00D-01 FncErr=1.00D-07 GrdErr=1.00D-06 EigMax=2.50D+02 EigMin=1.00D-04
 Number of steps in this run=     79 maximum allowed number of steps=    100.
 GradGradGradGradGradGradGradGradGradGradGradGradGradGradGradGradGradGrad

                          Input orientation:                          
 ---------------------------------------------------------------------
 Center     Atomic      Atomic             Coordinates (Angstroms)
 Number     Number       Type             X           Y           Z
 ---------------------------------------------------------------------
      1          6           0       -0.452491    0.020463   -0.000122
      2          6           0        0.211932    1.249223    0.000048
      3          6           0        0.236231   -1.203192   -0.000182
      4          6           0        1.608990    1.277597    0.000166
      5          1           0       -0.351513    2.176565    0.000090
      6          6           0        1.640812   -1.137381   -0.000060
      7          6           0        2.324834    0.078889    0.000111
      8          1           0        2.126470    2.233243    0.000298
      9          1           0        2.202843   -2.068573   -0.000102
     10         53           0       -2.612550    0.064699   -0.000294
     11          1           0        3.411729    0.088669    0.000201
     12          6           0       -0.459864   -2.541913   -0.000365
     13          1           0       -1.103803   -2.655421    0.880356
     14          1           0       -1.103659   -2.655255   -0.881213
     15          1           0        0.267292   -3.360223   -0.000383
 ---------------------------------------------------------------------
                    Distance matrix (angstroms):
                    1          2          3          4          5
     1  C    0.000000
     2  C    1.396893   0.000000
     3  C    1.404162   2.452535   0.000000
     4  C    2.414558   1.397346   2.835274   0.000000
     5  H    2.158465   1.085096   3.430481   2.156784   0.000000
     6  C    2.392179   2.781650   1.406122   2.415188   3.866729
     7  C    2.777939   2.415375   2.450713   1.396185   3.400453
     8  H    3.398152   2.152615   3.922001   1.086759   2.478631
     9  H    3.378590   3.869302   2.148592   3.398458   4.954385
    10  I    2.160512   3.062808   3.118189   4.392325   3.093908
    11  H    3.864822   3.403761   3.428220   2.159495   4.303638
    12  C    2.562387   3.850198   1.508881   4.343825   4.719722
    13  H    2.891333   4.213353   2.163332   4.858252   4.968792
    14  H    2.891333   4.213354   2.163333   4.858253   4.968793
    15  H    3.456461   4.609778   2.157255   4.827994   5.571260
                    6          7          8          9         10
     6  C    0.000000
     7  C    1.395421   0.000000
     8  H    3.405432   2.163467   0.000000
     9  H    1.087657   2.150924   4.302494   0.000000
    10  I    4.419964   4.937404   5.211611   5.266769   0.000000
    11  H    2.153914   1.086939   2.500218   2.472873   6.024327
    12  C    2.526965   3.824022   5.430584   2.704452   3.380604
    13  H    3.257682   4.472900   5.925217   3.471816   3.232787
    14  H    3.257682   4.472901   5.925218   3.471816   3.232788
    15  H    2.612965   4.007614   5.894354   2.326955   4.474772
                   11         12         13         14         15
    11  H    0.000000
    12  C    4.680726   0.000000
    13  H    5.356746   1.096910   0.000000
    14  H    5.356747   1.096910   1.761569   0.000000
    15  H    4.667155   1.094709   1.775485   1.775485   0.000000
 Symmetry turned off by external request.
 Stoichiometry    C7H7I
 Framework group  C1[X(C7H7I)]
 Deg. of freedom    39
 Full point group                 C1      NOp   1
 Rotational constants (GHZ):           2.7157199           0.7157297           0.5684357
 General basis read from cards:  (5D, 7F)
 ======================================================================================================
                                       Pseudopotential Parameters
 ======================================================================================================
  Center     Atomic      Valence      Angular      Power
  Number     Number     Electrons     Momentum     of R      Exponent        Coefficient   SO-Coeffient
 ======================================================================================================
    1          6
                                   No pseudopotential on this center.
    2          6
                                   No pseudopotential on this center.
    3          6
                                   No pseudopotential on this center.
    4          6
                                   No pseudopotential on this center.
    5          1
                                   No pseudopotential on this center.
    6          6
                                   No pseudopotential on this center.
    7          6
                                   No pseudopotential on this center.
    8          1
                                   No pseudopotential on this center.
    9          1
                                   No pseudopotential on this center.
   10         53            7
                                      G and up 
                                                     2        1.0000000        0.00000000    0.00000000
                                      S - G
                                                     2        3.5112000       83.11386300    0.00000000
                                                     2        1.7556000        5.20187600    0.00000000
                                      P - G
                                                     2        2.9688000       82.81110900    0.00000000
                                                     2        1.4844000        3.37968200    0.00000000
                                      D - G
                                                     2        1.9066000       10.30427700    0.00000000
                                                     2        0.9533000        7.58803200    0.00000000
                                      F - G
                                                     2        2.3075000      -21.47793600    0.00000000
   11          1
                                   No pseudopotential on this center.
   12          6
                                   No pseudopotential on this center.
   13          1
                                   No pseudopotential on this center.
   14          1
                                   No pseudopotential on this center.
   15          1
                                   No pseudopotential on this center.
 ======================================================================================================
   151 basis functions,   271 primitive gaussians,   158 cartesian basis functions
    28 alpha electrons       28 beta electrons
       nuclear repulsion energy       309.7429675244 Hartrees.
 NAtoms=   15 NActive=   15 NUniq=   15 SFac= 1.00D+00 NAtFMM=   60 NAOKFM=F Big=F
 Integral buffers will be    131072 words long.
 Raffenetti 2 integral format.
 Two-electron integral symmetry is turned off.
 Nuclear repulsion after empirical dispersion term =      309.7310605082 Hartrees.
 One-electron integrals computed using PRISM.
   1 Symmetry operations used in ECPInt.
 ECPInt:  NShTT=    1485 NPrTT=    7534 LenC2=    1483 LenP2D=    5767.
 LDataN:  DoStor=T MaxTD1= 6 Len=  172
 NBasis=   151 RedAO= T EigKep=  2.76D-06  NBF=   151
 NBsUse=   151 1.00D-06 EigRej= -1.00D+00 NBFU=   151
 Defaulting to unpruned grid for atomic number  53.
 ExpMin= 3.26D-02 ExpMax= 3.05D+03 ExpMxC= 4.57D+02 IAcc=3 IRadAn=         5 AccDes= 0.00D+00
 Harris functional with IExCor=  402 and IRadAn=       5 diagonalized for initial guess.
 HarFok:  IExCor=  402 AccDes= 0.00D+00 IRadAn=         5 IDoV= 1 UseB2=F ITyADJ=14
 ICtDFT=  3500011 ScaDFX=  1.000000  1.000000  1.000000  1.000000
 Defaulting to unpruned grid for atomic number  53.
 FoFCou: FMM=F IPFlag=           0 FMFlag=      100000 FMFlg1=           0
         NFxFlg=           0 DoJE=T BraDBF=F KetDBF=T FulRan=T
         wScrn=  0.000000 ICntrl=       500 IOpCl=  0 I1Cent=   200000004 NGrid=           0
         NMat0=    1 NMatS0=      1 NMatT0=    0 NMatD0=    1 NMtDS0=    0 NMtDT0=    0
 Symmetry not used in FoFCou.
 Requested convergence on RMS density matrix=1.00D-08 within1000 cycles.
 Requested convergence on MAX density matrix=1.00D-06.
 Requested convergence on             energy=1.00D-06.
 No special actions if energy rises.
 Defaulting to unpruned grid for atomic number  53.
 Defaulting to unpruned grid for atomic number  53.
 Defaulting to unpruned grid for atomic number  53.
 Defaulting to unpruned grid for atomic number  53.
 Defaulting to unpruned grid for atomic number  53.
 Defaulting to unpruned grid for atomic number  53.
 Defaulting to unpruned grid for atomic number  53.
 Defaulting to unpruned grid for atomic number  53.
 Defaulting to unpruned grid for atomic number  53.
 Defaulting to unpruned grid for atomic number  53.
 Defaulting to unpruned grid for atomic number  53.
 Defaulting to unpruned grid for atomic number  53.
 Defaulting to unpruned grid for atomic number  53.
 Defaulting to unpruned grid for atomic number  53.
 Defaulting to unpruned grid for atomic number  53.
 Defaulting to unpruned grid for atomic number  53.
 Defaulting to unpruned grid for atomic number  53.
 Defaulting to unpruned grid for atomic number  53.
 Defaulting to unpruned grid for atomic number  53.
 Defaulting to unpruned grid for atomic number  53.
 Defaulting to unpruned grid for atomic number  53.
 Defaulting to unpruned grid for atomic number  53.
 Defaulting to unpruned grid for atomic number  53.
 Defaulting to unpruned grid for atomic number  53.
 Defaulting to unpruned grid for atomic number  53.
 Defaulting to unpruned grid for atomic number  53.
 Defaulting to unpruned grid for atomic number  53.
 Defaulting to unpruned grid for atomic number  53.
 Defaulting to unpruned grid for atomic number  53.
 Defaulting to unpruned grid for atomic number  53.
 Defaulting to unpruned grid for atomic number  53.
 Defaulting to unpruned grid for atomic number  53.
 SCF Done:  E(RB3LYP) =  -282.392639157     A.U. after   15 cycles
            NFock= 15  Conv=0.11D-08     -V/T= 2.0363

 **********************************************************************

            Population analysis using the SCF Density.

 **********************************************************************

 Alpha  occ. eigenvalues --  -10.24460 -10.21840 -10.20678 -10.20211 -10.20185
 Alpha  occ. eigenvalues --  -10.20098 -10.18757  -0.87639  -0.78910  -0.77059
 Alpha  occ. eigenvalues --   -0.70513  -0.68524  -0.61577  -0.59173  -0.51528
 Alpha  occ. eigenvalues --   -0.48005  -0.46072  -0.43275  -0.42764  -0.41375
 Alpha  occ. eigenvalues --   -0.39407  -0.37357  -0.36355  -0.33928  -0.29733
 Alpha  occ. eigenvalues --   -0.26858  -0.26154  -0.24393
 Alpha virt. eigenvalues --   -0.04387  -0.02643  -0.02244   0.00495   0.01552
 Alpha virt. eigenvalues --    0.02084   0.03925   0.04436   0.04455   0.05577
 Alpha virt. eigenvalues --    0.06099   0.06443   0.06836   0.07716   0.09842
 Alpha virt. eigenvalues --    0.10071   0.10346   0.11002   0.11837   0.12742
 Alpha virt. eigenvalues --    0.13083   0.13480   0.14874   0.16226   0.16855
 Alpha virt. eigenvalues --    0.17116   0.17989   0.19445   0.20490   0.20607
 Alpha virt. eigenvalues --    0.21011   0.22131   0.22502   0.23279   0.23437
 Alpha virt. eigenvalues --    0.23912   0.25004   0.26009   0.27569   0.28494
 Alpha virt. eigenvalues --    0.28597   0.30719   0.33715   0.33783   0.34560
 Alpha virt. eigenvalues --    0.36038   0.37423   0.54351   0.54964   0.61623
 Alpha virt. eigenvalues --    0.64961   0.65784   0.66648   0.68335   0.69104
 Alpha virt. eigenvalues --    0.70702   0.71836   0.72675   0.73390   0.73465
 Alpha virt. eigenvalues --    0.75492   0.76950   0.77872   0.78333   0.80521
 Alpha virt. eigenvalues --    0.85813   0.86134   0.89605   0.90683   0.93407
 Alpha virt. eigenvalues --    0.94716   0.95343   1.01042   1.03309   1.05714
 Alpha virt. eigenvalues --    1.08238   1.11400   1.16041   1.16057   1.17305
 Alpha virt. eigenvalues --    1.23636   1.24525   1.28771   1.33176   1.36163
 Alpha virt. eigenvalues --    1.40024   1.42599   1.46685   1.47062   1.47965
 Alpha virt. eigenvalues --    1.49726   1.49872   1.74793   1.80436   1.81582
 Alpha virt. eigenvalues --    1.88276   1.88910   1.91849   1.94405   2.02576
 Alpha virt. eigenvalues --    2.08560   2.10364   2.11549   2.14062   2.15531
 Alpha virt. eigenvalues --    2.19166   2.23470   2.29043   2.30730   2.32237
 Alpha virt. eigenvalues --    2.36591   2.41414   2.55971   2.59037   2.63262
 Alpha virt. eigenvalues --    2.71200   2.71973   2.74648   2.76526   2.92891
 Alpha virt. eigenvalues --    3.04416   3.35849  15.09007
          Condensed to atoms (all electrons):
               1          2          3          4          5          6
     1  C    9.030210  -0.125720  -0.811163   0.037948  -0.024915  -1.652691
     2  C   -0.125720   7.208835  -0.131470   0.295162   0.255802  -1.232110
     3  C   -0.811163  -0.131470   8.740712  -0.546822   0.098373  -0.897201
     4  C    0.037948   0.295162  -0.546822   5.387100  -0.026343  -0.101712
     5  H   -0.024915   0.255802   0.098373  -0.026343   0.509453  -0.003998
     6  C   -1.652691  -1.232110  -0.897201  -0.101712  -0.003998   9.741156
     7  C   -0.147965  -0.281362  -0.106134   0.772449   0.002344   0.219067
     8  H    0.035242  -0.057575  -0.016615   0.322772  -0.005378   0.030485
     9  H    0.052004  -0.010081  -0.004765   0.017142   0.000013   0.235980
    10  I   -0.542690   0.200309   0.035871   0.133579  -0.004399   0.183388
    11  H   -0.021109   0.039550   0.052101  -0.031738  -0.000150  -0.060715
    12  C   -0.257682  -0.148867  -0.374068   0.015525   0.003408   0.408750
    13  H   -0.037769   0.003840  -0.056318  -0.001029  -0.000001   0.001943
    14  H   -0.037775   0.003839  -0.056316  -0.001029  -0.000001   0.001947
    15  H    0.038258  -0.017690  -0.140362   0.004660   0.000002   0.015896
               7          8          9         10         11         12
     1  C   -0.147965   0.035242   0.052004  -0.542690  -0.021109  -0.257682
     2  C   -0.281362  -0.057575  -0.010081   0.200309   0.039550  -0.148867
     3  C   -0.106134  -0.016615  -0.004765   0.035871   0.052101  -0.374068
     4  C    0.772449   0.322772   0.017142   0.133579  -0.031738   0.015525
     5  H    0.002344  -0.005378   0.000013  -0.004399  -0.000150   0.003408
     6  C    0.219067   0.030485   0.235980   0.183388  -0.060715   0.408750
     7  C    5.383726  -0.019617   0.006993   0.026112   0.315500  -0.055599
     8  H   -0.019617   0.533070  -0.000161  -0.000763  -0.004829   0.000251
     9  H    0.006993  -0.000161   0.546688  -0.000705  -0.005046  -0.021232
    10  I    0.026112  -0.000763  -0.000705   6.927427   0.000228  -0.020923
    11  H    0.315500  -0.004829  -0.005046   0.000228   0.533014   0.000696
    12  C   -0.055599   0.000251  -0.021232  -0.020923   0.000696   6.052297
    13  H    0.000213   0.000000   0.000174  -0.002053   0.000002   0.423347
    14  H    0.000213   0.000000   0.000174  -0.002053   0.000002   0.423347
    15  H   -0.003225   0.000000   0.004282   0.002484  -0.000006   0.434240
              13         14         15
     1  C   -0.037769  -0.037775   0.038258
     2  C    0.003840   0.003839  -0.017690
     3  C   -0.056318  -0.056316  -0.140362
     4  C   -0.001029  -0.001029   0.004660
     5  H   -0.000001  -0.000001   0.000002
     6  C    0.001943   0.001947   0.015896
     7  C    0.000213   0.000213  -0.003225
     8  H    0.000000   0.000000   0.000000
     9  H    0.000174   0.000174   0.004282
    10  I   -0.002053  -0.002053   0.002484
    11  H    0.000002   0.000002  -0.000006
    12  C    0.423347   0.423347   0.434240
    13  H    0.486588  -0.033019  -0.024810
    14  H   -0.033019   0.486588  -0.024810
    15  H   -0.024810  -0.024810   0.506471
 Mulliken charges:
               1
     1  C    0.465817
     2  C   -0.002462
     3  C    0.214177
     4  C   -0.277667
     5  H    0.195789
     6  C   -0.890185
     7  C   -0.112716
     8  H    0.183117
     9  H    0.178539
    10  I    0.064188
    11  H    0.182500
    12  C   -0.883489
    13  H    0.238891
    14  H    0.238891
    15  H    0.204610
 Sum of Mulliken charges =   0.00000
 Mulliken charges with hydrogens summed into heavy atoms:
               1
     1  C    0.465817
     2  C    0.193327
     3  C    0.214177
     4  C   -0.094550
     6  C   -0.711646
     7  C    0.069784
    10  I    0.064188
    12  C   -0.201097
 Electronic spatial extent (au):  <R**2>=           1043.6954
 Charge=              0.0000 electrons
 Dipole moment (field-independent basis, Debye):
    X=              1.6007    Y=             -0.4582    Z=              0.0001  Tot=              1.6649
 Quadrupole moment (field-independent basis, Debye-Ang):
   XX=            -60.1880   YY=            -56.8586   ZZ=            -66.5589
   XY=              0.4140   XZ=              0.0004   YZ=              0.0010
 Traceless Quadrupole moment (field-independent basis, Debye-Ang):
   XX=              1.0138   YY=              4.3432   ZZ=             -5.3571
   XY=              0.4140   XZ=              0.0004   YZ=              0.0010
 Octapole moment (field-independent basis, Debye-Ang**2):
  XXX=             75.4526  YYY=             43.7802  ZZZ=              0.0262  XYY=             28.8679
  XXY=             15.1173  XXZ=              0.0095  XZZ=             20.3310  YZZ=             13.6056
  YYZ=              0.0089  XYZ=              0.0009
 Hexadecapole moment (field-independent basis, Debye-Ang**3):
 XXXX=          -1263.3169 YYYY=           -614.6774 ZZZZ=           -102.9903 XXXY=            -25.4915
 XXXZ=             -0.0476 YYYX=            -24.4057 YYYZ=             -0.0271 ZZZX=             -0.0633
 ZZZY=             -0.0322 XXYY=           -330.1845 XXZZ=           -263.7784 YYZZ=           -129.9394
 XXYZ=             -0.0087 YYXZ=             -0.0200 ZZXY=             -6.0345
 N-N= 3.097310605082D+02 E-N=-1.268303946757D+03  KE= 2.725123644536D+02
 Evaluate density.
 Using the total density.
 Monte-Carlo method of calculating molar volume:
 based on  0.001 e/bohr**3 density envelope.
 Number of points per bohr**3 =   20 CutOff= 1.00D-04
 Using the SCF density.
 There are       484 points.  Will hold       484 in memory.
 LenV=  8321396691 MDV=  8321499136.
 Box volume =14179.562 fraction occupied=0.097
 Integrated density= 3.4578403652154947D+01 error=-2.1421596347845053D+01
 Molar volume = 1376.941 bohr**3/mol (122.877 cm**3/mol)
 Recommended a0 for SCRF calculation =  4.52 angstrom (  8.54 bohr)
   1 Symmetry operations used in ECPInt.
 ECPInt:  NShTT=    1485 NPrTT=    7534 LenC2=    1483 LenP2D=    5767.
 LDataN:  DoStor=T MaxTD1= 7 Len=  274
 Calling FoFJK, ICntrl=      2127 FMM=F ISym2X=0 I1Cent= 0 IOpClX= 0 NMat=1 NMatS=1 NMatT=0.
 Defaulting to unpruned grid for atomic number  53.
 Defaulting to unpruned grid for atomic number  53.
 Defaulting to unpruned grid for atomic number  53.
 Defaulting to unpruned grid for atomic number  53.
 Defaulting to unpruned grid for atomic number  53.
 Defaulting to unpruned grid for atomic number  53.
 Defaulting to unpruned grid for atomic number  53.
 Defaulting to unpruned grid for atomic number  53.
 Defaulting to unpruned grid for atomic number  53.
 Defaulting to unpruned grid for atomic number  53.
 Defaulting to unpruned grid for atomic number  53.
 Defaulting to unpruned grid for atomic number  53.
 Defaulting to unpruned grid for atomic number  53.
 Defaulting to unpruned grid for atomic number  53.
 Defaulting to unpruned grid for atomic number  53.
 Defaulting to unpruned grid for atomic number  53.
 Defaulting to unpruned grid for atomic number  53.
 Defaulting to unpruned grid for atomic number  53.
 Defaulting to unpruned grid for atomic number  53.
 Defaulting to unpruned grid for atomic number  53.
 Defaulting to unpruned grid for atomic number  53.
 Defaulting to unpruned grid for atomic number  53.
 Defaulting to unpruned grid for atomic number  53.
 Defaulting to unpruned grid for atomic number  53.
 Defaulting to unpruned grid for atomic number  53.
 Defaulting to unpruned grid for atomic number  53.
 Defaulting to unpruned grid for atomic number  53.
 Defaulting to unpruned grid for atomic number  53.
 Defaulting to unpruned grid for atomic number  53.
 Defaulting to unpruned grid for atomic number  53.
 Defaulting to unpruned grid for atomic number  53.
 Defaulting to unpruned grid for atomic number  53.
 -------------------------------------------------------------------
 Center     Atomic                   Forces (Hartrees/Bohr)
 Number     Number              X              Y              Z
 -------------------------------------------------------------------
      1        6           0.000382330    0.000252971   -0.000000067
      2        6          -0.000209567   -0.000061653    0.000000156
      3        6          -0.000195784   -0.000118735    0.000000152
      4        6           0.000012992   -0.000098736   -0.000000187
      5        1           0.000013444   -0.000031030   -0.000000038
      6        6          -0.000048679   -0.000031979   -0.000000113
      7        6           0.000263107    0.000207300    0.000000108
      8        1           0.000028483   -0.000025040    0.000000041
      9        1          -0.000025102    0.000005102   -0.000000002
     10       53          -0.000100221   -0.000055927   -0.000000017
     11        1          -0.000129300   -0.000020831   -0.000000001
     12        6          -0.000064296   -0.000159314   -0.000000234
     13        1           0.000101156   -0.000004118   -0.000149342
     14        1           0.000101201   -0.000004118    0.000149509
     15        1          -0.000129763    0.000146107    0.000000032
 -------------------------------------------------------------------
 Cartesian Forces:  Max     0.000382330 RMS     0.000115687

 GradGradGradGradGradGradGradGradGradGradGradGradGradGradGradGradGradGrad
 Berny optimization.
 FormGI is forming the generalized inverse of G from B-inverse, IUseBI=4.
 Internal  Forces:  Max     0.000195826 RMS     0.000062569
 Search for a local minimum.
 Step number   1 out of a maximum of   79
 All quantities printed in internal units (Hartrees-Bohrs-Radians)
 Mixed Optimization -- En-DIIS/RFO-DIIS
 Second derivative matrix not updated -- first step.
 ITU=  0
     Eigenvalues ---    0.00648   0.01450   0.02035   0.02074   0.02084
     Eigenvalues ---    0.02112   0.02127   0.02132   0.02135   0.02144
     Eigenvalues ---    0.07125   0.07158   0.12116   0.16000   0.16000
     Eigenvalues ---    0.16000   0.16000   0.16000   0.16000   0.16000
     Eigenvalues ---    0.22000   0.22490   0.24480   0.25000   0.25000
     Eigenvalues ---    0.31463   0.34026   0.34026   0.34274   0.35085
     Eigenvalues ---    0.35169   0.35190   0.35386   0.41477   0.41785
     Eigenvalues ---    0.45097   0.45575   0.46161   0.46298
 RFO step:  Lambda=-9.16374470D-07 EMin= 6.48467492D-03
 Linear search not attempted -- first point.
 Iteration  1 RMS(Cart)=  0.00025208 RMS(Int)=  0.00000005
 Iteration  2 RMS(Cart)=  0.00000008 RMS(Int)=  0.00000001
 Variable       Old X    -DE/DX   Delta X   Delta X   Delta X     New X
                                 (Linear)    (Quad)   (Total)
    R1        2.63974  -0.00016   0.00000  -0.00037  -0.00037   2.63938
    R2        2.65348  -0.00001   0.00000  -0.00004  -0.00004   2.65344
    R3        4.08278   0.00010   0.00000   0.00082   0.00082   4.08359
    R4        2.64060   0.00008   0.00000   0.00016   0.00016   2.64076
    R5        2.05053  -0.00003   0.00000  -0.00010  -0.00010   2.05044
    R6        2.65719   0.00003   0.00000   0.00007   0.00007   2.65725
    R7        2.85137   0.00002   0.00000   0.00005   0.00005   2.85142
    R8        2.63841  -0.00006   0.00000  -0.00013  -0.00013   2.63828
    R9        2.05368  -0.00001   0.00000  -0.00002  -0.00002   2.05365
   R10        2.63696   0.00013   0.00000   0.00029   0.00029   2.63725
   R11        2.05537  -0.00002   0.00000  -0.00005  -0.00005   2.05532
   R12        2.05402  -0.00013   0.00000  -0.00037  -0.00037   2.05365
   R13        2.07286  -0.00018   0.00000  -0.00053  -0.00053   2.07233
   R14        2.07286  -0.00018   0.00000  -0.00053  -0.00053   2.07233
   R15        2.06870  -0.00020   0.00000  -0.00057  -0.00057   2.06813
    A1        2.13325   0.00012   0.00000   0.00044   0.00044   2.13369
    A2        2.04602   0.00006   0.00000   0.00025   0.00025   2.04626
    A3        2.10392  -0.00018   0.00000  -0.00069  -0.00069   2.10323
    A4        2.08680  -0.00004   0.00000  -0.00022  -0.00022   2.08658
    A5        2.09991   0.00002   0.00000   0.00008   0.00008   2.10000
    A6        2.09647   0.00002   0.00000   0.00014   0.00014   2.09661
    A7        2.03662  -0.00009   0.00000  -0.00037  -0.00037   2.03626
    A8        2.14945   0.00009   0.00000   0.00037   0.00037   2.14982
    A9        2.09711   0.00000   0.00000  -0.00001  -0.00001   2.09711
   A10        2.08883   0.00004   0.00000   0.00018   0.00018   2.08901
   A11        2.08740   0.00002   0.00000   0.00015   0.00015   2.08755
   A12        2.10696  -0.00006   0.00000  -0.00033  -0.00033   2.10663
   A13        2.12992   0.00004   0.00000   0.00021   0.00021   2.13013
   A14        2.06701  -0.00004   0.00000  -0.00023  -0.00023   2.06678
   A15        2.08625   0.00000   0.00000   0.00002   0.00002   2.08627
   A16        2.09094  -0.00006   0.00000  -0.00024  -0.00024   2.09070
   A17        2.10014   0.00005   0.00000   0.00025   0.00025   2.10039
   A18        2.09210   0.00001   0.00000  -0.00001  -0.00001   2.09209
   A19        1.94178   0.00003   0.00000   0.00020   0.00020   1.94199
   A20        1.94178   0.00003   0.00000   0.00020   0.00020   1.94199
   A21        1.93561  -0.00001   0.00000  -0.00011  -0.00011   1.93550
   A22        1.86452  -0.00002   0.00000  -0.00008  -0.00008   1.86444
   A23        1.88873  -0.00001   0.00000  -0.00011  -0.00011   1.88862
   A24        1.88873  -0.00001   0.00000  -0.00011  -0.00011   1.88862
    D1        0.00000   0.00000   0.00000   0.00000   0.00000   0.00000
    D2        3.14159   0.00000   0.00000   0.00000   0.00000   3.14159
    D3        3.14159   0.00000   0.00000   0.00000   0.00000  -3.14159
    D4        0.00000   0.00000   0.00000   0.00000   0.00000   0.00000
    D5        0.00000   0.00000   0.00000   0.00000   0.00000   0.00000
    D6       -3.14159   0.00000   0.00000   0.00000   0.00000   3.14159
    D7       -3.14159   0.00000   0.00000   0.00000   0.00000   3.14159
    D8        0.00000   0.00000   0.00000   0.00000   0.00000   0.00000
    D9        0.00000   0.00000   0.00000   0.00000   0.00000   0.00000
   D10        3.14159   0.00000   0.00000   0.00000   0.00000   3.14159
   D11        3.14159   0.00000   0.00000   0.00000   0.00000   3.14159
   D12        0.00000   0.00000   0.00000   0.00000   0.00000   0.00000
   D13        0.00000   0.00000   0.00000   0.00000   0.00000   0.00000
   D14        3.14159   0.00000   0.00000   0.00000   0.00000  -3.14159
   D15       -3.14159   0.00000   0.00000   0.00000   0.00000  -3.14159
   D16        0.00000   0.00000   0.00000   0.00000   0.00000   0.00000
   D17       -1.03838  -0.00001   0.00000  -0.00008  -0.00008  -1.03846
   D18        1.03838   0.00001   0.00000   0.00008   0.00008   1.03846
   D19       -3.14159   0.00000   0.00000   0.00000   0.00000   3.14159
   D20        2.10321  -0.00001   0.00000  -0.00008  -0.00008   2.10313
   D21       -2.10321   0.00001   0.00000   0.00008   0.00008  -2.10313
   D22        0.00000   0.00000   0.00000   0.00000   0.00000   0.00000
   D23        0.00000   0.00000   0.00000   0.00000   0.00000   0.00000
   D24        3.14159   0.00000   0.00000   0.00000   0.00000  -3.14159
   D25       -3.14159   0.00000   0.00000   0.00000   0.00000  -3.14159
   D26        0.00000   0.00000   0.00000   0.00000   0.00000   0.00000
   D27        0.00000   0.00000   0.00000   0.00000   0.00000   0.00000
   D28       -3.14159   0.00000   0.00000   0.00000   0.00000   3.14159
   D29       -3.14159   0.00000   0.00000   0.00000   0.00000   3.14159
   D30        0.00000   0.00000   0.00000   0.00000   0.00000   0.00000
         Item               Value     Threshold  Converged?
 Maximum Force            0.000196     0.000450     YES
 RMS     Force            0.000063     0.000300     YES
 Maximum Displacement     0.001011     0.001800     YES
 RMS     Displacement     0.000252     0.001200     YES
 Predicted change in Energy=-4.581887D-07
 Optimization completed.
    -- Stationary point found.
                           ----------------------------
                           !   Optimized Parameters   !
                           ! (Angstroms and Degrees)  !
 --------------------------                            --------------------------
 ! Name  Definition              Value          Derivative Info.                !
 --------------------------------------------------------------------------------
 ! R1    R(1,2)                  1.3969         -DE/DX =   -0.0002              !
 ! R2    R(1,3)                  1.4042         -DE/DX =    0.0                 !
 ! R3    R(1,10)                 2.1605         -DE/DX =    0.0001              !
 ! R4    R(2,4)                  1.3973         -DE/DX =    0.0001              !
 ! R5    R(2,5)                  1.0851         -DE/DX =    0.0                 !
 ! R6    R(3,6)                  1.4061         -DE/DX =    0.0                 !
 ! R7    R(3,12)                 1.5089         -DE/DX =    0.0                 !
 ! R8    R(4,7)                  1.3962         -DE/DX =   -0.0001              !
 ! R9    R(4,8)                  1.0868         -DE/DX =    0.0                 !
 ! R10   R(6,7)                  1.3954         -DE/DX =    0.0001              !
 ! R11   R(6,9)                  1.0877         -DE/DX =    0.0                 !
 ! R12   R(7,11)                 1.0869         -DE/DX =   -0.0001              !
 ! R13   R(12,13)                1.0969         -DE/DX =   -0.0002              !
 ! R14   R(12,14)                1.0969         -DE/DX =   -0.0002              !
 ! R15   R(12,15)                1.0947         -DE/DX =   -0.0002              !
 ! A1    A(2,1,3)              122.2262         -DE/DX =    0.0001              !
 ! A2    A(2,1,10)             117.2281         -DE/DX =    0.0001              !
 ! A3    A(3,1,10)             120.5458         -DE/DX =   -0.0002              !
 ! A4    A(1,2,4)              119.5648         -DE/DX =    0.0                 !
 ! A5    A(1,2,5)              120.3162         -DE/DX =    0.0                 !
 ! A6    A(4,2,5)              120.119          -DE/DX =    0.0                 !
 ! A7    A(1,3,6)              116.6899         -DE/DX =   -0.0001              !
 ! A8    A(1,3,12)             123.1544         -DE/DX =    0.0001              !
 ! A9    A(6,3,12)             120.1557         -DE/DX =    0.0                 !
 ! A10   A(2,4,7)              119.6813         -DE/DX =    0.0                 !
 ! A11   A(2,4,8)              119.5989         -DE/DX =    0.0                 !
 ! A12   A(7,4,8)              120.7198         -DE/DX =   -0.0001              !
 ! A13   A(3,6,7)              122.0357         -DE/DX =    0.0                 !
 ! A14   A(3,6,9)              118.4309         -DE/DX =    0.0                 !
 ! A15   A(7,6,9)              119.5334         -DE/DX =    0.0                 !
 ! A16   A(4,7,6)              119.8021         -DE/DX =   -0.0001              !
 ! A17   A(4,7,11)             120.3292         -DE/DX =    0.0001              !
 ! A18   A(6,7,11)             119.8686         -DE/DX =    0.0                 !
 ! A19   A(3,12,13)            111.2561         -DE/DX =    0.0                 !
 ! A20   A(3,12,14)            111.2561         -DE/DX =    0.0                 !
 ! A21   A(3,12,15)            110.9024         -DE/DX =    0.0                 !
 ! A22   A(13,12,14)           106.8291         -DE/DX =    0.0                 !
 ! A23   A(13,12,15)           108.2163         -DE/DX =    0.0                 !
 ! A24   A(14,12,15)           108.2163         -DE/DX =    0.0                 !
 ! D1    D(3,1,2,4)             -0.0001         -DE/DX =    0.0                 !
 ! D2    D(3,1,2,5)            180.0            -DE/DX =    0.0                 !
 ! D3    D(10,1,2,4)          -180.0001         -DE/DX =    0.0                 !
 ! D4    D(10,1,2,5)             0.0            -DE/DX =    0.0                 !
 ! D5    D(2,1,3,6)              0.0001         -DE/DX =    0.0                 !
 ! D6    D(2,1,3,12)           180.0            -DE/DX =    0.0                 !
 ! D7    D(10,1,3,6)           180.0001         -DE/DX =    0.0                 !
 ! D8    D(10,1,3,12)            0.0            -DE/DX =    0.0                 !
 ! D9    D(1,2,4,7)              0.0001         -DE/DX =    0.0                 !
 ! D10   D(1,2,4,8)            180.0            -DE/DX =    0.0                 !
 ! D11   D(5,2,4,7)            180.0            -DE/DX =    0.0                 !
 ! D12   D(5,2,4,8)             -0.0001         -DE/DX =    0.0                 !
 ! D13   D(1,3,6,7)             -0.0001         -DE/DX =    0.0                 !
 ! D14   D(1,3,6,9)           -180.0            -DE/DX =    0.0                 !
 ! D15   D(12,3,6,7)          -180.0            -DE/DX =    0.0                 !
 ! D16   D(12,3,6,9)             0.0001         -DE/DX =    0.0                 !
 ! D17   D(1,3,12,13)          -59.4947         -DE/DX =    0.0                 !
 ! D18   D(1,3,12,14)           59.4948         -DE/DX =    0.0                 !
 ! D19   D(1,3,12,15)          180.0            -DE/DX =    0.0                 !
 ! D20   D(6,3,12,13)          120.5052         -DE/DX =    0.0                 !
 ! D21   D(6,3,12,14)         -120.5053         -DE/DX =    0.0                 !
 ! D22   D(6,3,12,15)           -0.0001         -DE/DX =    0.0                 !
 ! D23   D(2,4,7,6)             -0.0001         -DE/DX =    0.0                 !
 ! D24   D(2,4,7,11)          -180.0            -DE/DX =    0.0                 !
 ! D25   D(8,4,7,6)           -180.0            -DE/DX =    0.0                 !
 ! D26   D(8,4,7,11)             0.0001         -DE/DX =    0.0                 !
 ! D27   D(3,6,7,4)              0.0001         -DE/DX =    0.0                 !
 ! D28   D(3,6,7,11)           180.0            -DE/DX =    0.0                 !
 ! D29   D(9,6,7,4)            180.0            -DE/DX =    0.0                 !
 ! D30   D(9,6,7,11)             0.0            -DE/DX =    0.0                 !
 --------------------------------------------------------------------------------
 GradGradGradGradGradGradGradGradGradGradGradGradGradGradGradGradGradGrad

                          Input orientation:                          
 ---------------------------------------------------------------------
 Center     Atomic      Atomic             Coordinates (Angstroms)
 Number     Number       Type             X           Y           Z
 ---------------------------------------------------------------------
      1          6           0       -0.452491    0.020463   -0.000122
      2          6           0        0.211932    1.249223    0.000048
      3          6           0        0.236231   -1.203192   -0.000182
      4          6           0        1.608990    1.277597    0.000166
      5          1           0       -0.351513    2.176565    0.000090
      6          6           0        1.640812   -1.137381   -0.000060
      7          6           0        2.324834    0.078889    0.000111
      8          1           0        2.126470    2.233243    0.000298
      9          1           0        2.202843   -2.068573   -0.000102
     10         53           0       -2.612550    0.064699   -0.000294
     11          1           0        3.411729    0.088669    0.000201
     12          6           0       -0.459864   -2.541913   -0.000365
     13          1           0       -1.103803   -2.655421    0.880356
     14          1           0       -1.103659   -2.655255   -0.881213
     15          1           0        0.267292   -3.360223   -0.000383
 ---------------------------------------------------------------------
                    Distance matrix (angstroms):
                    1          2          3          4          5
     1  C    0.000000
     2  C    1.396893   0.000000
     3  C    1.404162   2.452535   0.000000
     4  C    2.414558   1.397346   2.835274   0.000000
     5  H    2.158465   1.085096   3.430481   2.156784   0.000000
     6  C    2.392179   2.781650   1.406122   2.415188   3.866729
     7  C    2.777939   2.415375   2.450713   1.396185   3.400453
     8  H    3.398152   2.152615   3.922001   1.086759   2.478631
     9  H    3.378590   3.869302   2.148592   3.398458   4.954385
    10  I    2.160512   3.062808   3.118189   4.392325   3.093908
    11  H    3.864822   3.403761   3.428220   2.159495   4.303638
    12  C    2.562387   3.850198   1.508881   4.343825   4.719722
    13  H    2.891333   4.213353   2.163332   4.858252   4.968792
    14  H    2.891333   4.213354   2.163333   4.858253   4.968793
    15  H    3.456461   4.609778   2.157255   4.827994   5.571260
                    6          7          8          9         10
     6  C    0.000000
     7  C    1.395421   0.000000
     8  H    3.405432   2.163467   0.000000
     9  H    1.087657   2.150924   4.302494   0.000000
    10  I    4.419964   4.937404   5.211611   5.266769   0.000000
    11  H    2.153914   1.086939   2.500218   2.472873   6.024327
    12  C    2.526965   3.824022   5.430584   2.704452   3.380604
    13  H    3.257682   4.472900   5.925217   3.471816   3.232787
    14  H    3.257682   4.472901   5.925218   3.471816   3.232788
    15  H    2.612965   4.007614   5.894354   2.326955   4.474772
                   11         12         13         14         15
    11  H    0.000000
    12  C    4.680726   0.000000
    13  H    5.356746   1.096910   0.000000
    14  H    5.356747   1.096910   1.761569   0.000000
    15  H    4.667155   1.094709   1.775485   1.775485   0.000000
 Symmetry turned off by external request.
 Stoichiometry    C7H7I
 Framework group  C1[X(C7H7I)]
 Deg. of freedom    39
 Full point group                 C1      NOp   1
 Rotational constants (GHZ):           2.7157199           0.7157297           0.5684357
 1\1\GINC-IP-172-31-8-94\FOpt\RB3LYP\Gen\C7H7I1\UBUNTU\16-Sep-2023\0\\#
  opt freq rb3lyp/gen nosymm empiricaldispersion=gd3 pseudo=read scf=ma
 xcycle=1000 volume\\reac1\\0,1\C,-0.452491,0.020463,-0.000122\C,0.2119
 32,1.249223,0.000048\C,0.236231,-1.203192,-0.000182\C,1.60899,1.277597
 ,0.000166\H,-0.351513,2.176565,0.00009\C,1.640812,-1.137381,-0.00006\C
 ,2.324834,0.078889,0.000111\H,2.12647,2.233243,0.000298\H,2.202843,-2.
 068573,-0.000102\I,-2.61255,0.064699,-0.000294\H,3.411729,0.088669,0.0
 00201\C,-0.459864,-2.541913,-0.000365\H,-1.103803,-2.655421,0.880356\H
 ,-1.103659,-2.655255,-0.881213\H,0.267292,-3.360223,-0.000383\\Version
 =EM64L-G16RevB.01\HF=-282.3926392\RMSD=1.114e-09\RMSF=1.157e-04\Dipole
 =0.6297455,-0.1802584,0.0000345\Quadrupole=0.7537513,3.2290892,-3.9828
 406,0.3077786,0.0003123,0.0007363\PG=C01 [X(C7H7I1)]\\@


 Where a calculator on the ENIAC is equipped with 18,000
 vacuum tubes and weighs 30 tons, computers inthe future
 may  have only 1,000 vacuum tubes and weigh only 1 1/2 tons.
              ---Popular Mechanics, March 1949
 Job cpu time:       0 days  0 hours  5 minutes 22.8 seconds.
 Elapsed time:       0 days  0 hours  0 minutes 10.1 seconds.
 File lengths (MBytes):  RWF=     16 Int=      0 D2E=      0 Chk=      3 Scr=      1
 Normal termination of Gaussian 16 at Sat Sep 16 07:22:20 2023.
 Link1:  Proceeding to internal job step number  2.
 ------------------------------------------------------------------
 #N Geom=AllCheck Guess=TCheck SCRF=Check GenChk RB3LYP/ChkBas Freq
 ------------------------------------------------------------------
 1/10=4,29=7,30=1,38=1,40=1/1,3;
 2/12=2,15=1,40=1/2;
 3/5=7,6=2,11=2,14=-4,16=1,17=8,25=1,30=1,67=1,70=2,71=2,74=-5,82=7,116=1,124=31,140=1/1,2,3;
 4/5=101/1;
 5/5=2,7=1000,38=6,98=1/2;
 8/6=4,10=90,11=11/1;
 11/6=1,8=1,9=11,15=111,16=1,31=1/1,2,10;
 10/6=1,31=1/2;
 6/7=2,8=2,9=2,10=2,28=1/1;
 7/8=1,10=1,25=1,30=1/1,2,3,16;
 1/10=4,30=1/3;
 99//99;
 Structure from the checkpoint file:  "ARYLHALIDE-o-ch3-gen-vol.chk"
 -----
 reac1
 -----
 Charge =  0 Multiplicity = 1
 Redundant internal coordinates found in file.  (old form).
 C,0,-0.452491,0.020463,-0.000122
 C,0,0.211932,1.249223,0.000048
 C,0,0.236231,-1.203192,-0.000182
 C,0,1.60899,1.277597,0.000166
 H,0,-0.351513,2.176565,0.00009
 C,0,1.640812,-1.137381,-0.00006
 C,0,2.324834,0.078889,0.000111
 H,0,2.12647,2.233243,0.000298
 H,0,2.202843,-2.068573,-0.000102
 I,0,-2.61255,0.064699,-0.000294
 H,0,3.411729,0.088669,0.000201
 C,0,-0.459864,-2.541913,-0.000365
 H,0,-1.103803,-2.655421,0.880356
 H,0,-1.103659,-2.655255,-0.881213
 H,0,0.267292,-3.360223,-0.000383
 Recover connectivity data from disk.

 GradGradGradGradGradGradGradGradGradGradGradGradGradGradGradGradGradGrad
 Berny optimization.
 Initialization pass.
                           ----------------------------
                           !    Initial Parameters    !
                           ! (Angstroms and Degrees)  !
 --------------------------                            --------------------------
 ! Name  Definition              Value          Derivative Info.                !
 --------------------------------------------------------------------------------
 ! R1    R(1,2)                  1.3969         calculate D2E/DX2 analytically  !
 ! R2    R(1,3)                  1.4042         calculate D2E/DX2 analytically  !
 ! R3    R(1,10)                 2.1605         calculate D2E/DX2 analytically  !
 ! R4    R(2,4)                  1.3973         calculate D2E/DX2 analytically  !
 ! R5    R(2,5)                  1.0851         calculate D2E/DX2 analytically  !
 ! R6    R(3,6)                  1.4061         calculate D2E/DX2 analytically  !
 ! R7    R(3,12)                 1.5089         calculate D2E/DX2 analytically  !
 ! R8    R(4,7)                  1.3962         calculate D2E/DX2 analytically  !
 ! R9    R(4,8)                  1.0868         calculate D2E/DX2 analytically  !
 ! R10   R(6,7)                  1.3954         calculate D2E/DX2 analytically  !
 ! R11   R(6,9)                  1.0877         calculate D2E/DX2 analytically  !
 ! R12   R(7,11)                 1.0869         calculate D2E/DX2 analytically  !
 ! R13   R(12,13)                1.0969         calculate D2E/DX2 analytically  !
 ! R14   R(12,14)                1.0969         calculate D2E/DX2 analytically  !
 ! R15   R(12,15)                1.0947         calculate D2E/DX2 analytically  !
 ! A1    A(2,1,3)              122.2262         calculate D2E/DX2 analytically  !
 ! A2    A(2,1,10)             117.2281         calculate D2E/DX2 analytically  !
 ! A3    A(3,1,10)             120.5458         calculate D2E/DX2 analytically  !
 ! A4    A(1,2,4)              119.5648         calculate D2E/DX2 analytically  !
 ! A5    A(1,2,5)              120.3162         calculate D2E/DX2 analytically  !
 ! A6    A(4,2,5)              120.119          calculate D2E/DX2 analytically  !
 ! A7    A(1,3,6)              116.6899         calculate D2E/DX2 analytically  !
 ! A8    A(1,3,12)             123.1544         calculate D2E/DX2 analytically  !
 ! A9    A(6,3,12)             120.1557         calculate D2E/DX2 analytically  !
 ! A10   A(2,4,7)              119.6813         calculate D2E/DX2 analytically  !
 ! A11   A(2,4,8)              119.5989         calculate D2E/DX2 analytically  !
 ! A12   A(7,4,8)              120.7198         calculate D2E/DX2 analytically  !
 ! A13   A(3,6,7)              122.0357         calculate D2E/DX2 analytically  !
 ! A14   A(3,6,9)              118.4309         calculate D2E/DX2 analytically  !
 ! A15   A(7,6,9)              119.5334         calculate D2E/DX2 analytically  !
 ! A16   A(4,7,6)              119.8021         calculate D2E/DX2 analytically  !
 ! A17   A(4,7,11)             120.3292         calculate D2E/DX2 analytically  !
 ! A18   A(6,7,11)             119.8686         calculate D2E/DX2 analytically  !
 ! A19   A(3,12,13)            111.2561         calculate D2E/DX2 analytically  !
 ! A20   A(3,12,14)            111.2561         calculate D2E/DX2 analytically  !
 ! A21   A(3,12,15)            110.9024         calculate D2E/DX2 analytically  !
 ! A22   A(13,12,14)           106.8291         calculate D2E/DX2 analytically  !
 ! A23   A(13,12,15)           108.2163         calculate D2E/DX2 analytically  !
 ! A24   A(14,12,15)           108.2163         calculate D2E/DX2 analytically  !
 ! D1    D(3,1,2,4)             -0.0001         calculate D2E/DX2 analytically  !
 ! D2    D(3,1,2,5)            180.0            calculate D2E/DX2 analytically  !
 ! D3    D(10,1,2,4)           179.9999         calculate D2E/DX2 analytically  !
 ! D4    D(10,1,2,5)             0.0            calculate D2E/DX2 analytically  !
 ! D5    D(2,1,3,6)              0.0001         calculate D2E/DX2 analytically  !
 ! D6    D(2,1,3,12)          -180.0            calculate D2E/DX2 analytically  !
 ! D7    D(10,1,3,6)          -179.9999         calculate D2E/DX2 analytically  !
 ! D8    D(10,1,3,12)            0.0            calculate D2E/DX2 analytically  !
 ! D9    D(1,2,4,7)              0.0001         calculate D2E/DX2 analytically  !
 ! D10   D(1,2,4,8)            180.0            calculate D2E/DX2 analytically  !
 ! D11   D(5,2,4,7)            180.0            calculate D2E/DX2 analytically  !
 ! D12   D(5,2,4,8)             -0.0001         calculate D2E/DX2 analytically  !
 ! D13   D(1,3,6,7)             -0.0001         calculate D2E/DX2 analytically  !
 ! D14   D(1,3,6,9)            180.0            calculate D2E/DX2 analytically  !
 ! D15   D(12,3,6,7)          -180.0            calculate D2E/DX2 analytically  !
 ! D16   D(12,3,6,9)             0.0001         calculate D2E/DX2 analytically  !
 ! D17   D(1,3,12,13)          -59.4947         calculate D2E/DX2 analytically  !
 ! D18   D(1,3,12,14)           59.4948         calculate D2E/DX2 analytically  !
 ! D19   D(1,3,12,15)         -180.0            calculate D2E/DX2 analytically  !
 ! D20   D(6,3,12,13)          120.5052         calculate D2E/DX2 analytically  !
 ! D21   D(6,3,12,14)         -120.5053         calculate D2E/DX2 analytically  !
 ! D22   D(6,3,12,15)           -0.0001         calculate D2E/DX2 analytically  !
 ! D23   D(2,4,7,6)             -0.0001         calculate D2E/DX2 analytically  !
 ! D24   D(2,4,7,11)           180.0            calculate D2E/DX2 analytically  !
 ! D25   D(8,4,7,6)           -180.0            calculate D2E/DX2 analytically  !
 ! D26   D(8,4,7,11)             0.0001         calculate D2E/DX2 analytically  !
 ! D27   D(3,6,7,4)              0.0001         calculate D2E/DX2 analytically  !
 ! D28   D(3,6,7,11)          -180.0            calculate D2E/DX2 analytically  !
 ! D29   D(9,6,7,4)           -180.0            calculate D2E/DX2 analytically  !
 ! D30   D(9,6,7,11)             0.0            calculate D2E/DX2 analytically  !
 --------------------------------------------------------------------------------
 Trust Radius=3.00D-01 FncErr=1.00D-07 GrdErr=1.00D-07 EigMax=2.50D+02 EigMin=1.00D-04
 Number of steps in this run=      2 maximum allowed number of steps=      2.
 GradGradGradGradGradGradGradGradGradGradGradGradGradGradGradGradGradGrad

                          Input orientation:                          
 ---------------------------------------------------------------------
 Center     Atomic      Atomic             Coordinates (Angstroms)
 Number     Number       Type             X           Y           Z
 ---------------------------------------------------------------------
      1          6           0       -0.452491    0.020463   -0.000122
      2          6           0        0.211932    1.249223    0.000048
      3          6           0        0.236231   -1.203192   -0.000182
      4          6           0        1.608990    1.277597    0.000166
      5          1           0       -0.351513    2.176565    0.000090
      6          6           0        1.640812   -1.137381   -0.000060
      7          6           0        2.324834    0.078889    0.000111
      8          1           0        2.126470    2.233243    0.000298
      9          1           0        2.202843   -2.068573   -0.000102
     10         53           0       -2.612550    0.064699   -0.000294
     11          1           0        3.411729    0.088669    0.000201
     12          6           0       -0.459864   -2.541913   -0.000365
     13          1           0       -1.103803   -2.655421    0.880356
     14          1           0       -1.103659   -2.655255   -0.881213
     15          1           0        0.267292   -3.360223   -0.000383
 ---------------------------------------------------------------------
                    Distance matrix (angstroms):
                    1          2          3          4          5
     1  C    0.000000
     2  C    1.396893   0.000000
     3  C    1.404162   2.452535   0.000000
     4  C    2.414558   1.397346   2.835274   0.000000
     5  H    2.158465   1.085096   3.430481   2.156784   0.000000
     6  C    2.392179   2.781650   1.406122   2.415188   3.866729
     7  C    2.777939   2.415375   2.450713   1.396185   3.400453
     8  H    3.398152   2.152615   3.922001   1.086759   2.478631
     9  H    3.378590   3.869302   2.148592   3.398458   4.954385
    10  I    2.160512   3.062808   3.118189   4.392325   3.093908
    11  H    3.864822   3.403761   3.428220   2.159495   4.303638
    12  C    2.562387   3.850198   1.508881   4.343825   4.719722
    13  H    2.891333   4.213353   2.163332   4.858252   4.968792
    14  H    2.891333   4.213354   2.163333   4.858253   4.968793
    15  H    3.456461   4.609778   2.157255   4.827994   5.571260
                    6          7          8          9         10
     6  C    0.000000
     7  C    1.395421   0.000000
     8  H    3.405432   2.163467   0.000000
     9  H    1.087657   2.150924   4.302494   0.000000
    10  I    4.419964   4.937404   5.211611   5.266769   0.000000
    11  H    2.153914   1.086939   2.500218   2.472873   6.024327
    12  C    2.526965   3.824022   5.430584   2.704452   3.380604
    13  H    3.257682   4.472900   5.925217   3.471816   3.232787
    14  H    3.257682   4.472901   5.925218   3.471816   3.232788
    15  H    2.612965   4.007614   5.894354   2.326955   4.474772
                   11         12         13         14         15
    11  H    0.000000
    12  C    4.680726   0.000000
    13  H    5.356746   1.096910   0.000000
    14  H    5.356747   1.096910   1.761569   0.000000
    15  H    4.667155   1.094709   1.775485   1.775485   0.000000
 Symmetry turned off by external request.
 Stoichiometry    C7H7I
 Framework group  C1[X(C7H7I)]
 Deg. of freedom    39
 Full point group                 C1      NOp   1
 Rotational constants (GHZ):           2.7157199           0.7157297           0.5684357
 Basis read from chk: "ARYLHALIDE-o-ch3-gen-vol.chk" (5D, 7F)
 Pseudo-potential data read from chk file.
   151 basis functions,   271 primitive gaussians,   158 cartesian basis functions
    28 alpha electrons       28 beta electrons
       nuclear repulsion energy       309.7429675244 Hartrees.
 NAtoms=   15 NActive=   15 NUniq=   15 SFac= 1.00D+00 NAtFMM=   60 NAOKFM=F Big=F
 Integral buffers will be    131072 words long.
 Raffenetti 2 integral format.
 Two-electron integral symmetry is turned off.
 Nuclear repulsion after empirical dispersion term =      309.7310605082 Hartrees.
 One-electron integrals computed using PRISM.
   1 Symmetry operations used in ECPInt.
 ECPInt:  NShTT=    1485 NPrTT=    7534 LenC2=    1483 LenP2D=    5767.
 LDataN:  DoStor=T MaxTD1= 6 Len=  172
 NBasis=   151 RedAO= T EigKep=  2.76D-06  NBF=   151
 NBsUse=   151 1.00D-06 EigRej= -1.00D+00 NBFU=   151
 Defaulting to unpruned grid for atomic number  53.
 Initial guess from the checkpoint file:  "ARYLHALIDE-o-ch3-gen-vol.chk"
 B after Tr=     0.000000    0.000000    0.000000
         Rot=    1.000000    0.000000    0.000000    0.000000 Ang=   0.00 deg.
 Requested convergence on RMS density matrix=1.00D-08 within1000 cycles.
 Requested convergence on MAX density matrix=1.00D-06.
 Requested convergence on             energy=1.00D-06.
 No special actions if energy rises.
 Defaulting to unpruned grid for atomic number  53.
 Defaulting to unpruned grid for atomic number  53.
 Defaulting to unpruned grid for atomic number  53.
 Defaulting to unpruned grid for atomic number  53.
 Defaulting to unpruned grid for atomic number  53.
 Defaulting to unpruned grid for atomic number  53.
 Defaulting to unpruned grid for atomic number  53.
 Defaulting to unpruned grid for atomic number  53.
 Defaulting to unpruned grid for atomic number  53.
 Defaulting to unpruned grid for atomic number  53.
 Defaulting to unpruned grid for atomic number  53.
 Defaulting to unpruned grid for atomic number  53.
 Defaulting to unpruned grid for atomic number  53.
 Defaulting to unpruned grid for atomic number  53.
 Defaulting to unpruned grid for atomic number  53.
 Defaulting to unpruned grid for atomic number  53.
 Defaulting to unpruned grid for atomic number  53.
 Defaulting to unpruned grid for atomic number  53.
 Defaulting to unpruned grid for atomic number  53.
 Defaulting to unpruned grid for atomic number  53.
 Defaulting to unpruned grid for atomic number  53.
 Defaulting to unpruned grid for atomic number  53.
 Defaulting to unpruned grid for atomic number  53.
 Defaulting to unpruned grid for atomic number  53.
 Defaulting to unpruned grid for atomic number  53.
 Defaulting to unpruned grid for atomic number  53.
 Defaulting to unpruned grid for atomic number  53.
 Defaulting to unpruned grid for atomic number  53.
 Defaulting to unpruned grid for atomic number  53.
 Defaulting to unpruned grid for atomic number  53.
 Defaulting to unpruned grid for atomic number  53.
 Defaulting to unpruned grid for atomic number  53.
 SCF Done:  E(RB3LYP) =  -282.392639157     A.U. after    1 cycles
            NFock=  1  Conv=0.22D-08     -V/T= 2.0363
 DoSCS=F DFT=T ScalE2(SS,OS)=  1.000000  1.000000
 Range of M.O.s used for correlation:     1   151
 NBasis=   151 NAE=    28 NBE=    28 NFC=     0 NFV=     0
 NROrb=    151 NOA=    28 NOB=    28 NVA=   123 NVB=   123

 **** Warning!!: The largest alpha MO coefficient is  0.13883914D+03

   1 Symmetry operations used in ECPInt.
 ECPInt:  NShTT=    1485 NPrTT=    7534 LenC2=    1483 LenP2D=    5767.
 LDataN:  DoStor=T MaxTD1= 7 Len=  274
 Symmetrizing basis deriv contribution to polar:
 IMax=3 JMax=2 DiffMx= 0.00D+00
 G2DrvN: will do    16 centers at a time, making    1 passes.
 Calling FoFCou, ICntrl=  3107 FMM=F I1Cent=   0 AccDes= 0.00D+00.
 Defaulting to unpruned grid for atomic number  53.
 Defaulting to unpruned grid for atomic number  53.
 Defaulting to unpruned grid for atomic number  53.
 Defaulting to unpruned grid for atomic number  53.
 Defaulting to unpruned grid for atomic number  53.
 Defaulting to unpruned grid for atomic number  53.
 Defaulting to unpruned grid for atomic number  53.
 Defaulting to unpruned grid for atomic number  53.
 Defaulting to unpruned grid for atomic number  53.
 Defaulting to unpruned grid for atomic number  53.
 Defaulting to unpruned grid for atomic number  53.
 Defaulting to unpruned grid for atomic number  53.
 Defaulting to unpruned grid for atomic number  53.
 Defaulting to unpruned grid for atomic number  53.
 Defaulting to unpruned grid for atomic number  53.
 Defaulting to unpruned grid for atomic number  53.
 Defaulting to unpruned grid for atomic number  53.
 Defaulting to unpruned grid for atomic number  53.
 Defaulting to unpruned grid for atomic number  53.
 Defaulting to unpruned grid for atomic number  53.
 Defaulting to unpruned grid for atomic number  53.
 Defaulting to unpruned grid for atomic number  53.
 Defaulting to unpruned grid for atomic number  53.
 Defaulting to unpruned grid for atomic number  53.
 Defaulting to unpruned grid for atomic number  53.
 Defaulting to unpruned grid for atomic number  53.
 Defaulting to unpruned grid for atomic number  53.
 Defaulting to unpruned grid for atomic number  53.
 Defaulting to unpruned grid for atomic number  53.
 Defaulting to unpruned grid for atomic number  53.
 Defaulting to unpruned grid for atomic number  53.
 Defaulting to unpruned grid for atomic number  53.
 End of G2Drv F.D. properties file   721 does not exist.
 End of G2Drv F.D. properties file   722 does not exist.
 End of G2Drv F.D. properties file   788 does not exist.
          IDoAtm=111111111111111
          Differentiating once with respect to electric field.
                with respect to dipole field.
          Differentiating once with respect to nuclear coordinates.
 Defaulting to unpruned grid for atomic number  53.
 Keep R1 ints in memory in canonical form, NReq=97271379.
 Defaulting to unpruned grid for atomic number  53.
 Defaulting to unpruned grid for atomic number  53.
 Defaulting to unpruned grid for atomic number  53.
 Defaulting to unpruned grid for atomic number  53.
 Defaulting to unpruned grid for atomic number  53.
 Defaulting to unpruned grid for atomic number  53.
 Defaulting to unpruned grid for atomic number  53.
 Defaulting to unpruned grid for atomic number  53.
 Defaulting to unpruned grid for atomic number  53.
 Defaulting to unpruned grid for atomic number  53.
 Defaulting to unpruned grid for atomic number  53.
 Defaulting to unpruned grid for atomic number  53.
 Defaulting to unpruned grid for atomic number  53.
 Defaulting to unpruned grid for atomic number  53.
 Defaulting to unpruned grid for atomic number  53.
 Defaulting to unpruned grid for atomic number  53.
 Defaulting to unpruned grid for atomic number  53.
 Defaulting to unpruned grid for atomic number  53.
 Defaulting to unpruned grid for atomic number  53.
 Defaulting to unpruned grid for atomic number  53.
 Defaulting to unpruned grid for atomic number  53.
 Defaulting to unpruned grid for atomic number  53.
 Defaulting to unpruned grid for atomic number  53.
 Defaulting to unpruned grid for atomic number  53.
 Defaulting to unpruned grid for atomic number  53.
 Defaulting to unpruned grid for atomic number  53.
 Defaulting to unpruned grid for atomic number  53.
 Defaulting to unpruned grid for atomic number  53.
 Defaulting to unpruned grid for atomic number  53.
 Defaulting to unpruned grid for atomic number  53.
 Defaulting to unpruned grid for atomic number  53.
 Defaulting to unpruned grid for atomic number  53.
          There are    48 degrees of freedom in the 1st order CPHF.  IDoFFX=6 NUNeed=     3.
     45 vectors produced by pass  0 Test12= 7.18D-15 2.08D-09 XBig12= 1.76D+02 6.78D+00.
 AX will form    45 AO Fock derivatives at one time.
     45 vectors produced by pass  1 Test12= 7.18D-15 2.08D-09 XBig12= 2.63D+01 1.16D+00.
     45 vectors produced by pass  2 Test12= 7.18D-15 2.08D-09 XBig12= 1.94D-01 8.05D-02.
     45 vectors produced by pass  3 Test12= 7.18D-15 2.08D-09 XBig12= 6.36D-04 5.52D-03.
     45 vectors produced by pass  4 Test12= 7.18D-15 2.08D-09 XBig12= 9.79D-07 1.99D-04.
     38 vectors produced by pass  5 Test12= 7.18D-15 2.08D-09 XBig12= 8.89D-10 6.09D-06.
      3 vectors produced by pass  6 Test12= 7.18D-15 2.08D-09 XBig12= 6.07D-13 1.48D-07.
      3 vectors produced by pass  7 Test12= 7.18D-15 2.08D-09 XBig12= 4.15D-16 2.73D-09.
 InvSVY:  IOpt=1 It=  1 EMax= 1.42D-14
 Solved reduced A of dimension   269 with    48 vectors.
 Isotropic polarizability for W=    0.000000      107.70 Bohr**3.
 End of Minotr F.D. properties file   721 does not exist.
 End of Minotr F.D. properties file   722 does not exist.
 End of Minotr F.D. properties file   788 does not exist.

 **********************************************************************

            Population analysis using the SCF Density.

 **********************************************************************

 Alpha  occ. eigenvalues --  -10.24460 -10.21840 -10.20678 -10.20211 -10.20185
 Alpha  occ. eigenvalues --  -10.20098 -10.18757  -0.87639  -0.78910  -0.77059
 Alpha  occ. eigenvalues --   -0.70513  -0.68524  -0.61577  -0.59173  -0.51528
 Alpha  occ. eigenvalues --   -0.48005  -0.46072  -0.43275  -0.42764  -0.41375
 Alpha  occ. eigenvalues --   -0.39407  -0.37357  -0.36355  -0.33928  -0.29733
 Alpha  occ. eigenvalues --   -0.26858  -0.26154  -0.24393
 Alpha virt. eigenvalues --   -0.04387  -0.02643  -0.02244   0.00495   0.01552
 Alpha virt. eigenvalues --    0.02084   0.03925   0.04436   0.04455   0.05577
 Alpha virt. eigenvalues --    0.06099   0.06443   0.06836   0.07716   0.09842
 Alpha virt. eigenvalues --    0.10071   0.10346   0.11002   0.11837   0.12742
 Alpha virt. eigenvalues --    0.13083   0.13480   0.14874   0.16226   0.16855
 Alpha virt. eigenvalues --    0.17116   0.17989   0.19445   0.20490   0.20607
 Alpha virt. eigenvalues --    0.21011   0.22131   0.22502   0.23279   0.23437
 Alpha virt. eigenvalues --    0.23912   0.25004   0.26009   0.27569   0.28494
 Alpha virt. eigenvalues --    0.28597   0.30719   0.33715   0.33783   0.34560
 Alpha virt. eigenvalues --    0.36038   0.37423   0.54351   0.54964   0.61623
 Alpha virt. eigenvalues --    0.64961   0.65784   0.66648   0.68335   0.69104
 Alpha virt. eigenvalues --    0.70702   0.71836   0.72675   0.73390   0.73465
 Alpha virt. eigenvalues --    0.75492   0.76950   0.77872   0.78333   0.80521
 Alpha virt. eigenvalues --    0.85813   0.86134   0.89605   0.90683   0.93407
 Alpha virt. eigenvalues --    0.94716   0.95343   1.01042   1.03309   1.05714
 Alpha virt. eigenvalues --    1.08238   1.11400   1.16041   1.16057   1.17305
 Alpha virt. eigenvalues --    1.23636   1.24525   1.28771   1.33176   1.36163
 Alpha virt. eigenvalues --    1.40024   1.42599   1.46685   1.47062   1.47965
 Alpha virt. eigenvalues --    1.49726   1.49872   1.74793   1.80436   1.81582
 Alpha virt. eigenvalues --    1.88276   1.88910   1.91849   1.94405   2.02576
 Alpha virt. eigenvalues --    2.08560   2.10364   2.11549   2.14062   2.15531
 Alpha virt. eigenvalues --    2.19166   2.23470   2.29043   2.30730   2.32237
 Alpha virt. eigenvalues --    2.36591   2.41414   2.55971   2.59037   2.63262
 Alpha virt. eigenvalues --    2.71200   2.71973   2.74648   2.76526   2.92891
 Alpha virt. eigenvalues --    3.04416   3.35849  15.09007
          Condensed to atoms (all electrons):
               1          2          3          4          5          6
     1  C    9.030209  -0.125720  -0.811163   0.037948  -0.024915  -1.652691
     2  C   -0.125720   7.208835  -0.131469   0.295162   0.255802  -1.232110
     3  C   -0.811163  -0.131469   8.740712  -0.546822   0.098373  -0.897201
     4  C    0.037948   0.295162  -0.546822   5.387100  -0.026343  -0.101712
     5  H   -0.024915   0.255802   0.098373  -0.026343   0.509453  -0.003998
     6  C   -1.652691  -1.232110  -0.897201  -0.101712  -0.003998   9.741156
     7  C   -0.147965  -0.281362  -0.106134   0.772449   0.002344   0.219067
     8  H    0.035242  -0.057575  -0.016615   0.322772  -0.005378   0.030485
     9  H    0.052004  -0.010081  -0.004765   0.017142   0.000013   0.235980
    10  I   -0.542690   0.200309   0.035871   0.133579  -0.004399   0.183388
    11  H   -0.021109   0.039550   0.052101  -0.031738  -0.000150  -0.060715
    12  C   -0.257682  -0.148867  -0.374068   0.015525   0.003408   0.408750
    13  H   -0.037769   0.003840  -0.056318  -0.001029  -0.000001   0.001943
    14  H   -0.037775   0.003839  -0.056316  -0.001029  -0.000001   0.001947
    15  H    0.038258  -0.017690  -0.140362   0.004660   0.000002   0.015896
               7          8          9         10         11         12
     1  C   -0.147965   0.035242   0.052004  -0.542690  -0.021109  -0.257682
     2  C   -0.281362  -0.057575  -0.010081   0.200309   0.039550  -0.148867
     3  C   -0.106134  -0.016615  -0.004765   0.035871   0.052101  -0.374068
     4  C    0.772449   0.322772   0.017142   0.133579  -0.031738   0.015525
     5  H    0.002344  -0.005378   0.000013  -0.004399  -0.000150   0.003408
     6  C    0.219067   0.030485   0.235980   0.183388  -0.060715   0.408750
     7  C    5.383726  -0.019617   0.006993   0.026112   0.315500  -0.055599
     8  H   -0.019617   0.533070  -0.000161  -0.000763  -0.004829   0.000251
     9  H    0.006993  -0.000161   0.546688  -0.000705  -0.005046  -0.021232
    10  I    0.026112  -0.000763  -0.000705   6.927427   0.000228  -0.020923
    11  H    0.315500  -0.004829  -0.005046   0.000228   0.533014   0.000696
    12  C   -0.055599   0.000251  -0.021232  -0.020923   0.000696   6.052297
    13  H    0.000213   0.000000   0.000174  -0.002053   0.000002   0.423347
    14  H    0.000213   0.000000   0.000174  -0.002053   0.000002   0.423347
    15  H   -0.003225   0.000000   0.004282   0.002484  -0.000006   0.434240
              13         14         15
     1  C   -0.037769  -0.037775   0.038258
     2  C    0.003840   0.003839  -0.017690
     3  C   -0.056318  -0.056316  -0.140362
     4  C   -0.001029  -0.001029   0.004660
     5  H   -0.000001  -0.000001   0.000002
     6  C    0.001943   0.001947   0.015896
     7  C    0.000213   0.000213  -0.003225
     8  H    0.000000   0.000000   0.000000
     9  H    0.000174   0.000174   0.004282
    10  I   -0.002053  -0.002053   0.002484
    11  H    0.000002   0.000002  -0.000006
    12  C    0.423347   0.423347   0.434240
    13  H    0.486588  -0.033019  -0.024810
    14  H   -0.033019   0.486588  -0.024810
    15  H   -0.024810  -0.024810   0.506471
 Mulliken charges:
               1
     1  C    0.465817
     2  C   -0.002462
     3  C    0.214177
     4  C   -0.277667
     5  H    0.195789
     6  C   -0.890185
     7  C   -0.112716
     8  H    0.183117
     9  H    0.178539
    10  I    0.064188
    11  H    0.182500
    12  C   -0.883489
    13  H    0.238891
    14  H    0.238891
    15  H    0.204610
 Sum of Mulliken charges =   0.00000
 Mulliken charges with hydrogens summed into heavy atoms:
               1
     1  C    0.465817
     2  C    0.193327
     3  C    0.214177
     4  C   -0.094550
     6  C   -0.711646
     7  C    0.069784
    10  I    0.064188
    12  C   -0.201097
 APT charges:
               1
     1  C    0.327593
     2  C   -0.156419
     3  C   -0.069179
     4  C   -0.017890
     5  H    0.053126
     6  C   -0.039595
     7  C   -0.022966
     8  H    0.019959
     9  H    0.012232
    10  I   -0.189177
    11  H    0.027875
    12  C    0.063727
    13  H   -0.001204
    14  H   -0.001204
    15  H   -0.006878
 Sum of APT charges =   0.00000
 APT charges with hydrogens summed into heavy atoms:
               1
     1  C    0.327593
     2  C   -0.103293
     3  C   -0.069179
     4  C    0.002069
     6  C   -0.027363
     7  C    0.004909
    10  I   -0.189177
    12  C    0.054441
 Electronic spatial extent (au):  <R**2>=           1043.6954
 Charge=              0.0000 electrons
 Dipole moment (field-independent basis, Debye):
    X=              1.6007    Y=             -0.4582    Z=              0.0001  Tot=              1.6649
 Quadrupole moment (field-independent basis, Debye-Ang):
   XX=            -60.1880   YY=            -56.8586   ZZ=            -66.5588
   XY=              0.4140   XZ=              0.0004   YZ=              0.0010
[...]
 ! D24   D(2,4,7,11)          -180.0            -DE/DX =    0.0                 !
 ! D25   D(8,4,7,6)           -180.0            -DE/DX =    0.0                 !
 ! D26   D(8,4,7,11)             0.0001         -DE/DX =    0.0                 !
 ! D27   D(3,6,7,4)              0.0001         -DE/DX =    0.0                 !
 ! D28   D(3,6,7,11)           180.0            -DE/DX =    0.0                 !
 ! D29   D(9,6,7,4)            180.0            -DE/DX =    0.0                 !
 ! D30   D(9,6,7,11)             0.0            -DE/DX =    0.0                 !
 --------------------------------------------------------------------------------
 GradGradGradGradGradGradGradGradGradGradGradGradGradGradGradGradGradGrad


 ----------------------------------------------------------------------

 Electric dipole moment (input orientation):
 (Debye = 10**-18 statcoulomb cm , SI units = C m)
                  (au)            (Debye)         (10**-30 SI)
   Tot        0.655036D+00      0.166494D+01      0.555363D+01
   x          0.629746D+00      0.160065D+01      0.533920D+01
   y         -0.180258D+00     -0.458171D+00     -0.152829D+01
   z          0.344950D-04      0.876775D-04      0.292461D-03

 Dipole polarizability, Alpha (input orientation).
 (esu units = cm**3 , SI units = C**2 m**2 J**-1)
 Alpha(0;0):
               (au)            (10**-24 esu)      (10**-40 SI)
   iso        0.107699D+03      0.159593D+02      0.177571D+02
   aniso      0.730965D+02      0.108318D+02      0.120520D+02
   xx         0.148974D+03      0.220757D+02      0.245626D+02
   yx         0.171840D+01      0.254640D+00      0.283326D+00
   yy         0.109429D+03      0.162156D+02      0.180423D+02
   zx         0.705538D-02      0.104550D-02      0.116328D-02
   zy         0.437438D-02      0.648216D-03      0.721238D-03
   zz         0.646931D+02      0.958652D+01      0.106664D+02

 ----------------------------------------------------------------------

 Dipole orientation:
     6         -0.05434437         -0.19053433         -0.83271093
     6          0.65478048          2.28790219         -0.26460391
     6         -0.56734868         -1.98352444          1.05487294
     6          0.86880754          3.03594830          2.25876595
     1          1.03762232          3.62596385         -1.77049711
     6         -0.33353587         -1.16632682          3.57244192
     6          0.37214963          1.30009290          4.18265089
     1          1.42042256          4.96387607          2.70193984
     1         -0.71850491         -2.51181989          5.07776833
    53         -0.34123424         -1.19323014         -4.78003327
     1          0.53251707          1.86058905          6.15219711
     6         -1.33595769         -4.66986226          0.48640846
     1         -3.08497691         -4.73203838         -0.62436167
     1          0.11548250         -5.64774658         -0.62436168
     1         -1.64089201         -5.73562976          2.23302597

 Electric dipole moment (dipole orientation):
 (Debye = 10**-18 statcoulomb cm , SI units = C m)
                  (au)            (Debye)         (10**-30 SI)
   Tot        0.655036D+00      0.166494D+01      0.555363D+01
   x          0.000000D+00      0.000000D+00      0.000000D+00
   y          0.000000D+00      0.000000D+00      0.000000D+00
   z          0.655036D+00      0.166494D+01      0.555363D+01

 Dipole polarizability, Alpha (dipole orientation).
 (esu units = cm**3 , SI units = C**2 m**2 J**-1)
 Alpha(0;0):
               (au)            (10**-24 esu)      (10**-40 SI)
   iso        0.107699D+03      0.159593D+02      0.177571D+02
   aniso      0.730965D+02      0.108318D+02      0.120520D+02
   xx         0.683736D+02      0.101319D+02      0.112733D+02
   yx         0.128636D+02      0.190618D+01      0.212091D+01
   yy         0.109652D+03      0.162488D+02      0.180792D+02
   zx         0.327910D+01      0.485912D+00      0.540650D+00
   zy         0.114606D+02      0.169829D+01      0.188961D+01
   zz         0.145070D+03      0.214972D+02      0.239189D+02

 ----------------------------------------------------------------------
 1\1\GINC-IP-172-31-8-94\Freq\RB3LYP\Gen\C7H7I1\UBUNTU\16-Sep-2023\0\\#
 N Geom=AllCheck Guess=TCheck SCRF=Check GenChk RB3LYP/ChkBas Freq\\rea
 c1\\0,1\C,-0.452491,0.020463,-0.000122\C,0.211932,1.249223,0.000048\C,
 0.236231,-1.203192,-0.000182\C,1.60899,1.277597,0.000166\H,-0.351513,2
 .176565,0.00009\C,1.640812,-1.137381,-0.00006\C,2.324834,0.078889,0.00
 0111\H,2.12647,2.233243,0.000298\H,2.202843,-2.068573,-0.000102\I,-2.6
 1255,0.064699,-0.000294\H,3.411729,0.088669,0.000201\C,-0.459864,-2.54
 1913,-0.000365\H,-1.103803,-2.655421,0.880356\H,-1.103659,-2.655255,-0
 .881213\H,0.267292,-3.360223,-0.000383\\Version=EM64L-G16RevB.01\HF=-2
 82.3926392\RMSD=2.155e-09\RMSF=1.157e-04\ZeroPoint=0.118098\Thermal=0.
 1255073\Dipole=0.6297455,-0.1802584,0.0000345\DipoleDeriv=1.1951529,-0
 .0816508,0.0000978,-0.0717076,-0.1172975,-0.000008,0.0000994,-0.000008
 2,-0.0950773,-0.3687245,-0.0907105,-0.0000302,0.0695926,0.0037701,0.00
 00157,-0.0000156,0.0000033,-0.1043014,-0.3663971,0.2760194,-0.0000012,
 0.041784,0.1897902,0.0000246,-0.0000241,0.0000422,-0.0309289,0.019476,
 0.0822393,0.000019,-0.0706853,0.045731,0.0000099,0.0000046,0.0000216,-
 0.1188776,0.0444632,0.0654477,-0.0000006,0.0473917,-0.012208,-0.000009
 3,-0.0000021,-0.0000081,0.1271219,0.0299217,-0.1741872,-0.0000035,0.06
 0289,-0.0181837,0.0000153,0.0000191,-0.0000033,-0.1305229,0.0644715,-0
 .0079609,0.000016,-0.0110406,0.0036628,0.0000125,0.0000155,0.0000127,-
 0.137033,-0.0144078,-0.0724317,-0.0000196,-0.0738175,-0.0672558,-0.000
 0258,-0.0000195,-0.0000252,0.1415408,-0.0186409,0.0695546,-0.0000056,0
 .0796915,-0.0752145,-0.0000129,-0.0000047,-0.0000139,0.1305529,-0.5038
 968,0.0113834,-0.0000368,0.0176924,-0.0229382,0.0000032,-0.0000364,0.0
 000025,-0.0406966,-0.1228771,-0.0084894,-0.0000223,-0.0009234,0.067059
 8,-0.0000069,-0.0000217,-0.0000076,0.1394432,0.0347204,-0.1112657,-0.0
 000155,-0.0877605,0.0597285,-0.0000106,-0.0000131,-0.000012,0.096732,0
 .0244538,-0.0606038,0.0745478,-0.0254737,0.0040056,-0.0267155,0.082613
 6,0.0185421,-0.0320713,0.0244794,-0.0605868,-0.0745502,-0.0254625,0.00
 40041,0.026718,-0.0826093,-0.0185453,-0.0320956,-0.0421946,0.1632424,0
 .0000049,0.0504298,-0.0646541,-0.0000101,-0.0000057,-0.0000009,0.08621
 39\Polar=148.9744555,1.7183983,109.4286012,0.0070554,0.0043744,64.6930
 771\Quadrupole=0.7537517,3.2290891,-3.9828407,0.3077788,0.0003123,0.00
 07363\PG=C01 [X(C7H7I1)]\NImag=0\\0.41469394,0.01162501,0.62728773,0.0
 0002660,0.00005077,0.10126980,-0.14601520,-0.05732606,-0.00001273,0.67
 907185,-0.11461799,-0.28521601,-0.00003104,-0.04680602,0.71632846,-0.0
 0001821,-0.00002637,-0.05540944,0.00004067,0.00005181,0.12854775,-0.14
 367993,0.04997814,-0.00000195,0.06158455,0.02478238,0.00000705,0.63112
 100,0.10442940,-0.25930160,-0.00001031,-0.02044289,-0.05337913,-0.0000
 0714,0.00575424,0.63471103,0.00000318,-0.00001478,-0.06096813,0.000002
 77,-0.00000336,0.00398507,0.00003850,0.00004473,0.16727538,-0.02814041
 ,-0.08234858,-0.00001078,-0.33657884,0.03214648,-0.00001971,-0.0505194
 5,0.03015741,-0.00000097,0.67922864,-0.02449622,0.02864660,-0.00000009
 ,-0.03776871,-0.12586728,-0.00000926,0.02969510,-0.01479932,0.00000140
 ,0.02890944,0.72813428,-0.00000527,-0.00000481,0.00815271,-0.00002633,
 -0.00000354,-0.06077931,-0.00000102,0.00000145,-0.00395582,0.00004780,
 0.00005880,0.12967941,0.00888778,-0.01587344,-0.00000088,-0.13382425,0
 .12966645,0.00000432,-0.00107516,-0.00274251,-0.00000084,-0.01131846,0
 .02797680,0.00000139,0.14321976,0.01582120,-0.01955584,-0.00000069,0.1
 2638131,-0.26703081,-0.00001157,-0.00404676,-0.00267924,-0.00000115,-0
 .00230647,0.00509908,-0.00000010,-0.13441985,0.28230034,0.00000208,-0.
 00000330,0.00127197,0.00000405,-0.00001134,-0.03619048,-0.00000097,-0.
 00000104,0.00605747,-0.00000151,0.00000241,0.00414589,-0.00000305,0.00
 001346,0.02475372,-0.03200521,0.07763389,0.00000405,-0.04711655,-0.028
 12429,-0.00000617,-0.30788086,-0.04444141,-0.00002435,0.06275462,-0.02
 042943,0.00000259,-0.00082939,-0.00090822,-0.00000009,0.66545618,0.022
 54884,0.03280380,0.00000419,-0.02894349,-0.01989447,-0.00000384,0.0290
 1188,-0.12104908,-0.00000307,0.02518506,-0.05848989,-0.00000417,-0.001
 01392,0.00029424,0.,-0.01754254,0.72836218,-0.00000114,0.00000871,0.00
 792425,-0.00000624,-0.00000378,-0.00423204,-0.00001740,-0.00000907,-0.
 06338275,0.00000690,-0.00000794,0.00766997,-0.00000011,0.00000001,-0.0
 0066444,0.00004218,0.00005499,0.13177814,-0.00048215,0.00192791,0.0000
 0057,-0.03015724,0.02675296,-0.00000055,-0.02459892,-0.02814218,-0.000
 00509,-0.18382243,0.12544291,0.00000189,-0.00536057,-0.00078221,-0.000
 00107,-0.17994259,-0.12360230,-0.00002140,0.74484688,0.00016518,-0.069
 03393,-0.00000600,0.07327662,0.03530680,0.00000863,-0.07543780,0.03261
 157,-0.00000360,0.06289547,-0.28633784,-0.00001611,-0.00158377,0.00141
 456,-0.00000065,-0.05999473,-0.29157568,-0.00002668,-0.00081423,0.6737
 6867,0.00000042,-0.00000586,-0.00551686,0.00000380,0.00000482,0.007641
 44,-0.00000961,0.00000025,0.00534515,-0.00000400,-0.00001100,-0.061913
 15,-0.00000115,-0.00000057,0.00677597,-0.00001533,-0.00003188,-0.06168
 384,0.00005009,0.00005116,0.13280268,-0.00385506,0.00084588,-0.0000007
 9,-0.01127347,-0.02921292,-0.00000392,-0.00103771,0.00078260,0.0000000
 4,-0.12300097,-0.11754846,-0.00001823,0.00066315,0.00025436,0.00000041
 ,-0.00122646,0.00309426,-0.00000035,0.01235116,0.01562071,0.00000224,0
 .12719058,0.00024313,0.00154454,-0.00000046,0.00215554,0.00310748,0.00
 000018,0.00073186,0.00018050,0.00000014,-0.11753248,-0.27653133,-0.000
 03225,-0.00030513,0.00081320,0.00000044,0.00426270,-0.00274370,-0.0000
 0054,-0.01557752,-0.01812596,-0.00000326,0.12626839,0.29192609,-0.0000
 0085,-0.00000041,0.00670059,-0.00000100,-0.00000242,0.00309028,0.00000
 004,0.00000015,-0.00067184,-0.00001820,-0.00003221,-0.03538407,0.00000
 036,0.00000049,-0.00410734,-0.00000023,-0.00000063,0.00662524,-0.00000
 070,-0.00000073,0.00296724,0.00002025,0.00003540,0.02494219,-0.0040120
 9,-0.00099540,-0.00000091,-0.00090749,-0.00082521,-0.00000010,-0.01412
 768,0.02695504,0.00000107,-0.00083948,-0.00309706,-0.00000091,0.000112
 36,0.00007838,0.00000008,-0.13233008,0.12257672,0.00000368,0.01186622,
 -0.01484687,-0.00000069,0.00043872,-0.00082790,-0.00000007,0.14008325,
 -0.00039516,0.00118704,-0.00000048,-0.00067908,0.00029330,0.00000003,-
 0.00209428,0.00172052,-0.00000040,-0.00427368,-0.00308644,-0.00000127,
 0.00009372,-0.00002227,0.00000008,0.12339673,-0.26163454,-0.00001122,0
 .01658883,-0.01900293,-0.00000074,0.00088831,-0.00101641,-0.00000005,-
 0.13032102,0.27915162,-0.00000086,-0.00000053,0.00593615,-0.00000008,0
 .00000002,-0.00067902,-0.00000171,0.00000199,0.00405729,-0.00000102,-0
 .00000117,0.00666451,0.00000008,0.00000008,-0.00078899,0.00000378,-0.0
 0001129,-0.03600094,0.00000228,-0.00000332,0.00319232,0.00000009,-0.00
 000019,0.00031921,-0.00000287,0.00001336,0.02494787,-0.07525179,0.0013
 9297,-0.00000490,-0.03219894,-0.00017126,-0.00000280,-0.02735640,-0.00
 002054,-0.00000238,0.00428874,-0.00474756,-0.00000038,-0.00047841,-0.0
 0069213,0.00000004,0.00216630,0.00449506,0.00000034,-0.00132031,0.0009
 9527,0.00000002,-0.00122606,0.00028408,-0.00000009,-0.00128965,-0.0004
 0809,-0.00000016,0.13446684,0.00032752,-0.02288593,-0.00000087,-0.0169
 6782,0.00146683,-0.00000144,0.01417698,0.00092938,0.00000107,-0.000017
 57,-0.00167078,-0.00000049,-0.00243895,-0.00004861,-0.00000002,0.00025
 369,-0.00257525,-0.00000053,-0.00020860,0.00011621,0.00000003,-0.00054
 864,0.00004959,-0.00000006,0.00067551,0.00027346,0.00000006,-0.0028412
 1,0.02929104,-0.00000496,-0.00000074,-0.01344189,-0.00000440,-0.000000
 07,0.00199908,-0.00000103,-0.00000009,0.00183868,0.00000006,-0.0000008
 8,0.00352545,-0.00000015,0.00000009,-0.00162254,-0.00000007,-0.0000001
 9,0.00323631,-0.00000009,0.00000013,-0.00041986,-0.00000017,0.00000001
 ,0.00015969,-0.00000006,-0.00000002,0.00018494,0.00001012,0.00000187,0
 .00669756,0.00100605,-0.00002019,0.00000012,0.00049907,0.00326270,-0.0
 0000020,0.00098075,-0.00272326,-0.00000073,-0.01163974,-0.00281595,-0.
 00000149,-0.00063341,-0.00023630,-0.00000009,-0.01120020,0.00243089,-0
 .00000094,-0.33961988,-0.00252405,-0.00002509,0.00074830,0.00042852,0.
 00000042,0.00079944,-0.00047848,0.00000034,-0.00012890,-0.00002506,0.0
 0000004,0.35984531,0.00002487,-0.00159865,-0.00000011,0.00235885,-0.00
 456836,-0.00000087,-0.00204538,-0.00441482,-0.00000122,0.02833609,0.00
 543277,0.00000254,0.00139670,0.00016131,0.00000011,-0.02887375,0.00443
 235,-0.00000224,-0.00246022,-0.06015844,-0.00000245,-0.00038633,0.0007
 1348,0.00000040,0.00022075,0.00062095,0.00000045,0.00003500,0.00016456
 ,0.00000008,0.00261870,0.05917367,0.00000012,-0.00000011,-0.00044031,-
 0.00000029,-0.00000080,0.00667770,-0.00000067,-0.00000129,0.00678916,0
 .00000147,-0.00000003,0.00322773,0.00000007,-0.00000002,0.00017271,-0.
 00000390,0.00000032,0.00304097,-0.00002509,-0.00000244,-0.03641883,0.0
 0000034,0.00000047,-0.00386836,0.00000041,0.00000039,-0.00394617,0.000
 00005,0.00000008,-0.00067875,0.00002766,0.00000341,0.02539681,0.012510
 06,0.01167223,0.00000195,-0.00273301,0.00479140,-0.00000016,-0.1122235
 6,-0.04630675,-0.00000768,-0.00090363,-0.00128650,-0.00000012,0.000721
 56,0.00111681,0.00000014,-0.01805525,-0.03192051,-0.00000505,-0.003133
 70,0.00262418,-0.00000066,0.00019386,-0.00005878,0.00000007,0.00024373
 ,-0.00164458,0.00000025,-0.00209661,0.00478595,0.00000041,-0.00048653,
 -0.00097856,-0.00000013,0.56400187,-0.00750100,-0.03085524,-0.00000373
 ,0.00319324,-0.00038766,-0.00000024,-0.05482354,-0.18368726,-0.0000150
 7,-0.00019943,-0.00057015,0.00000002,-0.00056396,-0.00031637,-0.000000
 11,-0.00841669,-0.00324907,-0.00000164,0.00210658,0.00144283,-0.000000
 44,-0.00006961,0.00003313,0.00000007,0.00242008,0.00075695,0.00000071,
 -0.00117919,-0.00266881,-0.00000020,0.00036074,0.00041925,0.00000007,-
 0.04601358,0.51376187,0.00000013,-0.00000217,0.00212262,-0.00000031,-0
 .00000011,0.00486285,-0.00000844,-0.00001432,-0.07165202,0.,-0.0000000
 6,-0.00098482,-0.00000002,0.00000003,0.00034001,-0.00000285,-0.0000035
 8,0.00680949,-0.00000072,-0.00000039,0.00792268,0.00000007,0.00000007,
 -0.00074002,0.00000063,0.00000038,-0.00465677,-0.00000016,0.00000029,-
 0.00158767,0.,-0.00000004,-0.00000037,-0.00000293,-0.00000640,0.541802
 62,-0.00067254,0.00213420,-0.00019116,-0.00045383,-0.00050313,-0.00034
 086,-0.01093051,-0.00488199,0.01056104,0.00020734,0.00009800,0.0000526
 0,0.00001281,-0.00002485,-0.00000995,-0.00005720,-0.00205776,0.0002072
 0,-0.00049983,-0.00023367,-0.00105270,0.00001059,-0.00004692,0.0001590
 0,0.00017813,-0.00011864,0.00062863,0.00026654,0.00103142,-0.00034796,
 -0.00010792,-0.00015206,0.00000831,-0.13404063,-0.01211206,0.12529035,
 0.14627590,-0.00203888,0.00056850,-0.00030251,-0.00000476,0.00025348,-
 0.00074957,-0.01793252,-0.00446056,0.02444121,-0.00034749,-0.00013518,
 0.00022880,0.00005286,-0.00003436,-0.00003368,0.00022228,-0.00277718,0
 .00015267,-0.00047116,-0.00018593,-0.00114619,0.00004414,-0.00000345,0
 .00000699,-0.00022407,0.00013409,0.00034544,0.00155982,-0.00127894,0.0
 0064630,-0.00013736,-0.00019030,-0.00002667,-0.01327979,-0.05034704,0.
 02045600,0.01728279,0.05523282,0.00119885,-0.00010442,0.00071976,-0.00
 013040,0.00024567,0.00000384,-0.00180376,0.00062705,0.00342268,-0.0000
 2479,-0.00004698,-0.00003034,0.00004288,0.00005854,-0.00000357,-0.0007
 5780,-0.00002556,-0.00043277,-0.00013266,0.00002625,-0.00025859,-0.000
 02345,0.00001255,-0.00002220,-0.00012430,-0.00004335,0.00014760,-0.000
 36781,-0.00031324,-0.00006083,-0.00001867,0.00000188,0.00004221,0.1239
 5012,0.01982911,-0.21732273,-0.13623395,-0.02117821,0.23477530,-0.0006
 7237,0.00213416,0.00019134,-0.00045391,-0.00050315,0.00034069,-0.01092
 910,-0.00487989,-0.01056428,0.00020735,0.00009800,-0.00005254,0.000012
 81,-0.00002484,0.00000995,-0.00005730,-0.00205773,-0.00020753,-0.00050
 002,-0.00023386,0.00105261,0.00001061,-0.00004688,-0.00015900,0.000178
 22,-0.00011853,-0.00062864,0.00026643,0.00103129,0.00034821,-0.0001079
 2,-0.00015206,-0.00000837,-0.13399971,-0.01208520,-0.12527867,0.011796
 45,0.00220122,0.01612236,0.14623123,-0.00203869,0.00056842,0.00030214,
 -0.00000491,0.00025339,0.00074962,-0.01792886,-0.00445585,-0.02444563,
 -0.00034746,-0.00013514,-0.00022888,0.00005286,-0.00003435,0.00003368,
 0.00022216,-0.00277716,-0.00015308,-0.00047138,-0.00018614,0.00114612,
 0.00004414,-0.00000344,-0.00000698,-0.00022404,0.00013415,-0.00034548,
 0.00155985,-0.00127887,-0.00064627,-0.00013736,-0.00019030,0.00002661,
 -0.01325307,-0.05033949,-0.02042664,0.00220393,-0.00000175,0.00198489,
 0.01725364,0.05522491,-0.00119945,0.00010473,0.00071968,0.00013033,-0.
 00024570,0.00000401,0.00179804,-0.00062935,0.00341647,0.00002476,0.000
 04698,-0.00003038,-0.00004287,-0.00005855,-0.00000358,0.00075790,0.000
 02478,-0.00043269,0.00013253,-0.00002628,-0.00025819,0.00002347,-0.000
 01255,-0.00002223,0.00012426,0.00004333,0.00014746,0.00036816,0.000313
 18,-0.00006077,0.00001861,-0.00000195,0.00004221,-0.12393866,-0.019799
 54,-0.21737074,-0.01611635,-0.00198026,-0.02252000,0.13622240,0.021147
 12,0.23482753,-0.00231107,-0.00278071,-0.00000053,0.00055725,-0.000638
 41,-0.00000005,0.01067297,-0.01349728,-0.00000028,0.00007671,-0.000030
 36,0.,-0.00011058,-0.00021043,-0.00000002,0.00032399,-0.00220445,-0.00
 000016,0.00037338,0.00009153,0.00000005,0.00001276,0.00002140,0.,-0.00
 039360,-0.00043605,-0.00000012,-0.00010778,0.00076550,0.00000005,0.000
 04559,0.00005742,0.00000001,-0.16999845,0.13488363,0.00000293,-0.01198
 530,0.01307290,-0.00169661,-0.01198276,0.01306917,0.00169687,0.1848268
 7,-0.00409720,-0.00415942,-0.00000082,0.00157819,-0.00066601,0.0000000
 2,0.02017856,-0.02192615,-0.00000026,-0.00025680,0.00031062,0.,-0.0002
 9786,-0.00036086,-0.00000005,0.00273959,0.00087345,0.00000033,-0.00028
 938,-0.00005378,-0.00000001,-0.00007684,0.00005627,0.,-0.00156492,0.00
 049051,-0.00000012,-0.00026206,0.00011612,-0.00000003,-0.00000355,0.00
 000252,0.,0.12975156,-0.19399294,-0.00000305,-0.00261927,0.00322578,-0
 .00107417,-0.00261616,0.00322164,0.00107407,-0.14216387,0.21286225,-0.
 00000065,-0.00000071,0.00095911,0.00000016,-0.00000016,0.00047827,0.00
 000292,-0.00000302,-0.00155680,-0.00000002,0.00000003,0.00001222,-0.00
 000003,-0.00000004,-0.00013680,0.00000031,-0.00000007,-0.00025489,0.00
 000002,0.00000002,-0.00017818,0.,0.,0.00001162,-0.00000022,-0.00000003
 ,0.00047453,-0.00000005,0.00000005,0.00023061,0.,0.,-0.00003672,0.0000
 0245,-0.00000263,-0.04954516,0.01738579,-0.02086033,0.00153964,-0.0173
 8853,0.02086278,0.00154121,-0.00000213,0.00000410,0.04646136\\-0.00038
 233,-0.00025297,0.00000007,0.00020957,0.00006165,-0.00000016,0.0001957
 9,0.00011874,-0.00000015,-0.00001300,0.00009874,0.00000019,-0.00001344
 ,0.00003103,0.00000004,0.00004868,0.00003198,0.00000011,-0.00026311,-0
 .00020730,-0.00000011,-0.00002848,0.00002504,-0.00000004,0.00002510,-0
 .00000510,0.,0.00010022,0.00005593,0.00000002,0.00012930,0.00002083,0.
 ,0.00006430,0.00015931,0.00000023,-0.00010116,0.00000412,0.00014934,-0
 .00010120,0.00000412,-0.00014951,0.00012976,-0.00014611,-0.00000003\\\
 @


      THE ONE-EYED VIEW OF OUR UNIVERSE SAYS YOU MUST NOT LOOK
      FAR AFIELD FOR PROBLEMS.  SUCH PROBLEMS MAY NEVER ARRIVE. 
      INSTEAD, TEND TO THE WOLF WITHIN YOUR FENCES.
      THE PACKS RANGING OUTSIDE MAY NOT EVEN EXIST.

                              -- THE AZHAR BOOK SHAMRA I:4
                                 CHILDREN OF DUNE, BY FRANK HERBERT
 Job cpu time:       0 days  0 hours 23 minutes 49.3 seconds.
 Elapsed time:       0 days  0 hours  0 minutes 44.8 seconds.
 File lengths (MBytes):  RWF=     44 Int=      0 D2E=      0 Chk=      3 Scr=      1
 Normal termination of Gaussian 16 at Sat Sep 16 07:23:05 2023.
