 Entering Gaussian System, Link 0=g16
 Input=/home/ubuntu/Downloads/ARYLHALIDE-mm-ch3-gen-vol.gjf
 Output=/home/ubuntu/Downloads/ARYLHALIDE-mm-ch3-gen-vol.log
 Initial command:
 /home/ubuntu/g16/l1.exe "/home/ubuntu/Scratch/Gau-30191.inp" -scrdir="/home/ubuntu/Scratch/"
 Entering Link 1 = /home/ubuntu/g16/l1.exe PID=     30195.
  
 Copyright (c) 1988-2017, Gaussian, Inc.  All Rights Reserved.
  
 This is part of the Gaussian(R) 16 program.  It is based on
 the Gaussian(R) 09 system (copyright 2009, Gaussian, Inc.),
 the Gaussian(R) 03 system (copyright 2003, Gaussian, Inc.),
 the Gaussian(R) 98 system (copyright 1998, Gaussian, Inc.),
 the Gaussian(R) 94 system (copyright 1995, Gaussian, Inc.),
 the Gaussian 92(TM) system (copyright 1992, Gaussian, Inc.),
 the Gaussian 90(TM) system (copyright 1990, Gaussian, Inc.),
 the Gaussian 88(TM) system (copyright 1988, Gaussian, Inc.),
 the Gaussian 86(TM) system (copyright 1986, Carnegie Mellon
 University), and the Gaussian 82(TM) system (copyright 1983,
 Carnegie Mellon University). Gaussian is a federally registered
 trademark of Gaussian, Inc.
  
 This software contains proprietary and confidential information,
 including trade secrets, belonging to Gaussian, Inc.
  
 This software is provided under written license and may be
 used, copied, transmitted, or stored only in accord with that
 written license.
  
 The following legend is applicable only to US Government
 contracts under FAR:
  
                    RESTRICTED RIGHTS LEGEND
  
 Use, reproduction and disclosure by the US Government is
 subject to restrictions as set forth in subparagraphs (a)
 and (c) of the Commercial Computer Software - Restricted
 Rights clause in FAR 52.227-19.
  
 Gaussian, Inc.
 340 Quinnipiac St., Bldg. 40, Wallingford CT 06492
  
  
 ---------------------------------------------------------------
 Warning -- This program may not be used in any manner that
 competes with the business of Gaussian, Inc. or will provide
 assistance to any competitor of Gaussian, Inc.  The licensee
 of this program is prohibited from giving any competitor of
 Gaussian, Inc. access to this program.  By using this program,
 the user acknowledges that Gaussian, Inc. is engaged in the
 business of creating and licensing software in the field of
 computational chemistry and represents and warrants to the
 licensee that it is not a competitor of Gaussian, Inc. and that
 it will not use this program in any manner prohibited above.
 ---------------------------------------------------------------
  

 Cite this work as:
 Gaussian 16, Revision B.01,
 M. J. Frisch, G. W. Trucks, H. B. Schlegel, G. E. Scuseria, 
 M. A. Robb, J. R. Cheeseman, G. Scalmani, V. Barone, 
 G. A. Petersson, H. Nakatsuji, X. Li, M. Caricato, A. V. Marenich, 
 J. Bloino, B. G. Janesko, R. Gomperts, B. Mennucci, H. P. Hratchian, 
 J. V. Ortiz, A. F. Izmaylov, J. L. Sonnenberg, D. Williams-Young, 
 F. Ding, F. Lipparini, F. Egidi, J. Goings, B. Peng, A. Petrone, 
 T. Henderson, D. Ranasinghe, V. G. Zakrzewski, J. Gao, N. Rega, 
 G. Zheng, W. Liang, M. Hada, M. Ehara, K. Toyota, R. Fukuda, 
 J. Hasegawa, M. Ishida, T. Nakajima, Y. Honda, O. Kitao, H. Nakai, 
 T. Vreven, K. Throssell, J. A. Montgomery, Jr., J. E. Peralta, 
 F. Ogliaro, M. J. Bearpark, J. J. Heyd, E. N. Brothers, K. N. Kudin, 
 V. N. Staroverov, T. A. Keith, R. Kobayashi, J. Normand, 
 K. Raghavachari, A. P. Rendell, J. C. Burant, S. S. Iyengar, 
 J. Tomasi, M. Cossi, J. M. Millam, M. Klene, C. Adamo, R. Cammi, 
 J. W. Ochterski, R. L. Martin, K. Morokuma, O. Farkas, 
 J. B. Foresman, and D. J. Fox, Gaussian, Inc., Wallingford CT, 2016.
 
 ******************************************
 Gaussian 16:  EM64L-G16RevB.01 20-Dec-2017
                16-Sep-2023 
 ******************************************
 %nprocshared=32
 Will use up to   32 processors via shared memory.
 %mem=60GB
 %chk=ARYLHALIDE-mm-ch3-gen-vol.chk
 ----------------------------------------------------------------------
 # opt freq rb3lyp/gen empiricaldispersion=gd3 pseudo=read scf=maxcycle
 =1000 volume
 ----------------------------------------------------------------------
 1/18=20,19=15,26=3,38=1/1,3;
 2/9=110,12=2,17=6,18=5,40=1/2;
 3/5=7,11=2,16=1,17=8,25=1,30=1,71=1,74=-5,116=1,124=31/1,2,3;
 4//1;
 5/5=2,7=1000,38=5/2;
 6/7=2,8=2,9=2,10=2,28=1,44=1/1,4;
 7//1,2,3,16;
 1/18=20,19=15,26=3/3(2);
 2/9=110/2;
 99//99;
 2/9=110/2;
 3/5=7,6=1,11=2,16=1,17=8,25=1,30=1,71=1,74=-5,82=7,116=1,124=31/1,2,3;
 4/5=5,16=3,69=1/1;
 5/5=2,7=1000,38=5/2;
 7//1,2,3,16;
 1/18=20,19=15,26=3/3(-5);
 2/9=110/2;
 6/7=2,8=2,9=2,10=2,19=2,28=1,44=1/1,4;
 99/9=1/99;
 -----
 reac1
 -----
 Symbolic Z-matrix:
 Charge =  0 Multiplicity = 1
 C                     0.07572   0.00027   0.00001 
 C                     0.75402   1.21764   0.00023 
 C                     0.75407  -1.21745  -0.00015 
 C                     2.15721   1.22408   0.00029 
 H                     0.20816   2.15643   0.00032 
 C                     2.157    -1.22416  -0.00006 
 C                     2.83811   0.        0.00014 
 I                    -2.07885  -0.00001  -0.00015 
 H                     0.2077   -2.15594  -0.00035 
 H                     3.92634  -0.00009   0.00016 
 C                     2.90387   2.53952   0.0005 
 H                     2.64991   3.13917  -0.8826 
 H                     2.64986   3.13891   0.88376 
 H                     3.98791   2.38495   0.0005 
 C                     2.90369  -2.53974   0.00005 
 H                     2.65143  -3.1382    0.88464 
 H                     2.64782  -3.14047  -0.88194 
 H                     3.9879   -2.38535  -0.00233 
 

 GradGradGradGradGradGradGradGradGradGradGradGradGradGradGradGradGradGrad
 Berny optimization.
 Initialization pass.
                           ----------------------------
                           !    Initial Parameters    !
                           ! (Angstroms and Degrees)  !
 --------------------------                            --------------------------
 ! Name  Definition              Value          Derivative Info.                !
 --------------------------------------------------------------------------------
 ! R1    R(1,2)                  1.3936         estimate D2E/DX2                !
 ! R2    R(1,3)                  1.3939         estimate D2E/DX2                !
 ! R3    R(1,8)                  2.1546         estimate D2E/DX2                !
 ! R4    R(2,4)                  1.4032         estimate D2E/DX2                !
 ! R5    R(2,5)                  1.086          estimate D2E/DX2                !
 ! R6    R(3,6)                  1.403          estimate D2E/DX2                !
 ! R7    R(3,9)                  1.0859         estimate D2E/DX2                !
 ! R8    R(4,7)                  1.4007         estimate D2E/DX2                !
 ! R9    R(4,11)                 1.5126         estimate D2E/DX2                !
 ! R10   R(6,7)                  1.4009         estimate D2E/DX2                !
 ! R11   R(6,15)                 1.5127         estimate D2E/DX2                !
 ! R12   R(7,10)                 1.0882         estimate D2E/DX2                !
 ! R13   R(11,12)                1.0972         estimate D2E/DX2                !
 ! R14   R(11,13)                1.0972         estimate D2E/DX2                !
 ! R15   R(11,14)                1.095          estimate D2E/DX2                !
 ! R16   R(15,16)                1.0974         estimate D2E/DX2                !
 ! R17   R(15,17)                1.0974         estimate D2E/DX2                !
 ! R18   R(15,18)                1.0952         estimate D2E/DX2                !
 ! A1    A(2,1,3)              121.7531         estimate D2E/DX2                !
 ! A2    A(2,1,8)              119.1335         estimate D2E/DX2                !
 ! A3    A(3,1,8)              119.1134         estimate D2E/DX2                !
 ! A4    A(1,2,4)              119.3891         estimate D2E/DX2                !
 ! A5    A(1,2,5)              120.6981         estimate D2E/DX2                !
 ! A6    A(4,2,5)              119.9127         estimate D2E/DX2                !
 ! A7    A(1,3,6)              119.3949         estimate D2E/DX2                !
 ! A8    A(1,3,9)              120.6721         estimate D2E/DX2                !
 ! A9    A(6,3,9)              119.933          estimate D2E/DX2                !
 ! A10   A(2,4,7)              118.8222         estimate D2E/DX2                !
 ! A11   A(2,4,11)             119.8428         estimate D2E/DX2                !
 ! A12   A(7,4,11)             121.3351         estimate D2E/DX2                !
 ! A13   A(3,6,7)              118.8167         estimate D2E/DX2                !
 ! A14   A(3,6,15)             119.8523         estimate D2E/DX2                !
 ! A15   A(7,6,15)             121.331          estimate D2E/DX2                !
 ! A16   A(4,7,6)              121.824          estimate D2E/DX2                !
 ! A17   A(4,7,10)             119.0899         estimate D2E/DX2                !
 ! A18   A(6,7,10)             119.0861         estimate D2E/DX2                !
 ! A19   A(4,11,12)            111.1565         estimate D2E/DX2                !
 ! A20   A(4,11,13)            111.1562         estimate D2E/DX2                !
 ! A21   A(4,11,14)            111.465          estimate D2E/DX2                !
 ! A22   A(12,11,13)           107.2025         estimate D2E/DX2                !
 ! A23   A(12,11,14)           107.8356         estimate D2E/DX2                !
 ! A24   A(13,11,14)           107.8356         estimate D2E/DX2                !
 ! A25   A(6,15,16)            111.153          estimate D2E/DX2                !
 ! A26   A(6,15,17)            111.1577         estimate D2E/DX2                !
 ! A27   A(6,15,18)            111.4738         estimate D2E/DX2                !
 ! A28   A(16,15,17)           107.2014         estimate D2E/DX2                !
 ! A29   A(16,15,18)           107.8307         estimate D2E/DX2                !
 ! A30   A(17,15,18)           107.8344         estimate D2E/DX2                !
 ! D1    D(3,1,2,4)              0.0004         estimate D2E/DX2                !
 ! D2    D(3,1,2,5)            179.9986         estimate D2E/DX2                !
 ! D3    D(8,1,2,4)           -179.998          estimate D2E/DX2                !
 ! D4    D(8,1,2,5)              0.0001         estimate D2E/DX2                !
 ! D5    D(2,1,3,6)              0.0008         estimate D2E/DX2                !
 ! D6    D(2,1,3,9)           -179.9984         estimate D2E/DX2                !
 ! D7    D(8,1,3,6)            179.9993         estimate D2E/DX2                !
 ! D8    D(8,1,3,9)              0.0001         estimate D2E/DX2                !
 ! D9    D(1,2,4,7)             -0.0004         estimate D2E/DX2                !
 ! D10   D(1,2,4,11)           179.9984         estimate D2E/DX2                !
 ! D11   D(5,2,4,7)           -179.9985         estimate D2E/DX2                !
 ! D12   D(5,2,4,11)             0.0003         estimate D2E/DX2                !
 ! D13   D(1,3,6,7)             -0.0021         estimate D2E/DX2                !
 ! D14   D(1,3,6,15)           179.9882         estimate D2E/DX2                !
 ! D15   D(9,3,6,7)            179.9971         estimate D2E/DX2                !
 ! D16   D(9,3,6,15)            -0.0126         estimate D2E/DX2                !
 ! D17   D(2,4,7,6)             -0.0009         estimate D2E/DX2                !
 ! D18   D(2,4,7,10)           179.9985         estimate D2E/DX2                !
 ! D19   D(11,4,7,6)          -179.9997         estimate D2E/DX2                !
 ! D20   D(11,4,7,10)           -0.0004         estimate D2E/DX2                !
 ! D21   D(2,4,11,12)          -59.6627         estimate D2E/DX2                !
 ! D22   D(2,4,11,13)           59.6654         estimate D2E/DX2                !
 ! D23   D(2,4,11,14)         -179.9987         estimate D2E/DX2                !
 ! D24   D(7,4,11,12)          120.3361         estimate D2E/DX2                !
 ! D25   D(7,4,11,13)         -120.3357         estimate D2E/DX2                !
 ! D26   D(7,4,11,14)            0.0001         estimate D2E/DX2                !
 ! D27   D(3,6,7,4)              0.0021         estimate D2E/DX2                !
 ! D28   D(3,6,7,10)          -179.9972         estimate D2E/DX2                !
 ! D29   D(15,6,7,4)          -179.988          estimate D2E/DX2                !
 ! D30   D(15,6,7,10)            0.0127         estimate D2E/DX2                !
 ! D31   D(3,6,15,16)          -59.8036         estimate D2E/DX2                !
 ! D32   D(3,6,15,17)           59.5217         estimate D2E/DX2                !
 ! D33   D(3,6,15,18)          179.863          estimate D2E/DX2                !
 ! D34   D(7,6,15,16)          120.1864         estimate D2E/DX2                !
 ! D35   D(7,6,15,17)         -120.4883         estimate D2E/DX2                !
 ! D36   D(7,6,15,18)           -0.147          estimate D2E/DX2                !
 --------------------------------------------------------------------------------
 Trust Radius=3.00D-01 FncErr=1.00D-07 GrdErr=1.00D-06 EigMax=2.50D+02 EigMin=1.00D-04
 Number of steps in this run=     94 maximum allowed number of steps=    108.
 GradGradGradGradGradGradGradGradGradGradGradGradGradGradGradGradGradGrad

                          Input orientation:                          
 ---------------------------------------------------------------------
 Center     Atomic      Atomic             Coordinates (Angstroms)
 Number     Number       Type             X           Y           Z
 ---------------------------------------------------------------------
      1          6           0        0.075715    0.000269    0.000006
      2          6           0        0.754023    1.217639    0.000229
      3          6           0        0.754067   -1.217451   -0.000148
      4          6           0        2.157213    1.224079    0.000292
      5          1           0        0.208164    2.156434    0.000323
      6          6           0        2.157002   -1.224164   -0.000060
      7          6           0        2.838109    0.000002    0.000137
      8         53           0       -2.078852   -0.000006   -0.000154
      9          1           0        0.207697   -2.155939   -0.000348
     10          1           0        3.926336   -0.000089    0.000160
     11          6           0        2.903872    2.539516    0.000498
     12          1           0        2.649907    3.139169   -0.882602
     13          1           0        2.649862    3.138913    0.883759
     14          1           0        3.987911    2.384948    0.000503
     15          6           0        2.903689   -2.539739    0.000045
     16          1           0        2.651425   -3.138196    0.884641
     17          1           0        2.647815   -3.140474   -0.881944
     18          1           0        3.987902   -2.385350   -0.002331
 ---------------------------------------------------------------------
                    Distance matrix (angstroms):
                    1          2          3          4          5
     1  C    0.000000
     2  C    1.393589   0.000000
     3  C    1.393917   2.435090   0.000000
     4  C    2.414611   1.403205   2.816006   0.000000
     5  H    2.160229   1.085955   3.417764   2.160574   0.000000
     6  C    2.414745   2.816159   1.402951   2.448243   3.902104
     7  C    2.762394   2.413722   2.413591   1.400708   3.401001
     8  I    2.154567   3.083479   3.083440   4.409380   3.143354
     9  H    2.160244   3.417528   1.085947   3.901940   4.312373
    10  H    3.850621   3.398004   3.397832   2.151368   4.298301
    11  C    3.800822   2.523729   4.328564   1.512572   2.722791
    12  H    4.154294   2.840078   4.832502   2.165599   2.776226
    13  H    4.154316   2.840092   4.832519   2.165596   2.776259
    14  H    4.581700   3.438116   4.840974   2.167734   3.786648
    15  C    3.801194   4.328851   2.523751   3.837128   5.414785
    16  H    4.155337   4.832765   2.841141   4.478366   5.897851
    17  H    4.154251   4.832994   2.839342   4.479772   5.898095
    18  H    4.582182   4.841437   3.438267   4.047148   5.908826
                    6          7          8          9         10
     6  C    0.000000
     7  C    1.400889   0.000000
     8  I    4.409197   4.916961   0.000000
     9  H    2.160554   3.401051   3.142667   0.000000
    10  H    2.151488   1.088227   6.005188   4.298368   0.000000
    11  C    3.837069   2.540365   5.592559   5.414486   2.737705
    12  H    4.478896   3.266346   5.744066   5.897536   3.501925
    13  H    4.478894   3.266342   5.744114   5.897565   3.501923
    14  H    4.046964   2.647643   6.518713   5.908441   2.385832
    15  C    1.512706   2.540588   5.592491   2.723174   2.737815
    16  H    2.165795   3.265805   5.745139   2.778460   3.500774
    17  H    2.165840   3.267548   5.742950   2.775013   3.503533
    18  H    2.168076   2.648006   6.518848   3.787160   2.386057
                   11         12         13         14         15
    11  C    0.000000
    12  H    1.097245   0.000000
    13  H    1.097246   1.766361   0.000000
    14  H    1.095003   1.771716   1.771717   0.000000
    15  C    5.079255   5.752692   5.752605   5.042626   0.000000
    16  H    5.751683   6.521385   6.277109   5.750914   1.097405
    17  H    5.753830   6.279643   6.522914   5.753682   1.097387
    18  H    5.042761   5.751993   5.752651   4.770299   1.095153
                   16         17         18
    16  H    0.000000
    17  H    1.766590   0.000000
    18  H    1.771911   1.771938   0.000000
 Stoichiometry    C8H9I
 Framework group  C1[X(C8H9I)]
 Deg. of freedom    48
 Full point group                 C1      NOp   1
 Largest Abelian subgroup         C1      NOp   1
 Largest concise Abelian subgroup C1      NOp   1
                         Standard orientation:                         
 ---------------------------------------------------------------------
 Center     Atomic      Atomic             Coordinates (Angstroms)
 Number     Number       Type             X           Y           Z
 ---------------------------------------------------------------------
      1          6           0       -0.075715   -0.000269    0.000006
      2          6           0       -0.754023   -1.217639    0.000229
      3          6           0       -0.754067    1.217451   -0.000148
      4          6           0       -2.157213   -1.224079    0.000292
      5          1           0       -0.208164   -2.156434    0.000323
      6          6           0       -2.157002    1.224164   -0.000060
      7          6           0       -2.838109   -0.000002    0.000137
      8         53           0        2.078852    0.000006   -0.000154
      9          1           0       -0.207697    2.155939   -0.000348
     10          1           0       -3.926336    0.000089    0.000160
     11          6           0       -2.903872   -2.539516    0.000498
     12          1           0       -2.649907   -3.139169   -0.882602
     13          1           0       -2.649862   -3.138913    0.883759
     14          1           0       -3.987911   -2.384948    0.000503
     15          6           0       -2.903689    2.539739    0.000045
     16          1           0       -2.651425    3.138196    0.884641
     17          1           0       -2.647815    3.140474   -0.881944
     18          1           0       -3.987902    2.385350   -0.002331
 ---------------------------------------------------------------------
 Rotational constants (GHZ):           1.7424243           0.4891988           0.3837849
 General basis read from cards:  (5D, 7F)
 ======================================================================================================
                                       Pseudopotential Parameters
 ======================================================================================================
  Center     Atomic      Valence      Angular      Power
  Number     Number     Electrons     Momentum     of R      Exponent        Coefficient   SO-Coeffient
 ======================================================================================================
    1          6
                                   No pseudopotential on this center.
    2          6
                                   No pseudopotential on this center.
    3          6
                                   No pseudopotential on this center.
    4          6
                                   No pseudopotential on this center.
    5          1
                                   No pseudopotential on this center.
    6          6
                                   No pseudopotential on this center.
    7          6
                                   No pseudopotential on this center.
    8         53            7
                                      G and up 
                                                     2        1.0000000        0.00000000    0.00000000
                                      S - G
                                                     2        3.5112000       83.11386300    0.00000000
                                                     2        1.7556000        5.20187600    0.00000000
                                      P - G
                                                     2        2.9688000       82.81110900    0.00000000
                                                     2        1.4844000        3.37968200    0.00000000
                                      D - G
                                                     2        1.9066000       10.30427700    0.00000000
                                                     2        0.9533000        7.58803200    0.00000000
                                      F - G
                                                     2        2.3075000      -21.47793600    0.00000000
    9          1
                                   No pseudopotential on this center.
   10          1
                                   No pseudopotential on this center.
   11          6
                                   No pseudopotential on this center.
   12          1
                                   No pseudopotential on this center.
   13          1
                                   No pseudopotential on this center.
   14          1
                                   No pseudopotential on this center.
   15          6
                                   No pseudopotential on this center.
   16          1
                                   No pseudopotential on this center.
   17          1
                                   No pseudopotential on this center.
   18          1
                                   No pseudopotential on this center.
 ======================================================================================================
 There are   181 symmetry adapted cartesian basis functions of A   symmetry.
 There are   173 symmetry adapted basis functions of A   symmetry.
   173 basis functions,   311 primitive gaussians,   181 cartesian basis functions
    32 alpha electrons       32 beta electrons
       nuclear repulsion energy       383.1367643576 Hartrees.
 NAtoms=   18 NActive=   18 NUniq=   18 SFac= 1.00D+00 NAtFMM=   60 NAOKFM=F Big=F
 Integral buffers will be    131072 words long.
 Raffenetti 2 integral format.
 Two-electron integral symmetry is turned on.
 Nuclear repulsion after empirical dispersion term =      383.1230910136 Hartrees.
 One-electron integrals computed using PRISM.
   1 Symmetry operations used in ECPInt.
 ECPInt:  NShTT=    2016 NPrTT=   10188 LenC2=    2004 LenP2D=    7495.
 LDataN:  DoStor=T MaxTD1= 6 Len=  172
 NBasis=   173 RedAO= T EigKep=  3.03D-06  NBF=   173
 NBsUse=   173 1.00D-06 EigRej= -1.00D+00 NBFU=   173
 Defaulting to unpruned grid for atomic number  53.
 ExpMin= 3.26D-02 ExpMax= 3.05D+03 ExpMxC= 4.57D+02 IAcc=3 IRadAn=         5 AccDes= 0.00D+00
 Harris functional with IExCor=  402 and IRadAn=       5 diagonalized for initial guess.
 HarFok:  IExCor=  402 AccDes= 0.00D+00 IRadAn=         5 IDoV= 1 UseB2=F ITyADJ=14
 ICtDFT=  3500011 ScaDFX=  1.000000  1.000000  1.000000  1.000000
 Defaulting to unpruned grid for atomic number  53.
 FoFCou: FMM=F IPFlag=           0 FMFlag=      100000 FMFlg1=           0
         NFxFlg=           0 DoJE=T BraDBF=F KetDBF=T FulRan=T
         wScrn=  0.000000 ICntrl=       500 IOpCl=  0 I1Cent=   200000004 NGrid=           0
         NMat0=    1 NMatS0=      1 NMatT0=    0 NMatD0=    1 NMtDS0=    0 NMtDT0=    0
 Petite list used in FoFCou.
 Requested convergence on RMS density matrix=1.00D-08 within1000 cycles.
 Requested convergence on MAX density matrix=1.00D-06.
 Requested convergence on             energy=1.00D-06.
 No special actions if energy rises.
 Defaulting to unpruned grid for atomic number  53.
 Defaulting to unpruned grid for atomic number  53.
 Defaulting to unpruned grid for atomic number  53.
 Defaulting to unpruned grid for atomic number  53.
 Defaulting to unpruned grid for atomic number  53.
 Defaulting to unpruned grid for atomic number  53.
 Defaulting to unpruned grid for atomic number  53.
 Defaulting to unpruned grid for atomic number  53.
 Defaulting to unpruned grid for atomic number  53.
 Defaulting to unpruned grid for atomic number  53.
 Defaulting to unpruned grid for atomic number  53.
 Defaulting to unpruned grid for atomic number  53.
 Defaulting to unpruned grid for atomic number  53.
 Defaulting to unpruned grid for atomic number  53.
 Defaulting to unpruned grid for atomic number  53.
 Defaulting to unpruned grid for atomic number  53.
 Defaulting to unpruned grid for atomic number  53.
 Defaulting to unpruned grid for atomic number  53.
 Defaulting to unpruned grid for atomic number  53.
 Defaulting to unpruned grid for atomic number  53.
 Defaulting to unpruned grid for atomic number  53.
 Defaulting to unpruned grid for atomic number  53.
 Defaulting to unpruned grid for atomic number  53.
 Defaulting to unpruned grid for atomic number  53.
 Defaulting to unpruned grid for atomic number  53.
 Defaulting to unpruned grid for atomic number  53.
 Defaulting to unpruned grid for atomic number  53.
 Defaulting to unpruned grid for atomic number  53.
 Defaulting to unpruned grid for atomic number  53.
 Defaulting to unpruned grid for atomic number  53.
 Defaulting to unpruned grid for atomic number  53.
 Defaulting to unpruned grid for atomic number  53.
 SCF Done:  E(RB3LYP) =  -321.712877303     A.U. after   14 cycles
            NFock= 14  Conv=0.54D-08     -V/T= 2.0325

 **********************************************************************

            Population analysis using the SCF Density.

 **********************************************************************

 Orbital symmetries:
       Occupied  (A) (A) (A) (A) (A) (A) (A) (A) (A) (A) (A) (A)
                 (A) (A) (A) (A) (A) (A) (A) (A) (A) (A) (A) (A)
                 (A) (A) (A) (A) (A) (A) (A) (A)
       Virtual   (A) (A) (A) (A) (A) (A) (A) (A) (A) (A) (A) (A)
                 (A) (A) (A) (A) (A) (A) (A) (A) (A) (A) (A) (A)
                 (A) (A) (A) (A) (A) (A) (A) (A) (A) (A) (A) (A)
                 (A) (A) (A) (A) (A) (A) (A) (A) (A) (A) (A) (A)
                 (A) (A) (A) (A) (A) (A) (A) (A) (A) (A) (A) (A)
                 (A) (A) (A) (A) (A) (A) (A) (A) (A) (A) (A) (A)
                 (A) (A) (A) (A) (A) (A) (A) (A) (A) (A) (A) (A)
                 (A) (A) (A) (A) (A) (A) (A) (A) (A) (A) (A) (A)
                 (A) (A) (A) (A) (A) (A) (A) (A) (A) (A) (A) (A)
                 (A) (A) (A) (A) (A) (A) (A) (A) (A) (A) (A) (A)
                 (A) (A) (A) (A) (A) (A) (A) (A) (A) (A) (A) (A)
                 (A) (A) (A) (A) (A) (A) (A) (A) (A)
 The electronic state is 1-A.
 Alpha  occ. eigenvalues --  -10.24330 -10.21070 -10.21069 -10.19906 -10.19904
 Alpha  occ. eigenvalues --  -10.19366 -10.18804 -10.18799  -0.87594  -0.79535
 Alpha  occ. eigenvalues --   -0.78267  -0.70735  -0.69612  -0.68681  -0.58879
 Alpha  occ. eigenvalues --   -0.58670  -0.51436  -0.48734  -0.43674  -0.43604
 Alpha  occ. eigenvalues --   -0.42498  -0.42109  -0.40871  -0.40700  -0.39009
 Alpha  occ. eigenvalues --   -0.36642  -0.35442  -0.33528  -0.29010  -0.26696
 Alpha  occ. eigenvalues --   -0.25198  -0.24050
 Alpha virt. eigenvalues --   -0.04168  -0.02559  -0.01998   0.00230   0.01618
 Alpha virt. eigenvalues --    0.02135   0.03409   0.03529   0.03586   0.05311
 Alpha virt. eigenvalues --    0.06125   0.06229   0.06362   0.06492   0.07392
 Alpha virt. eigenvalues --    0.08793   0.09554   0.09733   0.11158   0.11301
 Alpha virt. eigenvalues --    0.11569   0.11997   0.13086   0.13970   0.14468
 Alpha virt. eigenvalues --    0.15883   0.17147   0.17607   0.17810   0.18171
 Alpha virt. eigenvalues --    0.18544   0.19047   0.20357   0.21252   0.21669
 Alpha virt. eigenvalues --    0.22658   0.22944   0.23531   0.23867   0.25417
 Alpha virt. eigenvalues --    0.25547   0.26972   0.27664   0.27931   0.28939
 Alpha virt. eigenvalues --    0.29854   0.30539   0.31752   0.33429   0.33925
 Alpha virt. eigenvalues --    0.35302   0.35541   0.40384   0.42222   0.52996
 Alpha virt. eigenvalues --    0.54650   0.64392   0.64443   0.65084   0.68144
 Alpha virt. eigenvalues --    0.68187   0.68819   0.69948   0.70250   0.71988
 Alpha virt. eigenvalues --    0.72356   0.73144   0.73232   0.74622   0.75364
 Alpha virt. eigenvalues --    0.78797   0.79275   0.79929   0.81723   0.84535
 Alpha virt. eigenvalues --    0.85496   0.86122   0.88897   0.92609   0.93303
 Alpha virt. eigenvalues --    0.96926   0.97436   0.98399   1.03172   1.06835
 Alpha virt. eigenvalues --    1.10393   1.13691   1.14478   1.14743   1.18424
 Alpha virt. eigenvalues --    1.20620   1.23244   1.23937   1.26013   1.31150
 Alpha virt. eigenvalues --    1.32014   1.36807   1.39089   1.39846   1.40819
 Alpha virt. eigenvalues --    1.46447   1.47371   1.48211   1.49224   1.58995
 Alpha virt. eigenvalues --    1.74777   1.82130   1.84174   1.84862   1.87787
 Alpha virt. eigenvalues --    1.87924   1.89663   1.91073   1.91355   2.03308
 Alpha virt. eigenvalues --    2.07834   2.13012   2.13298   2.15580   2.16871
 Alpha virt. eigenvalues --    2.18907   2.21434   2.30842   2.31126   2.33541
 Alpha virt. eigenvalues --    2.35190   2.35691   2.37571   2.39164   2.44251
 Alpha virt. eigenvalues --    2.57781   2.62839   2.64059   2.73446   2.75685
 Alpha virt. eigenvalues --    2.80546   2.81283   2.99483   3.07735   3.37051
 Alpha virt. eigenvalues --   15.07442
          Condensed to atoms (all electrons):
               1          2          3          4          5          6
     1  C    7.742134  -0.541346  -0.539150   0.375532  -0.040463   0.375449
     2  C   -0.541346   7.643633  -0.227841   0.083210   0.181465  -0.469234
     3  C   -0.539150  -0.227841   7.641254  -0.468115   0.031166   0.083692
     4  C    0.375532   0.083210  -0.468115   7.789290   0.029614   0.728186
     5  H   -0.040463   0.181465   0.031166   0.029614   0.521099   0.001089
     6  C    0.375449  -0.469234   0.083692   0.728186   0.001089   7.788330
     7  C   -1.158121  -0.610400  -0.610587  -1.353583   0.111438  -1.352490
     8  I   -0.680694   0.270116   0.270187   0.048914  -0.003943   0.049051
     9  H   -0.040748   0.031170   0.181678   0.001091  -0.000149   0.029676
    10  H   -0.025475   0.067037   0.067060   0.054807  -0.000146   0.054776
    11  C   -0.286826  -0.062385   0.010365  -0.908921  -0.029292  -0.288187
    12  H   -0.003903  -0.028771   0.001624  -0.092457   0.000823  -0.011470
    13  H   -0.003818  -0.028902   0.001578  -0.092355   0.000823  -0.011535
    14  H   -0.017495   0.050750   0.008935  -0.156228   0.000105   0.008918
    15  C   -0.286280   0.010196  -0.063754  -0.288229   0.004388  -0.908307
    16  H   -0.003903   0.001594  -0.028926  -0.011469   0.000000  -0.092042
    17  H   -0.003823   0.001615  -0.028725  -0.011552   0.000000  -0.092736
    18  H   -0.017475   0.008937   0.050713   0.008927   0.000000  -0.156258
               7          8          9         10         11         12
     1  C   -1.158121  -0.680694  -0.040748  -0.025475  -0.286826  -0.003903
     2  C   -0.610400   0.270116   0.031170   0.067037  -0.062385  -0.028771
     3  C   -0.610587   0.270187   0.181678   0.067060   0.010365   0.001624
     4  C   -1.353583   0.048914   0.001091   0.054807  -0.908921  -0.092457
     5  H    0.111438  -0.003943  -0.000149  -0.000146  -0.029292   0.000823
     6  C   -1.352490   0.049051   0.029676   0.054776  -0.288187  -0.011470
     7  C   10.623041   0.045387   0.111422   0.066037   0.600063   0.048091
     8  I    0.045387   6.929004  -0.003938   0.000199   0.011444  -0.000082
     9  H    0.111422  -0.003938   0.521085  -0.000146   0.004394   0.000000
    10  H    0.066037   0.000199  -0.000146   0.557342  -0.010072   0.000117
    11  C    0.600063   0.011444   0.004394  -0.010072   6.531322   0.420318
    12  H    0.048091  -0.000082   0.000000   0.000117   0.420318   0.498264
    13  H    0.048181  -0.000082   0.000000   0.000116   0.420285  -0.032270
    14  H   -0.037133   0.000113   0.000000   0.004388   0.482249  -0.025816
    15  C    0.600678   0.011457  -0.029260  -0.010065  -0.069202   0.000150
    16  H    0.047975  -0.000081   0.000818   0.000117   0.000150   0.000000
    17  H    0.048216  -0.000082   0.000828   0.000116   0.000150   0.000000
    18  H   -0.037041   0.000113   0.000105   0.004385  -0.000774   0.000000
              13         14         15         16         17         18
     1  C   -0.003818  -0.017495  -0.286280  -0.003903  -0.003823  -0.017475
     2  C   -0.028902   0.050750   0.010196   0.001594   0.001615   0.008937
     3  C    0.001578   0.008935  -0.063754  -0.028926  -0.028725   0.050713
     4  C   -0.092355  -0.156228  -0.288229  -0.011469  -0.011552   0.008927
     5  H    0.000823   0.000105   0.004388   0.000000   0.000000   0.000000
     6  C   -0.011535   0.008918  -0.908307  -0.092042  -0.092736  -0.156258
     7  C    0.048181  -0.037133   0.600678   0.047975   0.048216  -0.037041
     8  I   -0.000082   0.000113   0.011457  -0.000081  -0.000082   0.000113
     9  H    0.000000   0.000000  -0.029260   0.000818   0.000828   0.000105
    10  H    0.000116   0.004388  -0.010065   0.000117   0.000116   0.004385
    11  C    0.420285   0.482249  -0.069202   0.000150   0.000150  -0.000774
    12  H   -0.032270  -0.025816   0.000150   0.000000   0.000000   0.000000
    13  H    0.498260  -0.025815   0.000151   0.000000   0.000000   0.000000
    14  H   -0.025815   0.501385  -0.000776   0.000000   0.000000  -0.000002
    15  C    0.000151  -0.000776   6.531227   0.420169   0.420455   0.482183
    16  H    0.000000   0.000000   0.420169   0.498253  -0.032257  -0.025820
    17  H    0.000000   0.000000   0.420455  -0.032257   0.498302  -0.025810
    18  H    0.000000  -0.000002   0.482183  -0.025820  -0.025810   0.501406
 Mulliken charges:
               1
     1  C    1.156402
     2  C   -0.380843
     3  C   -0.381154
     4  C    0.263337
     5  H    0.191982
     6  C    0.263093
     7  C   -1.191174
     8  I    0.052917
     9  H    0.191974
    10  H    0.169408
    11  C   -0.825079
    12  H    0.225381
    13  H    0.225383
    14  H    0.206421
    15  C   -0.825183
    16  H    0.225422
    17  H    0.225302
    18  H    0.206411
 Sum of Mulliken charges =   0.00000
 Mulliken charges with hydrogens summed into heavy atoms:
               1
     1  C    1.156402
     2  C   -0.188861
     3  C   -0.189180
     4  C    0.263337
     6  C    0.263093
     7  C   -1.021765
     8  I    0.052917
    11  C   -0.167895
    15  C   -0.168049
 Electronic spatial extent (au):  <R**2>=           1913.2384
 Charge=              0.0000 electrons
 Dipole moment (field-independent basis, Debye):
    X=             -2.3089    Y=             -0.0004    Z=              0.0005  Tot=              2.3089
 Quadrupole moment (field-independent basis, Debye-Ang):
   XX=            -63.7441   YY=            -62.9443   ZZ=            -72.7735
   XY=              0.0011   XZ=             -0.0015   YZ=             -0.0006
 Traceless Quadrupole moment (field-independent basis, Debye-Ang):
   XX=              2.7432   YY=              3.5430   ZZ=             -6.2862
   XY=              0.0011   XZ=             -0.0015   YZ=             -0.0006
 Octapole moment (field-independent basis, Debye-Ang**2):
  XXX=            134.8671  YYY=             -0.0073  ZZZ=             -0.0059  XYY=             38.1480
  XXY=              0.0030  XXZ=             -0.0036  XZZ=             52.4305  YZZ=             -0.0010
  YYZ=             -0.0030  XYZ=             -0.0019
 Hexadecapole moment (field-independent basis, Debye-Ang**3):
 XXXX=          -1912.4599 YYYY=           -922.2682 ZZZZ=           -116.0441 XXXY=              0.0108
 XXXZ=              0.0857 YYYX=              0.0137 YYYZ=              0.0307 ZZZX=              0.0613
 ZZZY=              0.0567 XXYY=           -488.3381 XXZZ=           -382.4244 YYZZ=           -174.6069
 XXYZ=              0.0167 YYXZ=              0.0132 ZZXY=              0.0046
 N-N= 3.831230910136D+02 E-N=-1.505965752994D+03  KE= 3.115820852575D+02
 Evaluate density.
 Using the total density.
 Monte-Carlo method of calculating molar volume:
 based on  0.001 e/bohr**3 density envelope.
 Number of points per bohr**3 =   20 CutOff= 1.00D-04
 Using the SCF density.
 There are       484 points.  Will hold       484 in memory.
 LenV=  8052942618 MDV=  8053063680.
 Box volume =14198.487 fraction occupied=0.114
 Integrated density= 5.0150777233771905D+01 error=-1.3849222766228095D+01
 Molar volume = 1613.464 bohr**3/mol (143.984 cm**3/mol)
 Recommended a0 for SCRF calculation =  4.74 angstrom (  8.95 bohr)
   1 Symmetry operations used in ECPInt.
 ECPInt:  NShTT=    2016 NPrTT=   10188 LenC2=    2004 LenP2D=    7495.
 LDataN:  DoStor=T MaxTD1= 7 Len=  274
 Calling FoFJK, ICntrl=      2127 FMM=F ISym2X=0 I1Cent= 0 IOpClX= 0 NMat=1 NMatS=1 NMatT=0.
 Defaulting to unpruned grid for atomic number  53.
 Defaulting to unpruned grid for atomic number  53.
 Defaulting to unpruned grid for atomic number  53.
 Defaulting to unpruned grid for atomic number  53.
 Defaulting to unpruned grid for atomic number  53.
 Defaulting to unpruned grid for atomic number  53.
 Defaulting to unpruned grid for atomic number  53.
 Defaulting to unpruned grid for atomic number  53.
 Defaulting to unpruned grid for atomic number  53.
 Defaulting to unpruned grid for atomic number  53.
 Defaulting to unpruned grid for atomic number  53.
 Defaulting to unpruned grid for atomic number  53.
 Defaulting to unpruned grid for atomic number  53.
 Defaulting to unpruned grid for atomic number  53.
 Defaulting to unpruned grid for atomic number  53.
 Defaulting to unpruned grid for atomic number  53.
 Defaulting to unpruned grid for atomic number  53.
 Defaulting to unpruned grid for atomic number  53.
 Defaulting to unpruned grid for atomic number  53.
 Defaulting to unpruned grid for atomic number  53.
 Defaulting to unpruned grid for atomic number  53.
 Defaulting to unpruned grid for atomic number  53.
 Defaulting to unpruned grid for atomic number  53.
 Defaulting to unpruned grid for atomic number  53.
 Defaulting to unpruned grid for atomic number  53.
 Defaulting to unpruned grid for atomic number  53.
 Defaulting to unpruned grid for atomic number  53.
 Defaulting to unpruned grid for atomic number  53.
 Defaulting to unpruned grid for atomic number  53.
 Defaulting to unpruned grid for atomic number  53.
 Defaulting to unpruned grid for atomic number  53.
 Defaulting to unpruned grid for atomic number  53.
 ***** Axes restored to original set *****
 -------------------------------------------------------------------
 Center     Atomic                   Forces (Hartrees/Bohr)
 Number     Number              X              Y              Z
 -------------------------------------------------------------------
      1        6           0.000045375   -0.000158515    0.000000175
      2        6           0.000079549    0.000067259   -0.000000017
      3        6          -0.000147221    0.000083630   -0.000000077
      4        6          -0.000086487    0.000011433    0.000000279
      5        1          -0.000008772   -0.000014158   -0.000000051
      6        6           0.000091012    0.000003860   -0.000000731
      7        6           0.000022304   -0.000063152    0.000000054
      8       53          -0.000019483    0.000010652   -0.000000039
      9        1           0.000017645   -0.000007500   -0.000000018
     10        1           0.000005283    0.000000627    0.000000085
     11        6           0.000029161    0.000004747   -0.000000175
     12        1          -0.000001847   -0.000003362    0.000001819
     13        1          -0.000001803   -0.000003402   -0.000001832
     14        1           0.000001855    0.000000384    0.000000099
     15        6           0.000034435   -0.000051176    0.000000464
     16        1           0.000019089    0.000057895   -0.000081089
     17        1           0.000018830    0.000058005    0.000080811
     18        1          -0.000098925    0.000002773    0.000000241
 -------------------------------------------------------------------
 Cartesian Forces:  Max     0.000158515 RMS     0.000047788

 GradGradGradGradGradGradGradGradGradGradGradGradGradGradGradGradGradGrad
 Berny optimization.
 FormGI is forming the generalized inverse of G from B-inverse, IUseBI=4.
 Internal  Forces:  Max     0.000103817 RMS     0.000028652
 Search for a local minimum.
 Step number   1 out of a maximum of   94
 All quantities printed in internal units (Hartrees-Bohrs-Radians)
 Mixed Optimization -- En-DIIS/RFO-DIIS
 Second derivative matrix not updated -- first step.
 ITU=  0
     Eigenvalues ---    0.00598   0.00600   0.01445   0.01495   0.02067
     Eigenvalues ---    0.02071   0.02078   0.02106   0.02117   0.02148
     Eigenvalues ---    0.02171   0.07050   0.07052   0.07125   0.07126
     Eigenvalues ---    0.12286   0.16000   0.16000   0.16000   0.16000
     Eigenvalues ---    0.16000   0.16000   0.16000   0.16000   0.16000
     Eigenvalues ---    0.23471   0.23475   0.23505   0.25000   0.25000
     Eigenvalues ---    0.25000   0.31080   0.31093   0.33971   0.33973
     Eigenvalues ---    0.33989   0.33989   0.34224   0.34241   0.35018
     Eigenvalues ---    0.35284   0.35285   0.41623   0.41934   0.45114
     Eigenvalues ---    0.45419   0.46148   0.46487
 RFO step:  Lambda=-2.01043652D-07 EMin= 5.97873144D-03
 Linear search not attempted -- first point.
 Iteration  1 RMS(Cart)=  0.00018481 RMS(Int)=  0.00000001
 Iteration  2 RMS(Cart)=  0.00000001 RMS(Int)=  0.00000000
 Variable       Old X    -DE/DX   Delta X   Delta X   Delta X     New X
                                 (Linear)    (Quad)   (Total)
    R1        2.63350   0.00007   0.00000   0.00015   0.00015   2.63366
    R2        2.63412  -0.00010   0.00000  -0.00022  -0.00022   2.63390
    R3        4.07154   0.00002   0.00000   0.00016   0.00016   4.07170
    R4        2.65167  -0.00004   0.00000  -0.00008  -0.00008   2.65159
    R5        2.05216  -0.00001   0.00000  -0.00002  -0.00002   2.05214
    R6        2.65119   0.00007   0.00000   0.00015   0.00015   2.65135
    R7        2.05214   0.00000   0.00000  -0.00001  -0.00001   2.05213
    R8        2.64696   0.00001   0.00000   0.00002   0.00002   2.64698
    R9        2.85835   0.00001   0.00000   0.00004   0.00004   2.85839
   R10        2.64730  -0.00005   0.00000  -0.00011  -0.00011   2.64718
   R11        2.85860  -0.00007   0.00000  -0.00023  -0.00023   2.85837
   R12        2.05645   0.00001   0.00000   0.00002   0.00002   2.05647
   R13        2.07349   0.00000   0.00000  -0.00001  -0.00001   2.07348
   R14        2.07349   0.00000   0.00000  -0.00001  -0.00001   2.07349
   R15        2.06926   0.00000   0.00000   0.00001   0.00001   2.06926
   R16        2.07380  -0.00010   0.00000  -0.00030  -0.00030   2.07350
   R17        2.07376  -0.00010   0.00000  -0.00030  -0.00030   2.07346
   R18        2.06954  -0.00010   0.00000  -0.00029  -0.00029   2.06925
    A1        2.12499   0.00000   0.00000   0.00001   0.00001   2.12500
    A2        2.07927  -0.00002   0.00000  -0.00009  -0.00009   2.07918
    A3        2.07892   0.00002   0.00000   0.00008   0.00008   2.07900
    A4        2.08373   0.00001   0.00000   0.00003   0.00003   2.08376
    A5        2.10658  -0.00002   0.00000  -0.00011  -0.00011   2.10647
    A6        2.09287   0.00001   0.00000   0.00008   0.00008   2.09295
    A7        2.08383  -0.00002   0.00000  -0.00008  -0.00008   2.08375
    A8        2.10613   0.00003   0.00000   0.00016   0.00016   2.10629
    A9        2.09323  -0.00001   0.00000  -0.00008  -0.00008   2.09315
   A10        2.07384   0.00000   0.00000   0.00000   0.00000   2.07384
   A11        2.09165   0.00003   0.00000   0.00012   0.00012   2.09177
   A12        2.11770  -0.00003   0.00000  -0.00012  -0.00012   2.11757
   A13        2.07374   0.00003   0.00000   0.00011   0.00011   2.07386
   A14        2.09182   0.00001   0.00000   0.00004   0.00004   2.09186
   A15        2.11762  -0.00004   0.00000  -0.00016  -0.00016   2.11747
   A16        2.12623  -0.00002   0.00000  -0.00007  -0.00007   2.12616
   A17        2.07851   0.00001   0.00000   0.00003   0.00003   2.07854
   A18        2.07844   0.00001   0.00000   0.00004   0.00004   2.07848
   A19        1.94005   0.00000   0.00000  -0.00003  -0.00003   1.94002
   A20        1.94004   0.00000   0.00000  -0.00003  -0.00003   1.94001
   A21        1.94543   0.00000   0.00000   0.00002   0.00002   1.94546
   A22        1.87104   0.00000   0.00000   0.00000   0.00000   1.87104
   A23        1.88209   0.00000   0.00000   0.00002   0.00002   1.88210
   A24        1.88209   0.00000   0.00000   0.00001   0.00001   1.88210
   A25        1.93999   0.00000   0.00000  -0.00001  -0.00001   1.93998
   A26        1.94007   0.00000   0.00000  -0.00001  -0.00001   1.94006
   A27        1.94558  -0.00002   0.00000  -0.00014  -0.00014   1.94544
   A28        1.87102   0.00000   0.00000   0.00004   0.00004   1.87105
   A29        1.88200   0.00001   0.00000   0.00007   0.00007   1.88207
   A30        1.88206   0.00001   0.00000   0.00007   0.00007   1.88213
    D1        0.00001   0.00000   0.00000   0.00000   0.00000   0.00001
    D2        3.14157   0.00000   0.00000   0.00000   0.00000   3.14157
    D3       -3.14156   0.00000   0.00000   0.00000   0.00000  -3.14156
    D4        0.00000   0.00000   0.00000   0.00000   0.00000   0.00000
    D5        0.00001   0.00000   0.00000   0.00000   0.00000   0.00001
    D6       -3.14156   0.00000   0.00000   0.00000   0.00000  -3.14156
    D7        3.14158   0.00000   0.00000   0.00000   0.00000   3.14158
    D8        0.00000   0.00000   0.00000   0.00000   0.00000   0.00000
    D9       -0.00001   0.00000   0.00000   0.00000   0.00000   0.00000
   D10        3.14157   0.00000   0.00000   0.00000   0.00000   3.14157
   D11       -3.14157   0.00000   0.00000   0.00000   0.00000  -3.14157
   D12        0.00001   0.00000   0.00000   0.00000   0.00000   0.00001
   D13       -0.00004   0.00000   0.00000   0.00000   0.00000  -0.00003
   D14        3.14139   0.00000   0.00000  -0.00001  -0.00001   3.14138
   D15        3.14154   0.00000   0.00000   0.00000   0.00000   3.14154
   D16       -0.00022   0.00000   0.00000  -0.00001  -0.00001  -0.00023
   D17       -0.00002   0.00000   0.00000   0.00000   0.00000  -0.00002
   D18        3.14157   0.00000   0.00000   0.00000   0.00000   3.14157
   D19       -3.14159   0.00000   0.00000   0.00000   0.00000  -3.14159
   D20       -0.00001   0.00000   0.00000   0.00000   0.00000   0.00000
   D21       -1.04131   0.00000   0.00000   0.00002   0.00002  -1.04130
   D22        1.04136   0.00000   0.00000  -0.00002  -0.00002   1.04134
   D23       -3.14157   0.00000   0.00000   0.00000   0.00000  -3.14157
   D24        2.10026   0.00000   0.00000   0.00001   0.00001   2.10027
   D25       -2.10025   0.00000   0.00000  -0.00002  -0.00002  -2.10027
   D26        0.00000   0.00000   0.00000   0.00000   0.00000   0.00000
   D27        0.00004   0.00000   0.00000   0.00000   0.00000   0.00004
   D28       -3.14154   0.00000   0.00000   0.00000   0.00000  -3.14155
   D29       -3.14138   0.00000   0.00000   0.00001   0.00001  -3.14137
   D30        0.00022   0.00000   0.00000   0.00000   0.00000   0.00023
   D31       -1.04377   0.00000   0.00000  -0.00004  -0.00004  -1.04381
   D32        1.03885   0.00000   0.00000   0.00000   0.00000   1.03885
   D33        3.13920   0.00000   0.00000  -0.00002  -0.00002   3.13918
   D34        2.09765   0.00000   0.00000  -0.00004  -0.00004   2.09760
   D35       -2.10292   0.00000   0.00000  -0.00001  -0.00001  -2.10293
   D36       -0.00257   0.00000   0.00000  -0.00003  -0.00003  -0.00259
         Item               Value     Threshold  Converged?
 Maximum Force            0.000104     0.000450     YES
 RMS     Force            0.000029     0.000300     YES
 Maximum Displacement     0.000861     0.001800     YES
 RMS     Displacement     0.000185     0.001200     YES
 Predicted change in Energy=-1.005218D-07
 Optimization completed.
    -- Stationary point found.
                           ----------------------------
                           !   Optimized Parameters   !
                           ! (Angstroms and Degrees)  !
 --------------------------                            --------------------------
 ! Name  Definition              Value          Derivative Info.                !
 --------------------------------------------------------------------------------
 ! R1    R(1,2)                  1.3936         -DE/DX =    0.0001              !
 ! R2    R(1,3)                  1.3939         -DE/DX =   -0.0001              !
 ! R3    R(1,8)                  2.1546         -DE/DX =    0.0                 !
 ! R4    R(2,4)                  1.4032         -DE/DX =    0.0                 !
 ! R5    R(2,5)                  1.086          -DE/DX =    0.0                 !
 ! R6    R(3,6)                  1.403          -DE/DX =    0.0001              !
 ! R7    R(3,9)                  1.0859         -DE/DX =    0.0                 !
 ! R8    R(4,7)                  1.4007         -DE/DX =    0.0                 !
 ! R9    R(4,11)                 1.5126         -DE/DX =    0.0                 !
 ! R10   R(6,7)                  1.4009         -DE/DX =   -0.0001              !
 ! R11   R(6,15)                 1.5127         -DE/DX =   -0.0001              !
 ! R12   R(7,10)                 1.0882         -DE/DX =    0.0                 !
 ! R13   R(11,12)                1.0972         -DE/DX =    0.0                 !
 ! R14   R(11,13)                1.0972         -DE/DX =    0.0                 !
 ! R15   R(11,14)                1.095          -DE/DX =    0.0                 !
 ! R16   R(15,16)                1.0974         -DE/DX =   -0.0001              !
 ! R17   R(15,17)                1.0974         -DE/DX =   -0.0001              !
 ! R18   R(15,18)                1.0952         -DE/DX =   -0.0001              !
 ! A1    A(2,1,3)              121.7531         -DE/DX =    0.0                 !
 ! A2    A(2,1,8)              119.1335         -DE/DX =    0.0                 !
 ! A3    A(3,1,8)              119.1134         -DE/DX =    0.0                 !
 ! A4    A(1,2,4)              119.3891         -DE/DX =    0.0                 !
 ! A5    A(1,2,5)              120.6981         -DE/DX =    0.0                 !
 ! A6    A(4,2,5)              119.9127         -DE/DX =    0.0                 !
 ! A7    A(1,3,6)              119.3949         -DE/DX =    0.0                 !
 ! A8    A(1,3,9)              120.6721         -DE/DX =    0.0                 !
 ! A9    A(6,3,9)              119.933          -DE/DX =    0.0                 !
 ! A10   A(2,4,7)              118.8222         -DE/DX =    0.0                 !
 ! A11   A(2,4,11)             119.8428         -DE/DX =    0.0                 !
 ! A12   A(7,4,11)             121.3351         -DE/DX =    0.0                 !
 ! A13   A(3,6,7)              118.8167         -DE/DX =    0.0                 !
 ! A14   A(3,6,15)             119.8523         -DE/DX =    0.0                 !
 ! A15   A(7,6,15)             121.331          -DE/DX =    0.0                 !
 ! A16   A(4,7,6)              121.824          -DE/DX =    0.0                 !
 ! A17   A(4,7,10)             119.0899         -DE/DX =    0.0                 !
 ! A18   A(6,7,10)             119.0861         -DE/DX =    0.0                 !
 ! A19   A(4,11,12)            111.1565         -DE/DX =    0.0                 !
 ! A20   A(4,11,13)            111.1562         -DE/DX =    0.0                 !
 ! A21   A(4,11,14)            111.465          -DE/DX =    0.0                 !
 ! A22   A(12,11,13)           107.2025         -DE/DX =    0.0                 !
 ! A23   A(12,11,14)           107.8356         -DE/DX =    0.0                 !
 ! A24   A(13,11,14)           107.8356         -DE/DX =    0.0                 !
 ! A25   A(6,15,16)            111.153          -DE/DX =    0.0                 !
 ! A26   A(6,15,17)            111.1577         -DE/DX =    0.0                 !
 ! A27   A(6,15,18)            111.4738         -DE/DX =    0.0                 !
 ! A28   A(16,15,17)           107.2014         -DE/DX =    0.0                 !
 ! A29   A(16,15,18)           107.8307         -DE/DX =    0.0                 !
 ! A30   A(17,15,18)           107.8344         -DE/DX =    0.0                 !
 ! D1    D(3,1,2,4)              0.0004         -DE/DX =    0.0                 !
 ! D2    D(3,1,2,5)            179.9986         -DE/DX =    0.0                 !
 ! D3    D(8,1,2,4)           -179.998          -DE/DX =    0.0                 !
 ! D4    D(8,1,2,5)              0.0001         -DE/DX =    0.0                 !
 ! D5    D(2,1,3,6)              0.0008         -DE/DX =    0.0                 !
 ! D6    D(2,1,3,9)           -179.9984         -DE/DX =    0.0                 !
 ! D7    D(8,1,3,6)            179.9993         -DE/DX =    0.0                 !
 ! D8    D(8,1,3,9)              0.0001         -DE/DX =    0.0                 !
 ! D9    D(1,2,4,7)             -0.0004         -DE/DX =    0.0                 !
 ! D10   D(1,2,4,11)           179.9984         -DE/DX =    0.0                 !
 ! D11   D(5,2,4,7)           -179.9985         -DE/DX =    0.0                 !
 ! D12   D(5,2,4,11)             0.0003         -DE/DX =    0.0                 !
 ! D13   D(1,3,6,7)             -0.0021         -DE/DX =    0.0                 !
 ! D14   D(1,3,6,15)           179.9882         -DE/DX =    0.0                 !
 ! D15   D(9,3,6,7)            179.9971         -DE/DX =    0.0                 !
 ! D16   D(9,3,6,15)            -0.0126         -DE/DX =    0.0                 !
 ! D17   D(2,4,7,6)             -0.0009         -DE/DX =    0.0                 !
 ! D18   D(2,4,7,10)           179.9985         -DE/DX =    0.0                 !
 ! D19   D(11,4,7,6)          -179.9997         -DE/DX =    0.0                 !
 ! D20   D(11,4,7,10)           -0.0004         -DE/DX =    0.0                 !
 ! D21   D(2,4,11,12)          -59.6627         -DE/DX =    0.0                 !
 ! D22   D(2,4,11,13)           59.6654         -DE/DX =    0.0                 !
 ! D23   D(2,4,11,14)         -179.9987         -DE/DX =    0.0                 !
 ! D24   D(7,4,11,12)          120.3361         -DE/DX =    0.0                 !
 ! D25   D(7,4,11,13)         -120.3357         -DE/DX =    0.0                 !
 ! D26   D(7,4,11,14)            0.0001         -DE/DX =    0.0                 !
 ! D27   D(3,6,7,4)              0.0021         -DE/DX =    0.0                 !
 ! D28   D(3,6,7,10)          -179.9972         -DE/DX =    0.0                 !
 ! D29   D(15,6,7,4)          -179.988          -DE/DX =    0.0                 !
 ! D30   D(15,6,7,10)            0.0127         -DE/DX =    0.0                 !
 ! D31   D(3,6,15,16)          -59.8036         -DE/DX =    0.0                 !
 ! D32   D(3,6,15,17)           59.5217         -DE/DX =    0.0                 !
 ! D33   D(3,6,15,18)          179.863          -DE/DX =    0.0                 !
 ! D34   D(7,6,15,16)          120.1864         -DE/DX =    0.0                 !
 ! D35   D(7,6,15,17)         -120.4883         -DE/DX =    0.0                 !
 ! D36   D(7,6,15,18)           -0.147          -DE/DX =    0.0                 !
 --------------------------------------------------------------------------------
 GradGradGradGradGradGradGradGradGradGradGradGradGradGradGradGradGradGrad

                          Input orientation:                          
 ---------------------------------------------------------------------
 Center     Atomic      Atomic             Coordinates (Angstroms)
 Number     Number       Type             X           Y           Z
 ---------------------------------------------------------------------
      1          6           0        0.075715    0.000269    0.000006
      2          6           0        0.754023    1.217639    0.000229
      3          6           0        0.754067   -1.217451   -0.000148
      4          6           0        2.157213    1.224079    0.000292
      5          1           0        0.208164    2.156434    0.000323
      6          6           0        2.157002   -1.224164   -0.000060
      7          6           0        2.838109    0.000002    0.000137
      8         53           0       -2.078852   -0.000006   -0.000154
      9          1           0        0.207697   -2.155939   -0.000348
     10          1           0        3.926336   -0.000089    0.000160
     11          6           0        2.903872    2.539516    0.000498
     12          1           0        2.649907    3.139169   -0.882602
     13          1           0        2.649862    3.138913    0.883759
     14          1           0        3.987911    2.384948    0.000503
     15          6           0        2.903689   -2.539739    0.000045
     16          1           0        2.651425   -3.138196    0.884641
     17          1           0        2.647815   -3.140474   -0.881944
     18          1           0        3.987902   -2.385350   -0.002331
 ---------------------------------------------------------------------
                    Distance matrix (angstroms):
                    1          2          3          4          5
     1  C    0.000000
     2  C    1.393589   0.000000
     3  C    1.393917   2.435090   0.000000
     4  C    2.414611   1.403205   2.816006   0.000000
     5  H    2.160229   1.085955   3.417764   2.160574   0.000000
     6  C    2.414745   2.816159   1.402951   2.448243   3.902104
     7  C    2.762394   2.413722   2.413591   1.400708   3.401001
     8  I    2.154567   3.083479   3.083440   4.409380   3.143354
     9  H    2.160244   3.417528   1.085947   3.901940   4.312373
    10  H    3.850621   3.398004   3.397832   2.151368   4.298301
    11  C    3.800822   2.523729   4.328564   1.512572   2.722791
    12  H    4.154294   2.840078   4.832502   2.165599   2.776226
    13  H    4.154316   2.840092   4.832519   2.165596   2.776259
    14  H    4.581700   3.438116   4.840974   2.167734   3.786648
    15  C    3.801194   4.328851   2.523751   3.837128   5.414785
    16  H    4.155337   4.832765   2.841141   4.478366   5.897851
    17  H    4.154251   4.832994   2.839342   4.479772   5.898095
    18  H    4.582182   4.841437   3.438267   4.047148   5.908826
                    6          7          8          9         10
     6  C    0.000000
     7  C    1.400889   0.000000
     8  I    4.409197   4.916961   0.000000
     9  H    2.160554   3.401051   3.142667   0.000000
    10  H    2.151488   1.088227   6.005188   4.298368   0.000000
    11  C    3.837069   2.540365   5.592559   5.414486   2.737705
    12  H    4.478896   3.266346   5.744066   5.897536   3.501925
    13  H    4.478894   3.266342   5.744114   5.897565   3.501923
    14  H    4.046964   2.647643   6.518713   5.908441   2.385832
    15  C    1.512706   2.540588   5.592491   2.723174   2.737815
    16  H    2.165795   3.265805   5.745139   2.778460   3.500774
    17  H    2.165840   3.267548   5.742950   2.775013   3.503533
    18  H    2.168076   2.648006   6.518848   3.787160   2.386057
                   11         12         13         14         15
    11  C    0.000000
    12  H    1.097245   0.000000
    13  H    1.097246   1.766361   0.000000
    14  H    1.095003   1.771716   1.771717   0.000000
    15  C    5.079255   5.752692   5.752605   5.042626   0.000000
    16  H    5.751683   6.521385   6.277109   5.750914   1.097405
    17  H    5.753830   6.279643   6.522914   5.753682   1.097387
    18  H    5.042761   5.751993   5.752651   4.770299   1.095153
                   16         17         18
    16  H    0.000000
    17  H    1.766590   0.000000
    18  H    1.771911   1.771938   0.000000
 Stoichiometry    C8H9I
 Framework group  C1[X(C8H9I)]
 Deg. of freedom    48
 Full point group                 C1      NOp   1
 Largest Abelian subgroup         C1      NOp   1
 Largest concise Abelian subgroup C1      NOp   1
                         Standard orientation:                         
 ---------------------------------------------------------------------
 Center     Atomic      Atomic             Coordinates (Angstroms)
 Number     Number       Type             X           Y           Z
 ---------------------------------------------------------------------
      1          6           0       -0.075715   -0.000269    0.000006
      2          6           0       -0.754023   -1.217639    0.000229
      3          6           0       -0.754067    1.217451   -0.000148
      4          6           0       -2.157213   -1.224079    0.000292
      5          1           0       -0.208164   -2.156434    0.000323
      6          6           0       -2.157002    1.224164   -0.000060
      7          6           0       -2.838109   -0.000002    0.000137
      8         53           0        2.078852    0.000006   -0.000154
      9          1           0       -0.207697    2.155939   -0.000348
     10          1           0       -3.926336    0.000089    0.000160
     11          6           0       -2.903872   -2.539516    0.000498
     12          1           0       -2.649907   -3.139169   -0.882602
     13          1           0       -2.649862   -3.138913    0.883759
     14          1           0       -3.987911   -2.384948    0.000503
     15          6           0       -2.903689    2.539739    0.000045
     16          1           0       -2.651425    3.138196    0.884641
     17          1           0       -2.647815    3.140474   -0.881944
     18          1           0       -3.987902    2.385350   -0.002331
 ---------------------------------------------------------------------
 Rotational constants (GHZ):           1.7424243           0.4891988           0.3837849
 1\1\GINC-IP-172-31-8-94\FOpt\RB3LYP\Gen\C8H9I1\UBUNTU\16-Sep-2023\0\\#
  opt freq rb3lyp/gen empiricaldispersion=gd3 pseudo=read scf=maxcycle=
 1000 volume\\reac1\\0,1\C,0.075715,0.000269,0.000006\C,0.754023,1.2176
 39,0.000229\C,0.754067,-1.217451,-0.000148\C,2.157213,1.224079,0.00029
 2\H,0.208164,2.156434,0.000323\C,2.157002,-1.224164,-0.00006\C,2.83810
 9,0.000002,0.000137\I,-2.078852,-0.000006,-0.000154\H,0.207697,-2.1559
 39,-0.000348\H,3.926336,-0.000089,0.00016\C,2.903872,2.539516,0.000498
 \H,2.649907,3.139169,-0.882602\H,2.649862,3.138913,0.883759\H,3.987911
 ,2.384948,0.000503\C,2.903689,-2.539739,0.000045\H,2.651425,-3.138196,
 0.884641\H,2.647815,-3.140474,-0.881944\H,3.987902,-2.38535,-0.002331\
 \Version=EM64L-G16RevB.01\State=1-A\HF=-321.7128773\RMSD=5.362e-09\RMS
 F=4.779e-05\Dipole=0.9083772,0.000139,0.0001922\Quadrupole=2.0395212,2
 .6341116,-4.6736329,0.0007971,0.0011274,0.0004367\PG=C01 [X(C8H9I1)]\\
 @


 WE THE UNWILLING
 LED BY THE UNQUALIFIED
 HAVE BEEN DOING THE UNBELIEVABLE SO LONG WITH SO LITTLE
 THAT WE NOW ATTEMPT THE IMPOSSIBLE WITH NOTHING.

                                    -- ANONYMOUS
 Job cpu time:       0 days  0 hours  6 minutes 59.5 seconds.
 Elapsed time:       0 days  0 hours  0 minutes 13.2 seconds.
 File lengths (MBytes):  RWF=     20 Int=      0 D2E=      0 Chk=      3 Scr=      1
 Normal termination of Gaussian 16 at Sat Sep 16 07:48:29 2023.
 Link1:  Proceeding to internal job step number  2.
 ------------------------------------------------------------------
 #N Geom=AllCheck Guess=TCheck SCRF=Check GenChk RB3LYP/ChkBas Freq
 ------------------------------------------------------------------
 1/10=4,29=7,30=1,38=1,40=1/1,3;
 2/12=2,40=1/2;
 3/5=7,6=2,11=2,14=-4,16=1,17=8,25=1,30=1,67=1,70=2,71=2,74=-5,82=7,116=1,124=31,140=1/1,2,3;
 4/5=101/1;
 5/5=2,7=1000,38=6,98=1/2;
 8/6=4,10=90,11=11/1;
 11/6=1,8=1,9=11,15=111,16=1/1,2,10;
 10/6=1/2;
 6/7=2,8=2,9=2,10=2,28=1/1;
 7/8=1,10=1,25=1/1,2,3,16;
 1/10=4,30=1/3;
 99//99;
 Structure from the checkpoint file:  "ARYLHALIDE-mm-ch3-gen-vol.chk"
 -----
 reac1
 -----
 Charge =  0 Multiplicity = 1
 Redundant internal coordinates found in file.  (old form).
 C,0,0.075715,0.000269,0.000006
 C,0,0.754023,1.217639,0.000229
 C,0,0.754067,-1.217451,-0.000148
 C,0,2.157213,1.224079,0.000292
 H,0,0.208164,2.156434,0.000323
 C,0,2.157002,-1.224164,-0.00006
 C,0,2.838109,0.000002,0.000137
 I,0,-2.078852,-0.000006,-0.000154
 H,0,0.207697,-2.155939,-0.000348
 H,0,3.926336,-0.000089,0.00016
 C,0,2.903872,2.539516,0.000498
 H,0,2.649907,3.139169,-0.882602
 H,0,2.649862,3.138913,0.883759
 H,0,3.987911,2.384948,0.000503
 C,0,2.903689,-2.539739,0.000045
 H,0,2.651425,-3.138196,0.884641
 H,0,2.647815,-3.140474,-0.881944
 H,0,3.987902,-2.38535,-0.002331
 Recover connectivity data from disk.

 GradGradGradGradGradGradGradGradGradGradGradGradGradGradGradGradGradGrad
 Berny optimization.
 Initialization pass.
                           ----------------------------
                           !    Initial Parameters    !
                           ! (Angstroms and Degrees)  !
 --------------------------                            --------------------------
 ! Name  Definition              Value          Derivative Info.                !
 --------------------------------------------------------------------------------
 ! R1    R(1,2)                  1.3936         calculate D2E/DX2 analytically  !
 ! R2    R(1,3)                  1.3939         calculate D2E/DX2 analytically  !
 ! R3    R(1,8)                  2.1546         calculate D2E/DX2 analytically  !
 ! R4    R(2,4)                  1.4032         calculate D2E/DX2 analytically  !
 ! R5    R(2,5)                  1.086          calculate D2E/DX2 analytically  !
 ! R6    R(3,6)                  1.403          calculate D2E/DX2 analytically  !
 ! R7    R(3,9)                  1.0859         calculate D2E/DX2 analytically  !
 ! R8    R(4,7)                  1.4007         calculate D2E/DX2 analytically  !
 ! R9    R(4,11)                 1.5126         calculate D2E/DX2 analytically  !
 ! R10   R(6,7)                  1.4009         calculate D2E/DX2 analytically  !
 ! R11   R(6,15)                 1.5127         calculate D2E/DX2 analytically  !
 ! R12   R(7,10)                 1.0882         calculate D2E/DX2 analytically  !
 ! R13   R(11,12)                1.0972         calculate D2E/DX2 analytically  !
 ! R14   R(11,13)                1.0972         calculate D2E/DX2 analytically  !
 ! R15   R(11,14)                1.095          calculate D2E/DX2 analytically  !
 ! R16   R(15,16)                1.0974         calculate D2E/DX2 analytically  !
 ! R17   R(15,17)                1.0974         calculate D2E/DX2 analytically  !
 ! R18   R(15,18)                1.0952         calculate D2E/DX2 analytically  !
 ! A1    A(2,1,3)              121.7531         calculate D2E/DX2 analytically  !
 ! A2    A(2,1,8)              119.1335         calculate D2E/DX2 analytically  !
 ! A3    A(3,1,8)              119.1134         calculate D2E/DX2 analytically  !
 ! A4    A(1,2,4)              119.3891         calculate D2E/DX2 analytically  !
 ! A5    A(1,2,5)              120.6981         calculate D2E/DX2 analytically  !
 ! A6    A(4,2,5)              119.9127         calculate D2E/DX2 analytically  !
 ! A7    A(1,3,6)              119.3949         calculate D2E/DX2 analytically  !
 ! A8    A(1,3,9)              120.6721         calculate D2E/DX2 analytically  !
 ! A9    A(6,3,9)              119.933          calculate D2E/DX2 analytically  !
 ! A10   A(2,4,7)              118.8222         calculate D2E/DX2 analytically  !
 ! A11   A(2,4,11)             119.8428         calculate D2E/DX2 analytically  !
 ! A12   A(7,4,11)             121.3351         calculate D2E/DX2 analytically  !
 ! A13   A(3,6,7)              118.8167         calculate D2E/DX2 analytically  !
 ! A14   A(3,6,15)             119.8523         calculate D2E/DX2 analytically  !
 ! A15   A(7,6,15)             121.331          calculate D2E/DX2 analytically  !
 ! A16   A(4,7,6)              121.824          calculate D2E/DX2 analytically  !
 ! A17   A(4,7,10)             119.0899         calculate D2E/DX2 analytically  !
 ! A18   A(6,7,10)             119.0861         calculate D2E/DX2 analytically  !
 ! A19   A(4,11,12)            111.1565         calculate D2E/DX2 analytically  !
 ! A20   A(4,11,13)            111.1562         calculate D2E/DX2 analytically  !
 ! A21   A(4,11,14)            111.465          calculate D2E/DX2 analytically  !
 ! A22   A(12,11,13)           107.2025         calculate D2E/DX2 analytically  !
 ! A23   A(12,11,14)           107.8356         calculate D2E/DX2 analytically  !
 ! A24   A(13,11,14)           107.8356         calculate D2E/DX2 analytically  !
 ! A25   A(6,15,16)            111.153          calculate D2E/DX2 analytically  !
 ! A26   A(6,15,17)            111.1577         calculate D2E/DX2 analytically  !
 ! A27   A(6,15,18)            111.4738         calculate D2E/DX2 analytically  !
 ! A28   A(16,15,17)           107.2014         calculate D2E/DX2 analytically  !
 ! A29   A(16,15,18)           107.8307         calculate D2E/DX2 analytically  !
 ! A30   A(17,15,18)           107.8344         calculate D2E/DX2 analytically  !
 ! D1    D(3,1,2,4)              0.0004         calculate D2E/DX2 analytically  !
 ! D2    D(3,1,2,5)            179.9986         calculate D2E/DX2 analytically  !
 ! D3    D(8,1,2,4)           -179.998          calculate D2E/DX2 analytically  !
 ! D4    D(8,1,2,5)              0.0001         calculate D2E/DX2 analytically  !
 ! D5    D(2,1,3,6)              0.0008         calculate D2E/DX2 analytically  !
 ! D6    D(2,1,3,9)           -179.9984         calculate D2E/DX2 analytically  !
 ! D7    D(8,1,3,6)            179.9993         calculate D2E/DX2 analytically  !
 ! D8    D(8,1,3,9)              0.0001         calculate D2E/DX2 analytically  !
 ! D9    D(1,2,4,7)             -0.0004         calculate D2E/DX2 analytically  !
 ! D10   D(1,2,4,11)           179.9984         calculate D2E/DX2 analytically  !
 ! D11   D(5,2,4,7)           -179.9985         calculate D2E/DX2 analytically  !
 ! D12   D(5,2,4,11)             0.0003         calculate D2E/DX2 analytically  !
 ! D13   D(1,3,6,7)             -0.0021         calculate D2E/DX2 analytically  !
 ! D14   D(1,3,6,15)           179.9882         calculate D2E/DX2 analytically  !
 ! D15   D(9,3,6,7)            179.9971         calculate D2E/DX2 analytically  !
 ! D16   D(9,3,6,15)            -0.0126         calculate D2E/DX2 analytically  !
 ! D17   D(2,4,7,6)             -0.0009         calculate D2E/DX2 analytically  !
 ! D18   D(2,4,7,10)           179.9985         calculate D2E/DX2 analytically  !
 ! D19   D(11,4,7,6)          -179.9997         calculate D2E/DX2 analytically  !
 ! D20   D(11,4,7,10)           -0.0004         calculate D2E/DX2 analytically  !
 ! D21   D(2,4,11,12)          -59.6627         calculate D2E/DX2 analytically  !
 ! D22   D(2,4,11,13)           59.6654         calculate D2E/DX2 analytically  !
 ! D23   D(2,4,11,14)         -179.9987         calculate D2E/DX2 analytically  !
 ! D24   D(7,4,11,12)          120.3361         calculate D2E/DX2 analytically  !
 ! D25   D(7,4,11,13)         -120.3357         calculate D2E/DX2 analytically  !
 ! D26   D(7,4,11,14)            0.0001         calculate D2E/DX2 analytically  !
 ! D27   D(3,6,7,4)              0.0021         calculate D2E/DX2 analytically  !
 ! D28   D(3,6,7,10)          -179.9972         calculate D2E/DX2 analytically  !
 ! D29   D(15,6,7,4)          -179.988          calculate D2E/DX2 analytically  !
 ! D30   D(15,6,7,10)            0.0127         calculate D2E/DX2 analytically  !
 ! D31   D(3,6,15,16)          -59.8036         calculate D2E/DX2 analytically  !
 ! D32   D(3,6,15,17)           59.5217         calculate D2E/DX2 analytically  !
 ! D33   D(3,6,15,18)          179.863          calculate D2E/DX2 analytically  !
 ! D34   D(7,6,15,16)          120.1864         calculate D2E/DX2 analytically  !
 ! D35   D(7,6,15,17)         -120.4883         calculate D2E/DX2 analytically  !
 ! D36   D(7,6,15,18)           -0.147          calculate D2E/DX2 analytically  !
 --------------------------------------------------------------------------------
 Trust Radius=3.00D-01 FncErr=1.00D-07 GrdErr=1.00D-07 EigMax=2.50D+02 EigMin=1.00D-04
 Number of steps in this run=      2 maximum allowed number of steps=      2.
 GradGradGradGradGradGradGradGradGradGradGradGradGradGradGradGradGradGrad

                          Input orientation:                          
 ---------------------------------------------------------------------
 Center     Atomic      Atomic             Coordinates (Angstroms)
 Number     Number       Type             X           Y           Z
 ---------------------------------------------------------------------
      1          6           0        0.075715    0.000269    0.000006
      2          6           0        0.754023    1.217639    0.000229
      3          6           0        0.754067   -1.217451   -0.000148
      4          6           0        2.157213    1.224079    0.000292
      5          1           0        0.208164    2.156434    0.000323
      6          6           0        2.157002   -1.224164   -0.000060
      7          6           0        2.838109    0.000002    0.000137
      8         53           0       -2.078852   -0.000006   -0.000154
      9          1           0        0.207697   -2.155939   -0.000348
     10          1           0        3.926336   -0.000089    0.000160
     11          6           0        2.903872    2.539516    0.000498
     12          1           0        2.649907    3.139169   -0.882602
     13          1           0        2.649862    3.138913    0.883759
     14          1           0        3.987911    2.384948    0.000503
     15          6           0        2.903689   -2.539739    0.000045
     16          1           0        2.651425   -3.138196    0.884641
     17          1           0        2.647815   -3.140474   -0.881944
     18          1           0        3.987902   -2.385350   -0.002331
 ---------------------------------------------------------------------
                    Distance matrix (angstroms):
                    1          2          3          4          5
     1  C    0.000000
     2  C    1.393589   0.000000
     3  C    1.393917   2.435090   0.000000
     4  C    2.414611   1.403205   2.816006   0.000000
     5  H    2.160229   1.085955   3.417764   2.160574   0.000000
     6  C    2.414745   2.816159   1.402951   2.448243   3.902104
     7  C    2.762394   2.413722   2.413591   1.400708   3.401001
     8  I    2.154567   3.083479   3.083440   4.409380   3.143354
     9  H    2.160244   3.417528   1.085947   3.901940   4.312373
    10  H    3.850621   3.398004   3.397832   2.151368   4.298301
    11  C    3.800822   2.523729   4.328564   1.512572   2.722791
    12  H    4.154294   2.840078   4.832502   2.165599   2.776226
    13  H    4.154316   2.840092   4.832519   2.165596   2.776259
    14  H    4.581700   3.438116   4.840974   2.167734   3.786648
    15  C    3.801194   4.328851   2.523751   3.837128   5.414785
    16  H    4.155337   4.832765   2.841141   4.478366   5.897851
    17  H    4.154251   4.832994   2.839342   4.479772   5.898095
    18  H    4.582182   4.841437   3.438267   4.047148   5.908826
                    6          7          8          9         10
     6  C    0.000000
     7  C    1.400889   0.000000
     8  I    4.409197   4.916961   0.000000
     9  H    2.160554   3.401051   3.142667   0.000000
    10  H    2.151488   1.088227   6.005188   4.298368   0.000000
    11  C    3.837069   2.540365   5.592559   5.414486   2.737705
    12  H    4.478896   3.266346   5.744066   5.897536   3.501925
    13  H    4.478894   3.266342   5.744114   5.897565   3.501923
    14  H    4.046964   2.647643   6.518713   5.908441   2.385832
    15  C    1.512706   2.540588   5.592491   2.723174   2.737815
    16  H    2.165795   3.265805   5.745139   2.778460   3.500774
    17  H    2.165840   3.267548   5.742950   2.775013   3.503533
    18  H    2.168076   2.648006   6.518848   3.787160   2.386057
                   11         12         13         14         15
    11  C    0.000000
    12  H    1.097245   0.000000
    13  H    1.097246   1.766361   0.000000
    14  H    1.095003   1.771716   1.771717   0.000000
    15  C    5.079255   5.752692   5.752605   5.042626   0.000000
    16  H    5.751683   6.521385   6.277109   5.750914   1.097405
    17  H    5.753830   6.279643   6.522914   5.753682   1.097387
    18  H    5.042761   5.751993   5.752651   4.770299   1.095153
                   16         17         18
    16  H    0.000000
    17  H    1.766590   0.000000
    18  H    1.771911   1.771938   0.000000
 Stoichiometry    C8H9I
 Framework group  C1[X(C8H9I)]
 Deg. of freedom    48
 Full point group                 C1      NOp   1
 Largest Abelian subgroup         C1      NOp   1
 Largest concise Abelian subgroup C1      NOp   1
                         Standard orientation:                         
 ---------------------------------------------------------------------
 Center     Atomic      Atomic             Coordinates (Angstroms)
 Number     Number       Type             X           Y           Z
 ---------------------------------------------------------------------
      1          6           0       -0.075715   -0.000269    0.000006
      2          6           0       -0.754023   -1.217639    0.000229
      3          6           0       -0.754067    1.217451   -0.000148
      4          6           0       -2.157213   -1.224079    0.000292
      5          1           0       -0.208164   -2.156434    0.000323
      6          6           0       -2.157002    1.224164   -0.000060
      7          6           0       -2.838109   -0.000002    0.000137
      8         53           0        2.078852    0.000006   -0.000154
      9          1           0       -0.207697    2.155939   -0.000348
     10          1           0       -3.926336    0.000089    0.000160
     11          6           0       -2.903872   -2.539516    0.000498
     12          1           0       -2.649907   -3.139169   -0.882602
     13          1           0       -2.649862   -3.138913    0.883759
     14          1           0       -3.987911   -2.384948    0.000503
     15          6           0       -2.903689    2.539739    0.000045
     16          1           0       -2.651425    3.138196    0.884641
     17          1           0       -2.647815    3.140474   -0.881944
[...]
 734831,0.0000825,-0.0287082,0.3241076,-0.0001356,0.0003541,-0.0004783,
 -0.0371739,0.0200649,0.0001562,0.0000324,-0.0001257,-0.3069085,0.00004
 35,-0.0000281,0.0000103,-0.156695,-0.5283905,-0.0000715,-0.0000321,-0.
 0000619,-0.056031,-0.0000009,-0.0000483,-0.000011,-0.0410449,0.0579079
 ,-0.0654143,-0.0000093,-0.0526319,-0.0257494,-0.000033,-0.0000031,-0.0
 000756,0.1202811,-0.1412372,-0.0000007,-0.0000055,0.0000131,0.0699803,
 -0.0000191,0.000028,-0.0000269,0.1232232,0.1006468,0.0108608,0.0000017
 ,-0.0289589,-0.0147402,-0.0000251,0.0000167,-0.0000308,0.1197556,0.032
 9462,-0.0095216,-0.057882,-0.0426518,-0.0467169,0.0611686,-0.0178203,0
 .1126408,-0.0437217,0.0329485,-0.0095364,0.05788,-0.0426469,-0.0466689
 ,-0.0611722,0.0178133,-0.1126368,-0.043768,-0.1546749,-0.0433959,-0.00
 00126,0.0572655,0.026917,-0.000006,0.0000034,-0.0000074,0.0764254,0.10
 08891,-0.0108936,-0.0000099,0.0289272,-0.0145105,0.0000292,-0.0004476,
 0.0007885,0.1198475,0.0330262,0.0099482,0.0576657,0.0429029,-0.0466512
 ,0.0611468,0.0176486,0.1125548,-0.0441617,0.0327468,0.009078,-0.058101
 2,0.0424393,-0.0468175,-0.0612259,-0.0179848,-0.1127498,-0.0434234,-0.
 1547241,0.0433953,0.0003784,-0.0572109,0.0268688,0.000177,0.0004994,-0
 .0001235,0.0764064\Polar=164.5430966,0.00119,129.1004729,0.0081151,0.0
 034319,73.9773025\Quadrupole=2.0395218,2.6341115,-4.6736333,0.0007971,
 0.0011274,0.0004367\PG=C01 [X(C8H9I1)]\NImag=1\\0.42574339,0.00035785,
 0.64310065,0.00001975,0.00008421,0.10204748,-0.14827950,-0.06100790,-0
 .00001606,0.65826577,-0.11879955,-0.28930386,-0.00004175,-0.03551333,0
 .73190763,-0.00002348,-0.00003687,-0.05539929,0.00002431,0.00008384,0.
 12523851,-0.14812344,0.06065389,0.00000377,0.05773736,0.02244067,0.000
 00732,0.65883014,0.11845542,-0.28872371,-0.00002833,-0.02245679,-0.054
 88663,-0.00001159,0.03592187,0.73120444,0.00001302,-0.00002750,-0.0554
 6227,-0.00000519,-0.00001105,0.00627933,0.00005015,0.00009986,0.125250
 96,-0.03014114,-0.08503596,-0.00001473,-0.31254261,0.04093209,-0.00000
 717,-0.05003946,0.03126987,0.00000709,0.65160640,-0.02448001,0.0311061
 7,0.00000118,-0.02973598,-0.12164888,-0.00000763,0.02861176,-0.0155377
 8,-0.00000332,-0.01845041,0.64755454,-0.00000508,-0.00000087,0.0072639
 7,-0.00001496,-0.00000472,-0.06600340,0.00000230,-0.00000006,-0.003210
 66,0.00001528,0.00006687,0.17227298,0.00912183,-0.01637386,-0.00000177
 ,-0.12836334,0.12527249,0.00001148,-0.00120021,-0.00305953,-0.00000075
 ,-0.01163527,0.02823876,0.00000284,0.13739402,0.01568959,-0.01981346,-
 0.00000184,0.12206097,-0.26872406,-0.00002429,-0.00417506,-0.00259839,
 -0.00000135,-0.00120254,0.00320467,-0.00000020,-0.13050427,0.28547144,
 0.00000239,-0.00000485,0.00075945,0.00001062,-0.00002382,-0.03480967,-
 0.00000160,-0.00000109,0.00585528,0.00000030,0.00000134,0.00387652,-0.
 00001090,0.00002759,0.02389768,-0.03011179,0.08503342,0.00000989,-0.05
 004295,-0.03127078,-0.00000750,-0.31313221,-0.04087750,-0.00002912,0.0
 6719526,-0.02373907,-0.00000266,-0.00089310,-0.00063369,0.00000050,0.6
 5204878,0.02448700,0.03108574,0.00000775,-0.02860207,-0.01552534,-0.00
 000172,0.02977075,-0.12162876,-0.00001130,0.02371719,-0.05702121,-0.00
 000551,-0.00078285,0.00031257,-0.00000084,0.01833852,0.64705193,-0.000
 00252,0.00000409,0.00725810,-0.00000450,-0.00000634,-0.00321161,-0.000
 01449,-0.00000838,-0.06596085,0.00001302,-0.00000825,0.00390220,-0.000
 00042,0.00000015,-0.00093550,0.00004799,0.00003106,0.17226541,-0.00164
 012,0.00000067,-0.00000026,-0.02770719,0.02789536,0.00000256,-0.027722
 90,-0.02789899,-0.00000651,-0.17405335,0.11892164,0.00001265,-0.005303
 75,-0.00091615,-0.00000067,-0.17398013,-0.11875446,-0.00002158,0.73044
 810,-0.00000356,-0.06898813,-0.00001035,0.07220707,0.03124057,0.000005
 24,-0.07221161,0.03124718,0.00000727,0.05095393,-0.27378718,-0.0000284
 2,-0.00166660,0.00132991,-0.00000007,-0.05079332,-0.27346381,-0.000027
 09,-0.00017821,0.67062133,0.00000064,-0.00001533,-0.00531205,0.0000136
 2,0.00000722,0.00821227,-0.00001739,0.00000584,0.00821549,-0.00000143,
 -0.00002326,-0.06505128,-0.00000077,-0.00000074,0.00650765,-0.00000383
 ,-0.00002740,-0.06507171,0.00001472,0.00006881,0.13185681,-0.08053772,
 -0.00000242,-0.00000477,-0.02949712,0.00090268,-0.00000220,-0.02949653
 ,-0.00090619,-0.00000239,0.00343648,-0.00432291,-0.00000068,-0.0001376
 6,-0.00069477,-0.00000003,0.00343402,0.00432332,-0.00000017,-0.0012708
 0,-0.00000194,-0.00000001,0.13718918,-0.00000706,-0.02206903,-0.000001
 77,-0.01705813,0.00160071,-0.00000124,0.01705516,0.00159665,0.00000115
 ,0.00084097,-0.00215430,-0.00000088,-0.00191181,0.00004571,0.00000017,
 -0.00083935,-0.00215348,-0.00000030,-0.00000057,0.00072292,0.00000030,
 0.00000431,0.02189684,-0.00000519,-0.00000199,-0.01312144,-0.00000452,
 0.00000031,0.00205440,0.00000012,-0.00000013,0.00205361,-0.00000007,-0
 .00000098,0.00355198,-0.00000018,0.00000020,-0.00168850,0.00000052,-0.
 00000086,0.00354797,-0.00000002,-0.00000007,-0.00047427,0.00000944,0.0
 0000246,0.00628912,0.00911870,0.01636958,0.00000285,-0.00119982,0.0030
 6014,-0.00000014,-0.12849961,-0.12536216,-0.00002750,-0.00089277,0.000
 78267,0.00000003,0.00066028,0.00075894,0.00000021,-0.01163628,-0.02823
 117,-0.00000512,-0.00530191,0.00166844,-0.00000089,-0.00014184,0.00191
 709,0.00000050,0.13753525,-0.01569809,-0.01982143,-0.00000291,0.004175
 39,-0.00260423,-0.00000125,-0.12213984,-0.26860478,-0.00005120,0.00063
 508,0.00031278,0.00000044,-0.00075939,-0.00088730,-0.00000059,0.001207
 06,0.00321698,-0.00000078,0.00091764,0.00133031,-0.00000125,0.00069673
 ,0.00004432,0.00000040,0.13058364,0.28535485,-0.00000271,-0.00000148,0
 .00075785,0.00000009,-0.00000149,0.00584852,-0.00002974,-0.00005155,-0
 .03480523,0.00000038,0.00000005,-0.00093606,-0.00000016,-0.00000024,0.
 00052480,0.00000189,-0.00000620,0.00387712,0.00000030,0.00000033,0.006
 51453,0.00000039,0.00000039,-0.00168489,0.00003013,0.00005556,0.023894
 73,0.00111320,0.00000038,0.00000003,0.00061813,0.00306003,0.00000053,0
 .00061638,-0.00306207,-0.00000001,-0.01368270,-0.00230890,-0.00000180,
 -0.00067566,-0.00008914,0.00000016,-0.01368181,0.00231272,-0.00000005,
 -0.33275739,0.00002323,-0.00000457,-0.00024073,-0.00000005,-0.00000003
 ,-0.00067556,0.00008950,-0.00000035,0.35550877,-0.00000052,-0.00143443
 ,-0.00000004,0.00228645,-0.00473682,-0.00000134,-0.00228798,-0.0047382
 5,-0.00000155,0.02739420,0.00274149,0.00000161,0.00145453,0.00023344,-
 0.00000016,-0.02739018,0.00274492,-0.00000104,0.00002148,-0.05842137,-
 0.00000478,0.00000039,0.00017463,0.00000007,-0.00145430,0.00023385,0.0
 0000010,-0.00002496,0.06303681,0.00000006,-0.00000055,-0.00055432,0.00
 000042,-0.00000156,0.00607742,-0.00000197,-0.00000169,0.00607079,0.000
 00313,0.00000049,0.00325725,0.00000028,0.,0.00027550,-0.00000227,-0.00
 000427,0.00325240,-0.00000373,-0.00000245,-0.03542424,0.00000005,0.000
 00013,-0.00058353,-0.00000024,0.00000032,0.00027603,0.00000595,0.00000
 606,0.02481075,-0.00397232,0.00205749,0.,-0.01927716,-0.03287766,-0.00
 000560,0.00054005,0.00006527,-0.00000012,-0.11903324,-0.05601006,-0.00
 000881,0.00115777,-0.00095785,0.00000003,-0.00247279,0.00272019,-0.000
 00020,0.01106065,0.01030876,0.00000142,-0.00111552,-0.00055324,-0.0000
 0015,0.00009174,-0.00006704,0.00000002,0.00041700,0.00224461,0.0000005
 5,0.56793910,0.00201241,0.00366928,-0.00000005,-0.00793118,-0.00205171
 ,-0.00000100,0.00048384,-0.00210934,-0.00000011,-0.04954658,-0.1792579
 5,-0.00001674,0.00099567,0.00064860,0.00000036,0.00215190,-0.00075086,
 -0.00000029,-0.01418053,-0.02827216,-0.00000527,0.00116659,0.00029558,
 0.00000014,-0.00006599,0.00004556,0.00000005,-0.00130358,0.00096162,0.
 00000068,-0.03822263,0.50257032,-0.00000016,0.00000053,0.00486546,-0.0
 0000244,-0.00000224,0.00367410,0.00000071,-0.00000062,-0.00088100,-0.0
 0000735,-0.00001671,-0.07155060,0.00000023,0.00000042,-0.00249432,-0.0
 0000041,-0.00000279,0.00774148,-0.00000121,-0.00000364,0.00591537,0.00
 000015,0.,0.00010388,0.00000011,0.00000006,-0.00060566,-0.00000024,0.0
 0000074,-0.00426485,-0.00000476,-0.00000740,0.54191752,0.00050527,0.00
 097864,-0.00026170,-0.00025243,-0.00148634,-0.00007468,0.00032917,-0.0
 0069767,0.00017999,0.00414997,-0.00961140,0.01412463,-0.00035248,0.000
 27935,0.00001969,-0.00033916,-0.00047065,-0.00027985,-0.00107121,0.000
 19561,0.00026382,0.00000675,0.00002483,-0.00000115,0.00002228,0.000030
 34,-0.00012929,0.00028874,-0.00018717,-0.00012723,-0.06389947,0.033150
 47,-0.05013129,0.06502816,0.00023772,-0.00090156,-0.00099770,0.0016959
 9,0.00107185,-0.00057846,-0.00040911,0.00010771,0.00018977,0.00587576,
 -0.01917101,0.02204027,-0.00041014,0.00035801,0.00073686,0.00044654,-0
 .00054044,-0.00143672,-0.00288972,-0.00188608,0.00023381,-0.00011313,0
 .00001765,-0.00000177,-0.00004440,0.00000663,0.00014420,-0.00001054,0.
 00003201,0.00069148,0.03382553,-0.11994341,0.11479573,-0.03425929,0.13
 328917,0.00014703,0.00043252,0.00022693,-0.00050299,-0.00001507,0.0009
 8803,0.00025684,-0.00023452,-0.00005422,0.00109933,-0.00146513,0.00335
 851,0.00036794,0.00006158,-0.00037971,-0.00018831,-0.00024728,-0.00021
 676,0.00034259,-0.00039123,-0.00031689,0.00006797,-0.00000873,-0.00000
 002,0.00002132,-0.00001017,-0.00004039,0.00002760,-0.00008328,0.000079
 37,-0.05083589,0.11395609,-0.21775518,0.05661020,-0.12479723,0.2351704
 0,0.00050529,0.00097870,0.00026199,-0.00025258,-0.00148630,0.00007445,
 0.00032932,-0.00069776,-0.00018012,0.00415083,-0.00960770,-0.01412747,
 -0.00035242,0.00027941,-0.00001970,-0.00033940,-0.00047103,0.00027947,
 -0.00107109,0.00019586,-0.00026349,0.00000676,0.00002483,0.00000116,0.
 00002226,0.00003028,0.00012928,0.00028874,-0.00018723,0.00012719,-0.06
 390422,0.03314163,0.05014844,0.00188525,-0.00506069,-0.00741974,0.0650
 3357,0.00023762,-0.00090154,0.00099759,0.00169555,0.00107163,0.0005785
 5,-0.00040881,0.00010755,-0.00018992,0.00587746,-0.01916522,-0.0220465
 9,-0.00040992,0.00035821,-0.00073670,0.00044616,-0.00054148,0.00143703
 ,-0.00288931,-0.00188584,-0.00023443,-0.00011308,0.00001765,0.00000174
 ,-0.00004436,0.00000668,-0.00014420,-0.00001053,0.00003216,-0.00069158
 ,0.03381655,-0.11987717,-0.11476565,-0.00506357,0.01058701,0.01450532,
 -0.03424920,0.13321687,-0.00014698,-0.00043281,0.00022694,0.00050335,0
 .00001498,0.00098842,-0.00025697,0.00023459,-0.00005416,-0.00109762,0.
 00145807,0.00335149,-0.00036801,-0.00006138,-0.00037997,0.00018846,0.0
 0024725,-0.00021623,-0.00034358,0.00039074,-0.00031677,-0.00006801,0.0
 0000873,-0.00000003,-0.00002133,0.00001020,-0.00004042,-0.00002758,0.0
 0008325,0.00007920,0.05085343,-0.11392592,-0.21781609,0.00741949,-0.01
 449606,-0.02226910,-0.05662860,0.12476592,0.23523686,-0.00017059,0.000
 76600,0.00000009,-0.00065219,-0.00366777,-0.00000050,0.00024972,-0.000
 20908,-0.00000001,-0.01543059,0.00325332,0.00000018,0.00037594,0.00004
 944,0.00000004,0.00006255,-0.00023747,-0.00000038,0.00072720,0.0023373
 6,0.00000038,-0.00026725,-0.00013113,-0.00000004,0.00006764,-0.0000491
 2,-0.00000002,0.00093467,-0.00074397,-0.00000008,-0.30804516,0.0386301
 7,-0.00000101,-0.00627113,0.00126464,-0.00001852,-0.00627254,0.0012647
 9,0.00001850,0.33466290,-0.00089855,0.00056395,-0.00000002,-0.00194426
 ,-0.00542867,-0.00000102,0.00020650,-0.00009087,-0.00000004,-0.0303720
 9,0.00452771,0.00000024,-0.00017858,-0.00000290,0.00000004,-0.00015718
 ,0.00013068,0.,-0.00169250,0.00112209,0.,-0.00043630,-0.00018320,-0.00
 000005,0.00005890,0.00000488,0.,0.00065261,-0.00094329,-0.00000014,0.0
 4279565,-0.05569660,0.00000020,0.01715165,-0.00282435,-0.00168193,0.01
 714363,-0.00282384,0.00168165,-0.04242601,0.06157449,-0.00000016,-0.00
 000002,0.00055771,-0.00000037,-0.00000100,0.00112984,0.,0.00000001,-0.
 00007776,-0.00000469,0.00000074,-0.00124128,0.00000002,0.00000003,-0.0
 0034476,0.00000001,0.00000006,-0.00014237,-0.00000027,0.00000028,-0.00
 026513,-0.00000006,-0.00000002,-0.00007594,0.,0.,0.00002256,0.00000013
 ,-0.00000021,0.00037442,-0.00000038,0.00000020,-0.04875924,-0.02754700
 ,0.00347648,0.00117975,0.02755158,-0.00347754,0.00118060,0.00000117,0.
 00000100,0.04649537,-0.00397138,-0.00205419,-0.00000641,0.00053822,-0.
 00006519,0.00000041,-0.01926237,0.03287545,-0.00000852,-0.00247307,-0.
 00272144,0.00000909,0.00009182,0.00006716,-0.00000099,-0.11898938,0.05
 592482,-0.00000809,0.01106130,-0.01030748,0.00000657,-0.00111407,0.000
 55262,-0.00000007,0.00115814,0.00095595,0.00000486,0.00041652,-0.00224
 418,-0.00000720,0.00067494,-0.00054281,-0.00000087,-0.00005294,-0.0001
 8761,0.00001201,-0.00005314,-0.00018787,-0.00001196,-0.00005541,0.0000
 6358,-0.00000019,0.56763611,-0.00201331,0.00366957,-0.00000805,-0.0004
 8304,-0.00210653,-0.00000085,0.00793743,-0.00205787,-0.00000225,-0.002
 15309,-0.00075177,0.00000005,0.00006580,0.00004551,0.00000125,0.049467
 84,-0.17912474,0.00000551,0.01417450,-0.02825997,0.00000474,-0.0011656
 6,0.00029518,0.00000042,-0.00099595,0.00064792,0.00000713,0.00130288,0
 .00096207,0.00000038,0.00054257,-0.00012553,0.00000075,-0.00001982,-0.
 00008375,-0.00001943,-0.00001962,-0.00008349,0.00001938,-0.00002106,0.
 00006116,-0.00000011,0.03814374,0.50230422,0.00000677,-0.00000643,0.00
 487333,-0.00000408,0.00000627,-0.00088067,-0.00000055,-0.00000074,0.00
 367483,-0.00000045,-0.00001014,0.00773255,0.00000038,-0.00000026,-0.00
 060603,0.00000633,-0.00001931,-0.07154976,0.00000511,-0.00000794,0.005
 90931,0.00000102,-0.00000069,0.00010355,-0.00000476,0.00000019,-0.0024
 9889,0.00000335,0.00000408,-0.00425837,0.00000058,-0.00000115,-0.00008
 618,-0.00005917,-0.00000128,0.00002922,0.00005893,0.00000069,0.0000291
 5,0.00000033,0.00000016,-0.00006303,-0.00002898,0.00007679,0.54157424,
 0.00050543,-0.00098073,0.00026728,0.00033130,0.00069874,-0.00017995,-0
 .00025522,0.00148630,0.00007711,-0.00034377,0.00047186,0.00027837,0.00
 002223,-0.00003028,0.00012865,0.00411737,0.00959138,-0.01413291,-0.001
 06717,-0.00020535,-0.00026656,0.00000583,-0.00002459,0.00000101,-0.000
 35172,-0.00027940,-0.00002234,0.00028800,0.00018611,0.00012788,-0.0000
 5271,0.00001951,0.00005901,-0.00002128,-0.00000184,0.00000480,0.000024
 78,0.00001455,-0.00000369,0.00001986,0.00000215,0.00000553,-0.06369677
 ,-0.03281174,0.04981114,0.06481161,-0.00023830,-0.00090318,-0.00099998
 ,0.00041007,0.00010720,0.00018998,-0.00169449,0.00106918,-0.00057696,-
 0.00044398,-0.00053901,-0.00143756,0.00004410,0.00000650,0.00014421,-0
 .00582071,-0.01913654,0.02207594,0.00288122,-0.00187847,0.00022933,0.0
 0011329,0.00001755,-0.00000178,0.00040779,0.00035681,0.00073692,0.0000
 0942,0.00003096,0.00069217,0.00018711,-0.00008320,-0.00000071,0.000001
 81,-0.00006456,-0.00000455,-0.00001446,-0.00007944,-0.00001273,-0.0000
 2584,0.00002490,0.00001772,-0.03349061,-0.11953935,0.11457487,0.033893
 12,0.13284787,-0.00014728,0.00043303,0.00022746,-0.00025428,-0.0002347
 9,-0.00005433,0.00050353,-0.00001489,0.00098936,0.00018512,-0.00024313
 ,-0.00021588,-0.00002134,-0.00001002,-0.00004080,-0.00109829,-0.001442
 81,0.00336052,-0.00034393,-0.00039270,-0.00031799,-0.00006817,-0.00000
 861,0.00000007,-0.00036578,0.00006157,-0.00038103,-0.00002854,-0.00008
 353,0.00007809,-0.00001217,-0.00001922,0.00002954,-0.00000475,-0.00000
 449,-0.00000617,-0.00000361,0.00001290,0.00000592,-0.00000404,-0.00000
 970,0.00000029,0.05052321,0.11371906,-0.21808630,-0.05626100,-0.124565
 26,0.23555766,0.00050501,-0.00097590,-0.00025836,0.00032662,0.00069527
 ,0.00018002,-0.00024882,0.00148711,-0.00007188,-0.00033366,0.00047016,
 -0.00028003,0.00002237,-0.00003028,-0.00012948,0.00417813,0.00961788,0
 .01410469,-0.00107564,-0.00018638,0.00026205,0.00000720,-0.00002493,-0
 .00000121,-0.00035235,-0.00027911,0.00001689,0.00028947,0.00018844,-0.
 00012670,-0.00005325,0.00001998,-0.00005906,0.00002472,0.00001455,0.00
 000375,-0.00002128,-0.00000179,-0.00000482,0.00001984,0.00000217,-0.00
 000542,-0.06413432,-0.03341144,-0.05036869,0.00188556,0.00504103,0.007
 36348,0.06528897,-0.00023736,-0.00089790,0.00099798,0.00040723,0.00010
 800,-0.00018981,-0.00169669,0.00107225,0.00057945,-0.00044893,-0.00054
 363,0.00143320,0.00004454,0.00000670,-0.00014416,-0.00593034,-0.019185
 08,-0.02199751,0.00289664,-0.00189400,-0.00023982,0.00011323,0.0000176
 7,0.00000174,0.00041238,0.00035897,-0.00073804,0.00001163,0.00003340,-
 0.00068883,0.00018831,-0.00008424,0.00000121,-0.00001465,-0.00007986,0
 .00001271,0.00000179,-0.00006477,0.00000447,-0.00002565,0.00002515,-0.
 00001759,-0.03407822,-0.12014654,-0.11469807,0.00508098,0.01058184,0.0
 1444071,0.03454765,0.13351635,0.00014624,-0.00043183,0.00022635,0.0002
 5916,0.00023396,-0.00005410,-0.00050200,0.00001474,0.00098803,-0.00019
 122,0.00025080,-0.00021620,0.00002126,0.00001028,-0.00004004,0.0010982
 3,0.00147734,0.00334381,0.00034259,0.00038928,-0.00031650,0.00006790,0
 .00000885,-0.00000010,0.00036953,-0.00006146,-0.00037880,0.00002660,0.
 00008299,0.00008001,0.00001187,0.00001954,0.00002889,0.00000380,-0.000
 01257,0.00000591,0.00000485,0.00000452,-0.00000614,0.00000407,0.000009
 67,0.00000033,-0.05106364,-0.11387749,-0.21711550,-0.00747344,-0.01454
 699,-0.02226452,0.05687683,0.12470702,0.23448131,-0.00017011,-0.000765
 67,-0.00000159,0.00024948,0.00020946,0.00000014,-0.00065137,0.00366645
 ,0.00000476,0.00006268,0.00023769,-0.00000387,0.00006762,0.00004915,0.
 00000079,-0.01541710,-0.00325405,0.00002512,0.00072539,-0.00233582,-0.
 00000427,-0.00026698,0.00013104,-0.00000010,0.00037558,-0.00004962,0.0
 0000038,0.00093424,0.00074427,0.00000392,-0.00005542,0.00002112,0.0000
 0015,0.00001979,0.00002575,0.00000405,0.00001988,0.00002576,-0.0000040
 8,0.00004455,0.00002861,0.00000009,-0.30777418,-0.03854004,0.00057273,
 -0.00622332,-0.00126056,0.00003783,-0.00632855,-0.00127254,-0.00000263
 ,0.33438781,0.00089870,0.00056288,0.00000408,-0.00020604,-0.00009086,-
 0.00000057,0.00194173,-0.00542858,-0.00000096,0.00015702,0.00013056,-0
 .00000112,-0.00005896,0.00000485,0.00000047,0.03036067,0.00452891,-0.0
 0006707,0.00169129,0.00112272,0.00000222,0.00043585,-0.00018304,0.0000
 0015,0.00017876,-0.00000280,-0.00000154,-0.00065265,-0.00094321,-0.000
 00065,-0.00006356,0.00006120,0.00000012,-0.00000214,0.00002499,-0.0000
 0968,-0.00000215,0.00002502,0.00000968,-0.00002863,-0.00004129,-0.0000
 0003,-0.04270371,-0.05570608,0.00008298,-0.01711077,-0.00281906,-0.001
 63812,-0.01717441,-0.00282431,0.00172137,0.04233899,0.06157810,-0.0000
 0231,0.00000616,0.00055834,-0.00000220,-0.00000276,-0.00007779,-0.0000
 0003,-0.00000146,0.00112845,0.00000108,-0.00000098,-0.00014208,-0.0000
 0013,0.00000006,0.00002240,-0.00002145,0.00000684,-0.00124423,0.000001
 25,0.00000201,-0.00026461,-0.00000043,0.00000005,-0.00007587,0.0000010
 7,0.00000087,-0.00034480,-0.00000117,-0.00000298,0.00037408,0.00000017
 ,0.00000011,-0.00006313,-0.00000552,0.00001768,0.00000031,0.00000540,-
 0.00001765,0.00000033,-0.00000015,-0.00000004,0.00002865,0.00058078,0.
 00007272,-0.04878147,0.02757912,0.00348537,0.00111810,-0.02750206,-0.0
 0346465,0.00123726,-0.00063341,-0.00010135,0.04652605\\-0.00004536,0.0
 0015852,-0.00000018,-0.00007955,-0.00006726,0.00000002,0.00014722,-0.0
 0008363,0.00000008,0.00008648,-0.00001144,-0.00000028,0.00000877,0.000
 01416,0.00000005,-0.00009102,-0.00000386,0.00000073,-0.00002231,0.0000
 6315,-0.00000005,0.00001948,-0.00001065,0.00000004,-0.00001764,0.00000
 750,0.00000002,-0.00000528,-0.00000063,-0.00000009,-0.00002916,-0.0000
 0475,0.00000018,0.00000185,0.00000336,-0.00000182,0.00000180,0.0000034
 0,0.00000183,-0.00000185,-0.00000038,-0.00000010,-0.00003444,0.0000511
 8,-0.00000046,-0.00001909,-0.00005790,0.00008109,-0.00001883,-0.000058
 00,-0.00008081,0.00009893,-0.00000277,-0.00000024\\\@


 I WISH TO HAVE NO CONNECTION WITH ANY SHIP THAT DOES NOT SAIL FAST,
 FOR I INTEND TO GO IN HARM'S WAY.
     -- JOHN PAUL JONES, USN 1747-1792
 Job cpu time:       0 days  0 hours 34 minutes 41.3 seconds.
 Elapsed time:       0 days  0 hours  1 minutes  5.4 seconds.
 File lengths (MBytes):  RWF=     64 Int=      0 D2E=      0 Chk=      4 Scr=      1
 Normal termination of Gaussian 16 at Sat Sep 16 07:49:34 2023.
