 Entering Gaussian System, Link 0=g16
 Input=/home/ubuntu/Downloads/ARYLHALIDE-m-ch3-gen-volume.gjf
 Output=/home/ubuntu/Downloads/ARYLHALIDE-m-ch3-gen-volume.log
 Initial command:
 /home/ubuntu/g16/l1.exe "/home/ubuntu/Scratch/Gau-22785.inp" -scrdir="/home/ubuntu/Scratch/"
 Entering Link 1 = /home/ubuntu/g16/l1.exe PID=     22789.
  
 Copyright (c) 1988-2017, Gaussian, Inc.  All Rights Reserved.
  
 This is part of the Gaussian(R) 16 program.  It is based on
 the Gaussian(R) 09 system (copyright 2009, Gaussian, Inc.),
 the Gaussian(R) 03 system (copyright 2003, Gaussian, Inc.),
 the Gaussian(R) 98 system (copyright 1998, Gaussian, Inc.),
 the Gaussian(R) 94 system (copyright 1995, Gaussian, Inc.),
 the Gaussian 92(TM) system (copyright 1992, Gaussian, Inc.),
 the Gaussian 90(TM) system (copyright 1990, Gaussian, Inc.),
 the Gaussian 88(TM) system (copyright 1988, Gaussian, Inc.),
 the Gaussian 86(TM) system (copyright 1986, Carnegie Mellon
 University), and the Gaussian 82(TM) system (copyright 1983,
 Carnegie Mellon University). Gaussian is a federally registered
 trademark of Gaussian, Inc.
  
 This software contains proprietary and confidential information,
 including trade secrets, belonging to Gaussian, Inc.
  
 This software is provided under written license and may be
 used, copied, transmitted, or stored only in accord with that
 written license.
  
 The following legend is applicable only to US Government
 contracts under FAR:
  
                    RESTRICTED RIGHTS LEGEND
  
 Use, reproduction and disclosure by the US Government is
 subject to restrictions as set forth in subparagraphs (a)
 and (c) of the Commercial Computer Software - Restricted
 Rights clause in FAR 52.227-19.
  
 Gaussian, Inc.
 340 Quinnipiac St., Bldg. 40, Wallingford CT 06492
  
  
 ---------------------------------------------------------------
 Warning -- This program may not be used in any manner that
 competes with the business of Gaussian, Inc. or will provide
 assistance to any competitor of Gaussian, Inc.  The licensee
 of this program is prohibited from giving any competitor of
 Gaussian, Inc. access to this program.  By using this program,
 the user acknowledges that Gaussian, Inc. is engaged in the
 business of creating and licensing software in the field of
 computational chemistry and represents and warrants to the
 licensee that it is not a competitor of Gaussian, Inc. and that
 it will not use this program in any manner prohibited above.
 ---------------------------------------------------------------
  

 Cite this work as:
 Gaussian 16, Revision B.01,
 M. J. Frisch, G. W. Trucks, H. B. Schlegel, G. E. Scuseria, 
 M. A. Robb, J. R. Cheeseman, G. Scalmani, V. Barone, 
 G. A. Petersson, H. Nakatsuji, X. Li, M. Caricato, A. V. Marenich, 
 J. Bloino, B. G. Janesko, R. Gomperts, B. Mennucci, H. P. Hratchian, 
 J. V. Ortiz, A. F. Izmaylov, J. L. Sonnenberg, D. Williams-Young, 
 F. Ding, F. Lipparini, F. Egidi, J. Goings, B. Peng, A. Petrone, 
 T. Henderson, D. Ranasinghe, V. G. Zakrzewski, J. Gao, N. Rega, 
 G. Zheng, W. Liang, M. Hada, M. Ehara, K. Toyota, R. Fukuda, 
 J. Hasegawa, M. Ishida, T. Nakajima, Y. Honda, O. Kitao, H. Nakai, 
 T. Vreven, K. Throssell, J. A. Montgomery, Jr., J. E. Peralta, 
 F. Ogliaro, M. J. Bearpark, J. J. Heyd, E. N. Brothers, K. N. Kudin, 
 V. N. Staroverov, T. A. Keith, R. Kobayashi, J. Normand, 
 K. Raghavachari, A. P. Rendell, J. C. Burant, S. S. Iyengar, 
 J. Tomasi, M. Cossi, J. M. Millam, M. Klene, C. Adamo, R. Cammi, 
 J. W. Ochterski, R. L. Martin, K. Morokuma, O. Farkas, 
 J. B. Foresman, and D. J. Fox, Gaussian, Inc., Wallingford CT, 2016.
 
 ******************************************
 Gaussian 16:  EM64L-G16RevB.01 20-Dec-2017
                13-Sep-2023 
 ******************************************
 %nprocshared=32
 Will use up to   32 processors via shared memory.
 %mem=60GB
 %chk=ARYLHALIDE-m-ch3-gen-volume.chk
 ----------------------------------------------------------------------
 # opt freq rb3lyp/gen nosymm empiricaldispersion=gd3 pseudo=read scf=m
 axcycle=1000 volume
 ----------------------------------------------------------------------
 1/18=20,19=15,26=3,38=1/1,3;
 2/9=110,12=2,15=1,17=6,18=5,40=1/2;
 3/5=7,11=2,16=1,17=8,25=1,30=1,71=1,74=-5,116=1,124=31/1,2,3;
 4//1;
 5/5=2,7=1000,38=5/2;
 6/7=2,8=2,9=2,10=2,28=1,44=1/1,4;
 7/30=1/1,2,3,16;
 1/18=20,19=15,26=3/3(2);
 2/9=110,15=1/2;
 99//99;
 2/9=110,15=1/2;
 3/5=7,6=1,11=2,16=1,17=8,25=1,30=1,71=1,74=-5,82=7,116=1,124=31/1,2,3;
 4/5=5,16=3,69=1/1;
 5/5=2,7=1000,38=5/2;
 7/30=1/1,2,3,16;
 1/18=20,19=15,26=3/3(-5);
 2/9=110,15=1/2;
 6/7=2,8=2,9=2,10=2,19=2,28=1,44=1/1,4;
 99/9=1/99;
 -----
 reac1
 -----
 Symbolic Z-matrix:
 Charge =  0 Multiplicity = 1
 C                    -0.45111   0.0136   -0.00012 
 C                     0.21525   1.23757   0.00004 
 C                     0.24563  -1.19669  -0.00017 
 C                     1.61985   1.27389   0.00016 
 H                    -0.34497   2.1682    0.00008 
 C                     1.64249  -1.15891  -0.00006 
 C                     2.32245   0.06238   0.00011 
 H                     2.20097  -2.09164  -0.0001 
 I                    -2.60426  -0.01116  -0.0003 
 H                    -0.28142  -2.14484  -0.0003 
 H                     3.40979   0.0735    0.0002 
 C                     2.3378    2.60523   0.00034 
 H                     2.07106   3.19911  -0.88281 
 H                     2.07095   3.19893   0.88358 
 H                     3.42477   2.47363   0.0004 
 

 GradGradGradGradGradGradGradGradGradGradGradGradGradGradGradGradGradGrad
 Berny optimization.
 Initialization pass.
                           ----------------------------
                           !    Initial Parameters    !
                           ! (Angstroms and Degrees)  !
 --------------------------                            --------------------------
 ! Name  Definition              Value          Derivative Info.                !
 --------------------------------------------------------------------------------
 ! R1    R(1,2)                  1.3936         estimate D2E/DX2                !
 ! R2    R(1,3)                  1.3965         estimate D2E/DX2                !
 ! R3    R(1,9)                  2.1533         estimate D2E/DX2                !
 ! R4    R(2,4)                  1.4051         estimate D2E/DX2                !
 ! R5    R(2,5)                  1.0862         estimate D2E/DX2                !
 ! R6    R(3,6)                  1.3974         estimate D2E/DX2                !
 ! R7    R(3,10)                 1.0848         estimate D2E/DX2                !
 ! R8    R(4,7)                  1.4005         estimate D2E/DX2                !
 ! R9    R(4,12)                 1.5126         estimate D2E/DX2                !
 ! R10   R(6,7)                  1.3978         estimate D2E/DX2                !
 ! R11   R(6,8)                  1.0871         estimate D2E/DX2                !
 ! R12   R(7,11)                 1.0874         estimate D2E/DX2                !
 ! R13   R(12,13)                1.0972         estimate D2E/DX2                !
 ! R14   R(12,14)                1.0972         estimate D2E/DX2                !
 ! R15   R(12,15)                1.0949         estimate D2E/DX2                !
 ! A1    A(2,1,3)              121.5069         estimate D2E/DX2                !
 ! A2    A(2,1,9)              119.2237         estimate D2E/DX2                !
 ! A3    A(3,1,9)              119.2694         estimate D2E/DX2                !
 ! A4    A(1,2,4)              120.0464         estimate D2E/DX2                !
 ! A5    A(1,2,5)              120.3884         estimate D2E/DX2                !
 ! A6    A(4,2,5)              119.5653         estimate D2E/DX2                !
 ! A7    A(1,3,6)              118.3788         estimate D2E/DX2                !
 ! A8    A(1,3,10)             121.0036         estimate D2E/DX2                !
 ! A9    A(6,3,10)             120.6176         estimate D2E/DX2                !
 ! A10   A(2,4,7)              118.6297         estimate D2E/DX2                !
 ! A11   A(2,4,12)             119.818          estimate D2E/DX2                !
 ! A12   A(7,4,12)             121.5523         estimate D2E/DX2                !
 ! A13   A(3,6,7)              120.6566         estimate D2E/DX2                !
 ! A14   A(3,6,8)              119.3621         estimate D2E/DX2                !
 ! A15   A(7,6,8)              119.9813         estimate D2E/DX2                !
 ! A16   A(4,7,6)              120.7815         estimate D2E/DX2                !
 ! A17   A(4,7,11)             119.5252         estimate D2E/DX2                !
 ! A18   A(6,7,11)             119.6932         estimate D2E/DX2                !
 ! A19   A(4,12,13)            111.157          estimate D2E/DX2                !
 ! A20   A(4,12,14)            111.157          estimate D2E/DX2                !
 ! A21   A(4,12,15)            111.4333         estimate D2E/DX2                !
 ! A22   A(13,12,14)           107.2152         estimate D2E/DX2                !
 ! A23   A(13,12,15)           107.8455         estimate D2E/DX2                !
 ! A24   A(14,12,15)           107.8455         estimate D2E/DX2                !
 ! D1    D(3,1,2,4)              0.0            estimate D2E/DX2                !
 ! D2    D(3,1,2,5)           -180.0            estimate D2E/DX2                !
 ! D3    D(9,1,2,4)            180.0            estimate D2E/DX2                !
 ! D4    D(9,1,2,5)              0.0            estimate D2E/DX2                !
 ! D5    D(2,1,3,6)              0.0            estimate D2E/DX2                !
 ! D6    D(2,1,3,10)          -180.0            estimate D2E/DX2                !
 ! D7    D(9,1,3,6)           -180.0            estimate D2E/DX2                !
 ! D8    D(9,1,3,10)             0.0            estimate D2E/DX2                !
 ! D9    D(1,2,4,7)              0.0            estimate D2E/DX2                !
 ! D10   D(1,2,4,12)          -179.9999         estimate D2E/DX2                !
 ! D11   D(5,2,4,7)           -180.0            estimate D2E/DX2                !
 ! D12   D(5,2,4,12)             0.0001         estimate D2E/DX2                !
 ! D13   D(1,3,6,7)              0.0            estimate D2E/DX2                !
 ! D14   D(1,3,6,8)           -179.9999         estimate D2E/DX2                !
 ! D15   D(10,3,6,7)           180.0            estimate D2E/DX2                !
 ! D16   D(10,3,6,8)             0.0001         estimate D2E/DX2                !
 ! D17   D(2,4,7,6)              0.0            estimate D2E/DX2                !
 ! D18   D(2,4,7,11)          -180.0            estimate D2E/DX2                !
 ! D19   D(12,4,7,6)           179.9999         estimate D2E/DX2                !
 ! D20   D(12,4,7,11)           -0.0001         estimate D2E/DX2                !
 ! D21   D(2,4,12,13)          -59.6714         estimate D2E/DX2                !
 ! D22   D(2,4,12,14)           59.6736         estimate D2E/DX2                !
 ! D23   D(2,4,12,15)         -179.9989         estimate D2E/DX2                !
 ! D24   D(7,4,12,13)          120.3287         estimate D2E/DX2                !
 ! D25   D(7,4,12,14)         -120.3263         estimate D2E/DX2                !
 ! D26   D(7,4,12,15)            0.0012         estimate D2E/DX2                !
 ! D27   D(3,6,7,4)              0.0001         estimate D2E/DX2                !
 ! D28   D(3,6,7,11)           180.0            estimate D2E/DX2                !
 ! D29   D(8,6,7,4)            180.0            estimate D2E/DX2                !
 ! D30   D(8,6,7,11)            -0.0001         estimate D2E/DX2                !
 --------------------------------------------------------------------------------
 Trust Radius=3.00D-01 FncErr=1.00D-07 GrdErr=1.00D-06 EigMax=2.50D+02 EigMin=1.00D-04
 Number of steps in this run=     79 maximum allowed number of steps=    100.
 GradGradGradGradGradGradGradGradGradGradGradGradGradGradGradGradGradGrad

                          Input orientation:                          
 ---------------------------------------------------------------------
 Center     Atomic      Atomic             Coordinates (Angstroms)
 Number     Number       Type             X           Y           Z
 ---------------------------------------------------------------------
      1          6           0       -0.451110    0.013598   -0.000121
      2          6           0        0.215248    1.237565    0.000043
      3          6           0        0.245629   -1.196694   -0.000174
      4          6           0        1.619849    1.273890    0.000159
      5          1           0       -0.344968    2.168203    0.000082
      6          6           0        1.642487   -1.158913   -0.000058
      7          6           0        2.322453    0.062377    0.000106
      8          1           0        2.200965   -2.091640   -0.000098
      9         53           0       -2.604257   -0.011158   -0.000296
     10          1           0       -0.281418   -2.144844   -0.000302
     11          1           0        3.409787    0.073496    0.000195
     12          6           0        2.337799    2.605233    0.000339
     13          1           0        2.071058    3.199105   -0.882813
     14          1           0        2.070946    3.198926    0.883579
     15          1           0        3.424771    2.473633    0.000395
 ---------------------------------------------------------------------
                    Distance matrix (angstroms):
                    1          2          3          4          5
     1  C    0.000000
     2  C    1.393603   0.000000
     3  C    1.396514   2.434449   0.000000
     4  C    2.424295   1.405071   2.827060   0.000000
     5  H    2.157218   1.086245   3.416334   2.158773   0.000000
     6  C    2.399569   2.789286   1.397369   2.432908   3.875523
     7  C    2.773992   2.412754   2.428674   1.400506   3.398476
     8  H    3.386079   3.876426   2.150411   3.415331   4.962664
     9  I    2.153289   3.083653   3.086640   4.415249   3.139108
    10  H    2.165102   3.418679   1.084789   3.911848   4.313515
    11  H    3.861362   3.400020   3.409586   2.155185   4.299533
    12  C    3.807176   2.525022   4.339565   1.512589   2.718131
    13  H    4.157876   2.840969   4.840898   2.165567   2.771181
    14  H    4.157885   2.840984   4.840896   2.165568   2.771209
    15  H    4.590667   3.439317   4.855743   2.167286   3.782092
                    6          7          8          9         10
     6  C    0.000000
     7  C    1.397821   0.000000
     8  H    1.087142   2.157440   0.000000
     9  I    4.399111   4.927259   5.236274   0.000000
    10  H    2.161821   3.413498   2.482953   3.154076   0.000000
    11  H    2.154572   1.087391   2.479731   6.014640   4.306510
    12  C    3.827826   2.542902   4.698866   5.591907   5.424346
    13  H    4.467130   3.268304   5.365449   5.739616   5.905147
    14  H    4.467119   3.268290   5.365434   5.739634   5.905145
    15  H    4.046224   2.651275   4.726459   6.520994   5.921669
                   11         12         13         14         15
    11  H    0.000000
    12  C    2.749336   0.000000
    13  H    3.513023   1.097175   0.000000
    14  H    3.513001   1.097176   1.766392   0.000000
    15  H    2.400184   1.094909   1.771695   1.771696   0.000000
 Symmetry turned off by external request.
 Stoichiometry    C7H7I
 Framework group  C1[X(C7H7I)]
 Deg. of freedom    39
 Full point group                 C1      NOp   1
 Rotational constants (GHZ):           3.1416745           0.5635784           0.4792817
 General basis read from cards:  (5D, 7F)
 ======================================================================================================
                                       Pseudopotential Parameters
 ======================================================================================================
  Center     Atomic      Valence      Angular      Power
  Number     Number     Electrons     Momentum     of R      Exponent        Coefficient   SO-Coeffient
 ======================================================================================================
    1          6
                                   No pseudopotential on this center.
    2          6
                                   No pseudopotential on this center.
    3          6
                                   No pseudopotential on this center.
    4          6
                                   No pseudopotential on this center.
    5          1
                                   No pseudopotential on this center.
    6          6
                                   No pseudopotential on this center.
    7          6
                                   No pseudopotential on this center.
    8          1
                                   No pseudopotential on this center.
    9         53            7
                                      G and up 
                                                     2        1.0000000        0.00000000    0.00000000
                                      S - G
                                                     2        3.5112000       83.11386300    0.00000000
                                                     2        1.7556000        5.20187600    0.00000000
                                      P - G
                                                     2        2.9688000       82.81110900    0.00000000
                                                     2        1.4844000        3.37968200    0.00000000
                                      D - G
                                                     2        1.9066000       10.30427700    0.00000000
                                                     2        0.9533000        7.58803200    0.00000000
                                      F - G
                                                     2        2.3075000      -21.47793600    0.00000000
   10          1
                                   No pseudopotential on this center.
   11          1
                                   No pseudopotential on this center.
   12          6
                                   No pseudopotential on this center.
   13          1
                                   No pseudopotential on this center.
   14          1
                                   No pseudopotential on this center.
   15          1
                                   No pseudopotential on this center.
 ======================================================================================================
   151 basis functions,   271 primitive gaussians,   158 cartesian basis functions
    28 alpha electrons       28 beta electrons
       nuclear repulsion energy       307.1698650703 Hartrees.
 NAtoms=   15 NActive=   15 NUniq=   15 SFac= 1.00D+00 NAtFMM=   60 NAOKFM=F Big=F
 Integral buffers will be    131072 words long.
 Raffenetti 2 integral format.
 Two-electron integral symmetry is turned off.
 Nuclear repulsion after empirical dispersion term =      307.1590445361 Hartrees.
 One-electron integrals computed using PRISM.
   1 Symmetry operations used in ECPInt.
 ECPInt:  NShTT=    1485 NPrTT=    7534 LenC2=    1483 LenP2D=    5759.
 LDataN:  DoStor=T MaxTD1= 6 Len=  172
 NBasis=   151 RedAO= T EigKep=  4.04D-06  NBF=   151
 NBsUse=   151 1.00D-06 EigRej= -1.00D+00 NBFU=   151
 Defaulting to unpruned grid for atomic number  53.
 ExpMin= 3.26D-02 ExpMax= 3.05D+03 ExpMxC= 4.57D+02 IAcc=3 IRadAn=         5 AccDes= 0.00D+00
 Harris functional with IExCor=  402 and IRadAn=       5 diagonalized for initial guess.
 HarFok:  IExCor=  402 AccDes= 0.00D+00 IRadAn=         5 IDoV= 1 UseB2=F ITyADJ=14
 ICtDFT=  3500011 ScaDFX=  1.000000  1.000000  1.000000  1.000000
 Defaulting to unpruned grid for atomic number  53.
 FoFCou: FMM=F IPFlag=           0 FMFlag=      100000 FMFlg1=           0
         NFxFlg=           0 DoJE=T BraDBF=F KetDBF=T FulRan=T
         wScrn=  0.000000 ICntrl=       500 IOpCl=  0 I1Cent=   200000004 NGrid=           0
         NMat0=    1 NMatS0=      1 NMatT0=    0 NMatD0=    1 NMtDS0=    0 NMtDT0=    0
 Symmetry not used in FoFCou.
 Requested convergence on RMS density matrix=1.00D-08 within1000 cycles.
 Requested convergence on MAX density matrix=1.00D-06.
 Requested convergence on             energy=1.00D-06.
 No special actions if energy rises.
 Defaulting to unpruned grid for atomic number  53.
 Defaulting to unpruned grid for atomic number  53.
 Defaulting to unpruned grid for atomic number  53.
 Defaulting to unpruned grid for atomic number  53.
 Defaulting to unpruned grid for atomic number  53.
 Defaulting to unpruned grid for atomic number  53.
 Defaulting to unpruned grid for atomic number  53.
 Defaulting to unpruned grid for atomic number  53.
 Defaulting to unpruned grid for atomic number  53.
 Defaulting to unpruned grid for atomic number  53.
 Defaulting to unpruned grid for atomic number  53.
 Defaulting to unpruned grid for atomic number  53.
 Defaulting to unpruned grid for atomic number  53.
 Defaulting to unpruned grid for atomic number  53.
 Defaulting to unpruned grid for atomic number  53.
 Defaulting to unpruned grid for atomic number  53.
 Defaulting to unpruned grid for atomic number  53.
 Defaulting to unpruned grid for atomic number  53.
 Defaulting to unpruned grid for atomic number  53.
 Defaulting to unpruned grid for atomic number  53.
 Defaulting to unpruned grid for atomic number  53.
 Defaulting to unpruned grid for atomic number  53.
 Defaulting to unpruned grid for atomic number  53.
 Defaulting to unpruned grid for atomic number  53.
 Defaulting to unpruned grid for atomic number  53.
 Defaulting to unpruned grid for atomic number  53.
 Defaulting to unpruned grid for atomic number  53.
 Defaulting to unpruned grid for atomic number  53.
 Defaulting to unpruned grid for atomic number  53.
 Defaulting to unpruned grid for atomic number  53.
 Defaulting to unpruned grid for atomic number  53.
 Defaulting to unpruned grid for atomic number  53.
 SCF Done:  E(RB3LYP) =  -282.392059235     A.U. after   15 cycles
            NFock= 15  Conv=0.81D-09     -V/T= 2.0362

 **********************************************************************

            Population analysis using the SCF Density.

 **********************************************************************

 Alpha  occ. eigenvalues --  -10.24617 -10.21402 -10.20531 -10.20430 -10.20417
 Alpha  occ. eigenvalues --  -10.19918 -10.19011  -0.87629  -0.79116  -0.76970
 Alpha  occ. eigenvalues --   -0.70340  -0.68950  -0.61564  -0.58838  -0.52161
 Alpha  occ. eigenvalues --   -0.47998  -0.45773  -0.43364  -0.42777  -0.41245
 Alpha  occ. eigenvalues --   -0.40029  -0.37758  -0.36126  -0.33989  -0.29604
 Alpha  occ. eigenvalues --   -0.26912  -0.26128  -0.24331
 Alpha virt. eigenvalues --   -0.04399  -0.02851  -0.02309   0.00308   0.01600
 Alpha virt. eigenvalues --    0.02085   0.03799   0.03980   0.04363   0.05599
 Alpha virt. eigenvalues --    0.06065   0.06536   0.06729   0.07938   0.08757
 Alpha virt. eigenvalues --    0.09318   0.10685   0.11582   0.12127   0.12229
 Alpha virt. eigenvalues --    0.12941   0.13789   0.14501   0.15473   0.16835
 Alpha virt. eigenvalues --    0.16929   0.18419   0.18595   0.18834   0.20513
 Alpha virt. eigenvalues --    0.21254   0.22405   0.22562   0.22682   0.23147
 Alpha virt. eigenvalues --    0.24416   0.25621   0.26540   0.27306   0.28358
 Alpha virt. eigenvalues --    0.28994   0.30617   0.32909   0.33363   0.34754
 Alpha virt. eigenvalues --    0.35915   0.37490   0.53502   0.54799   0.62700
 Alpha virt. eigenvalues --    0.64747   0.65670   0.66999   0.68032   0.70029
 Alpha virt. eigenvalues --    0.71134   0.71443   0.71609   0.72450   0.73362
 Alpha virt. eigenvalues --    0.75105   0.76380   0.77539   0.79167   0.81183
 Alpha virt. eigenvalues --    0.84128   0.85524   0.87259   0.90722   0.94034
 Alpha virt. eigenvalues --    0.94502   0.96888   1.00291   1.04040   1.07200
 Alpha virt. eigenvalues --    1.09310   1.11781   1.14380   1.16307   1.21270
 Alpha virt. eigenvalues --    1.21885   1.23581   1.28566   1.32012   1.36727
 Alpha virt. eigenvalues --    1.39841   1.43078   1.46718   1.46937   1.47506
 Alpha virt. eigenvalues --    1.48974   1.49547   1.73801   1.80883   1.82381
 Alpha virt. eigenvalues --    1.85725   1.88603   1.90696   1.96387   2.02383
 Alpha virt. eigenvalues --    2.08097   2.10654   2.12214   2.14336   2.14825
 Alpha virt. eigenvalues --    2.18727   2.23778   2.29070   2.30507   2.35081
 Alpha virt. eigenvalues --    2.36069   2.40884   2.54697   2.58803   2.63283
 Alpha virt. eigenvalues --    2.68298   2.72274   2.74528   2.77241   2.93459
 Alpha virt. eigenvalues --    3.04508   3.36196  15.05640
          Condensed to atoms (all electrons):
               1          2          3          4          5          6
     1  C    7.494961  -0.949007  -0.279265   0.153035  -0.013593  -0.041891
     2  C   -0.949007   8.972305   0.011405  -0.448188   0.120954  -0.477386
     3  C   -0.279265   0.011405   6.836080  -0.410258   0.052451   0.334048
     4  C    0.153035  -0.448188  -0.410258   7.236055   0.055676   0.033462
     5  H   -0.013593   0.120954   0.052451   0.055676   0.522088  -0.023430
     6  C   -0.041891  -0.477386   0.334048   0.033462  -0.023430   5.668157
     7  C   -0.260486  -1.417462  -0.639913  -0.030158   0.091213   0.414437
     8  H    0.026897  -0.017345  -0.018437   0.000406   0.000014   0.308458
     9  I   -0.661394   0.338325   0.176012   0.020299  -0.004758   0.111500
    10  H   -0.015292   0.059027   0.272320  -0.002822  -0.000150  -0.019202
    11  H   -0.013136   0.059570   0.013329   0.035062  -0.000142   0.008706
    12  C   -0.270031   0.091516   0.065885  -0.655257   0.006074  -0.058130
    13  H   -0.007684  -0.009727   0.005411  -0.088098   0.000853  -0.004974
    14  H   -0.007685  -0.009730   0.005410  -0.088093   0.000853  -0.004974
    15  H   -0.014246   0.041728   0.000791  -0.152069   0.000110  -0.000875
               7          8          9         10         11         12
     1  C   -0.260486   0.026897  -0.661394  -0.015292  -0.013136  -0.270031
     2  C   -1.417462  -0.017345   0.338325   0.059027   0.059570   0.091516
     3  C   -0.639913  -0.018437   0.176012   0.272320   0.013329   0.065885
     4  C   -0.030158   0.000406   0.020299  -0.002822   0.035062  -0.655257
     5  H    0.091213   0.000014  -0.004758  -0.000150  -0.000142   0.006074
     6  C    0.414437   0.308458   0.111500  -0.019202   0.008706  -0.058130
     7  C    7.950507  -0.004314   0.041094   0.007174   0.189410   0.285391
     8  H   -0.004314   0.532740  -0.000624  -0.005414  -0.004970  -0.001226
     9  I    0.041094  -0.000624   6.921716  -0.003787   0.000158   0.002299
    10  H    0.007174  -0.005414  -0.003787   0.510870  -0.000141   0.001972
    11  H    0.189410  -0.004970   0.000158  -0.000141   0.545264  -0.014480
    12  C    0.285391  -0.001226   0.002299   0.001972  -0.014480   6.202034
    13  H    0.021983   0.000002  -0.000077   0.000000   0.000135   0.416981
    14  H    0.021982   0.000002  -0.000077   0.000000   0.000135   0.416980
    15  H   -0.007500  -0.000003   0.000111   0.000000   0.004270   0.472153
              13         14         15
     1  C   -0.007684  -0.007685  -0.014246
     2  C   -0.009727  -0.009730   0.041728
     3  C    0.005411   0.005410   0.000791
     4  C   -0.088098  -0.088093  -0.152069
     5  H    0.000853   0.000853   0.000110
     6  C   -0.004974  -0.004974  -0.000875
     7  C    0.021983   0.021982  -0.007500
     8  H    0.000002   0.000002  -0.000003
     9  I   -0.000077  -0.000077   0.000111
    10  H    0.000000   0.000000   0.000000
    11  H    0.000135   0.000135   0.004270
    12  C    0.416981   0.416980   0.472153
    13  H    0.497641  -0.032190  -0.025813
    14  H   -0.032190   0.497641  -0.025813
    15  H   -0.025813  -0.025813   0.500448
 Mulliken charges:
               1
     1  C    0.858818
     2  C   -0.365984
     3  C   -0.425269
     4  C    0.340948
     5  H    0.191786
     6  C   -0.247905
     7  C   -0.663356
     8  H    0.183813
     9  I    0.059205
    10  H    0.195444
    11  H    0.176833
    12  C   -0.962161
    13  H    0.225559
    14  H    0.225560
    15  H    0.206710
 Sum of Mulliken charges =   0.00000
 Mulliken charges with hydrogens summed into heavy atoms:
               1
     1  C    0.858818
     2  C   -0.174197
     3  C   -0.229825
     4  C    0.340948
     6  C   -0.064092
     7  C   -0.486524
     9  I    0.059205
    12  C   -0.304333
 Electronic spatial extent (au):  <R**2>=           1212.7610
 Charge=              0.0000 electrons
 Dipole moment (field-independent basis, Debye):
    X=              2.0735    Y=              0.4596    Z=              0.0002  Tot=              2.1238
 Quadrupole moment (field-independent basis, Debye-Ang):
   XX=            -59.4615   YY=            -56.8083   ZZ=            -66.5244
   XY=              0.8593   XZ=              0.0005   YZ=              0.0009
 Traceless Quadrupole moment (field-independent basis, Debye-Ang):
   XX=              1.4699   YY=              4.1231   ZZ=             -5.5930
   XY=              0.8593   XZ=              0.0005   YZ=              0.0009
 Octapole moment (field-independent basis, Debye-Ang**2):
  XXX=             16.3367  YYY=            -56.4071  ZZZ=              0.0127  XYY=             10.7986
  XXY=            -18.3959  XXZ=              0.0045  XZZ=              1.7399  YZZ=            -18.0151
  YYZ=              0.0039  XYZ=              0.0007
 Hexadecapole moment (field-independent basis, Debye-Ang**3):
 XXXX=          -1470.2635 YYYY=           -629.8833 ZZZZ=           -102.6732 XXXY=           -135.2110
 XXXZ=             -0.0595 YYYX=           -138.8838 YYYZ=             -0.0285 ZZZX=             -0.0767
 ZZZY=             -0.0316 XXYY=           -370.6334 XXZZ=           -300.7231 YYZZ=           -128.6920
 XXYZ=             -0.0085 YYXZ=             -0.0248 ZZXY=            -44.4718
 N-N= 3.071590445361D+02 E-N=-1.263141923013D+03  KE= 2.725178693286D+02
 Evaluate density.
 Using the total density.
 Monte-Carlo method of calculating molar volume:
 based on  0.001 e/bohr**3 density envelope.
 Number of points per bohr**3 =   20 CutOff= 1.00D-04
 Using the SCF density.
 There are       484 points.  Will hold       484 in memory.
 LenV=  8052961235 MDV=  8053063680.
 Box volume =14195.636 fraction occupied=0.095
 Integrated density= 4.1193714912838615D+01 error=-1.4806285087161385D+01
 Molar volume = 1349.172 bohr**3/mol (120.399 cm**3/mol)
 Recommended a0 for SCRF calculation =  4.49 angstrom (  8.49 bohr)
   1 Symmetry operations used in ECPInt.
 ECPInt:  NShTT=    1485 NPrTT=    7534 LenC2=    1483 LenP2D=    5759.
 LDataN:  DoStor=T MaxTD1= 7 Len=  274
 Calling FoFJK, ICntrl=      2127 FMM=F ISym2X=0 I1Cent= 0 IOpClX= 0 NMat=1 NMatS=1 NMatT=0.
 Defaulting to unpruned grid for atomic number  53.
 Defaulting to unpruned grid for atomic number  53.
 Defaulting to unpruned grid for atomic number  53.
 Defaulting to unpruned grid for atomic number  53.
 Defaulting to unpruned grid for atomic number  53.
 Defaulting to unpruned grid for atomic number  53.
 Defaulting to unpruned grid for atomic number  53.
 Defaulting to unpruned grid for atomic number  53.
 Defaulting to unpruned grid for atomic number  53.
 Defaulting to unpruned grid for atomic number  53.
 Defaulting to unpruned grid for atomic number  53.
 Defaulting to unpruned grid for atomic number  53.
 Defaulting to unpruned grid for atomic number  53.
 Defaulting to unpruned grid for atomic number  53.
 Defaulting to unpruned grid for atomic number  53.
 Defaulting to unpruned grid for atomic number  53.
 Defaulting to unpruned grid for atomic number  53.
 Defaulting to unpruned grid for atomic number  53.
 Defaulting to unpruned grid for atomic number  53.
 Defaulting to unpruned grid for atomic number  53.
 Defaulting to unpruned grid for atomic number  53.
 Defaulting to unpruned grid for atomic number  53.
 Defaulting to unpruned grid for atomic number  53.
 Defaulting to unpruned grid for atomic number  53.
 Defaulting to unpruned grid for atomic number  53.
 Defaulting to unpruned grid for atomic number  53.
 Defaulting to unpruned grid for atomic number  53.
 Defaulting to unpruned grid for atomic number  53.
 Defaulting to unpruned grid for atomic number  53.
 Defaulting to unpruned grid for atomic number  53.
 Defaulting to unpruned grid for atomic number  53.
 Defaulting to unpruned grid for atomic number  53.
 -------------------------------------------------------------------
 Center     Atomic                   Forces (Hartrees/Bohr)
 Number     Number              X              Y              Z
 -------------------------------------------------------------------
      1        6           0.000066477    0.000133596    0.000000049
      2        6          -0.000244894   -0.000038189   -0.000000047
      3        6          -0.000046037   -0.000091205    0.000000010
      4        6           0.000260011    0.000039355    0.000000033
      5        1           0.000005344    0.000021695   -0.000000005
      6        6          -0.000079159   -0.000086859   -0.000000167
      7        6           0.000026076    0.000089019    0.000000142
      8        1           0.000018137    0.000013130    0.000000048
      9       53           0.000099188   -0.000004828   -0.000000003
     10        1          -0.000009909   -0.000004367    0.000000000
     11        1           0.000013285   -0.000005829   -0.000000047
     12        6          -0.000123199   -0.000115716    0.000000517
     13        1          -0.000000433    0.000022326   -0.000022522
     14        1          -0.000000281    0.000021968    0.000022003
     15        1           0.000015393    0.000005902   -0.000000013
 -------------------------------------------------------------------
 Cartesian Forces:  Max     0.000260011 RMS     0.000071135

 GradGradGradGradGradGradGradGradGradGradGradGradGradGradGradGradGradGrad
 Berny optimization.
 FormGI is forming the generalized inverse of G from B-inverse, IUseBI=4.
 Internal  Forces:  Max     0.000123835 RMS     0.000038299
 Search for a local minimum.
 Step number   1 out of a maximum of   79
 All quantities printed in internal units (Hartrees-Bohrs-Radians)
 Mixed Optimization -- En-DIIS/RFO-DIIS
 Second derivative matrix not updated -- first step.
 ITU=  0
     Eigenvalues ---    0.00599   0.01463   0.02059   0.02097   0.02101
     Eigenvalues ---    0.02116   0.02121   0.02129   0.02142   0.02156
     Eigenvalues ---    0.07056   0.07126   0.12323   0.16000   0.16000
     Eigenvalues ---    0.16000   0.16000   0.16000   0.16000   0.16000
     Eigenvalues ---    0.22000   0.23476   0.23498   0.25000   0.25000
     Eigenvalues ---    0.31092   0.33996   0.33997   0.34251   0.35116
     Eigenvalues ---    0.35145   0.35250   0.35422   0.41579   0.41983
     Eigenvalues ---    0.45277   0.45801   0.46088   0.46477
 RFO step:  Lambda=-3.65504966D-07 EMin= 5.99415099D-03
 Linear search not attempted -- first point.
 Iteration  1 RMS(Cart)=  0.00025647 RMS(Int)=  0.00000002
 Iteration  2 RMS(Cart)=  0.00000004 RMS(Int)=  0.00000000
 Variable       Old X    -DE/DX   Delta X   Delta X   Delta X     New X
                                 (Linear)    (Quad)   (Total)
    R1        2.63353  -0.00010   0.00000  -0.00023  -0.00023   2.63330
    R2        2.63903   0.00004   0.00000   0.00008   0.00008   2.63911
    R3        4.06913  -0.00010   0.00000  -0.00080  -0.00080   4.06832
    R4        2.65520   0.00012   0.00000   0.00028   0.00028   2.65547
    R5        2.05271   0.00002   0.00000   0.00005   0.00005   2.05275
    R6        2.64064   0.00001   0.00000   0.00001   0.00001   2.64066
    R7        2.04995   0.00001   0.00000   0.00002   0.00002   2.04998
    R8        2.64657   0.00000   0.00000   0.00000   0.00000   2.64657
    R9        2.85838  -0.00011   0.00000  -0.00035  -0.00035   2.85803
   R10        2.64150   0.00012   0.00000   0.00026   0.00026   2.64176
   R11        2.05440   0.00000   0.00000  -0.00001  -0.00001   2.05439
   R12        2.05487   0.00001   0.00000   0.00004   0.00004   2.05491
   R13        2.07336   0.00003   0.00000   0.00009   0.00009   2.07345
   R14        2.07336   0.00003   0.00000   0.00009   0.00009   2.07345
   R15        2.06908   0.00001   0.00000   0.00004   0.00004   2.06912
    A1        2.12070   0.00009   0.00000   0.00035   0.00035   2.12105
    A2        2.08085  -0.00003   0.00000  -0.00013  -0.00013   2.08072
    A3        2.08164  -0.00006   0.00000  -0.00022  -0.00022   2.08142
    A4        2.09520  -0.00003   0.00000  -0.00017  -0.00017   2.09504
    A5        2.10117   0.00003   0.00000   0.00019   0.00019   2.10136
    A6        2.08681   0.00000   0.00000  -0.00002  -0.00002   2.08679
    A7        2.06610  -0.00005   0.00000  -0.00022  -0.00022   2.06588
    A8        2.11191   0.00002   0.00000   0.00006   0.00006   2.11198
    A9        2.10517   0.00003   0.00000   0.00015   0.00015   2.10533
   A10        2.07048  -0.00001   0.00000  -0.00001  -0.00001   2.07047
   A11        2.09122  -0.00008   0.00000  -0.00035  -0.00035   2.09087
   A12        2.12149   0.00009   0.00000   0.00036   0.00036   2.12184
   A13        2.10586   0.00000   0.00000   0.00004   0.00004   2.10589
   A14        2.08326   0.00002   0.00000   0.00012   0.00012   2.08339
   A15        2.09407  -0.00002   0.00000  -0.00016  -0.00016   2.09391
   A16        2.10804  -0.00001   0.00000   0.00000   0.00000   2.10804
   A17        2.08611   0.00001   0.00000   0.00004   0.00004   2.08615
   A18        2.08904   0.00000   0.00000  -0.00004  -0.00004   2.08900
   A19        1.94006   0.00001   0.00000   0.00006   0.00006   1.94012
   A20        1.94005   0.00001   0.00000   0.00007   0.00007   1.94012
   A21        1.94488   0.00001   0.00000   0.00003   0.00003   1.94491
   A22        1.87126  -0.00001   0.00000  -0.00004  -0.00004   1.87122
   A23        1.88226  -0.00001   0.00000  -0.00007  -0.00007   1.88219
   A24        1.88226  -0.00001   0.00000  -0.00007  -0.00007   1.88219
    D1        0.00000   0.00000   0.00000   0.00000   0.00000   0.00000
    D2       -3.14159   0.00000   0.00000   0.00000   0.00000   3.14159
    D3        3.14159   0.00000   0.00000   0.00000   0.00000  -3.14159
    D4        0.00000   0.00000   0.00000   0.00000   0.00000   0.00000
    D5        0.00000   0.00000   0.00000   0.00000   0.00000   0.00000
    D6       -3.14159   0.00000   0.00000   0.00000   0.00000  -3.14159
    D7       -3.14159   0.00000   0.00000   0.00000   0.00000   3.14159
    D8        0.00000   0.00000   0.00000   0.00000   0.00000   0.00000
    D9        0.00000   0.00000   0.00000   0.00000   0.00000   0.00000
   D10       -3.14159   0.00000   0.00000   0.00000   0.00000  -3.14159
   D11       -3.14159   0.00000   0.00000   0.00000   0.00000  -3.14159
   D12        0.00000   0.00000   0.00000   0.00000   0.00000   0.00000
   D13        0.00000   0.00000   0.00000   0.00000   0.00000   0.00000
   D14       -3.14159   0.00000   0.00000   0.00000   0.00000  -3.14159
   D15        3.14159   0.00000   0.00000   0.00000   0.00000  -3.14159
   D16        0.00000   0.00000   0.00000   0.00000   0.00000   0.00000
   D17        0.00000   0.00000   0.00000   0.00000   0.00000   0.00000
   D18       -3.14159   0.00000   0.00000   0.00000   0.00000   3.14159
   D19        3.14159   0.00000   0.00000   0.00000   0.00000   3.14159
   D20        0.00000   0.00000   0.00000   0.00000   0.00000   0.00000
   D21       -1.04146   0.00000   0.00000  -0.00002  -0.00002  -1.04148
   D22        1.04150   0.00000   0.00000   0.00002   0.00002   1.04152
   D23       -3.14157   0.00000   0.00000   0.00000   0.00000  -3.14157
   D24        2.10013   0.00000   0.00000  -0.00002  -0.00002   2.10011
   D25       -2.10009   0.00000   0.00000   0.00002   0.00002  -2.10007
   D26        0.00002   0.00000   0.00000   0.00000   0.00000   0.00002
   D27        0.00000   0.00000   0.00000   0.00000   0.00000   0.00000
   D28        3.14159   0.00000   0.00000   0.00000   0.00000   3.14159
   D29        3.14159   0.00000   0.00000   0.00000   0.00000   3.14159
   D30        0.00000   0.00000   0.00000   0.00000   0.00000   0.00000
         Item               Value     Threshold  Converged?
 Maximum Force            0.000124     0.000450     YES
 RMS     Force            0.000038     0.000300     YES
 Maximum Displacement     0.001219     0.001800     YES
 RMS     Displacement     0.000256     0.001200     YES
 Predicted change in Energy=-1.827528D-07
 Optimization completed.
    -- Stationary point found.
                           ----------------------------
                           !   Optimized Parameters   !
                           ! (Angstroms and Degrees)  !
 --------------------------                            --------------------------
 ! Name  Definition              Value          Derivative Info.                !
 --------------------------------------------------------------------------------
 ! R1    R(1,2)                  1.3936         -DE/DX =   -0.0001              !
 ! R2    R(1,3)                  1.3965         -DE/DX =    0.0                 !
 ! R3    R(1,9)                  2.1533         -DE/DX =   -0.0001              !
 ! R4    R(2,4)                  1.4051         -DE/DX =    0.0001              !
 ! R5    R(2,5)                  1.0862         -DE/DX =    0.0                 !
 ! R6    R(3,6)                  1.3974         -DE/DX =    0.0                 !
 ! R7    R(3,10)                 1.0848         -DE/DX =    0.0                 !
 ! R8    R(4,7)                  1.4005         -DE/DX =    0.0                 !
 ! R9    R(4,12)                 1.5126         -DE/DX =   -0.0001              !
 ! R10   R(6,7)                  1.3978         -DE/DX =    0.0001              !
 ! R11   R(6,8)                  1.0871         -DE/DX =    0.0                 !
 ! R12   R(7,11)                 1.0874         -DE/DX =    0.0                 !
 ! R13   R(12,13)                1.0972         -DE/DX =    0.0                 !
 ! R14   R(12,14)                1.0972         -DE/DX =    0.0                 !
 ! R15   R(12,15)                1.0949         -DE/DX =    0.0                 !
 ! A1    A(2,1,3)              121.5069         -DE/DX =    0.0001              !
 ! A2    A(2,1,9)              119.2237         -DE/DX =    0.0                 !
 ! A3    A(3,1,9)              119.2694         -DE/DX =   -0.0001              !
 ! A4    A(1,2,4)              120.0464         -DE/DX =    0.0                 !
 ! A5    A(1,2,5)              120.3884         -DE/DX =    0.0                 !
 ! A6    A(4,2,5)              119.5653         -DE/DX =    0.0                 !
 ! A7    A(1,3,6)              118.3788         -DE/DX =    0.0                 !
 ! A8    A(1,3,10)             121.0036         -DE/DX =    0.0                 !
 ! A9    A(6,3,10)             120.6176         -DE/DX =    0.0                 !
 ! A10   A(2,4,7)              118.6297         -DE/DX =    0.0                 !
 ! A11   A(2,4,12)             119.818          -DE/DX =   -0.0001              !
 ! A12   A(7,4,12)             121.5523         -DE/DX =    0.0001              !
 ! A13   A(3,6,7)              120.6566         -DE/DX =    0.0                 !
 ! A14   A(3,6,8)              119.3621         -DE/DX =    0.0                 !
 ! A15   A(7,6,8)              119.9813         -DE/DX =    0.0                 !
 ! A16   A(4,7,6)              120.7815         -DE/DX =    0.0                 !
 ! A17   A(4,7,11)             119.5252         -DE/DX =    0.0                 !
 ! A18   A(6,7,11)             119.6932         -DE/DX =    0.0                 !
 ! A19   A(4,12,13)            111.157          -DE/DX =    0.0                 !
 ! A20   A(4,12,14)            111.157          -DE/DX =    0.0                 !
 ! A21   A(4,12,15)            111.4333         -DE/DX =    0.0                 !
 ! A22   A(13,12,14)           107.2152         -DE/DX =    0.0                 !
 ! A23   A(13,12,15)           107.8455         -DE/DX =    0.0                 !
 ! A24   A(14,12,15)           107.8455         -DE/DX =    0.0                 !
 ! D1    D(3,1,2,4)              0.0            -DE/DX =    0.0                 !
 ! D2    D(3,1,2,5)            180.0            -DE/DX =    0.0                 !
 ! D3    D(9,1,2,4)           -180.0            -DE/DX =    0.0                 !
 ! D4    D(9,1,2,5)              0.0            -DE/DX =    0.0                 !
 ! D5    D(2,1,3,6)              0.0            -DE/DX =    0.0                 !
 ! D6    D(2,1,3,10)          -180.0            -DE/DX =    0.0                 !
 ! D7    D(9,1,3,6)            180.0            -DE/DX =    0.0                 !
 ! D8    D(9,1,3,10)             0.0            -DE/DX =    0.0                 !
 ! D9    D(1,2,4,7)              0.0            -DE/DX =    0.0                 !
 ! D10   D(1,2,4,12)          -179.9999         -DE/DX =    0.0                 !
 ! D11   D(5,2,4,7)           -180.0            -DE/DX =    0.0                 !
 ! D12   D(5,2,4,12)             0.0001         -DE/DX =    0.0                 !
 ! D13   D(1,3,6,7)              0.0            -DE/DX =    0.0                 !
 ! D14   D(1,3,6,8)           -179.9999         -DE/DX =    0.0                 !
 ! D15   D(10,3,6,7)          -180.0            -DE/DX =    0.0                 !
 ! D16   D(10,3,6,8)             0.0001         -DE/DX =    0.0                 !
 ! D17   D(2,4,7,6)              0.0            -DE/DX =    0.0                 !
 ! D18   D(2,4,7,11)           180.0            -DE/DX =    0.0                 !
 ! D19   D(12,4,7,6)           179.9999         -DE/DX =    0.0                 !
 ! D20   D(12,4,7,11)           -0.0001         -DE/DX =    0.0                 !
 ! D21   D(2,4,12,13)          -59.6714         -DE/DX =    0.0                 !
 ! D22   D(2,4,12,14)           59.6736         -DE/DX =    0.0                 !
 ! D23   D(2,4,12,15)         -179.9989         -DE/DX =    0.0                 !
 ! D24   D(7,4,12,13)          120.3287         -DE/DX =    0.0                 !
 ! D25   D(7,4,12,14)         -120.3263         -DE/DX =    0.0                 !
 ! D26   D(7,4,12,15)            0.0012         -DE/DX =    0.0                 !
 ! D27   D(3,6,7,4)              0.0001         -DE/DX =    0.0                 !
 ! D28   D(3,6,7,11)           180.0            -DE/DX =    0.0                 !
 ! D29   D(8,6,7,4)            180.0            -DE/DX =    0.0                 !
 ! D30   D(8,6,7,11)            -0.0001         -DE/DX =    0.0                 !
 --------------------------------------------------------------------------------
 GradGradGradGradGradGradGradGradGradGradGradGradGradGradGradGradGradGrad

                          Input orientation:                          
 ---------------------------------------------------------------------
 Center     Atomic      Atomic             Coordinates (Angstroms)
 Number     Number       Type             X           Y           Z
 ---------------------------------------------------------------------
      1          6           0       -0.451110    0.013598   -0.000121
      2          6           0        0.215248    1.237565    0.000043
      3          6           0        0.245629   -1.196694   -0.000174
      4          6           0        1.619849    1.273890    0.000159
      5          1           0       -0.344968    2.168203    0.000082
      6          6           0        1.642487   -1.158913   -0.000058
      7          6           0        2.322453    0.062377    0.000106
      8          1           0        2.200965   -2.091640   -0.000098
      9         53           0       -2.604257   -0.011158   -0.000296
     10          1           0       -0.281418   -2.144844   -0.000302
     11          1           0        3.409787    0.073496    0.000195
     12          6           0        2.337799    2.605233    0.000339
     13          1           0        2.071058    3.199105   -0.882813
     14          1           0        2.070946    3.198926    0.883579
     15          1           0        3.424771    2.473633    0.000395
 ---------------------------------------------------------------------
                    Distance matrix (angstroms):
                    1          2          3          4          5
     1  C    0.000000
     2  C    1.393603   0.000000
     3  C    1.396514   2.434449   0.000000
     4  C    2.424295   1.405071   2.827060   0.000000
     5  H    2.157218   1.086245   3.416334   2.158773   0.000000
     6  C    2.399569   2.789286   1.397369   2.432908   3.875523
     7  C    2.773992   2.412754   2.428674   1.400506   3.398476
     8  H    3.386079   3.876426   2.150411   3.415331   4.962664
     9  I    2.153289   3.083653   3.086640   4.415249   3.139108
    10  H    2.165102   3.418679   1.084789   3.911848   4.313515
    11  H    3.861362   3.400020   3.409586   2.155185   4.299533
    12  C    3.807176   2.525022   4.339565   1.512589   2.718131
    13  H    4.157876   2.840969   4.840898   2.165567   2.771181
    14  H    4.157885   2.840984   4.840896   2.165568   2.771209
    15  H    4.590667   3.439317   4.855743   2.167286   3.782092
                    6          7          8          9         10
     6  C    0.000000
     7  C    1.397821   0.000000
     8  H    1.087142   2.157440   0.000000
     9  I    4.399111   4.927259   5.236274   0.000000
    10  H    2.161821   3.413498   2.482953   3.154076   0.000000
    11  H    2.154572   1.087391   2.479731   6.014640   4.306510
    12  C    3.827826   2.542902   4.698866   5.591907   5.424346
    13  H    4.467130   3.268304   5.365449   5.739616   5.905147
    14  H    4.467119   3.268290   5.365434   5.739634   5.905145
    15  H    4.046224   2.651275   4.726459   6.520994   5.921669
                   11         12         13         14         15
    11  H    0.000000
    12  C    2.749336   0.000000
    13  H    3.513023   1.097175   0.000000
    14  H    3.513001   1.097176   1.766392   0.000000
    15  H    2.400184   1.094909   1.771695   1.771696   0.000000
 Symmetry turned off by external request.
 Stoichiometry    C7H7I
 Framework group  C1[X(C7H7I)]
 Deg. of freedom    39
 Full point group                 C1      NOp   1
 Rotational constants (GHZ):           3.1416745           0.5635784           0.4792817
 1\1\GINC-IP-172-31-38-84\FOpt\RB3LYP\Gen\C7H7I1\UBUNTU\13-Sep-2023\0\\
 # opt freq rb3lyp/gen nosymm empiricaldispersion=gd3 pseudo=read scf=m
 axcycle=1000 volume\\reac1\\0,1\C,-0.45111,0.013598,-0.000121\C,0.2152
 48,1.237565,0.000043\C,0.245629,-1.196694,-0.000174\C,1.619849,1.27389
 ,0.000159\H,-0.344968,2.168203,0.000082\C,1.642487,-1.158913,-0.000058
 \C,2.322453,0.062377,0.000106\H,2.200965,-2.09164,-0.000098\I,-2.60425
 7,-0.011158,-0.000296\H,-0.281418,-2.144844,-0.000302\H,3.409787,0.073
 496,0.000195\C,2.337799,2.605233,0.000339\H,2.071058,3.199105,-0.88281
 3\H,2.070946,3.198926,0.883579\H,3.424771,2.473633,0.000395\\Version=E
 M64L-G16RevB.01\HF=-282.3920592\RMSD=8.142e-10\RMSF=7.114e-05\Dipole=0
 .8157726,0.1808068,0.0000832\Quadrupole=1.0928418,3.0654118,-4.1582536
 ,0.6388563,0.0003523,0.0006796\PG=C01 [X(C7H7I1)]\\@


 THERE IS NOTHING NOBLE IN BEING SUPERIOR TO SOME OTHER MAN.
 TRUE NOBILITY IS BEING SUPERIOR TO YOUR FORMER SELF.

                                                   -- HINDU PROVERB
 Job cpu time:       0 days  0 hours  5 minutes 22.6 seconds.
 Elapsed time:       0 days  0 hours  0 minutes 10.1 seconds.
 File lengths (MBytes):  RWF=     16 Int=      0 D2E=      0 Chk=      3 Scr=      1
 Normal termination of Gaussian 16 at Wed Sep 13 08:43:58 2023.
 Link1:  Proceeding to internal job step number  2.
 ------------------------------------------------------------------
 #N Geom=AllCheck Guess=TCheck SCRF=Check GenChk RB3LYP/ChkBas Freq
 ------------------------------------------------------------------
 1/10=4,29=7,30=1,38=1,40=1/1,3;
 2/12=2,15=1,40=1/2;
 3/5=7,6=2,11=2,14=-4,16=1,17=8,25=1,30=1,67=1,70=2,71=2,74=-5,82=7,116=1,124=31,140=1/1,2,3;
 4/5=101/1;
 5/5=2,7=1000,38=6,98=1/2;
 8/6=4,10=90,11=11/1;
 11/6=1,8=1,9=11,15=111,16=1,31=1/1,2,10;
 10/6=1,31=1/2;
 6/7=2,8=2,9=2,10=2,28=1/1;
 7/8=1,10=1,25=1,30=1/1,2,3,16;
 1/10=4,30=1/3;
 99//99;
 Structure from the checkpoint file:  "ARYLHALIDE-m-ch3-gen-volume.chk"
 -----
 reac1
 -----
 Charge =  0 Multiplicity = 1
 Redundant internal coordinates found in file.  (old form).
 C,0,-0.45111,0.013598,-0.000121
 C,0,0.215248,1.237565,0.000043
 C,0,0.245629,-1.196694,-0.000174
 C,0,1.619849,1.27389,0.000159
 H,0,-0.344968,2.168203,0.000082
 C,0,1.642487,-1.158913,-0.000058
 C,0,2.322453,0.062377,0.000106
 H,0,2.200965,-2.09164,-0.000098
 I,0,-2.604257,-0.011158,-0.000296
 H,0,-0.281418,-2.144844,-0.000302
 H,0,3.409787,0.073496,0.000195
 C,0,2.337799,2.605233,0.000339
 H,0,2.071058,3.199105,-0.882813
 H,0,2.070946,3.198926,0.883579
 H,0,3.424771,2.473633,0.000395
 Recover connectivity data from disk.

 GradGradGradGradGradGradGradGradGradGradGradGradGradGradGradGradGradGrad
 Berny optimization.
 Initialization pass.
                           ----------------------------
                           !    Initial Parameters    !
                           ! (Angstroms and Degrees)  !
 --------------------------                            --------------------------
 ! Name  Definition              Value          Derivative Info.                !
 --------------------------------------------------------------------------------
 ! R1    R(1,2)                  1.3936         calculate D2E/DX2 analytically  !
 ! R2    R(1,3)                  1.3965         calculate D2E/DX2 analytically  !
 ! R3    R(1,9)                  2.1533         calculate D2E/DX2 analytically  !
 ! R4    R(2,4)                  1.4051         calculate D2E/DX2 analytically  !
 ! R5    R(2,5)                  1.0862         calculate D2E/DX2 analytically  !
 ! R6    R(3,6)                  1.3974         calculate D2E/DX2 analytically  !
 ! R7    R(3,10)                 1.0848         calculate D2E/DX2 analytically  !
 ! R8    R(4,7)                  1.4005         calculate D2E/DX2 analytically  !
 ! R9    R(4,12)                 1.5126         calculate D2E/DX2 analytically  !
 ! R10   R(6,7)                  1.3978         calculate D2E/DX2 analytically  !
 ! R11   R(6,8)                  1.0871         calculate D2E/DX2 analytically  !
 ! R12   R(7,11)                 1.0874         calculate D2E/DX2 analytically  !
 ! R13   R(12,13)                1.0972         calculate D2E/DX2 analytically  !
 ! R14   R(12,14)                1.0972         calculate D2E/DX2 analytically  !
 ! R15   R(12,15)                1.0949         calculate D2E/DX2 analytically  !
 ! A1    A(2,1,3)              121.5069         calculate D2E/DX2 analytically  !
 ! A2    A(2,1,9)              119.2237         calculate D2E/DX2 analytically  !
 ! A3    A(3,1,9)              119.2694         calculate D2E/DX2 analytically  !
 ! A4    A(1,2,4)              120.0464         calculate D2E/DX2 analytically  !
 ! A5    A(1,2,5)              120.3884         calculate D2E/DX2 analytically  !
 ! A6    A(4,2,5)              119.5653         calculate D2E/DX2 analytically  !
 ! A7    A(1,3,6)              118.3788         calculate D2E/DX2 analytically  !
 ! A8    A(1,3,10)             121.0036         calculate D2E/DX2 analytically  !
 ! A9    A(6,3,10)             120.6176         calculate D2E/DX2 analytically  !
 ! A10   A(2,4,7)              118.6297         calculate D2E/DX2 analytically  !
 ! A11   A(2,4,12)             119.818          calculate D2E/DX2 analytically  !
 ! A12   A(7,4,12)             121.5523         calculate D2E/DX2 analytically  !
 ! A13   A(3,6,7)              120.6566         calculate D2E/DX2 analytically  !
 ! A14   A(3,6,8)              119.3621         calculate D2E/DX2 analytically  !
 ! A15   A(7,6,8)              119.9813         calculate D2E/DX2 analytically  !
 ! A16   A(4,7,6)              120.7815         calculate D2E/DX2 analytically  !
 ! A17   A(4,7,11)             119.5252         calculate D2E/DX2 analytically  !
 ! A18   A(6,7,11)             119.6932         calculate D2E/DX2 analytically  !
 ! A19   A(4,12,13)            111.157          calculate D2E/DX2 analytically  !
 ! A20   A(4,12,14)            111.157          calculate D2E/DX2 analytically  !
 ! A21   A(4,12,15)            111.4333         calculate D2E/DX2 analytically  !
 ! A22   A(13,12,14)           107.2152         calculate D2E/DX2 analytically  !
 ! A23   A(13,12,15)           107.8455         calculate D2E/DX2 analytically  !
 ! A24   A(14,12,15)           107.8455         calculate D2E/DX2 analytically  !
 ! D1    D(3,1,2,4)              0.0            calculate D2E/DX2 analytically  !
 ! D2    D(3,1,2,5)           -180.0            calculate D2E/DX2 analytically  !
 ! D3    D(9,1,2,4)            180.0            calculate D2E/DX2 analytically  !
 ! D4    D(9,1,2,5)              0.0            calculate D2E/DX2 analytically  !
 ! D5    D(2,1,3,6)              0.0            calculate D2E/DX2 analytically  !
 ! D6    D(2,1,3,10)          -180.0            calculate D2E/DX2 analytically  !
 ! D7    D(9,1,3,6)           -180.0            calculate D2E/DX2 analytically  !
 ! D8    D(9,1,3,10)             0.0            calculate D2E/DX2 analytically  !
 ! D9    D(1,2,4,7)              0.0            calculate D2E/DX2 analytically  !
 ! D10   D(1,2,4,12)          -179.9999         calculate D2E/DX2 analytically  !
 ! D11   D(5,2,4,7)           -180.0            calculate D2E/DX2 analytically  !
 ! D12   D(5,2,4,12)             0.0001         calculate D2E/DX2 analytically  !
 ! D13   D(1,3,6,7)              0.0            calculate D2E/DX2 analytically  !
 ! D14   D(1,3,6,8)           -179.9999         calculate D2E/DX2 analytically  !
 ! D15   D(10,3,6,7)           180.0            calculate D2E/DX2 analytically  !
 ! D16   D(10,3,6,8)             0.0001         calculate D2E/DX2 analytically  !
 ! D17   D(2,4,7,6)              0.0            calculate D2E/DX2 analytically  !
 ! D18   D(2,4,7,11)          -180.0            calculate D2E/DX2 analytically  !
 ! D19   D(12,4,7,6)           179.9999         calculate D2E/DX2 analytically  !
 ! D20   D(12,4,7,11)           -0.0001         calculate D2E/DX2 analytically  !
 ! D21   D(2,4,12,13)          -59.6714         calculate D2E/DX2 analytically  !
 ! D22   D(2,4,12,14)           59.6736         calculate D2E/DX2 analytically  !
 ! D23   D(2,4,12,15)         -179.9989         calculate D2E/DX2 analytically  !
 ! D24   D(7,4,12,13)          120.3287         calculate D2E/DX2 analytically  !
 ! D25   D(7,4,12,14)         -120.3263         calculate D2E/DX2 analytically  !
 ! D26   D(7,4,12,15)            0.0012         calculate D2E/DX2 analytically  !
 ! D27   D(3,6,7,4)              0.0001         calculate D2E/DX2 analytically  !
 ! D28   D(3,6,7,11)           180.0            calculate D2E/DX2 analytically  !
 ! D29   D(8,6,7,4)            180.0            calculate D2E/DX2 analytically  !
 ! D30   D(8,6,7,11)            -0.0001         calculate D2E/DX2 analytically  !
 --------------------------------------------------------------------------------
 Trust Radius=3.00D-01 FncErr=1.00D-07 GrdErr=1.00D-07 EigMax=2.50D+02 EigMin=1.00D-04
 Number of steps in this run=      2 maximum allowed number of steps=      2.
 GradGradGradGradGradGradGradGradGradGradGradGradGradGradGradGradGradGrad

                          Input orientation:                          
 ---------------------------------------------------------------------
 Center     Atomic      Atomic             Coordinates (Angstroms)
 Number     Number       Type             X           Y           Z
 ---------------------------------------------------------------------
      1          6           0       -0.451110    0.013598   -0.000121
      2          6           0        0.215248    1.237565    0.000043
      3          6           0        0.245629   -1.196694   -0.000174
      4          6           0        1.619849    1.273890    0.000159
      5          1           0       -0.344968    2.168203    0.000082
      6          6           0        1.642487   -1.158913   -0.000058
      7          6           0        2.322453    0.062377    0.000106
      8          1           0        2.200965   -2.091640   -0.000098
      9         53           0       -2.604257   -0.011158   -0.000296
     10          1           0       -0.281418   -2.144844   -0.000302
     11          1           0        3.409787    0.073496    0.000195
     12          6           0        2.337799    2.605233    0.000339
     13          1           0        2.071058    3.199105   -0.882813
     14          1           0        2.070946    3.198926    0.883579
     15          1           0        3.424771    2.473633    0.000395
 ---------------------------------------------------------------------
                    Distance matrix (angstroms):
                    1          2          3          4          5
     1  C    0.000000
     2  C    1.393603   0.000000
     3  C    1.396514   2.434449   0.000000
     4  C    2.424295   1.405071   2.827060   0.000000
     5  H    2.157218   1.086245   3.416334   2.158773   0.000000
     6  C    2.399569   2.789286   1.397369   2.432908   3.875523
     7  C    2.773992   2.412754   2.428674   1.400506   3.398476
     8  H    3.386079   3.876426   2.150411   3.415331   4.962664
     9  I    2.153289   3.083653   3.086640   4.415249   3.139108
    10  H    2.165102   3.418679   1.084789   3.911848   4.313515
    11  H    3.861362   3.400020   3.409586   2.155185   4.299533
    12  C    3.807176   2.525022   4.339565   1.512589   2.718131
    13  H    4.157876   2.840969   4.840898   2.165567   2.771181
    14  H    4.157885   2.840984   4.840896   2.165568   2.771209
    15  H    4.590667   3.439317   4.855743   2.167286   3.782092
                    6          7          8          9         10
     6  C    0.000000
     7  C    1.397821   0.000000
     8  H    1.087142   2.157440   0.000000
     9  I    4.399111   4.927259   5.236274   0.000000
    10  H    2.161821   3.413498   2.482953   3.154076   0.000000
    11  H    2.154572   1.087391   2.479731   6.014640   4.306510
    12  C    3.827826   2.542902   4.698866   5.591907   5.424346
    13  H    4.467130   3.268304   5.365449   5.739616   5.905147
    14  H    4.467119   3.268290   5.365434   5.739634   5.905145
    15  H    4.046224   2.651275   4.726459   6.520994   5.921669
                   11         12         13         14         15
    11  H    0.000000
    12  C    2.749336   0.000000
    13  H    3.513023   1.097175   0.000000
    14  H    3.513001   1.097176   1.766392   0.000000
    15  H    2.400184   1.094909   1.771695   1.771696   0.000000
 Symmetry turned off by external request.
 Stoichiometry    C7H7I
 Framework group  C1[X(C7H7I)]
 Deg. of freedom    39
 Full point group                 C1      NOp   1
 Rotational constants (GHZ):           3.1416745           0.5635784           0.4792817
 Basis read from chk: "ARYLHALIDE-m-ch3-gen-volume.chk" (5D, 7F)
 Pseudo-potential data read from chk file.
   151 basis functions,   271 primitive gaussians,   158 cartesian basis functions
    28 alpha electrons       28 beta electrons
       nuclear repulsion energy       307.1698650703 Hartrees.
 NAtoms=   15 NActive=   15 NUniq=   15 SFac= 1.00D+00 NAtFMM=   60 NAOKFM=F Big=F
 Integral buffers will be    131072 words long.
 Raffenetti 2 integral format.
 Two-electron integral symmetry is turned off.
 Nuclear repulsion after empirical dispersion term =      307.1590445361 Hartrees.
 One-electron integrals computed using PRISM.
   1 Symmetry operations used in ECPInt.
 ECPInt:  NShTT=    1485 NPrTT=    7534 LenC2=    1483 LenP2D=    5759.
 LDataN:  DoStor=T MaxTD1= 6 Len=  172
 NBasis=   151 RedAO= T EigKep=  4.04D-06  NBF=   151
 NBsUse=   151 1.00D-06 EigRej= -1.00D+00 NBFU=   151
 Defaulting to unpruned grid for atomic number  53.
 Initial guess from the checkpoint file:  "ARYLHALIDE-m-ch3-gen-volume.chk"
 B after Tr=     0.000000    0.000000    0.000000
         Rot=    1.000000    0.000000    0.000000    0.000000 Ang=   0.00 deg.
 Requested convergence on RMS density matrix=1.00D-08 within1000 cycles.
 Requested convergence on MAX density matrix=1.00D-06.
 Requested convergence on             energy=1.00D-06.
 No special actions if energy rises.
 Defaulting to unpruned grid for atomic number  53.
 Defaulting to unpruned grid for atomic number  53.
 Defaulting to unpruned grid for atomic number  53.
 Defaulting to unpruned grid for atomic number  53.
 Defaulting to unpruned grid for atomic number  53.
 Defaulting to unpruned grid for atomic number  53.
 Defaulting to unpruned grid for atomic number  53.
 Defaulting to unpruned grid for atomic number  53.
 Defaulting to unpruned grid for atomic number  53.
 Defaulting to unpruned grid for atomic number  53.
 Defaulting to unpruned grid for atomic number  53.
 Defaulting to unpruned grid for atomic number  53.
 Defaulting to unpruned grid for atomic number  53.
 Defaulting to unpruned grid for atomic number  53.
 Defaulting to unpruned grid for atomic number  53.
 Defaulting to unpruned grid for atomic number  53.
 Defaulting to unpruned grid for atomic number  53.
 Defaulting to unpruned grid for atomic number  53.
 Defaulting to unpruned grid for atomic number  53.
 Defaulting to unpruned grid for atomic number  53.
 Defaulting to unpruned grid for atomic number  53.
 Defaulting to unpruned grid for atomic number  53.
 Defaulting to unpruned grid for atomic number  53.
 Defaulting to unpruned grid for atomic number  53.
 Defaulting to unpruned grid for atomic number  53.
 Defaulting to unpruned grid for atomic number  53.
 Defaulting to unpruned grid for atomic number  53.
 Defaulting to unpruned grid for atomic number  53.
 Defaulting to unpruned grid for atomic number  53.
 Defaulting to unpruned grid for atomic number  53.
 Defaulting to unpruned grid for atomic number  53.
 Defaulting to unpruned grid for atomic number  53.
 SCF Done:  E(RB3LYP) =  -282.392059235     A.U. after    1 cycles
            NFock=  1  Conv=0.13D-08     -V/T= 2.0362
 DoSCS=F DFT=T ScalE2(SS,OS)=  1.000000  1.000000
 Range of M.O.s used for correlation:     1   151
 NBasis=   151 NAE=    28 NBE=    28 NFC=     0 NFV=     0
 NROrb=    151 NOA=    28 NOB=    28 NVA=   123 NVB=   123

 **** Warning!!: The largest alpha MO coefficient is  0.15372627D+03

   1 Symmetry operations used in ECPInt.
 ECPInt:  NShTT=    1485 NPrTT=    7534 LenC2=    1483 LenP2D=    5759.
 LDataN:  DoStor=T MaxTD1= 7 Len=  274
 Symmetrizing basis deriv contribution to polar:
 IMax=3 JMax=2 DiffMx= 0.00D+00
 G2DrvN: will do    16 centers at a time, making    1 passes.
 Calling FoFCou, ICntrl=  3107 FMM=F I1Cent=   0 AccDes= 0.00D+00.
 Defaulting to unpruned grid for atomic number  53.
 Defaulting to unpruned grid for atomic number  53.
 Defaulting to unpruned grid for atomic number  53.
 Defaulting to unpruned grid for atomic number  53.
 Defaulting to unpruned grid for atomic number  53.
 Defaulting to unpruned grid for atomic number  53.
 Defaulting to unpruned grid for atomic number  53.
 Defaulting to unpruned grid for atomic number  53.
 Defaulting to unpruned grid for atomic number  53.
 Defaulting to unpruned grid for atomic number  53.
 Defaulting to unpruned grid for atomic number  53.
 Defaulting to unpruned grid for atomic number  53.
 Defaulting to unpruned grid for atomic number  53.
 Defaulting to unpruned grid for atomic number  53.
 Defaulting to unpruned grid for atomic number  53.
 Defaulting to unpruned grid for atomic number  53.
 Defaulting to unpruned grid for atomic number  53.
 Defaulting to unpruned grid for atomic number  53.
 Defaulting to unpruned grid for atomic number  53.
 Defaulting to unpruned grid for atomic number  53.
 Defaulting to unpruned grid for atomic number  53.
 Defaulting to unpruned grid for atomic number  53.
 Defaulting to unpruned grid for atomic number  53.
 Defaulting to unpruned grid for atomic number  53.
 Defaulting to unpruned grid for atomic number  53.
 Defaulting to unpruned grid for atomic number  53.
 Defaulting to unpruned grid for atomic number  53.
 Defaulting to unpruned grid for atomic number  53.
 Defaulting to unpruned grid for atomic number  53.
 Defaulting to unpruned grid for atomic number  53.
 Defaulting to unpruned grid for atomic number  53.
 Defaulting to unpruned grid for atomic number  53.
 End of G2Drv F.D. properties file   721 does not exist.
 End of G2Drv F.D. properties file   722 does not exist.
 End of G2Drv F.D. properties file   788 does not exist.
          IDoAtm=111111111111111
          Differentiating once with respect to electric field.
                with respect to dipole field.
          Differentiating once with respect to nuclear coordinates.
 Defaulting to unpruned grid for atomic number  53.
 Keep R1 ints in memory in canonical form, NReq=97271379.
 Defaulting to unpruned grid for atomic number  53.
 Defaulting to unpruned grid for atomic number  53.
 Defaulting to unpruned grid for atomic number  53.
 Defaulting to unpruned grid for atomic number  53.
 Defaulting to unpruned grid for atomic number  53.
 Defaulting to unpruned grid for atomic number  53.
 Defaulting to unpruned grid for atomic number  53.
 Defaulting to unpruned grid for atomic number  53.
 Defaulting to unpruned grid for atomic number  53.
 Defaulting to unpruned grid for atomic number  53.
 Defaulting to unpruned grid for atomic number  53.
 Defaulting to unpruned grid for atomic number  53.
 Defaulting to unpruned grid for atomic number  53.
 Defaulting to unpruned grid for atomic number  53.
 Defaulting to unpruned grid for atomic number  53.
 Defaulting to unpruned grid for atomic number  53.
 Defaulting to unpruned grid for atomic number  53.
 Defaulting to unpruned grid for atomic number  53.
 Defaulting to unpruned grid for atomic number  53.
 Defaulting to unpruned grid for atomic number  53.
 Defaulting to unpruned grid for atomic number  53.
 Defaulting to unpruned grid for atomic number  53.
 Defaulting to unpruned grid for atomic number  53.
 Defaulting to unpruned grid for atomic number  53.
 Defaulting to unpruned grid for atomic number  53.
 Defaulting to unpruned grid for atomic number  53.
 Defaulting to unpruned grid for atomic number  53.
 Defaulting to unpruned grid for atomic number  53.
 Defaulting to unpruned grid for atomic number  53.
 Defaulting to unpruned grid for atomic number  53.
 Defaulting to unpruned grid for atomic number  53.
 Defaulting to unpruned grid for atomic number  53.
          There are    48 degrees of freedom in the 1st order CPHF.  IDoFFX=6 NUNeed=     3.
     45 vectors produced by pass  0 Test12= 7.18D-15 2.08D-09 XBig12= 1.72D+02 6.10D+00.
 AX will form    45 AO Fock derivatives at one time.
     45 vectors produced by pass  1 Test12= 7.18D-15 2.08D-09 XBig12= 2.61D+01 1.35D+00.
     45 vectors produced by pass  2 Test12= 7.18D-15 2.08D-09 XBig12= 1.76D-01 9.52D-02.
     45 vectors produced by pass  3 Test12= 7.18D-15 2.08D-09 XBig12= 6.52D-04 4.67D-03.
     45 vectors produced by pass  4 Test12= 7.18D-15 2.08D-09 XBig12= 1.06D-06 1.53D-04.
     38 vectors produced by pass  5 Test12= 7.18D-15 2.08D-09 XBig12= 1.25D-09 7.35D-06.
      4 vectors produced by pass  6 Test12= 7.18D-15 2.08D-09 XBig12= 1.04D-12 2.07D-07.
      2 vectors produced by pass  7 Test12= 7.18D-15 2.08D-09 XBig12= 8.13D-16 3.69D-09.
 InvSVY:  IOpt=1 It=  1 EMax= 7.11D-15
 Solved reduced A of dimension   269 with    48 vectors.
 Isotropic polarizability for W=    0.000000      108.87 Bohr**3.
 End of Minotr F.D. properties file   721 does not exist.
 End of Minotr F.D. properties file   722 does not exist.
 End of Minotr F.D. properties file   788 does not exist.

 **********************************************************************

            Population analysis using the SCF Density.

 **********************************************************************

 Alpha  occ. eigenvalues --  -10.24617 -10.21402 -10.20531 -10.20430 -10.20417
 Alpha  occ. eigenvalues --  -10.19918 -10.19011  -0.87629  -0.79116  -0.76970
 Alpha  occ. eigenvalues --   -0.70340  -0.68950  -0.61564  -0.58838  -0.52161
 Alpha  occ. eigenvalues --   -0.47998  -0.45773  -0.43364  -0.42777  -0.41245
 Alpha  occ. eigenvalues --   -0.40029  -0.37758  -0.36126  -0.33989  -0.29604
 Alpha  occ. eigenvalues --   -0.26912  -0.26128  -0.24331
 Alpha virt. eigenvalues --   -0.04399  -0.02851  -0.02309   0.00308   0.01600
 Alpha virt. eigenvalues --    0.02085   0.03799   0.03980   0.04363   0.05599
 Alpha virt. eigenvalues --    0.06065   0.06536   0.06729   0.07938   0.08757
 Alpha virt. eigenvalues --    0.09318   0.10685   0.11582   0.12127   0.12229
 Alpha virt. eigenvalues --    0.12941   0.13789   0.14501   0.15473   0.16835
 Alpha virt. eigenvalues --    0.16929   0.18419   0.18595   0.18834   0.20513
 Alpha virt. eigenvalues --    0.21254   0.22405   0.22562   0.22682   0.23147
 Alpha virt. eigenvalues --    0.24416   0.25621   0.26540   0.27306   0.28358
 Alpha virt. eigenvalues --    0.28994   0.30617   0.32909   0.33363   0.34754
 Alpha virt. eigenvalues --    0.35915   0.37490   0.53502   0.54799   0.62700
 Alpha virt. eigenvalues --    0.64747   0.65670   0.66999   0.68032   0.70029
 Alpha virt. eigenvalues --    0.71134   0.71443   0.71609   0.72450   0.73362
 Alpha virt. eigenvalues --    0.75105   0.76380   0.77539   0.79167   0.81183
 Alpha virt. eigenvalues --    0.84128   0.85524   0.87259   0.90722   0.94034
 Alpha virt. eigenvalues --    0.94502   0.96888   1.00291   1.04040   1.07200
 Alpha virt. eigenvalues --    1.09310   1.11781   1.14380   1.16307   1.21270
 Alpha virt. eigenvalues --    1.21885   1.23581   1.28566   1.32012   1.36727
 Alpha virt. eigenvalues --    1.39841   1.43078   1.46718   1.46937   1.47506
 Alpha virt. eigenvalues --    1.48974   1.49547   1.73801   1.80883   1.82381
 Alpha virt. eigenvalues --    1.85725   1.88603   1.90696   1.96387   2.02383
 Alpha virt. eigenvalues --    2.08097   2.10654   2.12214   2.14336   2.14825
 Alpha virt. eigenvalues --    2.18727   2.23778   2.29070   2.30507   2.35081
 Alpha virt. eigenvalues --    2.36069   2.40884   2.54697   2.58803   2.63283
 Alpha virt. eigenvalues --    2.68298   2.72274   2.74528   2.77241   2.93459
 Alpha virt. eigenvalues --    3.04508   3.36196  15.05640
          Condensed to atoms (all electrons):
               1          2          3          4          5          6
     1  C    7.494961  -0.949007  -0.279265   0.153035  -0.013593  -0.041891
     2  C   -0.949007   8.972305   0.011405  -0.448188   0.120954  -0.477386
     3  C   -0.279265   0.011405   6.836080  -0.410258   0.052451   0.334048
     4  C    0.153035  -0.448188  -0.410258   7.236055   0.055676   0.033462
     5  H   -0.013593   0.120954   0.052451   0.055676   0.522088  -0.023430
     6  C   -0.041891  -0.477386   0.334048   0.033462  -0.023430   5.668157
     7  C   -0.260486  -1.417462  -0.639913  -0.030158   0.091213   0.414437
     8  H    0.026897  -0.017345  -0.018437   0.000406   0.000014   0.308458
     9  I   -0.661394   0.338325   0.176012   0.020299  -0.004758   0.111500
    10  H   -0.015292   0.059027   0.272320  -0.002822  -0.000150  -0.019202
    11  H   -0.013136   0.059570   0.013329   0.035062  -0.000142   0.008706
    12  C   -0.270031   0.091516   0.065885  -0.655257   0.006074  -0.058130
    13  H   -0.007684  -0.009727   0.005411  -0.088098   0.000853  -0.004974
    14  H   -0.007685  -0.009730   0.005410  -0.088093   0.000853  -0.004974
    15  H   -0.014246   0.041728   0.000791  -0.152069   0.000110  -0.000875
               7          8          9         10         11         12
     1  C   -0.260486   0.026897  -0.661394  -0.015292  -0.013136  -0.270031
     2  C   -1.417462  -0.017345   0.338325   0.059027   0.059570   0.091516
     3  C   -0.639913  -0.018437   0.176012   0.272320   0.013329   0.065885
     4  C   -0.030158   0.000406   0.020299  -0.002822   0.035062  -0.655257
     5  H    0.091213   0.000014  -0.004758  -0.000150  -0.000142   0.006074
     6  C    0.414437   0.308458   0.111500  -0.019202   0.008706  -0.058130
     7  C    7.950507  -0.004314   0.041094   0.007174   0.189410   0.285391
     8  H   -0.004314   0.532740  -0.000624  -0.005414  -0.004970  -0.001226
     9  I    0.041094  -0.000624   6.921716  -0.003787   0.000158   0.002299
    10  H    0.007174  -0.005414  -0.003787   0.510870  -0.000141   0.001972
    11  H    0.189410  -0.004970   0.000158  -0.000141   0.545264  -0.014480
    12  C    0.285391  -0.001226   0.002299   0.001972  -0.014480   6.202034
    13  H    0.021983   0.000002  -0.000077   0.000000   0.000135   0.416981
    14  H    0.021982   0.000002  -0.000077   0.000000   0.000135   0.416980
    15  H   -0.007500  -0.000003   0.000111   0.000000   0.004270   0.472153
              13         14         15
     1  C   -0.007684  -0.007685  -0.014246
     2  C   -0.009727  -0.009730   0.041728
     3  C    0.005411   0.005410   0.000791
     4  C   -0.088098  -0.088093  -0.152069
     5  H    0.000853   0.000853   0.000110
     6  C   -0.004974  -0.004974  -0.000875
     7  C    0.021983   0.021982  -0.007500
     8  H    0.000002   0.000002  -0.000003
     9  I   -0.000077  -0.000077   0.000111
    10  H    0.000000   0.000000   0.000000
    11  H    0.000135   0.000135   0.004270
    12  C    0.416981   0.416980   0.472153
    13  H    0.497641  -0.032190  -0.025813
    14  H   -0.032190   0.497641  -0.025813
    15  H   -0.025813  -0.025813   0.500448
 Mulliken charges:
               1
     1  C    0.858818
     2  C   -0.365984
     3  C   -0.425269
     4  C    0.340948
     5  H    0.191786
     6  C   -0.247905
     7  C   -0.663356
     8  H    0.183813
     9  I    0.059205
    10  H    0.195444
    11  H    0.176833
    12  C   -0.962161
    13  H    0.225559
    14  H    0.225560
    15  H    0.206710
 Sum of Mulliken charges =   0.00000
 Mulliken charges with hydrogens summed into heavy atoms:
               1
     1  C    0.858818
     2  C   -0.174197
     3  C   -0.229825
     4  C    0.340948
     6  C   -0.064092
     7  C   -0.486524
     9  I    0.059205
    12  C   -0.304333
 APT charges:
               1
     1  C    0.396658
     2  C   -0.220129
     3  C   -0.208868
     4  C    0.120811
     5  H    0.051081
     6  C    0.040957
     7  C   -0.096471
     8  H    0.014529
     9  I   -0.197739
    10  H    0.056844
    11  H    0.024233
    12  C    0.069470
    13  H   -0.017214
    14  H   -0.017215
    15  H   -0.016947
 Sum of APT charges =   0.00000
 APT charges with hydrogens summed into heavy atoms:
               1
     1  C    0.396658
     2  C   -0.169048
     3  C   -0.152024
     4  C    0.120811
     6  C    0.055486
     7  C   -0.072238
     9  I   -0.197739
    12  C    0.018094
 Electronic spatial extent (au):  <R**2>=           1212.7610
 Charge=              0.0000 electrons
 Dipole moment (field-independent basis, Debye):
    X=              2.0735    Y=              0.4596    Z=              0.0002  Tot=              2.1238
 Quadrupole moment (field-independent basis, Debye-Ang):
   XX=            -59.4615   YY=            -56.8083   ZZ=            -66.5244
   XY=              0.8593   XZ=              0.0005   YZ=              0.0009
 Traceless Quadrupole moment (field-independent basis, Debye-Ang):
[...]
 ! D19   D(12,4,7,6)           179.9999         -DE/DX =    0.0                 !
 ! D20   D(12,4,7,11)           -0.0001         -DE/DX =    0.0                 !
 ! D21   D(2,4,12,13)          -59.6714         -DE/DX =    0.0                 !
 ! D22   D(2,4,12,14)           59.6736         -DE/DX =    0.0                 !
 ! D23   D(2,4,12,15)         -179.9989         -DE/DX =    0.0                 !
 ! D24   D(7,4,12,13)          120.3287         -DE/DX =    0.0                 !
 ! D25   D(7,4,12,14)         -120.3263         -DE/DX =    0.0                 !
 ! D26   D(7,4,12,15)            0.0012         -DE/DX =    0.0                 !
 ! D27   D(3,6,7,4)              0.0001         -DE/DX =    0.0                 !
 ! D28   D(3,6,7,11)          -180.0            -DE/DX =    0.0                 !
 ! D29   D(8,6,7,4)            180.0            -DE/DX =    0.0                 !
 ! D30   D(8,6,7,11)            -0.0001         -DE/DX =    0.0                 !
 --------------------------------------------------------------------------------
 GradGradGradGradGradGradGradGradGradGradGradGradGradGradGradGradGradGrad


 ----------------------------------------------------------------------

 Electric dipole moment (input orientation):
 (Debye = 10**-18 statcoulomb cm , SI units = C m)
                  (au)            (Debye)         (10**-30 SI)
   Tot        0.835569D+00      0.212381D+01      0.708425D+01
   x          0.815773D+00      0.207349D+01      0.691641D+01
   y          0.180807D+00      0.459565D+00      0.153294D+01
   z          0.831530D-04      0.211354D-03      0.705001D-03

 Dipole polarizability, Alpha (input orientation).
 (esu units = cm**3 , SI units = C**2 m**2 J**-1)
 Alpha(0;0):
               (au)            (10**-24 esu)      (10**-40 SI)
   iso        0.108870D+03      0.161328D+02      0.179502D+02
   aniso      0.763440D+02      0.113130D+02      0.125874D+02
   xx         0.151737D+03      0.224851D+02      0.250181D+02
   yx         0.740522D+01      0.109734D+01      0.122096D+01
   yy         0.110014D+03      0.163023D+02      0.181388D+02
   zx         0.766362D-02      0.113563D-02      0.126356D-02
   zy         0.470737D-02      0.697560D-03      0.776140D-03
   zz         0.648583D+02      0.961101D+01      0.106937D+02

 ----------------------------------------------------------------------

 Dipole orientation:
     6         -0.04520167          0.20461944         -0.82671675
     6         -0.47501273          2.14322392          0.90317948
     6          0.49980207         -2.25352681         -0.03617001
     6         -0.36519096          1.64791065          3.50945728
     1         -0.89625229          4.04315081          0.25015712
     6          0.60835611         -2.74312656          2.55641769
     6          0.18082019         -0.81477615          4.31032539
     1          1.03027731         -4.64612207          3.20537930
    53         -0.22590113          1.01960418         -4.80929666
     1          0.83179632         -3.75094124         -1.39625861
     1          0.27262379         -1.22883234          6.32095315
     6         -0.83332018          3.75932495          5.37844584
     1          0.53533936          5.29664933          5.12899711
     1         -2.72351081          4.57407036          5.12904947
     1         -0.68451645          3.08835399          7.33004602

 Electric dipole moment (dipole orientation):
 (Debye = 10**-18 statcoulomb cm , SI units = C m)
                  (au)            (Debye)         (10**-30 SI)
   Tot        0.835569D+00      0.212381D+01      0.708425D+01
   x          0.000000D+00      0.000000D+00      0.000000D+00
   y          0.000000D+00      0.000000D+00      0.000000D+00
   z          0.835569D+00      0.212381D+01      0.708425D+01

 Dipole polarizability, Alpha (dipole orientation).
 (esu units = cm**3 , SI units = C**2 m**2 J**-1)
 Alpha(0;0):
               (au)            (10**-24 esu)      (10**-40 SI)
   iso        0.108870D+03      0.161328D+02      0.179502D+02
   aniso      0.763440D+02      0.113130D+02      0.125874D+02
   xx         0.669190D+02      0.991637D+01      0.110334D+02
   yx        -0.929411D+01     -0.137724D+01     -0.153239D+01
   yy         0.106778D+03      0.158228D+02      0.176053D+02
   zx         0.455284D+00      0.674662D-01      0.750662D-01
   zy        -0.205296D+01     -0.304217D+00     -0.338487D+00
   zz         0.152912D+03      0.226593D+02      0.252119D+02

 ----------------------------------------------------------------------
 1\1\GINC-IP-172-31-38-84\Freq\RB3LYP\Gen\C7H7I1\UBUNTU\13-Sep-2023\0\\
 #N Geom=AllCheck Guess=TCheck SCRF=Check GenChk RB3LYP/ChkBas Freq\\re
 ac1\\0,1\C,-0.45111,0.013598,-0.000121\C,0.215248,1.237565,0.000043\C,
 0.245629,-1.196694,-0.000174\C,1.619849,1.27389,0.000159\H,-0.344968,2
 .168203,0.000082\C,1.642487,-1.158913,-0.000058\C,2.322453,0.062377,0.
 000106\H,2.200965,-2.09164,-0.000098\I,-2.604257,-0.011158,-0.000296\H
 ,-0.281418,-2.144844,-0.000302\H,3.409787,0.073496,0.000195\C,2.337799
 ,2.605233,0.000339\H,2.071058,3.199105,-0.882813\H,2.070946,3.198926,0
 .883579\H,3.424771,2.473633,0.000395\\Version=EM64L-G16RevB.01\HF=-282
 .3920592\RMSD=1.330e-09\RMSF=7.114e-05\ZeroPoint=0.1175661\Thermal=0.1
 244699\Dipole=0.8157726,0.1808068,0.0000832\DipoleDeriv=1.2556181,0.05
 52417,0.0001141,-0.0007968,0.0293794,0.0000111,0.0001085,0.0000154,-0.
 095024,-0.498932,-0.2553235,-0.0000565,0.0064498,-0.0684363,0.0000026,
 -0.0000327,-0.0000183,-0.0930195,-0.4859567,0.0841399,-0.000023,-0.067
 5878,-0.0329908,0.0000013,-0.0000367,0.0000133,-0.107657,0.1125165,0.1
 975943,0.0000316,0.070475,0.3012744,0.0000392,0.0000221,0.0000517,-0.0
 513579,0.056969,0.0652977,0.000001,0.0527742,-0.0222872,-0.0000084,0.,
 -0.0000071,0.1185608,0.1176361,-0.062087,0.0000117,0.1041619,0.108545,
 0.0000275,0.0000266,0.0000146,-0.1033104,0.0357636,-0.0056586,0.000014
 7,-0.095007,-0.178347,-0.0000112,0.0000069,-0.0000037,-0.1468299,-0.02
 52156,0.0774596,-0.000006,0.0687828,-0.0674419,-0.0000128,-0.0000063,-
 0.0000125,0.1362459,-0.5072908,-0.0280688,-0.0000405,-0.0055833,-0.050
 7472,-0.0000018,-0.0000384,-0.0000036,-0.0351802,0.0502943,-0.0673048,
 -0.0000127,-0.0485135,-0.0121088,-0.0000169,-0.000011,-0.0000184,0.132
 3468,-0.129354,-0.0085773,-0.0000217,-0.0243526,0.070328,-0.0000074,-0
 .0000234,-0.000006,0.1317257,0.1048837,0.0087667,-0.0000007,-0.0278995
 ,-0.0177558,-0.0000148,-0.0000075,-0.0000178,0.1212816,0.0339578,-0.00
 8483,-0.0598945,-0.0430655,-0.0427713,0.0595374,-0.0206874,0.1094231,-
 0.0428279,0.0339475,-0.0084831,0.0599018,-0.0430635,-0.0427397,-0.0595
 439,0.0206891,-0.1094234,-0.0428523,-0.1548376,-0.0445137,-0.0000196,0
 .0532259,0.0260992,-0.0000019,-0.0000097,-0.0000073,0.0778981\Polar=15
 1.7372153,7.4052173,110.0135476,0.0076636,0.0047074,64.8583273\Quadrup
 ole=1.0928421,3.0654117,-4.1582538,0.6388565,0.0003523,0.0006796\PG=C0
 1 [X(C7H7I1)]\NImag=1\\0.42787628,-0.00105577,0.63842255,0.00002606,0.
 00004826,0.10268548,-0.14809753,-0.05956779,-0.00001274,0.65780878,-0.
 11699392,-0.29131574,-0.00003063,-0.03407873,0.72962598,-0.00001795,-0
 .00002610,-0.05620735,0.00003946,0.00005153,0.12871906,-0.15004907,0.0
 6012697,-0.00000205,0.05887357,0.02348341,0.00000632,0.66968851,0.1176
 9471,-0.28163897,-0.00001076,-0.02120175,-0.05455326,-0.00000714,0.048
 73247,0.72585283,0.00000314,-0.00001540,-0.05733527,0.00000235,-0.0000
 0357,0.00612211,0.00004819,0.00005804,0.12608157,-0.02741755,-0.085455
 56,-0.00001049,-0.30925879,0.03657933,-0.00001624,-0.05152575,0.031064
 50,-0.00000102,0.64738258,-0.02594337,0.03014920,-0.00000003,-0.033892
 11,-0.12210213,-0.00000772,0.02942591,-0.01469192,0.00000141,-0.018295
 40,0.64975622,-0.00000515,-0.00000474,0.00709542,-0.00002260,-0.000002
 15,-0.06632782,-0.00000113,0.00000157,-0.00417511,0.00003672,0.0000420
 1,0.17164194,0.00915264,-0.01588296,-0.00000081,-0.13212097,0.12697993
 ,0.00000376,-0.00107170,-0.00314575,-0.00000086,-0.01210242,0.02794889
 ,0.00000121,0.14156323,0.01609322,-0.01993124,-0.00000064,0.12379976,-
 0.26448349,-0.00001064,-0.00421722,-0.00280442,-0.00000114,-0.00138545
 ,0.00360425,-0.00000017,-0.13222899,0.28113394,0.00000204,-0.00000323,
 0.00127873,0.00000346,-0.00001039,-0.03620160,-0.00000096,-0.00000105,
 0.00611032,-0.00000142,0.00000221,0.00429763,-0.00000250,0.00001255,0.
 02435504,-0.03219794,0.08151565,0.00000405,-0.04756702,-0.02915308,-0.
 00000608,-0.33617180,-0.04283041,-0.00002607,0.06533868,-0.02074434,0.
 00000294,-0.00078316,-0.00067979,-0.00000006,0.68412017,0.02245372,0.0
 3282092,0.00000400,-0.02730564,-0.01866035,-0.00000347,0.02722005,-0.1
 2609335,-0.00000373,0.02567599,-0.05734585,-0.00000364,-0.00086472,0.0
 0036195,0.00000003,-0.02928062,0.71811110,-0.00000125,0.00000874,0.008
 56620,-0.00000594,-0.00000364,-0.00404444,-0.00001971,-0.00000933,-0.0
 6094062,0.00000705,-0.00000740,0.00597906,-0.00000008,0.00000005,-0.00
 076639,0.00004154,0.00005053,0.13280858,-0.00078190,-0.00002545,0.0000
 0041,-0.02891380,0.02724926,-0.00000051,-0.02593536,-0.02829663,-0.000
 00522,-0.17763815,0.12056057,0.00000186,-0.00540284,-0.00103458,-0.000
 00104,-0.17789613,-0.12107076,-0.00002019,0.73782150,0.00213900,-0.069
 85765,-0.00000559,0.07084112,0.03360301,0.00000794,-0.07552876,0.03204
 241,-0.00000385,0.05337244,-0.27197257,-0.00001442,-0.00165657,0.00135
 319,-0.00000060,-0.05699548,-0.28816523,-0.00002493,0.00919072,0.66917
 734,0.00000061,-0.00000570,-0.00607540,0.00000336,0.00000446,0.0080306
 4,-0.00000947,-0.00000012,0.00761560,-0.00000414,-0.00000901,-0.065444
 16,-0.00000111,-0.00000054,0.00647663,-0.00001443,-0.00003006,-0.06186
 071,0.00004958,0.00004919,0.13214504,-0.00409228,-0.00092350,-0.000000
 96,-0.00087653,-0.00083517,-0.00000009,-0.01229107,0.02851352,0.000001
 30,-0.00090790,-0.00316976,-0.00000089,0.00011599,0.00008232,0.0000000
 9,-0.13317434,0.12336289,0.00000344,0.01216381,-0.01451992,-0.00000061
 ,0.13846005,-0.00038362,0.00154219,-0.00000051,-0.00084903,0.00017901,
 0.,-0.00261297,0.00420612,-0.00000016,-0.00407082,-0.00283420,-0.00000
 119,0.00010895,-0.00001923,0.00000009,0.12320594,-0.26537381,-0.000010
 91,0.01668864,-0.01833377,-0.00000063,-0.13234648,0.28004657,-0.000000
 91,-0.00000056,0.00681028,-0.00000009,0.,-0.00065781,-0.00000153,0.000
 00235,0.00365173,-0.00000096,-0.00000109,0.00662768,0.00000009,0.00000
 009,-0.00089662,0.00000345,-0.00001095,-0.03630512,0.00000221,-0.00000
 309,0.00333055,-0.00000294,0.00001251,0.02521900,-0.08149619,-0.000413
 22,-0.00000551,-0.02928994,0.00024450,-0.00000249,-0.02936276,-0.00174
 362,-0.00000268,0.00373768,-0.00397138,-0.00000036,-0.00015148,-0.0007
 1398,0.00000008,0.00287820,0.00472078,0.00000039,-0.00135101,-0.000207
 44,-0.00000009,-0.00122237,-0.00038240,-0.00000015,0.13786519,-0.00063
 650,-0.02208124,-0.00000085,-0.01744832,0.00128587,-0.00000147,0.01661
 743,0.00195801,0.00000133,0.00094085,-0.00214789,-0.00000045,-0.001963
 64,0.00000573,0.00000003,-0.00062044,-0.00213847,-0.00000055,-0.000040
 44,0.00074334,0.00000011,0.00056626,0.00007221,0.00000004,0.00145532,0
 .02186958,-0.00000548,-0.00000080,-0.01323197,-0.00000410,-0.00000005,
 0.00209378,-0.00000103,-0.00000015,0.00207674,0.00000009,-0.00000084,0
 .00365602,-0.00000007,0.00000010,-0.00173213,-0.00000009,-0.00000012,0
 .00336352,-0.00000007,0.00000009,-0.00047711,-0.00000006,-0.00000004,0
 .00015761,0.00001066,0.00000148,0.00634332,0.00927351,0.01671923,0.000
 00218,-0.00136112,0.00313902,-0.00000029,-0.12451007,-0.12424117,-0.00
 001846,-0.00095799,0.00078333,0.00000006,0.00068365,0.00080510,0.00000
 009,-0.01028580,-0.02864014,-0.00000369,-0.00517549,0.00158631,-0.0000
 0085,0.00069246,0.00030240,0.00000042,-0.00010037,0.00179072,0.0000002
 9,0.13213951,-0.01497592,-0.01930301,-0.00000303,0.00404955,-0.0025420
 7,-0.00000042,-0.12122725,-0.27759733,-0.00003166,0.00078533,0.0002524
 4,0.00000016,-0.00073768,-0.00086293,-0.00000018,0.00183145,0.00411809
 ,0.00000020,0.00058002,0.00147881,-0.00000046,-0.00027901,0.00080565,0
 .00000043,0.00060107,0.00009281,0.00000020,0.12925565,0.29336576,-0.00
 000068,-0.00000047,0.00091827,-0.00000021,-0.00000050,0.00574260,-0.00
 001818,-0.00003190,-0.03486269,0.00000007,0.00000017,-0.00086039,-0.00
 000005,-0.00000005,0.00046465,-0.00000094,-0.00000226,0.00350124,-0.00
 000093,-0.00000038,0.00706263,0.00000036,0.00000048,-0.00418441,0.0000
 0017,0.00000030,-0.00163159,0.00002037,0.00003468,0.02434152,0.0010446
 2,0.00022505,0.00000015,0.00044010,0.00307283,-0.00000018,0.00082283,-
 0.00304398,-0.00000075,-0.01369532,-0.00264222,-0.00000162,-0.00068298
 ,-0.00011496,-0.00000008,-0.01122076,0.00227277,-0.00000093,-0.3367527
 5,-0.00207939,-0.00002449,0.00077452,-0.00047813,0.00000033,-0.0001728
 6,-0.00001951,0.00000004,-0.00060947,0.00019077,-0.00000005,0.35817057
 ,0.00006951,-0.00152267,-0.00000008,0.00241614,-0.00468457,-0.00000079
 ,-0.00207002,-0.00461794,-0.00000119,0.02699684,0.00346551,0.00000218,
 0.00145323,0.00026759,0.00000012,-0.02916178,0.00405064,-0.00000224,-0
 .00281309,-0.05930980,-0.00000231,0.00025485,0.00065950,0.00000043,-0.
 00005103,0.00020123,0.00000007,-0.00139143,0.00009364,-0.00000012,0.00
 324288,0.06117914,0.00000013,-0.00000007,-0.00052399,-0.00000025,-0.00
 000074,0.00617849,-0.00000066,-0.00000126,0.00672314,0.00000108,-0.000
 00019,0.00353027,0.00000006,0.,0.00017308,-0.00000372,0.00000031,0.002
 71945,-0.00002461,-0.00000228,-0.03588740,0.00000040,0.00000037,-0.003
 88665,0.00000003,0.00000007,-0.00064177,-0.00000019,0.,0.00026368,0.00
 002720,0.00000349,0.02509784,-0.00399045,0.00193400,-0.00000060,-0.018
 59654,-0.03312752,-0.00000486,0.00053282,0.00009943,0.00000013,-0.1166
 9605,-0.05468795,-0.00000871,0.00113704,-0.00098606,0.00000024,-0.0024
 4985,0.00260997,-0.00000049,0.01110297,0.01120732,0.00000149,0.0004689
 0,0.00103706,0.00000011,-0.00110199,-0.00056542,-0.00000015,0.00010144
 ,-0.00008480,0.00000005,0.00042231,0.00211296,0.00000051,0.56996330,0.
 00197761,0.00385602,0.00000011,-0.00827559,-0.00285585,-0.00000123,0.0
 0061743,-0.00217543,-0.00000006,-0.04814867,-0.18162199,-0.00001398,0.
 00101293,0.00066157,0.00000031,0.00216329,-0.00068550,-0.00000059,-0.0
 1356883,-0.02803155,-0.00000422,-0.00050159,-0.00045108,-0.00000010,0.
 00111904,0.00029223,0.00000010,-0.00008061,0.00006776,0.00000005,-0.00
 130060,0.00106146,0.00000038,-0.03691555,0.50102806,-0.00000048,0.0000
 0010,0.00502836,-0.00000253,-0.00000322,0.00351374,0.00000014,-0.00000
 016,-0.00089504,-0.00000797,-0.00001426,-0.07154185,0.00000034,0.00000
 021,-0.00247627,-0.00000062,-0.00000047,0.00759598,-0.00000078,-0.0000
 0214,0.00593454,-0.00000001,0.00000004,0.00011554,0.00000002,-0.000000
 02,0.00010120,0.00000006,0.00000007,-0.00070271,0.00000029,0.00000062,
 -0.00428111,-0.00000081,-0.00000847,0.54226388,0.00046955,0.00103650,-
 0.00026210,-0.00023139,-0.00152317,-0.00002821,0.00038758,-0.00071257,
 0.00018323,0.00421898,-0.00908902,0.01370214,-0.00035803,0.00026484,0.
 00000085,-0.00034772,-0.00040972,-0.00029693,-0.00099515,0.00016500,0.
 00027039,-0.00004806,-0.00008698,-0.00007586,0.00001058,0.00002462,-0.
 00000194,0.00002122,0.00002967,-0.00011554,0.00027965,-0.00017503,-0.0
 0012902,-0.06540307,0.03430450,-0.05265511,0.06654844,0.00024556,-0.00
 086080,-0.00102474,0.00170889,0.00103821,-0.00054766,-0.00039206,0.000
 10089,0.00020200,0.00636353,-0.01920457,0.02239603,-0.00042542,0.00036
 149,0.00072668,0.00043003,-0.00054012,-0.00151536,-0.00287489,-0.00196
 773,0.00028464,-0.00012388,-0.00028200,-0.00001018,-0.00011531,0.00001
 737,-0.00000049,-0.00004364,0.00001377,0.00016167,-0.00001383,0.000048
 90,0.00068656,0.03496417,-0.11854842,0.11375949,-0.03566663,0.13186647
 ,0.00014112,0.00043656,0.00022541,-0.00053054,-0.00002054,0.00095625,0
 .00026074,-0.00023934,-0.00005333,0.00117447,-0.00145725,0.00340432,0.
 00036983,0.00007252,-0.00037451,-0.00017257,-0.00024189,-0.00021485,0.
 00034975,-0.00039614,-0.00033279,0.00000642,-0.00000766,0.00002262,0.0
 0006648,-0.00000926,-0.00000066,0.00002084,-0.00001138,-0.00003867,0.0
 0002841,-0.00008452,0.00008581,-0.05331976,0.11295370,-0.21795140,0.05
 929669,-0.12365559,0.23533748,0.00046953,0.00103656,0.00026240,-0.0002
 3153,-0.00152317,0.00002778,0.00038769,-0.00071260,-0.00018328,0.00422
 087,-0.00908651,-0.01370384,-0.00035796,0.00026485,-0.00000084,-0.0003
 4788,-0.00040983,0.00029682,-0.00099499,0.00016514,-0.00027051,-0.0000
 4807,-0.00008699,0.00007584,0.00001058,0.00002461,0.00000195,0.0000212
 1,0.00002964,0.00011555,0.00027962,-0.00017505,0.00012904,-0.06541638,
 0.03430768,0.05268075,0.00208717,-0.00523865,-0.00771970,0.06656344,0.
 00024543,-0.00086095,0.00102460,0.00170869,0.00103808,0.00054792,-0.00
 039200,0.00010087,-0.00020204,0.00636641,-0.01920034,-0.02239976,-0.00
 042520,0.00036162,-0.00072660,0.00042971,-0.00054040,0.00151541,-0.002
 87466,-0.00196762,-0.00028532,-0.00012387,-0.00028200,0.00001010,-0.00
 011530,0.00001737,0.00000047,-0.00004361,0.00001380,-0.00016167,-0.000
 01370,0.00004900,-0.00068660,0.03496747,-0.11850181,-0.11373376,-0.005
 24203,0.01038122,0.01434695,-0.03566988,0.13181559,-0.00014104,-0.0004
 3661,0.00022555,0.00053068,0.00002031,0.00095645,-0.00026070,0.0002392
 6,-0.00005339,-0.00117317,0.00145135,0.00339823,-0.00036988,-0.0000723
 4,-0.00037473,0.00017259,0.00024170,-0.00021445,-0.00035040,0.00039589
 ,-0.00033288,-0.00000646,0.00000758,0.00002264,-0.00006650,0.00000926,
 -0.00000066,-0.00002084,0.00001139,-0.00003869,-0.00002840,0.00008449,
 0.00008570,0.05334566,-0.11292772,-0.21798252,0.00772174,-0.01434101,-
 0.02224676,-0.05932472,0.12362888,0.23537125,-0.00016322,0.00073028,0.
 ,-0.00057727,-0.00351352,-0.00000042,0.00022459,-0.00017614,0.,-0.0146
 9887,0.00280336,-0.00000063,0.00037898,0.00005095,0.00000006,0.0001053
 7,-0.00033475,-0.00000004,0.00074929,0.00232053,0.00000025,-0.00001511
 ,-0.00004557,0.,-0.00025324,-0.00012555,-0.00000003,0.00006729,-0.0000
 4849,0.,0.00089994,-0.00070898,0.00000001,-0.31007446,0.03328896,-0.00
 001329,-0.00663976,0.00118213,0.00002783,-0.00664331,0.00118253,-0.000
 02855,0.33663979,-0.00092968,0.00058139,-0.00000010,-0.00190520,-0.005
 57271,-0.00000076,0.00021661,-0.00008851,0.00000002,-0.03078931,0.0038
 9382,-0.00000144,-0.00017300,-0.00001001,0.00000003,-0.00011013,0.0000
 8038,0.00000002,-0.00166988,0.00120784,-0.00000003,0.00004336,0.000064
 84,0.00000001,-0.00042702,-0.00018816,-0.00000005,0.00005883,0.0000028
 1,0.,0.00070202,-0.00094163,-0.00000005,0.03743493,-0.05409548,0.00000
 197,0.01708003,-0.00242468,-0.00168618,0.01707418,-0.00242444,0.001687
 57,-0.03660574,0.05991455,-0.00000016,0.00000001,0.00054027,-0.0000003
 1,-0.00000088,0.00112590,0.00000003,0.,-0.00006576,-0.00000406,0.00000
 063,-0.00128125,0.00000005,0.00000003,-0.00033384,0.00000002,0.,-0.000
 18745,-0.00000007,0.00000030,-0.00018518,0.,0.,-0.00002704,-0.00000006
 ,-0.00000002,-0.00007630,0.,0.,0.00002455,0.00000010,-0.00000015,0.000
 36342,-0.00001281,0.00000172,-0.04872233,-0.02761030,0.00287795,0.0011
 8106,0.02761278,-0.00287858,0.00118428,0.00001479,-0.00000101,0.046459
 67\\-0.00006647,-0.00013359,-0.00000005,0.00024489,0.00003819,0.000000
 05,0.00004604,0.00009121,0.,-0.00026001,-0.00003936,-0.00000003,-0.000
 00534,-0.00002170,0.,0.00007916,0.00008686,0.00000017,-0.00002608,-0.0
 0008902,-0.00000014,-0.00001814,-0.00001313,-0.00000005,-0.00009919,0.
 00000483,0.,0.00000991,0.00000437,0.,-0.00001328,0.00000583,0.00000005
 ,0.00012320,0.00011572,-0.00000052,0.00000043,-0.00002233,0.00002252,0
 .00000028,-0.00002197,-0.00002200,-0.00001539,-0.00000590,0.00000001\\
 \@


 THE WORLD IS NOT A HAMBURGER - YOU CAN'T HAVE IT YOUR WAY.
 Job cpu time:       0 days  0 hours 23 minutes 10.3 seconds.
 Elapsed time:       0 days  0 hours  0 minutes 43.5 seconds.
 File lengths (MBytes):  RWF=     44 Int=      0 D2E=      0 Chk=      3 Scr=      1
 Normal termination of Gaussian 16 at Wed Sep 13 08:44:42 2023.
