 Entering Gaussian System, Link 0=g16
 Input=/home/ubuntu/Downloads/CH3br-Br-vol.gjf
 Output=/home/ubuntu/Downloads/CH3br-Br-vol.log
 Initial command:
 /home/ubuntu/g16/l1.exe "/home/ubuntu/Scratch/Gau-173726.inp" -scrdir="/home/ubuntu/Scratch/"
 Entering Link 1 = /home/ubuntu/g16/l1.exe PID=    173730.
  
 Copyright (c) 1988-2017, Gaussian, Inc.  All Rights Reserved.
  
 This is part of the Gaussian(R) 16 program.  It is based on
 the Gaussian(R) 09 system (copyright 2009, Gaussian, Inc.),
 the Gaussian(R) 03 system (copyright 2003, Gaussian, Inc.),
 the Gaussian(R) 98 system (copyright 1998, Gaussian, Inc.),
 the Gaussian(R) 94 system (copyright 1995, Gaussian, Inc.),
 the Gaussian 92(TM) system (copyright 1992, Gaussian, Inc.),
 the Gaussian 90(TM) system (copyright 1990, Gaussian, Inc.),
 the Gaussian 88(TM) system (copyright 1988, Gaussian, Inc.),
 the Gaussian 86(TM) system (copyright 1986, Carnegie Mellon
 University), and the Gaussian 82(TM) system (copyright 1983,
 Carnegie Mellon University). Gaussian is a federally registered
 trademark of Gaussian, Inc.
  
 This software contains proprietary and confidential information,
 including trade secrets, belonging to Gaussian, Inc.
  
 This software is provided under written license and may be
 used, copied, transmitted, or stored only in accord with that
 written license.
  
 The following legend is applicable only to US Government
 contracts under FAR:
  
                    RESTRICTED RIGHTS LEGEND
  
 Use, reproduction and disclosure by the US Government is
 subject to restrictions as set forth in subparagraphs (a)
 and (c) of the Commercial Computer Software - Restricted
 Rights clause in FAR 52.227-19.
  
 Gaussian, Inc.
 340 Quinnipiac St., Bldg. 40, Wallingford CT 06492
  
  
 ---------------------------------------------------------------
 Warning -- This program may not be used in any manner that
 competes with the business of Gaussian, Inc. or will provide
 assistance to any competitor of Gaussian, Inc.  The licensee
 of this program is prohibited from giving any competitor of
 Gaussian, Inc. access to this program.  By using this program,
 the user acknowledges that Gaussian, Inc. is engaged in the
 business of creating and licensing software in the field of
 computational chemistry and represents and warrants to the
 licensee that it is not a competitor of Gaussian, Inc. and that
 it will not use this program in any manner prohibited above.
 ---------------------------------------------------------------
  

 Cite this work as:
 Gaussian 16, Revision B.01,
 M. J. Frisch, G. W. Trucks, H. B. Schlegel, G. E. Scuseria, 
 M. A. Robb, J. R. Cheeseman, G. Scalmani, V. Barone, 
 G. A. Petersson, H. Nakatsuji, X. Li, M. Caricato, A. V. Marenich, 
 J. Bloino, B. G. Janesko, R. Gomperts, B. Mennucci, H. P. Hratchian, 
 J. V. Ortiz, A. F. Izmaylov, J. L. Sonnenberg, D. Williams-Young, 
 F. Ding, F. Lipparini, F. Egidi, J. Goings, B. Peng, A. Petrone, 
 T. Henderson, D. Ranasinghe, V. G. Zakrzewski, J. Gao, N. Rega, 
 G. Zheng, W. Liang, M. Hada, M. Ehara, K. Toyota, R. Fukuda, 
 J. Hasegawa, M. Ishida, T. Nakajima, Y. Honda, O. Kitao, H. Nakai, 
 T. Vreven, K. Throssell, J. A. Montgomery, Jr., J. E. Peralta, 
 F. Ogliaro, M. J. Bearpark, J. J. Heyd, E. N. Brothers, K. N. Kudin, 
 V. N. Staroverov, T. A. Keith, R. Kobayashi, J. Normand, 
 K. Raghavachari, A. P. Rendell, J. C. Burant, S. S. Iyengar, 
 J. Tomasi, M. Cossi, J. M. Millam, M. Klene, C. Adamo, R. Cammi, 
 J. W. Ochterski, R. L. Martin, K. Morokuma, O. Farkas, 
 J. B. Foresman, and D. J. Fox, Gaussian, Inc., Wallingford CT, 2016.
 
 ******************************************
 Gaussian 16:  EM64L-G16RevB.01 20-Dec-2017
                20-Sep-2023 
 ******************************************
 %nprocshared=32
 Will use up to   32 processors via shared memory.
 %mem=60GB
 %chk=CH3br-Br-vol.chk
 ----------------------------------------------------------------------
 # opt freq b3lyp/gen empiricaldispersion=gd3 pseudo=read scf=maxcycle=
 1000 volume
 ----------------------------------------------------------------------
 1/18=20,19=15,26=3,38=1/1,3;
 2/9=110,12=2,17=6,18=5,40=1/2;
 3/5=7,11=2,16=1,17=8,25=1,30=1,71=1,74=-5,124=31/1,2,3;
 4//1;
 5/5=2,7=1000,38=5/2;
 6/7=2,8=2,9=2,10=2,28=1,44=1/1,4;
 7//1,2,3,16;
 1/18=20,19=15,26=3/3(2);
 2/9=110/2;
 99//99;
 2/9=110/2;
 3/5=7,6=1,11=2,16=1,17=8,25=1,30=1,71=1,74=-5,82=7,124=31/1,2,3;
 4/5=5,16=3,69=1/1;
 5/5=2,7=1000,38=5/2;
 7//1,2,3,16;
 1/18=20,19=15,26=3/3(-5);
 2/9=110/2;
 6/7=2,8=2,9=2,10=2,19=2,28=1,44=1/1,4;
 99/9=1/99;
 -------------------
 Title Card Required
 -------------------
 Symbolic Z-matrix:
 Charge =  0 Multiplicity = 1
 C                     2.98757  -1.20312  -0.01047 
 C                     1.59403  -1.21107  -0.00626 
 C                     0.87451  -0.00014  -0.00335 
 C                     1.59388   1.2109   -0.00627 
 C                     2.98739   1.20313  -0.01047 
 C                     3.7102    0.00004  -0.00981 
 H                     3.52451  -2.14937  -0.01604 
 H                     1.05195  -2.15233  -0.00876 
 H                     1.05167   2.15209  -0.00876 
 H                     3.52424   2.14944  -0.01604 
 C                    -0.55447  -0.00018  -0.00149 
 C                    -1.76723  -0.00077  -0.00018 
 Br                   -3.59685   0.00014   0.00297 
 C                     5.2208    0.00025   0.0211 
 H                     5.63275   0.88583  -0.47564 
 H                     5.59148   0.00306   1.05537 
 H                     5.63294  -0.88783  -0.47096 
 

 GradGradGradGradGradGradGradGradGradGradGradGradGradGradGradGradGradGrad
 Berny optimization.
 Initialization pass.
                           ----------------------------
                           !    Initial Parameters    !
                           ! (Angstroms and Degrees)  !
 --------------------------                            --------------------------
 ! Name  Definition              Value          Derivative Info.                !
 --------------------------------------------------------------------------------
 ! R1    R(1,2)                  1.3936         estimate D2E/DX2                !
 ! R2    R(1,6)                  1.4035         estimate D2E/DX2                !
 ! R3    R(1,7)                  1.088          estimate D2E/DX2                !
 ! R4    R(2,3)                  1.4086         estimate D2E/DX2                !
 ! R5    R(2,8)                  1.0862         estimate D2E/DX2                !
 ! R6    R(3,4)                  1.4086         estimate D2E/DX2                !
 ! R7    R(3,11)                 1.429          estimate D2E/DX2                !
 ! R8    R(4,5)                  1.3935         estimate D2E/DX2                !
 ! R9    R(4,9)                  1.0862         estimate D2E/DX2                !
 ! R10   R(5,6)                  1.4035         estimate D2E/DX2                !
 ! R11   R(5,10)                 1.088          estimate D2E/DX2                !
 ! R12   R(6,14)                 1.5109         estimate D2E/DX2                !
 ! R13   R(11,12)                1.2128         estimate D2E/DX2                !
 ! R14   R(12,13)                1.8296         estimate D2E/DX2                !
 ! R15   R(14,15)                1.0958         estimate D2E/DX2                !
 ! R16   R(14,16)                1.0987         estimate D2E/DX2                !
 ! R17   R(14,17)                1.0958         estimate D2E/DX2                !
 ! A1    A(2,1,6)              121.3163         estimate D2E/DX2                !
 ! A2    A(2,1,7)              119.2456         estimate D2E/DX2                !
 ! A3    A(6,1,7)              119.438          estimate D2E/DX2                !
 ! A4    A(1,2,3)              120.3915         estimate D2E/DX2                !
 ! A5    A(1,2,8)              120.2637         estimate D2E/DX2                !
 ! A6    A(3,2,8)              119.3445         estimate D2E/DX2                !
 ! A7    A(2,3,4)              118.5707         estimate D2E/DX2                !
 ! A8    A(2,3,11)             120.7166         estimate D2E/DX2                !
 ! A9    A(4,3,11)             120.7124         estimate D2E/DX2                !
 ! A10   A(3,4,5)              120.3911         estimate D2E/DX2                !
 ! A11   A(3,4,9)              119.3434         estimate D2E/DX2                !
 ! A12   A(5,4,9)              120.2651         estimate D2E/DX2                !
 ! A13   A(4,5,6)              121.3165         estimate D2E/DX2                !
 ! A14   A(4,5,10)             119.2468         estimate D2E/DX2                !
 ! A15   A(6,5,10)             119.4367         estimate D2E/DX2                !
 ! A16   A(1,6,5)              118.0133         estimate D2E/DX2                !
 ! A17   A(1,6,14)             120.9912         estimate D2E/DX2                !
 ! A18   A(5,6,14)             120.9823         estimate D2E/DX2                !
 ! A19   A(6,14,15)            111.5125         estimate D2E/DX2                !
 ! A20   A(6,14,16)            110.8896         estimate D2E/DX2                !
 ! A21   A(6,14,17)            111.5147         estimate D2E/DX2                !
 ! A22   A(15,14,16)           107.328          estimate D2E/DX2                !
 ! A23   A(15,14,17)           108.0618         estimate D2E/DX2                !
 ! A24   A(16,14,17)           107.3322         estimate D2E/DX2                !
 ! A25   L(3,11,12,8,-1)       179.974          estimate D2E/DX2                !
 ! A26   L(11,12,13,9,-1)      179.9442         estimate D2E/DX2                !
 ! A27   L(3,11,12,8,-2)       180.0165         estimate D2E/DX2                !
 ! A28   L(11,12,13,9,-2)      180.0617         estimate D2E/DX2                !
 ! D1    D(6,1,2,3)              0.1017         estimate D2E/DX2                !
 ! D2    D(6,1,2,8)            179.8833         estimate D2E/DX2                !
 ! D3    D(7,1,2,3)           -179.7967         estimate D2E/DX2                !
 ! D4    D(7,1,2,8)             -0.0151         estimate D2E/DX2                !
 ! D5    D(2,1,6,5)             -0.2643         estimate D2E/DX2                !
 ! D6    D(2,1,6,14)           178.4293         estimate D2E/DX2                !
 ! D7    D(7,1,6,5)            179.6339         estimate D2E/DX2                !
 ! D8    D(7,1,6,14)            -1.6724         estimate D2E/DX2                !
 ! D9    D(1,2,3,4)              0.0677         estimate D2E/DX2                !
 ! D10   D(1,2,3,11)           179.8851         estimate D2E/DX2                !
 ! D11   D(8,2,3,4)           -179.7159         estimate D2E/DX2                !
 ! D12   D(8,2,3,11)             0.1015         estimate D2E/DX2                !
 ! D13   D(2,3,4,5)             -0.068          estimate D2E/DX2                !
 ! D14   D(2,3,4,9)            179.7164         estimate D2E/DX2                !
 ! D15   D(11,3,4,5)          -179.8855         estimate D2E/DX2                !
 ! D16   D(11,3,4,9)            -0.101          estimate D2E/DX2                !
 ! D17   D(3,4,5,6)             -0.101          estimate D2E/DX2                !
 ! D18   D(3,4,5,10)           179.7969         estimate D2E/DX2                !
 ! D19   D(9,4,5,6)           -179.8834         estimate D2E/DX2                !
 ! D20   D(9,4,5,10)             0.0144         estimate D2E/DX2                !
 ! D21   D(4,5,6,1)              0.264          estimate D2E/DX2                !
 ! D22   D(4,5,6,14)          -178.4298         estimate D2E/DX2                !
 ! D23   D(10,5,6,1)          -179.6337         estimate D2E/DX2                !
 ! D24   D(10,5,6,14)            1.6725         estimate D2E/DX2                !
 ! D25   D(1,6,14,15)          150.9741         estimate D2E/DX2                !
 ! D26   D(1,6,14,16)          -89.4812         estimate D2E/DX2                !
 ! D27   D(1,6,14,17)           30.0702         estimate D2E/DX2                !
 ! D28   D(5,6,14,15)          -30.3711         estimate D2E/DX2                !
 ! D29   D(5,6,14,16)           89.1736         estimate D2E/DX2                !
 ! D30   D(5,6,14,17)         -151.275          estimate D2E/DX2                !
 --------------------------------------------------------------------------------
 Trust Radius=3.00D-01 FncErr=1.00D-07 GrdErr=1.00D-06 EigMax=2.50D+02 EigMin=1.00D-04
 Number of steps in this run=     85 maximum allowed number of steps=    102.
 GradGradGradGradGradGradGradGradGradGradGradGradGradGradGradGradGradGrad

                          Input orientation:                          
 ---------------------------------------------------------------------
 Center     Atomic      Atomic             Coordinates (Angstroms)
 Number     Number       Type             X           Y           Z
 ---------------------------------------------------------------------
      1          6           0        2.987568   -1.203115   -0.010473
      2          6           0        1.594026   -1.211066   -0.006257
      3          6           0        0.874513   -0.000143   -0.003351
      4          6           0        1.593884    1.210902   -0.006265
      5          6           0        2.987394    1.203126   -0.010474
      6          6           0        3.710198    0.000036   -0.009812
      7          1           0        3.524507   -2.149372   -0.016035
      8          1           0        1.051952   -2.152335   -0.008756
      9          1           0        1.051670    2.152090   -0.008762
     10          1           0        3.524235    2.149442   -0.016040
     11          6           0       -0.554473   -0.000183   -0.001486
     12          6           0       -1.767229   -0.000766   -0.000184
     13         35           0       -3.596846    0.000139    0.002972
     14          6           0        5.220802    0.000251    0.021100
     15          1           0        5.632748    0.885833   -0.475639
     16          1           0        5.591479    0.003062    1.055372
     17          1           0        5.632938   -0.887831   -0.470963
 ---------------------------------------------------------------------
                    Distance matrix (angstroms):
                    1          2          3          4          5
     1  C    0.000000
     2  C    1.393571   0.000000
     3  C    2.431500   1.408560   0.000000
     4  C    2.787445   2.421968   1.408593   0.000000
     5  C    2.406241   2.787439   2.431496   1.393538   0.000000
     6  C    1.403484   2.438230   2.835692   2.438236   1.403521
     7  H    1.087997   2.146455   3.412010   3.875415   3.395256
     8  H    2.155836   1.086203   2.159501   3.406620   3.873636
     9  H    3.873642   3.406607   2.159519   1.086203   2.155821
    10  H    3.395244   3.875412   3.412023   2.146441   1.088000
    11  C    3.740746   2.466234   1.428987   2.466209   3.740702
    12  C    4.904472   3.572520   2.641744   3.572850   4.904682
    13  Br   6.693468   5.330315   4.471363   5.330076   6.693248
    14  C    2.537010   3.823812   4.346358   3.823736   2.536931
    15  H    3.402508   4.574777   4.863004   4.079020   2.704617
    16  H    3.061248   4.310544   4.834322   4.308911   3.058993
    17  H    2.703597   4.078387   4.863050   4.575432   3.403389
                    6          7          8          9         10
     6  C    0.000000
     7  H    2.157423   0.000000
     8  H    3.420376   2.472567   0.000000
     9  H    3.420396   4.961608   4.304425   0.000000
    10  H    2.157445   4.298814   4.961605   2.472577   0.000000
    11  C    4.264679   4.610564   2.685593   2.685522   4.610527
    12  C    5.477436   5.711325   3.546421   3.546978   5.711676
    13  Br   7.307055   7.438711   5.122949   5.122473   7.438391
    14  C    1.510920   2.738553   4.691890   4.691798   2.738383
    15  H    2.167448   3.724028   5.516533   4.775736   2.500753
    16  H    2.161908   3.170687   5.136673   5.134254   3.166760
    17  H    2.167463   2.498785   4.774729   5.517496   3.725401
                   11         12         13         14         15
    11  C    0.000000
    12  C    1.212757   0.000000
    13  Br   3.042376   1.829620   0.000000
    14  C    5.775319   6.988063   8.817667   0.000000
    15  H    6.268297   7.468050   9.284338   1.095767   0.000000
    16  H    6.236160   7.434030   9.248398   1.098694   1.767762
    17  H    6.268364   7.467998   9.284504   1.095752   1.773670
                   16         17
    16  H    0.000000
    17  H    1.767797   0.000000
 Stoichiometry    C9H7Br
 Framework group  C1[X(C9H7Br)]
 Deg. of freedom    45
 Full point group                 C1      NOp   1
 Largest Abelian subgroup         C1      NOp   1
 Largest concise Abelian subgroup C1      NOp   1
                         Standard orientation:                         
 ---------------------------------------------------------------------
 Center     Atomic      Atomic             Coordinates (Angstroms)
 Number     Number       Type             X           Y           Z
 ---------------------------------------------------------------------
      1          6           0       -2.987568    1.203115   -0.010473
      2          6           0       -1.594026    1.211066   -0.006257
      3          6           0       -0.874513    0.000143   -0.003351
      4          6           0       -1.593884   -1.210902   -0.006265
      5          6           0       -2.987394   -1.203126   -0.010474
      6          6           0       -3.710198   -0.000036   -0.009812
      7          1           0       -3.524507    2.149372   -0.016035
      8          1           0       -1.051952    2.152335   -0.008756
      9          1           0       -1.051670   -2.152090   -0.008762
     10          1           0       -3.524235   -2.149442   -0.016040
     11          6           0        0.554473    0.000183   -0.001486
     12          6           0        1.767229    0.000766   -0.000184
     13         35           0        3.596846   -0.000139    0.002972
     14          6           0       -5.220802   -0.000251    0.021100
     15          1           0       -5.632748   -0.885833   -0.475639
     16          1           0       -5.591479   -0.003062    1.055372
     17          1           0       -5.632938    0.887831   -0.470963
 ---------------------------------------------------------------------
 Rotational constants (GHZ):           5.5079137           0.2597251           0.2484159
 General basis read from cards:  (5D, 7F)
 ======================================================================================================
                                       Pseudopotential Parameters
 ======================================================================================================
  Center     Atomic      Valence      Angular      Power
  Number     Number     Electrons     Momentum     of R      Exponent        Coefficient   SO-Coeffient
 ======================================================================================================
    1          6
                                   No pseudopotential on this center.
    2          6
                                   No pseudopotential on this center.
    3          6
                                   No pseudopotential on this center.
    4          6
                                   No pseudopotential on this center.
    5          6
                                   No pseudopotential on this center.
    6          6
                                   No pseudopotential on this center.
    7          1
                                   No pseudopotential on this center.
    8          1
                                   No pseudopotential on this center.
    9          1
                                   No pseudopotential on this center.
   10          1
                                   No pseudopotential on this center.
   11          6
                                   No pseudopotential on this center.
   12          6
                                   No pseudopotential on this center.
   13         35            7
                                      G and up 
                                                     2        1.0000000        0.00000000    0.00000000
                                      S - G
                                                     2        5.0218000       61.51372100    0.00000000
                                                     2        2.5109000        9.02149300    0.00000000
                                      P - G
                                                     2        4.2814000       53.87586400    0.00000000
                                                     2        2.1407000        4.62940200    0.00000000
                                      D - G
                                                     2        2.8800000       20.84967700    0.00000000
                                                     2        1.4400000        2.96544400    0.00000000
                                      F - G
                                                     2        2.7207000       -8.16149300    0.00000000
   14          6
                                   No pseudopotential on this center.
   15          1
                                   No pseudopotential on this center.
   16          1
                                   No pseudopotential on this center.
   17          1
                                   No pseudopotential on this center.
 ======================================================================================================
 There are   196 symmetry adapted cartesian basis functions of A   symmetry.
 There are   187 symmetry adapted basis functions of A   symmetry.
   187 basis functions,   335 primitive gaussians,   196 cartesian basis functions
    34 alpha electrons       34 beta electrons
       nuclear repulsion energy       410.3868834332 Hartrees.
 NAtoms=   17 NActive=   17 NUniq=   17 SFac= 1.00D+00 NAtFMM=   60 NAOKFM=F Big=F
 Integral buffers will be    131072 words long.
 Raffenetti 2 integral format.
 Two-electron integral symmetry is turned on.
 Nuclear repulsion after empirical dispersion term =      410.3759714815 Hartrees.
 One-electron integrals computed using PRISM.
   1 Symmetry operations used in ECPInt.
 ECPInt:  NShTT=    2080 NPrTT=   10774 LenC2=    2028 LenP2D=    7553.
 LDataN:  DoStor=T MaxTD1= 6 Len=  172
 NBasis=   187 RedAO= T EigKep=  1.88D-06  NBF=   187
 NBsUse=   185 1.00D-06 EigRej=  8.62D-07 NBFU=   185
 ExpMin= 3.61D-02 ExpMax= 3.05D+03 ExpMxC= 4.57D+02 IAcc=3 IRadAn=         5 AccDes= 0.00D+00
 Harris functional with IExCor=  402 and IRadAn=       5 diagonalized for initial guess.
 HarFok:  IExCor=  402 AccDes= 0.00D+00 IRadAn=         5 IDoV= 1 UseB2=F ITyADJ=14
 ICtDFT=  3500011 ScaDFX=  1.000000  1.000000  1.000000  1.000000
 FoFCou: FMM=F IPFlag=           0 FMFlag=      100000 FMFlg1=           0
         NFxFlg=           0 DoJE=T BraDBF=F KetDBF=T FulRan=T
         wScrn=  0.000000 ICntrl=       500 IOpCl=  0 I1Cent=   200000004 NGrid=           0
         NMat0=    1 NMatS0=      1 NMatT0=    0 NMatD0=    1 NMtDS0=    0 NMtDT0=    0
 Petite list used in FoFCou.
 Requested convergence on RMS density matrix=1.00D-08 within1000 cycles.
 Requested convergence on MAX density matrix=1.00D-06.
 Requested convergence on             energy=1.00D-06.
 No special actions if energy rises.
 SCF Done:  E(RB3LYP) =  -360.490505525     A.U. after   14 cycles
            NFock= 14  Conv=0.63D-08     -V/T= 2.0322

 **********************************************************************

            Population analysis using the SCF Density.

 **********************************************************************

 Orbital symmetries:
       Occupied  (A) (A) (A) (A) (A) (A) (A) (A) (A) (A) (A) (A)
                 (A) (A) (A) (A) (A) (A) (A) (A) (A) (A) (A) (A)
                 (A) (A) (A) (A) (A) (A) (A) (A) (A) (A)
       Virtual   (A) (A) (A) (A) (A) (A) (A) (A) (A) (A) (A) (A)
                 (A) (A) (A) (A) (A) (A) (A) (A) (A) (A) (A) (A)
                 (A) (A) (A) (A) (A) (A) (A) (A) (A) (A) (A) (A)
                 (A) (A) (A) (A) (A) (A) (A) (A) (A) (A) (A) (A)
                 (A) (A) (A) (A) (A) (A) (A) (A) (A) (A) (A) (A)
                 (A) (A) (A) (A) (A) (A) (A) (A) (A) (A) (A) (A)
                 (A) (A) (A) (A) (A) (A) (A) (A) (A) (A) (A) (A)
                 (A) (A) (A) (A) (A) (A) (A) (A) (A) (A) (A) (A)
                 (A) (A) (A) (A) (A) (A) (A) (A) (A) (A) (A) (A)
                 (A) (A) (A) (A) (A) (A) (A) (A) (A) (A) (A) (A)
                 (A) (A) (A) (A) (A) (A) (A) (A) (A) (A) (A) (A)
                 (A) (A) (A) (A) (A) (A) (A) (A) (A) (A) (A) (A)
                 (A) (A) (A) (A) (A) (A) (A)
 The electronic state is 1-A.
 Alpha  occ. eigenvalues --  -10.23150 -10.22129 -10.20960 -10.20284 -10.20172
 Alpha  occ. eigenvalues --  -10.20172 -10.19680 -10.19680 -10.18787  -0.87526
 Alpha  occ. eigenvalues --   -0.86850  -0.80252  -0.75839  -0.74599  -0.69634
 Alpha  occ. eigenvalues --   -0.62083  -0.60901  -0.54846  -0.49068  -0.47840
 Alpha  occ. eigenvalues --   -0.47190  -0.43647  -0.43251  -0.43068  -0.39978
 Alpha  occ. eigenvalues --   -0.38519  -0.36475  -0.36332  -0.35728  -0.35233
 Alpha  occ. eigenvalues --   -0.29764  -0.26790  -0.26525  -0.23178
 Alpha virt. eigenvalues --   -0.04108  -0.02897  -0.02193   0.00359   0.01623
 Alpha virt. eigenvalues --    0.02188   0.03370   0.03555   0.03909   0.04988
 Alpha virt. eigenvalues --    0.05066   0.05140   0.06013   0.06057   0.07114
 Alpha virt. eigenvalues --    0.07662   0.08362   0.08472   0.08678   0.09949
 Alpha virt. eigenvalues --    0.10848   0.11976   0.12760   0.13010   0.13891
 Alpha virt. eigenvalues --    0.15105   0.15405   0.15845   0.16637   0.16888
 Alpha virt. eigenvalues --    0.17424   0.19744   0.19934   0.20155   0.20559
 Alpha virt. eigenvalues --    0.20731   0.21408   0.22979   0.23919   0.24171
 Alpha virt. eigenvalues --    0.25084   0.25371   0.25889   0.26678   0.27767
 Alpha virt. eigenvalues --    0.28716   0.28906   0.30246   0.30923   0.30964
 Alpha virt. eigenvalues --    0.31930   0.34427   0.35353   0.38089   0.40173
 Alpha virt. eigenvalues --    0.41109   0.44139   0.48751   0.51790   0.55310
 Alpha virt. eigenvalues --    0.59194   0.65292   0.65939   0.67688   0.67722
 Alpha virt. eigenvalues --    0.70365   0.71029   0.71324   0.72463   0.73603
 Alpha virt. eigenvalues --    0.73936   0.75462   0.76281   0.76576   0.77952
 Alpha virt. eigenvalues --    0.78571   0.78797   0.81606   0.83079   0.84161
 Alpha virt. eigenvalues --    0.85302   0.86080   0.90629   0.93035   0.95840
 Alpha virt. eigenvalues --    0.96740   0.97527   0.98158   1.04162   1.04970
 Alpha virt. eigenvalues --    1.06110   1.09416   1.11572   1.13986   1.18069
 Alpha virt. eigenvalues --    1.19159   1.21395   1.23821   1.28119   1.29061
 Alpha virt. eigenvalues --    1.30033   1.31380   1.39314   1.42250   1.44449
 Alpha virt. eigenvalues --    1.44760   1.45495   1.49944   1.53723   1.54355
 Alpha virt. eigenvalues --    1.55985   1.65374   1.71978   1.76305   1.83438
 Alpha virt. eigenvalues --    1.85066   1.87716   1.89539   1.90171   1.91121
 Alpha virt. eigenvalues --    1.92762   1.95080   1.99107   2.07614   2.08735
 Alpha virt. eigenvalues --    2.12233   2.13265   2.16449   2.17913   2.23586
 Alpha virt. eigenvalues --    2.24452   2.27087   2.30483   2.35785   2.36840
 Alpha virt. eigenvalues --    2.40961   2.45742   2.48153   2.58853   2.63739
 Alpha virt. eigenvalues --    2.64563   2.73537   2.74054   2.75360   2.79806
 Alpha virt. eigenvalues --    2.91359   2.92622   3.15532   3.28095   3.49441
 Alpha virt. eigenvalues --    7.55979
          Condensed to atoms (all electrons):
               1          2          3          4          5          6
     1  C    8.658359  -3.477008   0.582358   1.936315  -1.441442  -0.026814
     2  C   -3.477008  16.989916  -1.802254  -8.324172   1.942004   0.337589
     3  C    0.582358  -1.802254   9.977118  -1.790473   0.578301  -0.782044
     4  C    1.936315  -8.324172  -1.790473  17.006189  -3.484667   0.331270
     5  C   -1.441442   1.942004   0.578301  -3.484667   8.654383  -0.022200
     6  C   -0.026814   0.337589  -0.782044   0.331270  -0.022200   6.820549
     7  H    0.213072   0.000923  -0.009585  -0.037798   0.077569   0.056134
     8  H   -0.066659   0.285169   0.018100   0.057115  -0.021406   0.009390
     9  H   -0.021331   0.056868   0.017588   0.286095  -0.067092   0.009523
    10  H    0.077954  -0.037932  -0.009720   0.000926   0.212681   0.056314
    11  C   -0.116154   0.195482  -0.316219   0.198649  -0.115989  -0.030338
    12  C    0.047769  -0.232550   0.224718  -0.240235   0.048294  -0.033519
    13  Br   0.009886   0.016519  -0.049466   0.016999   0.009841  -0.001250
    14  C   -0.193678   0.171698  -0.195470   0.166115  -0.192192  -0.773736
    15  H    0.048277  -0.017705  -0.002087   0.020592  -0.037236  -0.130135
    16  H   -0.010807  -0.001788   0.001096  -0.001703  -0.011623  -0.041806
    17  H   -0.037352   0.020627  -0.002135  -0.017735   0.048246  -0.130344
               7          8          9         10         11         12
     1  C    0.213072  -0.066659  -0.021331   0.077954  -0.116154   0.047769
     2  C    0.000923   0.285169   0.056868  -0.037932   0.195482  -0.232550
     3  C   -0.009585   0.018100   0.017588  -0.009720  -0.316219   0.224718
     4  C   -0.037798   0.057115   0.286095   0.000926   0.198649  -0.240235
     5  C    0.077569  -0.021406  -0.067092   0.212681  -0.115989   0.048294
     6  C    0.056134   0.009390   0.009523   0.056314  -0.030338  -0.033519
     7  H    0.542672  -0.004520   0.000017  -0.000161   0.000739   0.000235
     8  H   -0.004520   0.524817  -0.000154   0.000017   0.003895  -0.000972
     9  H    0.000017  -0.000154   0.524830  -0.004519   0.003944  -0.000972
    10  H   -0.000161   0.000017  -0.004519   0.542672   0.000757   0.000229
    11  C    0.000739   0.003895   0.003944   0.000757   5.161547   0.581272
    12  C    0.000235  -0.000972  -0.000972   0.000229   0.581272   6.048683
    13  Br   0.000004  -0.000016  -0.000016   0.000004  -0.044133   0.122531
    14  C   -0.019402   0.002622   0.002619  -0.019310   0.036536  -0.011535
    15  H    0.000069   0.000002  -0.000005   0.002887   0.000503  -0.000026
    16  H    0.000327   0.000001   0.000001   0.000331   0.000109  -0.000006
    17  H    0.002911  -0.000005   0.000002   0.000069   0.000502  -0.000026
              13         14         15         16         17
     1  C    0.009886  -0.193678   0.048277  -0.010807  -0.037352
     2  C    0.016519   0.171698  -0.017705  -0.001788   0.020627
     3  C   -0.049466  -0.195470  -0.002087   0.001096  -0.002135
     4  C    0.016999   0.166115   0.020592  -0.001703  -0.017735
     5  C    0.009841  -0.192192  -0.037236  -0.011623   0.048246
     6  C   -0.001250  -0.773736  -0.130135  -0.041806  -0.130344
     7  H    0.000004  -0.019402   0.000069   0.000327   0.002911
     8  H   -0.000016   0.002622   0.000002   0.000001  -0.000005
     9  H   -0.000016   0.002619  -0.000005   0.000001   0.000002
    10  H    0.000004  -0.019310   0.002887   0.000331   0.000069
    11  C   -0.044133   0.036536   0.000503   0.000109   0.000502
    12  C    0.122531  -0.011535  -0.000026  -0.000006  -0.000026
    13  Br   6.645347  -0.000333   0.000000   0.000000   0.000000
    14  C   -0.000333   6.561165   0.457534   0.399102   0.457971
    15  H    0.000000   0.457534   0.502647  -0.029236  -0.025648
    16  H    0.000000   0.399102  -0.029236   0.496922  -0.029186
    17  H    0.000000   0.457971  -0.025648  -0.029186   0.502631
 Mulliken charges:
               1
     1  C   -0.182744
     2  C   -0.123387
     3  C   -0.439827
     4  C   -0.123481
     5  C   -0.177471
     6  C    0.351419
     7  H    0.176794
     8  H    0.192604
     9  H    0.192602
    10  H    0.176803
    11  C    0.438896
    12  C   -0.553888
    13  Br   0.274082
    14  C   -0.849706
    15  H    0.209567
    16  H    0.228264
    17  H    0.209473
 Sum of Mulliken charges =   0.00000
 Mulliken charges with hydrogens summed into heavy atoms:
               1
     1  C   -0.005950
     2  C    0.069217
     3  C   -0.439827
     4  C    0.069121
     5  C   -0.000668
     6  C    0.351419
    11  C    0.438896
    12  C   -0.553888
    13  Br   0.274082
    14  C   -0.202402
 Electronic spatial extent (au):  <R**2>=           2561.8398
 Charge=              0.0000 electrons
 Dipole moment (field-independent basis, Debye):
    X=             -1.6317    Y=             -0.0013    Z=              0.0447  Tot=              1.6324
 Quadrupole moment (field-independent basis, Debye-Ang):
   XX=            -54.6102   YY=            -63.6349   ZZ=            -71.6858
   XY=             -0.0008   XZ=             -0.2077   YZ=              0.0000
 Traceless Quadrupole moment (field-independent basis, Debye-Ang):
   XX=              8.7001   YY=             -0.3246   ZZ=             -8.3755
   XY=             -0.0008   XZ=             -0.2077   YZ=              0.0000
 Octapole moment (field-independent basis, Debye-Ang**2):
  XXX=            137.7742  YYY=             -0.0048  ZZZ=              0.9351  XYY=             40.1304
  XXY=             -0.0238  XXZ=              1.0764  XZZ=             57.2379  YZZ=             -0.0084
  YYZ=             -0.6012  XYZ=             -0.0001
 Hexadecapole moment (field-independent basis, Debye-Ang**3):
 XXXX=          -3499.6369 YYYY=           -324.4572 ZZZZ=            -97.8439 XXXY=             -0.0481
 XXXZ=             -3.5534 YYYX=             -0.0517 YYYZ=              0.0009 ZZZX=             -3.6871
 ZZZY=             -0.0009 XXYY=           -681.2953 XXZZ=           -688.4366 YYZZ=            -81.5823
 XXYZ=              0.0005 YYXZ=              3.5983 ZZXY=              0.0200
 N-N= 4.103759714815D+02 E-N=-1.650761712046D+03  KE= 3.492475408570D+02
 Evaluate density.
 Using the total density.
 Monte-Carlo method of calculating molar volume:
 based on  0.001 e/bohr**3 density envelope.
 Number of points per bohr**3 =   20 CutOff= 1.00D-04
 Using the SCF density.
 There are       465 points.  Will hold       465 in memory.
 LenV=  8052933796 MDV=  8053063680.
 Box volume =12576.470 fraction occupied=0.133
 Integrated density= 7.3873143742122522D+01 error= 5.8731437421225223D+00
 Molar volume = 1676.863 bohr**3/mol (149.641 cm**3/mol)
 Recommended a0 for SCRF calculation =  4.79 angstrom (  9.06 bohr)
   1 Symmetry operations used in ECPInt.
 ECPInt:  NShTT=    2080 NPrTT=   10774 LenC2=    2028 LenP2D=    7553.
 LDataN:  DoStor=T MaxTD1= 7 Len=  274
 Calling FoFJK, ICntrl=      2127 FMM=F ISym2X=0 I1Cent= 0 IOpClX= 0 NMat=1 NMatS=1 NMatT=0.
 ***** Axes restored to original set *****
 -------------------------------------------------------------------
 Center     Atomic                   Forces (Hartrees/Bohr)
 Number     Number              X              Y              Z
 -------------------------------------------------------------------
      1        6           0.000014363   -0.000011391    0.000001039
      2        6          -0.000043779   -0.000017133    0.000001393
      3        6           0.000076040    0.000009453    0.000003495
      4        6          -0.000048928    0.000009141    0.000002506
      5        6           0.000023975    0.000006078    0.000000594
      6        6           0.000019387    0.000007225   -0.000006258
      7        1           0.000002284    0.000007627    0.000000086
      8        1           0.000013114    0.000012366   -0.000001502
      9        1           0.000014433   -0.000010837   -0.000001862
     10        1           0.000002073   -0.000006879   -0.000000085
     11        6          -0.000108431   -0.000021257   -0.000003880
     12        6          -0.000040569    0.000025011    0.000000551
     13       35           0.000077094   -0.000008942    0.000000930
     14        6          -0.000002299    0.000000202   -0.000007007
     15        1          -0.000001221    0.000001902    0.000001366
     16        1           0.000003417    0.000000004    0.000007624
     17        1          -0.000000954   -0.000002568    0.000001011
 -------------------------------------------------------------------
 Cartesian Forces:  Max     0.000108431 RMS     0.000025602

 GradGradGradGradGradGradGradGradGradGradGradGradGradGradGradGradGradGrad
 Berny optimization.
 FormGI is forming the generalized inverse of G from B-inverse, IUseBI=4.
 Internal  Forces:  Max     0.000077097 RMS     0.000014874
 Search for a local minimum.
 Step number   1 out of a maximum of   85
 All quantities printed in internal units (Hartrees-Bohrs-Radians)
 Mixed Optimization -- En-DIIS/RFO-DIIS
 Second derivative matrix not updated -- first step.
 ITU=  0
     Eigenvalues ---    0.00621   0.00772   0.00772   0.01460   0.01975
     Eigenvalues ---    0.02007   0.02057   0.02062   0.02090   0.02097
     Eigenvalues ---    0.02121   0.02122   0.04566   0.04566   0.07032
     Eigenvalues ---    0.07152   0.16000   0.16000   0.16000   0.16000
     Eigenvalues ---    0.16000   0.16000   0.16000   0.22000   0.22171
     Eigenvalues ---    0.22957   0.23998   0.24993   0.25000   0.31258
     Eigenvalues ---    0.33827   0.34155   0.34156   0.35045   0.35045
     Eigenvalues ---    0.35255   0.35255   0.41070   0.41135   0.41438
     Eigenvalues ---    0.44582   0.44676   0.45632   0.46706   0.98666
 RFO step:  Lambda=-1.74832019D-07 EMin= 6.21493375D-03
 Linear search not attempted -- first point.
 Iteration  1 RMS(Cart)=  0.00127397 RMS(Int)=  0.00000257
 Iteration  2 RMS(Cart)=  0.00000256 RMS(Int)=  0.00000000
 Iteration  3 RMS(Cart)=  0.00000000 RMS(Int)=  0.00000000
 Variable       Old X    -DE/DX   Delta X   Delta X   Delta X     New X
                                 (Linear)    (Quad)   (Total)
    R1        2.63347   0.00003   0.00000   0.00006   0.00006   2.63353
    R2        2.65220   0.00001   0.00000   0.00002   0.00002   2.65222
    R3        2.05602  -0.00001   0.00000  -0.00002  -0.00002   2.05600
    R4        2.66179   0.00000   0.00000   0.00001   0.00001   2.66180
    R5        2.05263  -0.00002   0.00000  -0.00005  -0.00005   2.05258
    R6        2.66185   0.00000   0.00000   0.00000   0.00000   2.66185
    R7        2.70039   0.00007   0.00000   0.00017   0.00017   2.70057
    R8        2.63341   0.00003   0.00000   0.00007   0.00007   2.63348
    R9        2.05263  -0.00002   0.00000  -0.00005  -0.00005   2.05258
   R10        2.65227   0.00000   0.00000   0.00000   0.00000   2.65227
   R11        2.05602   0.00000   0.00000  -0.00001  -0.00001   2.05601
   R12        2.85523   0.00000   0.00000   0.00000   0.00000   2.85522
   R13        2.29178  -0.00004   0.00000  -0.00004  -0.00004   2.29174
   R14        3.45748  -0.00008   0.00000  -0.00035  -0.00035   3.45713
   R15        2.07070   0.00000   0.00000   0.00000   0.00000   2.07070
   R16        2.07623   0.00001   0.00000   0.00002   0.00002   2.07625
   R17        2.07067   0.00000   0.00000   0.00000   0.00000   2.07067
    A1        2.11737   0.00000   0.00000   0.00002   0.00002   2.11739
    A2        2.08123   0.00000   0.00000   0.00003   0.00003   2.08126
    A3        2.08459  -0.00001   0.00000  -0.00005  -0.00005   2.08454
    A4        2.10123   0.00000   0.00000  -0.00001  -0.00001   2.10122
    A5        2.09900   0.00000   0.00000  -0.00003  -0.00003   2.09897
    A6        2.08295   0.00001   0.00000   0.00004   0.00004   2.08299
    A7        2.06945   0.00000   0.00000   0.00000   0.00000   2.06945
    A8        2.10690   0.00000   0.00000  -0.00002  -0.00002   2.10689
    A9        2.10683   0.00000   0.00000   0.00001   0.00001   2.10684
   A10        2.10122   0.00000   0.00000   0.00000   0.00000   2.10122
   A11        2.08294   0.00001   0.00000   0.00005   0.00005   2.08298
   A12        2.09902  -0.00001   0.00000  -0.00004  -0.00004   2.09898
   A13        2.11737   0.00000   0.00000   0.00001   0.00001   2.11739
   A14        2.08125   0.00000   0.00000   0.00003   0.00003   2.08128
   A15        2.08456  -0.00001   0.00000  -0.00004  -0.00004   2.08452
   A16        2.05972  -0.00001   0.00000  -0.00003  -0.00003   2.05970
   A17        2.11170   0.00000   0.00000   0.00001   0.00001   2.11170
   A18        2.11154   0.00000   0.00000   0.00001   0.00001   2.11155
   A19        1.94626   0.00000   0.00000  -0.00001  -0.00001   1.94625
   A20        1.93539   0.00000   0.00000   0.00000   0.00000   1.93539
   A21        1.94630   0.00000   0.00000  -0.00001  -0.00001   1.94629
   A22        1.87323   0.00000   0.00000  -0.00001  -0.00001   1.87322
   A23        1.88603   0.00000   0.00000   0.00003   0.00003   1.88606
   A24        1.87330   0.00000   0.00000  -0.00001  -0.00001   1.87329
   A25        3.14114   0.00001   0.00000   0.00013   0.00013   3.14127
   A26        3.14062   0.00003   0.00000   0.00398   0.00398   3.14460
   A27        3.14188  -0.00001   0.00000  -0.00013  -0.00013   3.14175
   A28        3.14267   0.00000   0.00000   0.00029   0.00029   3.14296
    D1        0.00177   0.00000   0.00000  -0.00002  -0.00002   0.00176
    D2        3.13956   0.00000   0.00000  -0.00004  -0.00004   3.13952
    D3       -3.13805   0.00000   0.00000  -0.00002  -0.00002  -3.13806
    D4       -0.00026   0.00000   0.00000  -0.00004  -0.00004  -0.00030
    D5       -0.00461   0.00000   0.00000   0.00001   0.00001  -0.00460
    D6        3.11418   0.00000   0.00000  -0.00006  -0.00006   3.11412
    D7        3.13520   0.00000   0.00000   0.00001   0.00001   3.13521
    D8       -0.02919   0.00000   0.00000  -0.00006  -0.00006  -0.02925
    D9        0.00118   0.00000   0.00000   0.00001   0.00001   0.00120
   D10        3.13959   0.00000   0.00000  -0.00001  -0.00001   3.13958
   D11       -3.13663   0.00000   0.00000   0.00004   0.00004  -3.13660
   D12        0.00177   0.00000   0.00000   0.00002   0.00002   0.00179
   D13       -0.00119   0.00000   0.00000  -0.00001  -0.00001  -0.00120
   D14        3.13664   0.00000   0.00000  -0.00005  -0.00005   3.13660
   D15       -3.13959   0.00000   0.00000   0.00001   0.00001  -3.13958
   D16       -0.00176   0.00000   0.00000  -0.00003  -0.00003  -0.00179
   D17       -0.00176   0.00000   0.00000   0.00000   0.00000  -0.00176
   D18        3.13805   0.00000   0.00000   0.00001   0.00001   3.13805
   D19       -3.13956   0.00000   0.00000   0.00004   0.00004  -3.13952
   D20        0.00025   0.00000   0.00000   0.00004   0.00004   0.00030
   D21        0.00461   0.00000   0.00000  -0.00001  -0.00001   0.00460
   D22       -3.11419   0.00000   0.00000   0.00007   0.00007  -3.11412
   D23       -3.13520   0.00000   0.00000  -0.00001  -0.00001  -3.13521
   D24        0.02919   0.00000   0.00000   0.00007   0.00007   0.02926
   D25        2.63500   0.00000   0.00000   0.00005   0.00005   2.63505
   D26       -1.56174   0.00000   0.00000   0.00004   0.00004  -1.56170
   D27        0.52482   0.00000   0.00000   0.00003   0.00003   0.52485
   D28       -0.53008   0.00000   0.00000  -0.00003  -0.00003  -0.53010
   D29        1.55637   0.00000   0.00000  -0.00004  -0.00004   1.55634
   D30       -2.64025   0.00000   0.00000  -0.00005  -0.00005  -2.64030
         Item               Value     Threshold  Converged?
 Maximum Force            0.000077     0.000450     YES
 RMS     Force            0.000015     0.000300     YES
 Maximum Displacement     0.009123     0.001800     NO 
 RMS     Displacement     0.001274     0.001200     NO 
 Predicted change in Energy=-8.741601D-08
 GradGradGradGradGradGradGradGradGradGradGradGradGradGradGradGradGradGrad

                          Input orientation:                          
 ---------------------------------------------------------------------
 Center     Atomic      Atomic             Coordinates (Angstroms)
 Number     Number       Type             X           Y           Z
 ---------------------------------------------------------------------
      1          6           0        2.987221   -1.202908   -0.010514
      2          6           0        1.593645   -1.210463   -0.006334
      3          6           0        0.874485    0.000673   -0.003439
      4          6           0        1.594208    1.211509   -0.006346
      5          6           0        2.987753    1.203324   -0.010527
      6          6           0        3.710222    0.000032   -0.009849
      7          1           0        3.523913   -2.149296   -0.016054
      8          1           0        1.051344   -2.151572   -0.008874
      9          1           0        1.052325    2.152858   -0.008895
     10          1           0        3.524893    2.149462   -0.016082
     11          6           0       -0.554594    0.001028   -0.001618
     12          6           0       -1.767330    0.000942   -0.000228
     13         35           0       -3.596754   -0.004688    0.003391
     14          6           0        5.220822   -0.000198    0.021182
     15          1           0        5.633060    0.885271   -0.475520
     16          1           0        5.591426    0.002507    1.055494
     17          1           0        5.632727   -0.888412   -0.470840
 ---------------------------------------------------------------------
                    Distance matrix (angstroms):
                    1          2          3          4          5
     1  C    0.000000
     2  C    1.393603   0.000000
     3  C    2.431525   1.408564   0.000000
     4  C    2.787456   2.421972   1.408593   0.000000
     5  C    2.406232   2.787459   2.431527   1.393575   0.000000
     6  C    1.403494   2.438281   2.835745   2.438279   1.403522
     7  H    1.087988   2.146493   3.412037   3.875417   3.395226
     8  H    2.155826   1.086177   2.159506   3.406614   3.873630
     9  H    3.873628   3.406606   2.159527   1.086178   2.155807
    10  H    3.395218   3.875424   3.412055   2.146484   1.087992
    11  C    3.740855   2.466306   1.429080   2.466300   3.740831
    12  C    4.904602   3.572631   2.641817   3.572877   4.904758
    13  Br   6.692133   5.328623   4.471247   5.331540   6.694417
    14  C    2.537024   3.823861   4.346407   3.823783   2.536940
    15  H    3.402526   4.574835   4.863066   4.079078   2.704630
    16  H    3.061255   4.310572   4.834344   4.308937   3.058999
    17  H    2.703611   4.078439   4.863107   4.575485   3.403401
                    6          7          8          9         10
     6  C    0.000000
     7  H    2.157396   0.000000
     8  H    3.420385   2.472580   0.000000
     9  H    3.420392   4.961585   4.304430   0.000000
    10  H    2.157414   4.298758   4.961591   2.472581   0.000000
    11  C    4.264824   4.610674   2.685661   2.685631   4.610660
    12  C    5.477561   5.711482   3.546592   3.547009   5.711744
    13  Br   7.306990   7.436640   5.119968   5.125338   7.440336
    14  C    1.510919   2.738523   4.691893   4.691794   2.738358
    15  H    2.167441   3.724004   5.516547   4.775736   2.500726
    16  H    2.161918   3.170659   5.136660   5.134236   3.166742
    17  H    2.167457   2.498751   4.774731   5.517500   3.725379
                   11         12         13         14         15
    11  C    0.000000
    12  C    1.212737   0.000000
    13  Br   3.042170   1.829436   0.000000
    14  C    5.775461   6.988185   8.817595   0.000000
    15  H    6.268455   7.468180   9.284980   1.095767   0.000000
    16  H    6.236269   7.434100   9.248223   1.098707   1.767769
    17  H    6.268510   7.468151   9.283813   1.095754   1.773689
                   16         17
    16  H    0.000000
    17  H    1.767806   0.000000
 Stoichiometry    C9H7Br
 Framework group  C1[X(C9H7Br)]
 Deg. of freedom    45
 Full point group                 C1      NOp   1
 Largest Abelian subgroup         C1      NOp   1
 Largest concise Abelian subgroup C1      NOp   1
                         Standard orientation:                         
 ---------------------------------------------------------------------
 Center     Atomic      Atomic             Coordinates (Angstroms)
 Number     Number       Type             X           Y           Z
 ---------------------------------------------------------------------
      1          6           0       -2.986420    1.203393   -0.010638
      2          6           0       -1.592840    1.210044   -0.006458
      3          6           0       -0.874466   -0.001560   -0.003563
      4          6           0       -1.594976   -1.211928   -0.006469
      5          6           0       -2.988515   -1.202838   -0.010650
      6          6           0       -3.710203    0.000923   -0.009972
      7          1           0       -3.522497    2.150129   -0.016177
      8          1           0       -1.049927    2.150799   -0.008998
      9          1           0       -1.053704   -2.153629   -0.009018
     10          1           0       -3.526270   -2.148627   -0.016205
     11          6           0        0.554612   -0.002843   -0.001741
     12          6           0        1.767348   -0.003544   -0.000352
     13         35           0        3.596775    0.000898    0.003267
     14          6           0       -5.220802    0.002134    0.021058
     15          1           0       -5.633615   -0.883066   -0.475643
     16          1           0       -5.591408   -0.000329    1.055370
     17          1           0       -5.632130    0.890616   -0.470963
 ---------------------------------------------------------------------
 Rotational constants (GHZ):           5.5078929           0.2597303           0.2484207
 Basis read from rwf:  (5D, 7F)
 Pseudo-potential data read from rwf file.
 There are   196 symmetry adapted cartesian basis functions of A   symmetry.
 There are   187 symmetry adapted basis functions of A   symmetry.
   187 basis functions,   335 primitive gaussians,   196 cartesian basis functions
    34 alpha electrons       34 beta electrons
       nuclear repulsion energy       410.3848146376 Hartrees.
 NAtoms=   17 NActive=   17 NUniq=   17 SFac= 1.00D+00 NAtFMM=   60 NAOKFM=F Big=F
 Integral buffers will be    131072 words long.
 Raffenetti 2 integral format.
 Two-electron integral symmetry is turned on.
 Nuclear repulsion after empirical dispersion term =      410.3739029383 Hartrees.
 One-electron integrals computed using PRISM.
   1 Symmetry operations used in ECPInt.
 ECPInt:  NShTT=    2080 NPrTT=   10774 LenC2=    2028 LenP2D=    7553.
 LDataN:  DoStor=T MaxTD1= 6 Len=  172
 NBasis=   187 RedAO= T EigKep=  1.88D-06  NBF=   187
 NBsUse=   185 1.00D-06 EigRej=  8.62D-07 NBFU=   185
 Initial guess from the checkpoint file:  "CH3br-Br-vol.chk"
 B after Tr=     0.000000    0.000000    0.000000
         Rot=    1.000000    0.000005    0.000026    0.000050 Ang=   0.01 deg.
 Requested convergence on RMS density matrix=1.00D-08 within1000 cycles.
 Requested convergence on MAX density matrix=1.00D-06.
 Requested convergence on             energy=1.00D-06.
 No special actions if energy rises.
 SCF Done:  E(RB3LYP) =  -360.490505332     A.U. after    9 cycles
            NFock=  9  Conv=0.99D-08     -V/T= 2.0322
   1 Symmetry operations used in ECPInt.
 ECPInt:  NShTT=    2080 NPrTT=   10774 LenC2=    2028 LenP2D=    7553.
 LDataN:  DoStor=T MaxTD1= 7 Len=  274
 Calling FoFJK, ICntrl=      2127 FMM=F ISym2X=0 I1Cent= 0 IOpClX= 0 NMat=1 NMatS=1 NMatT=0.
 ***** Axes restored to original set *****
 -------------------------------------------------------------------
 Center     Atomic                   Forces (Hartrees/Bohr)
 Number     Number              X              Y              Z
 -------------------------------------------------------------------
      1        6          -0.000001386    0.000001122    0.000000119
      2        6          -0.000019652   -0.000000020   -0.000000227
      3        6           0.000022212    0.000064824   -0.000004249
      4        6          -0.000000371   -0.000007419   -0.000000321
      5        6           0.000000838    0.000000051    0.000000009
      6        6           0.000000946    0.000002427    0.000001988
      7        1          -0.000000570   -0.000000457   -0.000000138
      8        1           0.000002603   -0.000002074   -0.000000203
      9        1           0.000002011    0.000000171   -0.000000174
     10        1           0.000000293    0.000000380   -0.000000113
     11        6          -0.000002516   -0.000042925    0.000005415
     12        6           0.000001122   -0.000057024    0.000000339
     13       35          -0.000004066    0.000041724   -0.000001579
     14        6          -0.000001067   -0.000000609   -0.000001937
     15        1          -0.000000135    0.000000049    0.000000459
     16        1          -0.000000360   -0.000000102    0.000000199
     17        1           0.000000100   -0.000000117    0.000000416
 -------------------------------------------------------------------
 Cartesian Forces:  Max     0.000064824 RMS     0.000015392

 GradGradGradGradGradGradGradGradGradGradGradGradGradGradGradGradGradGrad
 Berny optimization.
 Using GEDIIS/GDIIS optimizer.
 FormGI is forming the generalized inverse of G from B-inverse, IUseBI=4.
 Internal  Forces:  Max     0.000144152 RMS     0.000021341
 Search for a local minimum.
 Step number   2 out of a maximum of   85
 All quantities printed in internal units (Hartrees-Bohrs-Radians)
 Mixed Optimization -- En-DIIS/RFO-DIIS
 Swapping is turned off.
 Update second derivatives using D2CorX and points    1    2
 DE=  1.93D-07 DEPred=-8.74D-08 R=-2.21D+00
 Trust test=-2.21D+00 RLast= 4.02D-03 DXMaxT set to 1.50D-01
 ITU= -1  0
     Eigenvalues ---    0.00621   0.00771   0.01457   0.01975   0.02004
     Eigenvalues ---    0.02057   0.02060   0.02090   0.02097   0.02120
     Eigenvalues ---    0.02122   0.02484   0.04537   0.07027   0.07152
     Eigenvalues ---    0.07548   0.15718   0.16000   0.16000   0.16000
     Eigenvalues ---    0.16000   0.16000   0.16006   0.19417   0.22003
     Eigenvalues ---    0.22953   0.24001   0.24993   0.25203   0.31258
     Eigenvalues ---    0.33783   0.34154   0.34155   0.34884   0.35045
     Eigenvalues ---    0.35081   0.35255   0.39064   0.41083   0.41439
     Eigenvalues ---    0.44583   0.44678   0.45610   0.46227   0.98170
 En-DIIS/RFO-DIIS/Sim-DIIS IScMMF=       -3 using points:     2    1
 RFO step:  Lambda=-4.92971483D-07.
 DidBck=T Rises=F RFO-DIIS coefs:    0.28660    0.71340
 Iteration  1 RMS(Cart)=  0.00126209 RMS(Int)=  0.00000206
 Iteration  2 RMS(Cart)=  0.00000205 RMS(Int)=  0.00000000
 Iteration  3 RMS(Cart)=  0.00000000 RMS(Int)=  0.00000000
 Variable       Old X    -DE/DX   Delta X   Delta X   Delta X     New X
                                 (Linear)    (Quad)   (Total)
    R1        2.63353   0.00000  -0.00004   0.00006   0.00002   2.63355
    R2        2.65222   0.00000  -0.00001   0.00002   0.00001   2.65223
    R3        2.05600   0.00000   0.00001  -0.00002  -0.00001   2.05599
    R4        2.66180  -0.00001  -0.00001   0.00000   0.00000   2.66180
    R5        2.05258   0.00000   0.00003  -0.00005  -0.00002   2.05256
    R6        2.66185   0.00000   0.00000   0.00000   0.00000   2.66185
    R7        2.70057   0.00001  -0.00012   0.00019   0.00007   2.70064
    R8        2.63348   0.00000  -0.00005   0.00008   0.00003   2.63350
    R9        2.05258   0.00000   0.00003  -0.00005  -0.00002   2.05256
   R10        2.65227   0.00000   0.00000   0.00000   0.00000   2.65227
   R11        2.05601   0.00000   0.00001  -0.00002   0.00000   2.05600
   R12        2.85522   0.00000   0.00000   0.00000   0.00000   2.85522
   R13        2.29174   0.00000   0.00003  -0.00004  -0.00001   2.29173
   R14        3.45713   0.00000   0.00025  -0.00037  -0.00013   3.45701
   R15        2.07070   0.00000   0.00000   0.00000   0.00000   2.07070
   R16        2.07625   0.00000  -0.00002   0.00003   0.00001   2.07626
   R17        2.07067   0.00000   0.00000   0.00000   0.00000   2.07068
    A1        2.11739   0.00000  -0.00001   0.00002   0.00001   2.11740
    A2        2.08126   0.00000  -0.00002   0.00003   0.00001   2.08126
    A3        2.08454   0.00000   0.00003  -0.00005  -0.00002   2.08452
    A4        2.10122   0.00000   0.00001  -0.00001  -0.00001   2.10121
    A5        2.09897   0.00000   0.00002  -0.00003  -0.00001   2.09896
    A6        2.08299   0.00001  -0.00003   0.00005   0.00002   2.08301
    A7        2.06945   0.00001   0.00000   0.00001   0.00001   2.06946
    A8        2.10689  -0.00003   0.00001  -0.00004  -0.00003   2.10685
    A9        2.10684   0.00002  -0.00001   0.00004   0.00003   2.10687
   A10        2.10122   0.00000   0.00000   0.00000   0.00000   2.10122
   A11        2.08298   0.00000  -0.00003   0.00005   0.00002   2.08300
   A12        2.09898   0.00000   0.00003  -0.00005  -0.00002   2.09896
   A13        2.11739   0.00000  -0.00001   0.00001   0.00000   2.11739
   A14        2.08128   0.00000  -0.00002   0.00003   0.00001   2.08129
   A15        2.08452   0.00000   0.00003  -0.00004  -0.00001   2.08451
   A16        2.05970   0.00000   0.00002  -0.00003  -0.00001   2.05969
   A17        2.11170   0.00000  -0.00001   0.00001   0.00000   2.11171
   A18        2.11155   0.00000  -0.00001   0.00002   0.00001   2.11156
   A19        1.94625   0.00000   0.00001  -0.00001   0.00000   1.94625
   A20        1.93539   0.00000   0.00000   0.00000   0.00000   1.93539
   A21        1.94629   0.00000   0.00001  -0.00001   0.00000   1.94629
   A22        1.87322   0.00000   0.00000  -0.00001   0.00000   1.87322
   A23        1.88606   0.00000  -0.00002   0.00003   0.00001   1.88607
   A24        1.87329   0.00000   0.00000  -0.00001   0.00000   1.87329
   A25        3.14127   0.00011  -0.00010   0.00071   0.00062   3.14189
   A26        3.14460  -0.00014  -0.00284  -0.00010  -0.00294   3.14166
   A27        3.14175   0.00001   0.00009  -0.00010  -0.00001   3.14174
   A28        3.14296   0.00000  -0.00021   0.00022   0.00001   3.14297
    D1        0.00176   0.00000   0.00001  -0.00002  -0.00001   0.00175
    D2        3.13952   0.00000   0.00003  -0.00004  -0.00001   3.13950
    D3       -3.13806   0.00000   0.00001  -0.00002  -0.00001  -3.13807
    D4       -0.00030   0.00000   0.00003  -0.00004  -0.00001  -0.00031
    D5       -0.00460   0.00000  -0.00001   0.00001   0.00000  -0.00460
    D6        3.11412   0.00000   0.00004  -0.00006  -0.00002   3.11410
    D7        3.13521   0.00000  -0.00001   0.00001   0.00000   3.13522
    D8       -0.02925   0.00000   0.00005  -0.00007  -0.00002  -0.02928
    D9        0.00120   0.00000  -0.00001   0.00002   0.00001   0.00121
   D10        3.13958   0.00000   0.00000   0.00000   0.00001   3.13959
   D11       -3.13660   0.00000  -0.00003   0.00004   0.00002  -3.13658
   D12        0.00179   0.00000  -0.00001   0.00003   0.00001   0.00180
   D13       -0.00120   0.00000   0.00001  -0.00001  -0.00001  -0.00120
   D14        3.13660   0.00000   0.00003  -0.00005  -0.00002   3.13658
   D15       -3.13958   0.00000  -0.00001   0.00000   0.00000  -3.13959
   D16       -0.00179   0.00000   0.00002  -0.00004  -0.00002  -0.00181
   D17       -0.00176   0.00000   0.00000   0.00000   0.00000  -0.00176
   D18        3.13805   0.00000   0.00000   0.00001   0.00000   3.13806
   D19       -3.13952   0.00000  -0.00003   0.00004   0.00001  -3.13950
   D20        0.00030   0.00000  -0.00003   0.00005   0.00001   0.00031
   D21        0.00460   0.00000   0.00000   0.00000   0.00000   0.00460
   D22       -3.11412   0.00000  -0.00005   0.00007   0.00002  -3.11410
   D23       -3.13521   0.00000   0.00001  -0.00001   0.00000  -3.13521
   D24        0.02926   0.00000  -0.00005   0.00007   0.00002   0.02928
   D25        2.63505   0.00000  -0.00004   0.00006   0.00002   2.63507
   D26       -1.56170   0.00000  -0.00003   0.00004   0.00001  -1.56169
   D27        0.52485   0.00000  -0.00002   0.00003   0.00001   0.52486
   D28       -0.53010   0.00000   0.00002  -0.00002   0.00000  -0.53011
   D29        1.55634   0.00000   0.00003  -0.00004  -0.00001   1.55633
   D30       -2.64030   0.00000   0.00003  -0.00005  -0.00002  -2.64031
         Item               Value     Threshold  Converged?
 Maximum Force            0.000144     0.000450     YES
 RMS     Force            0.000021     0.000300     YES
 Maximum Displacement     0.009038     0.001800     NO 
 RMS     Displacement     0.001262     0.001200     NO 
 Predicted change in Energy=-2.464870D-07
 GradGradGradGradGradGradGradGradGradGradGradGradGradGradGradGradGradGrad

                          Input orientation:                          
 ---------------------------------------------------------------------
 Center     Atomic      Atomic             Coordinates (Angstroms)
 Number     Number       Type             X           Y           Z
 ---------------------------------------------------------------------
      1          6           0        2.987608   -1.203140   -0.010533
      2          6           0        1.594023   -1.211149   -0.006354
      3          6           0        0.874479   -0.000241   -0.003449
      4          6           0        1.593809    1.210826   -0.006354
      5          6           0        2.987371    1.203090   -0.010536
      6          6           0        3.710231    0.000033   -0.009863
      7          1           0        3.524614   -2.149346   -0.016075
      8          1           0        1.052046   -2.152432   -0.008910
      9          1           0        1.051645    2.152003   -0.008912
     10          1           0        3.524215    2.149392   -0.016088
     11          6           0       -0.554636   -0.000387   -0.001620
     12          6           0       -1.767366   -0.000149   -0.000211
     13         35           0       -3.596731    0.000094    0.003442
     14          6           0        5.220829    0.000285    0.021196
     15          1           0        5.632792    0.885891   -0.475488
     16          1           0        5.591413    0.003101    1.055521
     17          1           0        5.633025   -0.887800   -0.470819
 ---------------------------------------------------------------------
                    Distance matrix (angstroms):
                    1          2          3          4          5
     1  C    0.000000
     2  C    1.393614   0.000000
     3  C    2.431528   1.408563   0.000000
     4  C    2.787458   2.421975   1.408591   0.000000
     5  C    2.406229   2.787469   2.431536   1.393589   0.000000
     6  C    1.403498   2.438301   2.835760   2.438294   1.403522
     7  H    1.087985   2.146506   3.412041   3.875417   3.395215
     8  H    2.155820   1.086168   2.159511   3.406614   3.873630
     9  H    3.873620   3.406606   2.159531   1.086169   2.155800
    10  H    3.395209   3.875432   3.412065   2.146501   1.087990
    11  C    3.740881   2.466314   1.429116   2.466349   3.740889
    12  C    4.904801   3.572883   2.641846   3.572673   4.904631
    13  Br   6.693392   5.330210   4.471215   5.329885   6.693115
    14  C    2.537028   3.823879   4.346421   3.823800   2.536944
    15  H    3.402532   4.574857   4.863085   4.079099   2.704634
    16  H    3.061256   4.310581   4.834346   4.308946   3.059001
    17  H    2.703615   4.078458   4.863122   4.575502   3.403405
                    6          7          8          9         10
     6  C    0.000000
     7  H    2.157387   0.000000
     8  H    3.420388   2.472581   0.000000
     9  H    3.420388   4.961575   4.304435   0.000000
    10  H    2.157403   4.298738   4.961589   2.472582   0.000000
    11  C    4.264876   4.610696   2.685662   2.685698   4.610725
    12  C    5.477606   5.711773   3.547038   3.546640   5.711533
    13  Br   7.306975   7.438685   5.122953   5.122330   7.438262
    14  C    1.510917   2.738512   4.691892   4.691790   2.738349
    15  H    2.167439   3.723994   5.516551   4.775734   2.500716
    16  H    2.161920   3.170647   5.136652   5.134227   3.166737
    17  H    2.167455   2.498737   4.774728   5.517499   3.725372
                   11         12         13         14         15
    11  C    0.000000
    12  C    1.212730   0.000000
    13  Br   3.042099   1.829369   0.000000
    14  C    5.775511   6.988228   8.817579   0.000000
    15  H    6.268517   7.468151   9.284293   1.095768   0.000000
    16  H    6.236304   7.434125   9.248182   1.098712   1.767772
    17  H    6.268556   7.468278   9.284486   1.095754   1.773697
                   16         17
    16  H    0.000000
    17  H    1.767808   0.000000
 Stoichiometry    C9H7Br
 Framework group  C1[X(C9H7Br)]
 Deg. of freedom    45
 Full point group                 C1      NOp   1
 Largest Abelian subgroup         C1      NOp   1
 Largest concise Abelian subgroup C1      NOp   1
                         Standard orientation:                         
 ---------------------------------------------------------------------
 Center     Atomic      Atomic             Coordinates (Angstroms)
 Number     Number       Type             X           Y           Z
 ---------------------------------------------------------------------
      1          6           0       -2.987589    1.203119   -0.010672
      2          6           0       -1.594004    1.211133   -0.006493
      3          6           0       -0.874455    0.000229   -0.003588
      4          6           0       -1.593781   -1.210841   -0.006493
      5          6           0       -2.987343   -1.203110   -0.010675
      6          6           0       -3.710208   -0.000056   -0.010002
      7          1           0       -3.524599    2.149323   -0.016214
      8          1           0       -1.052031    2.152419   -0.009049
      9          1           0       -1.051614   -2.152016   -0.009051
     10          1           0       -3.524183   -2.149415   -0.016227
     11          6           0        0.554660    0.000379   -0.001759
     12          6           0        1.767389    0.000147   -0.000350
     13         35           0        3.596755   -0.000090    0.003303
     14          6           0       -5.220806   -0.000314    0.021057
     15          1           0       -5.632765   -0.885922   -0.475627
     16          1           0       -5.591390   -0.003131    1.055382
     17          1           0       -5.633005    0.887769   -0.470958
 ---------------------------------------------------------------------
 Rotational constants (GHZ):           5.5079170           0.2597315           0.2484219
 Basis read from rwf:  (5D, 7F)
 Pseudo-potential data read from rwf file.
 There are   196 symmetry adapted cartesian basis functions of A   symmetry.
 There are   187 symmetry adapted basis functions of A   symmetry.
   187 basis functions,   335 primitive gaussians,   196 cartesian basis functions
    34 alpha electrons       34 beta electrons
       nuclear repulsion energy       410.3840698500 Hartrees.
 NAtoms=   17 NActive=   17 NUniq=   17 SFac= 1.00D+00 NAtFMM=   60 NAOKFM=F Big=F
 Integral buffers will be    131072 words long.
 Raffenetti 2 integral format.
 Two-electron integral symmetry is turned on.
 Nuclear repulsion after empirical dispersion term =      410.3731582430 Hartrees.
 One-electron integrals computed using PRISM.
   1 Symmetry operations used in ECPInt.
 ECPInt:  NShTT=    2080 NPrTT=   10774 LenC2=    2028 LenP2D=    7553.
 LDataN:  DoStor=T MaxTD1= 6 Len=  172
 NBasis=   187 RedAO= T EigKep=  1.88D-06  NBF=   187
 NBsUse=   185 1.00D-06 EigRej=  8.62D-07 NBFU=   185
 Initial guess from the checkpoint file:  "CH3br-Br-vol.chk"
 B after Tr=     0.000000    0.000000    0.000000
         Rot=    1.000000   -0.000005    0.000004   -0.000052 Ang=  -0.01 deg.
 Requested convergence on RMS density matrix=1.00D-08 within1000 cycles.
 Requested convergence on MAX density matrix=1.00D-06.
 Requested convergence on             energy=1.00D-06.
 No special actions if energy rises.
 SCF Done:  E(RB3LYP) =  -360.490505559     A.U. after   10 cycles
            NFock= 10  Conv=0.55D-08     -V/T= 2.0322
   1 Symmetry operations used in ECPInt.
 ECPInt:  NShTT=    2080 NPrTT=   10774 LenC2=    2028 LenP2D=    7553.
 LDataN:  DoStor=T MaxTD1= 7 Len=  274
 Calling FoFJK, ICntrl=      2127 FMM=F ISym2X=0 I1Cent= 0 IOpClX= 0 NMat=1 NMatS=1 NMatT=0.
 ***** Axes restored to original set *****
 -------------------------------------------------------------------
 Center     Atomic                   Forces (Hartrees/Bohr)
 Number     Number              X              Y              Z
 -------------------------------------------------------------------
      1        6          -0.000006166    0.000002420   -0.000000423
      2        6           0.000008498    0.000010384   -0.000000552
      3        6          -0.000001923   -0.000008815   -0.000004898
      4        6           0.000001790   -0.000008056   -0.000001200
      5        6          -0.000008171   -0.000005459   -0.000000330
      6        6          -0.000006155   -0.000001204    0.000004533
      7        1          -0.000000254   -0.000003111   -0.000000170
      8        1          -0.000001932   -0.000005941    0.000000375
      9        1          -0.000002880    0.000005305    0.000000512
     10        1          -0.000001633    0.000003251   -0.000000164
     11        6           0.000036486    0.000017903    0.000005838
     12        6           0.000016788   -0.000004746    0.000000134
     13       35          -0.000033225   -0.000001585   -0.000001637
     14        6          -0.000000373   -0.000000648    0.000000397
     15        1           0.000000438   -0.000000588    0.000000029
     16        1          -0.000001630   -0.000000040   -0.000002595
     17        1           0.000000342    0.000000931    0.000000151
 -------------------------------------------------------------------
 Cartesian Forces:  Max     0.000036486 RMS     0.000008593

 GradGradGradGradGradGradGradGradGradGradGradGradGradGradGradGradGradGrad
 Berny optimization.
 Using GEDIIS/GDIIS optimizer.
 FormGI is forming the generalized inverse of G from B-inverse, IUseBI=4.
 Internal  Forces:  Max     0.000033221 RMS     0.000006370
 Search for a local minimum.
 Step number   3 out of a maximum of   85
 All quantities printed in internal units (Hartrees-Bohrs-Radians)
 Mixed Optimization -- En-DIIS/RFO-DIIS
 Swapping is turned off.
 Update second derivatives using D2CorX and points    1    2    3
 DE= -2.27D-07 DEPred=-2.46D-07 R= 9.23D-01
 Trust test= 9.23D-01 RLast= 3.01D-03 DXMaxT set to 1.50D-01
 ITU=  0 -1  0
     Eigenvalues ---    0.00621   0.00782   0.01462   0.01972   0.02006
     Eigenvalues ---    0.02057   0.02062   0.02091   0.02097   0.02121
     Eigenvalues ---    0.02122   0.02597   0.04635   0.07026   0.07152
     Eigenvalues ---    0.08805   0.15720   0.16000   0.16000   0.16000
     Eigenvalues ---    0.16000   0.16001   0.16040   0.21842   0.22190
     Eigenvalues ---    0.23137   0.24344   0.24993   0.25402   0.31255
     Eigenvalues ---    0.33817   0.34155   0.34157   0.35044   0.35050
     Eigenvalues ---    0.35167   0.35255   0.39378   0.41361   0.41503
     Eigenvalues ---    0.44601   0.44849   0.45606   0.46815   0.98840
 En-DIIS/RFO-DIIS/Sim-DIIS IScMMF=       -3 using points:     3    2    1
 RFO step:  Lambda=-1.08007602D-08.
 DidBck=T Rises=F RFO-DIIS coefs:    0.55626    0.09909    0.34465
 Iteration  1 RMS(Cart)=  0.00016016 RMS(Int)=  0.00000002
 Iteration  2 RMS(Cart)=  0.00000004 RMS(Int)=  0.00000000
 Variable       Old X    -DE/DX   Delta X   Delta X   Delta X     New X
                                 (Linear)    (Quad)   (Total)
    R1        2.63355  -0.00001  -0.00003   0.00001  -0.00002   2.63353
    R2        2.65223   0.00000  -0.00001   0.00000  -0.00001   2.65222
    R3        2.05599   0.00000   0.00001   0.00000   0.00001   2.05600
    R4        2.66180  -0.00001   0.00000  -0.00001  -0.00001   2.66179
    R5        2.05256   0.00001   0.00002  -0.00001   0.00002   2.05258
    R6        2.66185  -0.00001   0.00000  -0.00002  -0.00002   2.66183
    R7        2.70064  -0.00002  -0.00009   0.00004  -0.00005   2.70059
    R8        2.63350  -0.00001  -0.00004   0.00001  -0.00002   2.63348
    R9        2.05256   0.00001   0.00002  -0.00001   0.00002   2.05258
   R10        2.65227   0.00000   0.00000   0.00000   0.00000   2.65227
   R11        2.05600   0.00000   0.00001   0.00000   0.00001   2.05601
   R12        2.85522   0.00000   0.00000   0.00000   0.00000   2.85522
   R13        2.29173   0.00002   0.00002   0.00000   0.00001   2.29174
   R14        3.45701   0.00003   0.00018  -0.00004   0.00013   3.45714
   R15        2.07070   0.00000   0.00000   0.00000   0.00000   2.07070
   R16        2.07626   0.00000  -0.00001   0.00000  -0.00001   2.07626
   R17        2.07068   0.00000   0.00000   0.00000   0.00000   2.07067
    A1        2.11740   0.00000  -0.00001   0.00000  -0.00001   2.11739
    A2        2.08126   0.00000  -0.00001   0.00001  -0.00001   2.08126
    A3        2.08452   0.00000   0.00002  -0.00001   0.00002   2.08454
    A4        2.10121   0.00000   0.00001  -0.00001   0.00000   2.10121
    A5        2.09896   0.00000   0.00002  -0.00002   0.00000   2.09895
    A6        2.08301   0.00000  -0.00002   0.00003   0.00000   2.08302
    A7        2.06946   0.00001   0.00000   0.00002   0.00002   2.06947
    A8        2.10685   0.00000   0.00002  -0.00001   0.00001   2.10686
    A9        2.10687  -0.00001  -0.00002  -0.00001  -0.00002   2.10684
   A10        2.10122   0.00000   0.00000  -0.00001  -0.00001   2.10121
   A11        2.08300   0.00000  -0.00003   0.00003   0.00000   2.08300
   A12        2.09896   0.00000   0.00002  -0.00001   0.00001   2.09897
   A13        2.11739   0.00000  -0.00001   0.00001   0.00000   2.11739
   A14        2.08129   0.00000  -0.00001   0.00000  -0.00002   2.08127
   A15        2.08451   0.00000   0.00002   0.00000   0.00002   2.08452
   A16        2.05969   0.00000   0.00001   0.00000   0.00001   2.05970
   A17        2.11171   0.00000   0.00000   0.00000  -0.00001   2.11170
   A18        2.11156   0.00000  -0.00001   0.00000   0.00000   2.11156
   A19        1.94625   0.00000   0.00000   0.00000   0.00000   1.94626
   A20        1.93539   0.00000   0.00000   0.00000  -0.00001   1.93539
   A21        1.94629   0.00000   0.00000   0.00000   0.00000   1.94629
   A22        1.87322   0.00000   0.00000   0.00000   0.00000   1.87322
   A23        1.88607   0.00000  -0.00001   0.00001  -0.00001   1.88607
   A24        1.87329   0.00000   0.00000   0.00000   0.00000   1.87329
   A25        3.14189  -0.00002  -0.00032   0.00004  -0.00028   3.14161
   A26        3.14166   0.00001  -0.00007   0.00001  -0.00006   3.14160
   A27        3.14174   0.00001   0.00005   0.00007   0.00012   3.14186
   A28        3.14297   0.00000  -0.00010  -0.00022  -0.00032   3.14264
    D1        0.00175   0.00000   0.00001   0.00000   0.00001   0.00176
    D2        3.13950   0.00000   0.00002   0.00000   0.00002   3.13952
    D3       -3.13807   0.00000   0.00001   0.00000   0.00001  -3.13806
    D4       -0.00031   0.00000   0.00002   0.00000   0.00002  -0.00030
    D5       -0.00460   0.00000  -0.00001  -0.00001  -0.00001  -0.00461
    D6        3.11410   0.00000   0.00003   0.00000   0.00003   3.11412
    D7        3.13522   0.00000   0.00000  -0.00001  -0.00001   3.13520
    D8       -0.02928   0.00000   0.00003   0.00000   0.00003  -0.02925
    D9        0.00121   0.00000  -0.00001   0.00001   0.00000   0.00121
   D10        3.13959   0.00000   0.00000   0.00002   0.00002   3.13961
   D11       -3.13658   0.00000  -0.00002   0.00001  -0.00001  -3.13659
   D12        0.00180   0.00000  -0.00001   0.00002   0.00001   0.00181
   D13       -0.00120   0.00000   0.00001  -0.00001   0.00000  -0.00121
   D14        3.13658   0.00000   0.00002  -0.00001   0.00001   3.13659
   D15       -3.13959   0.00000   0.00000  -0.00002  -0.00003  -3.13961
   D16       -0.00181   0.00000   0.00002  -0.00002  -0.00001  -0.00181
   D17       -0.00176   0.00000   0.00000   0.00000   0.00000  -0.00176
   D18        3.13806   0.00000   0.00000   0.00000   0.00000   3.13805
   D19       -3.13950   0.00000  -0.00002   0.00000  -0.00002  -3.13952
   D20        0.00031   0.00000  -0.00002   0.00000  -0.00002   0.00029
   D21        0.00460   0.00000   0.00000   0.00001   0.00001   0.00461
   D22       -3.11410   0.00000  -0.00003   0.00001  -0.00003  -3.11412
   D23       -3.13521   0.00000   0.00000   0.00001   0.00001  -3.13520
   D24        0.02928   0.00000  -0.00003   0.00000  -0.00003   0.02925
   D25        2.63507   0.00000  -0.00003   0.00001  -0.00002   2.63505
   D26       -1.56169   0.00000  -0.00002   0.00000  -0.00002  -1.56170
   D27        0.52486   0.00000  -0.00001   0.00000  -0.00002   0.52485
   D28       -0.53011   0.00000   0.00001   0.00001   0.00002  -0.53008
   D29        1.55633   0.00000   0.00002   0.00001   0.00002   1.55635
   D30       -2.64031   0.00000   0.00002   0.00000   0.00002  -2.64029
         Item               Value     Threshold  Converged?
 Maximum Force            0.000033     0.000450     YES
 RMS     Force            0.000006     0.000300     YES
 Maximum Displacement     0.000782     0.001800     YES
 RMS     Displacement     0.000160     0.001200     YES
 Predicted change in Energy=-7.544065D-09
 Optimization completed.
    -- Stationary point found.
                           ----------------------------
                           !   Optimized Parameters   !
                           ! (Angstroms and Degrees)  !
 --------------------------                            --------------------------
 ! Name  Definition              Value          Derivative Info.                !
 --------------------------------------------------------------------------------
 ! R1    R(1,2)                  1.3936         -DE/DX =    0.0                 !
 ! R2    R(1,6)                  1.4035         -DE/DX =    0.0                 !
 ! R3    R(1,7)                  1.088          -DE/DX =    0.0                 !
 ! R4    R(2,3)                  1.4086         -DE/DX =    0.0                 !
 ! R5    R(2,8)                  1.0862         -DE/DX =    0.0                 !
 ! R6    R(3,4)                  1.4086         -DE/DX =    0.0                 !
 ! R7    R(3,11)                 1.4291         -DE/DX =    0.0                 !
 ! R8    R(4,5)                  1.3936         -DE/DX =    0.0                 !
 ! R9    R(4,9)                  1.0862         -DE/DX =    0.0                 !
 ! R10   R(5,6)                  1.4035         -DE/DX =    0.0                 !
 ! R11   R(5,10)                 1.088          -DE/DX =    0.0                 !
 ! R12   R(6,14)                 1.5109         -DE/DX =    0.0                 !
 ! R13   R(11,12)                1.2127         -DE/DX =    0.0                 !
 ! R14   R(12,13)                1.8294         -DE/DX =    0.0                 !
 ! R15   R(14,15)                1.0958         -DE/DX =    0.0                 !
 ! R16   R(14,16)                1.0987         -DE/DX =    0.0                 !
 ! R17   R(14,17)                1.0958         -DE/DX =    0.0                 !
 ! A1    A(2,1,6)              121.318          -DE/DX =    0.0                 !
 ! A2    A(2,1,7)              119.2476         -DE/DX =    0.0                 !
 ! A3    A(6,1,7)              119.4343         -DE/DX =    0.0                 !
 ! A4    A(1,2,3)              120.3905         -DE/DX =    0.0                 !
 ! A5    A(1,2,8)              120.2613         -DE/DX =    0.0                 !
 ! A6    A(3,2,8)              119.3479         -DE/DX =    0.0                 !
[...]
   aniso      0.141825D+03      0.210162D+02      0.233837D+02
   xx         0.639324D+02      0.947380D+01      0.105410D+02
   yx        -0.168385D-01     -0.249521D-02     -0.277630D-02
   yy         0.100405D+03      0.148785D+02      0.165545D+02
   zx         0.375806D+01      0.556887D+00      0.619620D+00
   zy        -0.481424D-01     -0.713397D-02     -0.793762D-02
   zz         0.220278D+03      0.326418D+02      0.363189D+02

 ----------------------------------------------------------------------
 1\1\GINC-IP-172-31-20-208\Freq\RB3LYP\Gen\C9H7Br1\UBUNTU\20-Sep-2023\0
 \\#N Geom=AllCheck Guess=TCheck SCRF=Check GenChk RB3LYP/ChkBas Freq\\
 Title Card Required\\0,1\C,2.9876081644,-1.2031395027,-0.0105328609\C,
 1.5940229883,-1.2111487058,-0.006354439\C,0.8744785323,-0.0002414842,-
 0.0034490399\C,1.5938091555,1.2108259039,-0.0063536643\C,2.9873707238,
 1.2030895598,-0.0105358953\C,3.7102312814,0.0000326313,-0.0098629487\H
 ,3.5246140339,-2.1493455782,-0.0160750858\H,1.0520457999,-2.1524324201
 ,-0.0089098174\H,1.0516450165,2.1520026079,-0.0089120206\H,3.524214746
 5,2.1493922867,-0.0160877966\C,-0.5546363208,-0.0003866489,-0.00162019
 37\C,-1.7673657618,-0.0001493473,-0.0002113232\Br,-3.5967313321,0.0000
 942351,0.0034415667\C,5.2208293442,0.0002845844,0.0211962431\H,5.63279
 16297,0.885891024,-0.4754876661\H,5.5914131244,0.0031005735,1.05552066
 96\H,5.6330248739,-0.8877997194,-0.4708187281\\Version=EM64L-G16RevB.0
 1\State=1-A\HF=-360.4905056\RMSD=2.274e-09\RMSF=8.592e-06\ZeroPoint=0.
 1277498\Thermal=0.1377174\Dipole=0.6417946,0.000274,0.0177369\DipoleDe
 riv=-0.1872887,-0.0911616,-0.0061199,-0.1961873,0.0726325,-0.0069931,-
 0.0077549,-0.0010673,-0.1446522,-0.0571518,0.0580163,0.001842,-0.01144
 13,0.0632297,0.0045659,-0.0063669,0.0028157,-0.0895598,0.3965414,0.000
 0098,-0.0028665,0.0000469,0.0136204,0.0000013,-0.006798,0.0000142,-0.0
 612797,-0.0573993,-0.0579561,0.0018446,0.0114141,0.0631964,-0.0045659,
 -0.0063665,-0.0028469,-0.0895885,-0.1873204,0.0910659,-0.0061195,0.196
 0631,0.0728063,0.0069944,-0.0077641,0.0011174,-0.1446356,0.3781737,0.0
 002143,0.0288073,0.000516,-0.0303724,0.0000108,0.1165795,-0.0000111,-0
 .0500556,-0.0116896,0.0894215,0.0019721,0.0960472,-0.0638041,-0.000398
 2,0.0057403,-0.0038048,0.1293707,0.03093,-0.0726644,0.000385,-0.068284
 5,-0.0389064,-0.0003794,0.0037565,-0.0024299,0.1320738,0.0308931,0.072
 6815,0.000385,0.0682828,-0.0388832,0.0003797,0.0037551,0.0024315,0.132
 0711,-0.011604,-0.089376,0.0019676,-0.0960478,-0.063843,0.0004003,0.00
 57476,0.0038099,0.1293437,-0.1393668,0.0000856,0.0015022,0.0002595,-0.
 0479661,-0.0000017,0.0012723,-0.0000046,0.0797844,0.451478,-0.0001634,
 -0.0012317,-0.0001799,-0.2049496,0.0000013,-0.0020636,0.000002,-0.2711
 26,-0.4612394,0.0000462,-0.000001,0.0000538,0.1251179,-0.0000002,0.001
 7168,0.,0.139933,-0.0038444,-0.0001191,-0.0065464,-0.0011108,0.1260389
 ,-0.0000185,-0.1700801,-0.0000413,0.1231638,-0.032732,-0.0112257,0.008
 936,-0.0968175,-0.0670398,0.0768966,0.0789532,0.0721883,0.0387692,-0.1
 060056,-0.0000867,-0.0335734,-0.0001099,0.087012,-0.0005221,-0.088765,
 -0.0004945,-0.0930886,-0.0323741,0.0112119,0.0088163,0.0974955,-0.0678
 894,-0.0763711,0.0784378,-0.0716786,0.0394765\Polar=220.3661092,0.0014
 602,100.4049369,0.5652293,0.0001314,63.844159\Quadrupole=6.4681568,-0.
 2411762,-6.2269806,0.0010231,0.1535085,-0.0000166\PG=C01 [X(C9H7Br1)]\
 NImag=0\\0.69810780,-0.03391743,0.70605581,-0.00095481,0.00259536,0.13
 196501,-0.34633968,0.03132029,0.00022180,0.69677230,-0.03282440,-0.129
 28569,0.00030725,0.04191549,0.70636782,0.00055842,-0.00017848,-0.05987
 221,-0.00109525,0.00142725,0.13218267,-0.03078196,0.02625866,0.0001517
 9,-0.15709286,0.10295311,0.00023512,0.67874915,0.07188929,0.03213849,-
 0.00089485,0.05239565,-0.26643430,-0.00047969,-0.00002879,0.63270281,0
 .00035450,0.00007205,0.00648880,0.00004914,-0.00032884,-0.06371383,-0.
 00107939,-0.00000013,0.14485549,-0.04849417,-0.02646161,0.00072174,0.0
 5943989,-0.02082201,-0.00001795,-0.15704059,-0.05234847,0.00004884,0.6
 9682000,-0.02697612,-0.01688461,0.00037496,0.02084379,-0.05527197,-0.0
 0009977,-0.10290569,-0.26641544,0.00032863,-0.04194675,0.70630422,0.00
 010655,0.00010614,-0.00527455,-0.00001813,0.00009988,0.00886516,0.0002
 3492,0.00047931,-0.06371276,-0.00109540,-0.00142819,0.13217886,0.06137
 041,0.02154967,-0.00092206,-0.04850024,0.02696831,0.00010628,-0.030765
 80,-0.07189678,0.00035458,-0.34640465,0.03278152,0.00055885,0.69815949
 ,-0.02153474,-0.05622573,0.00039420,0.02646101,-0.01687582,-0.00010601
 ,-0.02626845,0.03212206,-0.00007202,-0.03136457,-0.12928549,0.00017883
 ,0.03393027,0.70601010,-0.00092256,-0.00039473,0.00794211,0.00072194,-
 0.00037494,-0.00527234,0.00015167,0.00089532,0.00648763,0.00022271,-0.
 00030727,-0.05986108,-0.00095614,-0.00259868,0.13196563,-0.17263561,-0
 .11566932,-0.00017361,-0.02752202,-0.02902134,-0.00027769,0.00527528,0
 .00001724,-0.00044620,-0.02756213,0.02900142,-0.00027785,-0.17262877,0
 .11564540,-0.00017323,0.64033060,-0.04807069,-0.26870259,-0.00153641,-
 0.07676485,0.03424123,0.00028950,0.00000757,-0.06795851,-0.00000012,0.
 07675148,0.03427174,-0.00028966,0.04806834,-0.26863559,0.00153645,0.00
 005090,0.66237840,-0.00045836,-0.00029778,-0.06599936,0.00022457,-0.00
 074571,0.00569940,0.00023360,0.00000073,-0.00594402,0.00022313,0.00074
 507,0.00570218,-0.00045776,0.00029746,-0.06601713,0.00507697,0.0000015
 8,0.17142855,-0.12624451,0.11814747,0.00106634,-0.01161882,0.02950869,
 -0.00004291,-0.00495380,-0.00163192,0.00004317,-0.00066194,-0.00074770
 ,-0.00001579,-0.00127711,-0.00333391,0.00004524,0.01052084,-0.01413180
 ,-0.00001272,0.13296237,0.11788847,-0.26832475,-0.00137483,-0.00199134
 ,0.00366640,0.00005289,-0.00092510,0.00191832,-0.00004572,-0.00090825,
 0.00012765,-0.00000713,-0.00417958,-0.00301632,-0.00008296,0.01588593,
 -0.02003993,-0.00013421,-0.12684059,0.28467834,0.00084100,-0.00166912,
 -0.03650734,-0.00003589,-0.00009517,0.00290316,0.00004717,-0.00003520,
 0.00725272,0.00003921,0.00001648,-0.00062898,-0.00007044,0.00015886,0.
 00625769,0.00069132,0.00002776,0.00371505,-0.00103649,0.00150428,0.025
 28128,-0.01036142,-0.02879652,-0.00009915,-0.12951508,-0.12298719,-0.0
 0020446,0.01062506,0.01566871,0.00002258,-0.00150842,0.00301472,0.0000
 2981,-0.00062615,0.00077546,-0.00000646,-0.00525479,0.00178005,-0.0000
 8767,0.00056052,0.00033420,-0.00000014,0.13482635,0.00229098,0.0043573
 9,0.00002549,-0.12118469,-0.27228721,-0.00069786,-0.01545972,-0.018817
 89,-0.00004437,0.00421643,-0.00284230,-0.00003609,0.00075238,0.0002862
 0,-0.00000011,0.00081358,0.00161621,-0.00001599,-0.00035204,0.00091357
 ,0.00001792,0.13008345,0.28716710,-0.00000557,-0.00002253,0.00342242,-
 0.00019803,-0.00079620,-0.03644551,-0.00008219,0.00001193,0.00330224,-
 0.00003275,-0.00004441,0.00594987,0.00006426,-0.00002420,-0.00064383,0
 .00020855,0.00011682,0.00751521,-0.00002099,0.00003556,-0.00416537,0.0
 0026071,0.00073962,0.02510612,-0.00062599,-0.00077560,-0.00000643,-0.0
 0150703,-0.00301452,0.00002976,0.01062380,-0.01566227,0.00002256,-0.12
 956156,0.12301400,-0.00020488,-0.01036821,0.02879390,-0.00009931,-0.00
 525425,-0.00178221,-0.00008759,0.00007538,0.00011494,0.00000130,0.0006
 0078,-0.00082491,-0.00000810,0.13487801,-0.00075264,0.00028602,0.00000
 011,-0.00421614,-0.00284375,0.00003609,0.01546465,-0.01881785,0.000044
 40,0.12121270,-0.27223811,0.00069852,-0.00229371,0.00436259,-0.0000255
 5,-0.00081499,0.00161532,0.00001606,0.00009938,-0.00000458,-0.00000668
 ,0.00082525,-0.00100862,-0.00000682,-0.13011346,0.28711442,0.00006424,
 0.00002427,-0.00064334,-0.00003281,0.00004440,0.00594821,-0.00008223,-
 0.00001196,0.00330084,-0.00019857,0.00079701,-0.03644673,-0.00000546,0
 .00002251,0.00342254,0.00020860,-0.00011667,0.00751903,0.00000199,0.00
 001404,-0.00105584,-0.00000810,0.00000681,0.00042073,0.00026121,-0.000
 74031,0.02510691,-0.00127952,0.00333397,0.00004528,-0.00066212,0.00074
 757,-0.00001581,-0.00495428,0.00163050,0.00004321,-0.01161342,-0.02951
 248,-0.00004281,-0.12620482,-0.11811242,0.00106741,0.01053230,0.014141
 19,-0.00001252,0.00062085,0.00081207,-0.00004248,0.00007556,-0.0000993
 5,0.00000198,0.00056080,0.00035196,-0.00002104,0.13290592,0.00418010,-
 0.00301399,0.00008296,0.00090740,0.00012822,0.00000722,0.00092377,0.00
 191830,0.00004570,0.00198894,0.00366080,-0.00005286,-0.11785990,-0.268
 36056,0.00137705,-0.01588274,-0.02003989,0.00013437,-0.00081129,-0.001
 13908,-0.00002511,-0.00011492,-0.00000465,-0.00001406,-0.00033421,0.00
 091373,-0.00003560,0.12681034,0.28471853,-0.00007048,-0.00015892,0.006
 25839,0.00003936,-0.00001652,-0.00062897,0.00004714,0.00003538,0.00725
 469,-0.00003605,0.00009510,0.00290478,0.00084220,0.00167181,-0.0365111
 5,0.00069168,-0.00002722,0.00371400,-0.00004250,0.00002510,0.00020249,
 0.00000130,0.00000668,-0.00105626,-0.00000013,-0.00001794,-0.00416695,
 -0.00103778,-0.00150679,0.02528084,0.00657392,0.00447574,-0.00002598,-
 0.04013416,0.01778682,0.00009004,-0.29624738,-0.00003718,0.00030014,-0
 .04012915,-0.01779243,0.00009006,0.00657659,-0.00447526,-0.00002608,-0
 .00394073,0.00000170,0.00010810,-0.00041610,0.00002300,-0.00000416,0.0
 0121192,-0.00123941,-0.00000519,0.00121231,0.00124035,-0.00000519,-0.0
 0041623,-0.00002314,-0.00000418,1.40752103,0.00227481,-0.00461928,0.00
 007201,0.02996796,0.00540309,-0.00011513,-0.00001245,-0.07335503,0.000
 00079,-0.02997173,0.00539539,0.00011548,-0.00227348,-0.00461927,-0.000
 07249,0.00000096,-0.00144697,-0.00000031,0.00132865,0.00010200,-0.0000
 1197,0.00105369,0.00029634,0.00001836,-0.00105437,0.00029545,-0.000018
 40,-0.00132878,0.00010186,0.00001197,-0.00014042,0.09234868,-0.0000616
 1,-0.00007950,0.00685143,0.00009400,-0.00015350,0.00207306,0.00035376,
 0.00000027,-0.05292111,0.00009390,0.00015350,0.00207099,-0.00006149,0.
 00007945,0.00684966,0.00020663,0.,-0.00096375,0.00003842,-0.00000908,0
 .00050256,-0.00000059,0.00001402,-0.00337270,-0.00000055,-0.00001399,-
 0.00337092,0.00003846,0.00000914,0.00050233,-0.00175007,-0.00000065,0.
 06431578,-0.00249340,-0.00000268,0.00003289,0.00600148,-0.00873551,-0.
 00003959,-0.02721435,0.00002136,0.00004965,0.00600496,0.00873494,-0.00
 003961,-0.00249322,0.00000343,0.00003294,0.00218612,-0.00000026,-0.000
 12479,-0.00025053,-0.00012772,0.00000635,-0.00012476,0.00087092,-0.000
 00349,-0.00012458,-0.00087109,-0.00000348,-0.00025009,0.00012761,0.000
 00635,-1.03157033,0.00014950,0.00131724,1.27252637,-0.00084152,0.00015
 751,-0.00004444,0.00088698,-0.00129455,0.00004836,-0.00000269,0.005163
 49,-0.00000063,-0.00088861,-0.00129694,-0.00004855,0.00084174,0.000157
 44,0.00004474,-0.00000097,0.00078440,0.00000024,-0.00003581,-0.0000441
 0,0.00000028,-0.00027541,0.00035913,-0.00000173,0.00027606,0.00036023,
 0.00000174,0.00003596,-0.00004416,-0.00000028,0.00017237,-0.01797038,0
 .00000043,-0.00019340,0.01950577,-0.00000483,0.00001129,-0.00020782,0.
 00001361,0.00001004,0.00161142,0.00001992,-0.00000009,0.00408880,0.000
 01362,-0.00001003,0.00161259,-0.00000484,-0.00001128,-0.00020877,-0.00
 001636,0.00000001,-0.00028056,-0.00000135,0.00000010,-0.00016020,-0.00
 000153,0.00000170,-0.00015060,-0.00000154,-0.00000172,-0.00015098,-0.0
 0000136,-0.00000011,-0.00016018,0.00129602,0.00000008,-0.01738334,-0.0
 0177096,0.00000007,0.01385682,-0.00002370,0.00001383,-0.00000675,-0.00
 151458,-0.00016221,-0.00001309,0.00549171,-0.00000031,0.00001241,-0.00
 151456,0.00016179,-0.00001310,-0.00002378,-0.00001393,-0.00000677,-0.0
 0016980,0.00000077,0.00015809,-0.00019731,0.00009316,0.00000440,0.0000
 7861,0.00001157,0.00000900,0.00007866,-0.00001164,0.00000901,-0.000197
 28,-0.00009320,0.00000441,-0.01099176,0.00000560,-0.00002603,-0.221962
 14,0.00002506,0.00045583,0.23128249,0.00005104,0.00015889,0.00000677,-
 0.00088013,-0.00017872,-0.00000694,-0.00000173,0.00458343,0.00000012,0
 .00088046,-0.00017827,0.00000695,-0.00005095,0.00015875,-0.00000680,0.
 00000009,-0.00000257,-0.00000005,-0.00005921,-0.00001054,0.00000058,0.
 00003134,-0.00007964,-0.00000071,-0.00003141,-0.00007974,0.00000071,0.
 00005923,-0.00001052,-0.00000058,0.00000832,-0.00225635,-0.00000012,0.
 00002259,-0.00584662,-0.00000002,-0.00002965,0.00375790,0.00000602,0.0
 0000218,-0.00034771,-0.00000392,0.00000824,0.00001371,0.00000236,0.,0.
 00428973,-0.00000392,-0.00000823,0.00001306,0.00000602,-0.00000218,-0.
 00034725,-0.00001003,0.,0.00016985,-0.00000172,0.00000054,-0.00001368,
 0.00000069,-0.00000161,0.00018865,0.00000069,0.00000161,0.00018862,-0.
 00000172,-0.00000054,-0.00001366,-0.00002671,-0.00000001,-0.00425469,0
 .00046967,-0.00000005,-0.00258207,-0.00045304,0.00000006,0.00268011,-0
 .02211769,-0.00448935,-0.00044611,0.00285624,-0.00120540,0.00044417,-0
 .00181457,-0.00001255,0.00015051,0.00288015,0.00121895,0.00044421,-0.0
 2215383,0.00449632,-0.00044645,-0.21231116,-0.00003502,-0.00276107,0.0
 0107014,0.00151401,-0.00044451,-0.00005182,0.00017444,-0.00012555,-0.0
 0005197,-0.00017422,-0.00012552,0.00106648,-0.00150973,-0.00044466,0.0
 0090663,0.00000019,-0.00017425,-0.00046111,0.00000018,0.00000330,0.000
 05879,-0.00000002,0.00001012,0.48812796,-0.02939282,0.00341200,-0.0015
 1170,-0.00160721,-0.00479434,-0.00115538,-0.00000979,-0.00050172,0.000
 00024,0.00162666,-0.00480404,0.00115562,0.02939753,0.00343241,0.001511
 38,0.00001645,-0.08962907,0.00000245,-0.00119238,0.00062958,0.00085613
 ,-0.00138162,0.00005625,0.00009225,0.00138364,0.00005659,-0.00009247,0
 .00118448,0.00063565,-0.00085668,0.00000321,0.00024405,-0.00000006,-0.
 00000096,0.00001141,-0.00000002,-0.00000143,-0.00000861,0.,-0.00008964
 ,0.58518238,0.00031060,-0.00028196,0.00470027,0.00123377,0.00046523,0.
 00650354,-0.00099836,-0.00000152,-0.00094795,0.00123644,-0.00046365,0.
 00648229,0.00030741,0.00028317,0.00467888,0.00138340,0.00000054,-0.071
 27229,-0.00023728,-0.00056240,-0.00330820,0.00015821,-0.00000153,0.000
 00493,0.00015813,0.00000155,0.00000545,-0.00023757,0.00056273,-0.00329
 260,0.00038452,0.00000024,-0.00081375,-0.00007375,-0.00000011,0.000093
 19,-0.00020313,0.00000003,0.00001612,-0.01173537,-0.00001034,0.5384391
 5,-0.00562554,0.00196455,0.00050295,-0.00013429,-0.00142204,-0.0008783
 7,0.00007118,0.00016380,0.00015337,-0.00006208,-0.00010333,-0.00039720
 ,0.00123907,-0.00170958,-0.00055780,-0.01314798,-0.02837056,0.01469179
 ,0.00004695,-0.00003850,0.00027362,-0.00045779,0.00000377,-0.00004009,
 0.00003101,0.00001902,0.00001724,-0.00027611,0.00128494,0.00041917,0.0
 0000104,0.00008647,0.00004835,0.00004149,0.00001022,-0.00000715,-0.000
 09218,-0.00000724,-0.00000029,-0.08296904,-0.07553126,0.04484159,0.092
 69980,-0.00038536,0.00045383,0.00057949,0.00012651,-0.00009263,0.00000
 295,0.00027037,0.00029350,-0.00005576,-0.00068685,0.00012984,-0.000586
 40,0.00203639,0.00037360,-0.00035692,-0.00009680,0.00059968,-0.0020270
 1,0.00018843,0.00043060,0.00006266,-0.00005742,0.00000073,-0.00000405,
 -0.00006141,0.00000484,0.00003970,0.00007291,0.00023842,0.00049510,-0.
 00011332,0.00005367,0.00015060,0.00005300,-0.00000284,-0.00000994,-0.0
 0003834,-0.00000343,-0.00000558,-0.07751564,-0.22310522,0.09761343,0.0
 8478788,0.23972305,-0.00001951,-0.00010905,0.00051500,-0.00087743,0.00
 010622,0.00010597,0.00014219,-0.00048808,-0.00001158,0.00023246,-0.000
 01450,-0.00004767,-0.00013888,0.00030630,0.00040490,-0.00266372,-0.002
 83725,0.00063106,-0.00004209,0.00014169,-0.00002853,-0.00004020,-0.000
 01056,-0.00007809,0.00001905,0.00000441,-0.00002720,0.00031437,-0.0003
 9370,0.00004865,-0.00008390,-0.00000863,0.00000012,0.00000789,-0.00000
 167,0.00000349,0.00005272,0.00000185,-0.00000036,0.04647391,0.09798240
 ,-0.10260543,-0.04790648,-0.10846111,0.10724130,-0.00027099,0.00133203
 ,0.00044697,-0.00046652,0.00021344,0.00151352,-0.00004293,-0.00000152,
 -0.00023118,-0.00046226,-0.00021675,0.00151066,-0.00025207,-0.00132695
 ,0.00045311,-0.01528352,-0.00009341,-0.03126822,0.00004383,-0.00036496
 ,-0.00068665,-0.00010974,-0.00003855,-0.00003953,-0.00010817,0.0000386
 2,-0.00004009,0.00004471,0.00036810,-0.00068679,-0.00015938,0.00000025
 ,-0.00016382,0.00014304,0.00000005,0.00001466,-0.00021162,0.,0.0000060
 7,-0.07199967,-0.00020698,-0.08098229,0.00401148,0.00100111,0.01165141
 ,0.08110951,-0.00184437,-0.00034133,0.00056807,0.00113953,-0.00058109,
 0.00039088,0.00000300,0.00116954,-0.00000002,-0.00114780,-0.00058159,-
 0.00038572,0.00185020,-0.00034142,-0.00056531,-0.00001514,0.00032975,0
 .00000142,-0.00006261,-0.00012923,-0.00030924,-0.00001534,-0.00001753,
 -0.00006023,0.00001472,-0.00001744,0.00005976,0.00006236,-0.00013234,0
 .00030347,-0.00000165,-0.00002696,-0.00000080,0.00000063,0.00000292,0.
 00000002,0.00000007,-0.00000050,0.00000003,-0.00019593,-0.04670379,-0.
 00063063,0.00931017,0.00087614,0.02664357,0.00023557,0.04575767,0.0003
 9488,0.00068458,0.00031281,-0.00056727,0.00002845,0.00007663,0.0004795
 4,0.00000143,-0.00005818,-0.00057084,-0.00002801,0.00007988,0.00039564
 ,-0.00068421,0.00032479,-0.00176931,0.00000627,0.00378554,-0.00005450,
 0.00005067,-0.00030050,-0.00004374,0.00000028,0.00002960,-0.00004397,-
 0.00000022,0.00002921,-0.00005613,-0.00004793,-0.00030421,-0.00025306,
 0.00000028,-0.00008605,0.00012446,-0.00000009,0.00001479,-0.00003639,0
 .,-0.00000006,-0.07691467,-0.00063123,-0.27708211,-0.00398594,-0.00044
 387,-0.01407190,0.08683643,0.00069640,0.30117307,0.00124206,0.00171629
 ,-0.00055484,-0.00006252,0.00010119,-0.00039217,0.00007232,-0.00016674
 ,0.00015211,-0.00013008,0.00143012,-0.00087029,-0.00564692,-0.00196600
 ,0.00049976,-0.01313437,0.02844679,0.01455446,-0.00028077,-0.00128976,
 0.00041639,0.00003117,-0.00001885,0.00001697,-0.00045897,-0.00000403,-
 0.00003980,0.00004726,0.00003794,0.00027094,0.00000176,-0.00008686,0.0
 0004764,0.00004104,-0.00001020,-0.00000704,-0.00009155,0.00000728,-0.0
 0000028,-0.08303552,0.07580212,0.04445368,0.00462301,-0.00958144,-0.00
 712179,0.00401431,-0.00933341,-0.00393513,0.09276776,-0.00203460,0.000
 37803,0.00035556,0.00067975,0.00013331,0.00058413,-0.00026673,0.000290
 82,0.00005568,-0.00013003,-0.00009088,-0.00000612,0.00037804,0.0004570
 5,-0.00057921,0.00006932,0.00061839,0.00202169,-0.00007335,0.00024208,
 -0.00049245,0.00006154,0.00000491,-0.00003960,0.00005710,0.00000091,0.
 00000446,-0.00018950,0.00042966,-0.00005968,0.00011131,0.00005372,-0.0
 0014970,-0.00005235,-0.00000272,0.00000992,0.00003886,-0.00000346,0.00
 000555,0.07782342,-0.22411353,-0.09697476,0.00955168,-0.01997379,-0.01
 286190,-0.00094004,0.00073719,0.00036720,-0.08508442,0.24083832,-0.000
 13847,-0.00030380,0.00039609,0.00023054,0.00001392,-0.00005006,0.00014
 299,0.00048716,-0.00001152,-0.00087656,-0.00010669,0.00011211,-0.00001
 816,0.00010599,0.00052772,-0.00265917,0.00282840,0.00059725,0.00031317
 ,0.00039150,0.00005369,0.00001878,-0.00000441,-0.00002739,-0.00004021,
 0.00001048,-0.00007959,-0.00004151,-0.00014247,-0.00003221,-0.00008437
 ,0.00000838,0.00000037,0.00000822,0.00000171,0.00000343,0.00005244,-0.
 00000185,-0.00000035,0.04609193,-0.09734261,-0.10160147,-0.00717475,0.
 01300673,0.00792027,0.01166573,-0.02671167,-0.01392331,-0.04749060,0.1
 0775923,0.10611498\\0.00000618,-0.00000241,0.00000042,-0.00000850,-0.0
 0001039,0.00000055,0.00000193,0.00000882,0.00000490,-0.00000178,0.0000
 0807,0.00000120,0.00000817,0.00000544,0.00000033,0.00000614,0.00000121
 ,-0.00000453,0.00000025,0.00000311,0.00000017,0.00000193,0.00000594,-0
 .00000037,0.00000288,-0.00000531,-0.00000051,0.00000163,-0.00000325,0.
 00000016,-0.00003647,-0.00001790,-0.00000584,-0.00001680,0.00000475,-0
 .00000013,0.00003322,0.00000158,0.00000164,0.00000037,0.00000065,-0.00
 000040,-0.00000044,0.00000059,-0.00000003,0.00000163,0.00000004,0.0000
 0259,-0.00000034,-0.00000093,-0.00000015\\\@


 WHEN YOU'VE SEEN ONE NUCLEAR WAR YOU'VE SEEN THEM ALL.
 Job cpu time:       0 days  0 hours 42 minutes  3.0 seconds.
 Elapsed time:       0 days  0 hours  1 minutes 19.2 seconds.
 File lengths (MBytes):  RWF=     70 Int=      0 D2E=      0 Chk=      4 Scr=      1
 Normal termination of Gaussian 16 at Wed Sep 20 06:19:52 2023.
