 Entering Gaussian System, Link 0=/home/ubuntu/g16/g16
 Input=/home/ubuntu/Downloads/MOLECULE11-vol.gjf
 Output=/home/ubuntu/Downloads/MOLECULE11-vol.log
 Initial command:
 /home/ubuntu/g16/l1.exe "/home/ubuntu/Scratch/Gau-169679.inp" -scrdir="/home/ubuntu/Scratch/"
 Entering Link 1 = /home/ubuntu/g16/l1.exe PID=    169683.
  
 Copyright (c) 1988-2017, Gaussian, Inc.  All Rights Reserved.
  
 This is part of the Gaussian(R) 16 program.  It is based on
 the Gaussian(R) 09 system (copyright 2009, Gaussian, Inc.),
 the Gaussian(R) 03 system (copyright 2003, Gaussian, Inc.),
 the Gaussian(R) 98 system (copyright 1998, Gaussian, Inc.),
 the Gaussian(R) 94 system (copyright 1995, Gaussian, Inc.),
 the Gaussian 92(TM) system (copyright 1992, Gaussian, Inc.),
 the Gaussian 90(TM) system (copyright 1990, Gaussian, Inc.),
 the Gaussian 88(TM) system (copyright 1988, Gaussian, Inc.),
 the Gaussian 86(TM) system (copyright 1986, Carnegie Mellon
 University), and the Gaussian 82(TM) system (copyright 1983,
 Carnegie Mellon University). Gaussian is a federally registered
 trademark of Gaussian, Inc.
  
 This software contains proprietary and confidential information,
 including trade secrets, belonging to Gaussian, Inc.
  
 This software is provided under written license and may be
 used, copied, transmitted, or stored only in accord with that
 written license.
  
 The following legend is applicable only to US Government
 contracts under FAR:
  
                    RESTRICTED RIGHTS LEGEND
  
 Use, reproduction and disclosure by the US Government is
 subject to restrictions as set forth in subparagraphs (a)
 and (c) of the Commercial Computer Software - Restricted
 Rights clause in FAR 52.227-19.
  
 Gaussian, Inc.
 340 Quinnipiac St., Bldg. 40, Wallingford CT 06492
  
  
 ---------------------------------------------------------------
 Warning -- This program may not be used in any manner that
 competes with the business of Gaussian, Inc. or will provide
 assistance to any competitor of Gaussian, Inc.  The licensee
 of this program is prohibited from giving any competitor of
 Gaussian, Inc. access to this program.  By using this program,
 the user acknowledges that Gaussian, Inc. is engaged in the
 business of creating and licensing software in the field of
 computational chemistry and represents and warrants to the
 licensee that it is not a competitor of Gaussian, Inc. and that
 it will not use this program in any manner prohibited above.
 ---------------------------------------------------------------
  

 Cite this work as:
 Gaussian 16, Revision B.01,
 M. J. Frisch, G. W. Trucks, H. B. Schlegel, G. E. Scuseria, 
 M. A. Robb, J. R. Cheeseman, G. Scalmani, V. Barone, 
 G. A. Petersson, H. Nakatsuji, X. Li, M. Caricato, A. V. Marenich, 
 J. Bloino, B. G. Janesko, R. Gomperts, B. Mennucci, H. P. Hratchian, 
 J. V. Ortiz, A. F. Izmaylov, J. L. Sonnenberg, D. Williams-Young, 
 F. Ding, F. Lipparini, F. Egidi, J. Goings, B. Peng, A. Petrone, 
 T. Henderson, D. Ranasinghe, V. G. Zakrzewski, J. Gao, N. Rega, 
 G. Zheng, W. Liang, M. Hada, M. Ehara, K. Toyota, R. Fukuda, 
 J. Hasegawa, M. Ishida, T. Nakajima, Y. Honda, O. Kitao, H. Nakai, 
 T. Vreven, K. Throssell, J. A. Montgomery, Jr., J. E. Peralta, 
 F. Ogliaro, M. J. Bearpark, J. J. Heyd, E. N. Brothers, K. N. Kudin, 
 V. N. Staroverov, T. A. Keith, R. Kobayashi, J. Normand, 
 K. Raghavachari, A. P. Rendell, J. C. Burant, S. S. Iyengar, 
 J. Tomasi, M. Cossi, J. M. Millam, M. Klene, C. Adamo, R. Cammi, 
 J. W. Ochterski, R. L. Martin, K. Morokuma, O. Farkas, 
 J. B. Foresman, and D. J. Fox, Gaussian, Inc., Wallingford CT, 2016.
 
 ******************************************
 Gaussian 16:  EM64L-G16RevB.01 20-Dec-2017
                20-Sep-2023 
 ******************************************
 %nprocshared=32
 Will use up to   32 processors via shared memory.
 %mem=60GB
 %chk=MOLECULE11-vol.chk
 ----------------------------------------------------------------------
 # opt freq b3lyp/gen empiricaldispersion=gd3 pseudo=read scf=maxcycle=
 1000 volume
 ----------------------------------------------------------------------
 1/18=20,19=15,26=3,38=1/1,3;
 2/9=110,12=2,17=6,18=5,40=1/2;
 3/5=7,11=2,16=1,17=8,25=1,30=1,71=1,74=-5,124=31/1,2,3;
 4//1;
 5/5=2,7=1000,38=5/2;
 6/7=2,8=2,9=2,10=2,28=1,44=1/1,4;
 7//1,2,3,16;
 1/18=20,19=15,26=3/3(2);
 2/9=110/2;
 99//99;
 2/9=110/2;
 3/5=7,6=1,11=2,16=1,17=8,25=1,30=1,71=1,74=-5,82=7,124=31/1,2,3;
 4/5=5,16=3,69=1/1;
 5/5=2,7=1000,38=5/2;
 7//1,2,3,16;
 1/18=20,19=15,26=3/3(-5);
 2/9=110/2;
 6/7=2,8=2,9=2,10=2,19=2,28=1,44=1/1,4;
 99/9=1/99;
 -------------------
 Title Card Required
 -------------------
 Symbolic Z-matrix:
 Charge =  0 Multiplicity = 1
 C                     1.11335   0.29993   0.0004 
 C                    -0.0422    0.66026  -0.00014 
 Br                    2.87212  -0.21935  -0.00003 
 C                    -1.45166   1.05749  -0.00007 
 C                    -2.42049  -0.14453  -0.00008 
 H                    -1.651     1.68699  -0.8791 
 H                    -1.65097   1.68693   0.87901 
 H                    -2.21681  -0.76907  -0.8802 
 H                    -2.21669  -0.76919   0.87993 
 C                    -3.89039   0.29203   0.00005 
 H                    -4.08241   0.92327   0.88006 
 H                    -4.08252   0.92343  -0.87982 
 C                    -4.85901  -0.89667   0.00001 
 H                    -4.70901  -1.52728   0.8857 
 H                    -5.90313  -0.56177   0.00012 
 H                    -4.70914  -1.52711  -0.88582 
 

 GradGradGradGradGradGradGradGradGradGradGradGradGradGradGradGradGradGrad
 Berny optimization.
 Initialization pass.
                           ----------------------------
                           !    Initial Parameters    !
                           ! (Angstroms and Degrees)  !
 --------------------------                            --------------------------
 ! Name  Definition              Value          Derivative Info.                !
 --------------------------------------------------------------------------------
 ! R1    R(1,2)                  1.2104         estimate D2E/DX2                !
 ! R2    R(1,3)                  1.8338         estimate D2E/DX2                !
 ! R3    R(2,4)                  1.4644         estimate D2E/DX2                !
 ! R4    R(4,5)                  1.5438         estimate D2E/DX2                !
 ! R5    R(4,6)                  1.0994         estimate D2E/DX2                !
 ! R6    R(4,7)                  1.0994         estimate D2E/DX2                !
 ! R7    R(5,8)                  1.0982         estimate D2E/DX2                !
 ! R8    R(5,9)                  1.0983         estimate D2E/DX2                !
 ! R9    R(5,10)                 1.5334         estimate D2E/DX2                !
 ! R10   R(10,11)                1.0999         estimate D2E/DX2                !
 ! R11   R(10,12)                1.0999         estimate D2E/DX2                !
 ! R12   R(10,13)                1.5334         estimate D2E/DX2                !
 ! R13   R(13,14)                1.0975         estimate D2E/DX2                !
 ! R14   R(13,15)                1.0965         estimate D2E/DX2                !
 ! R15   R(13,16)                1.0975         estimate D2E/DX2                !
 ! A1    A(2,4,5)              113.1291         estimate D2E/DX2                !
 ! A2    A(2,4,6)              109.2565         estimate D2E/DX2                !
 ! A3    A(2,4,7)              109.2586         estimate D2E/DX2                !
 ! A4    A(5,4,6)              109.3912         estimate D2E/DX2                !
 ! A5    A(5,4,7)              109.3904         estimate D2E/DX2                !
 ! A6    A(6,4,7)              106.1784         estimate D2E/DX2                !
 ! A7    A(4,5,8)              109.0497         estimate D2E/DX2                !
 ! A8    A(4,5,9)              109.05           estimate D2E/DX2                !
 ! A9    A(4,5,10)             112.3275         estimate D2E/DX2                !
 ! A10   A(8,5,9)              106.5154         estimate D2E/DX2                !
 ! A11   A(8,5,10)             109.8616         estimate D2E/DX2                !
 ! A12   A(9,5,10)             109.8616         estimate D2E/DX2                !
 ! A13   A(5,10,11)            109.3187         estimate D2E/DX2                !
 ! A14   A(5,10,12)            109.3187         estimate D2E/DX2                !
 ! A15   A(5,10,13)            112.634          estimate D2E/DX2                !
 ! A16   A(11,10,12)           106.265          estimate D2E/DX2                !
 ! A17   A(11,10,13)           109.5513         estimate D2E/DX2                !
 ! A18   A(12,10,13)           109.5516         estimate D2E/DX2                !
 ! A19   A(10,13,14)           111.0423         estimate D2E/DX2                !
 ! A20   A(10,13,15)           111.3915         estimate D2E/DX2                !
 ! A21   A(10,13,16)           111.0422         estimate D2E/DX2                !
 ! A22   A(14,13,15)           107.7908         estimate D2E/DX2                !
 ! A23   A(14,13,16)           107.6144         estimate D2E/DX2                !
 ! A24   A(15,13,16)           107.7908         estimate D2E/DX2                !
 ! A25   L(2,1,3,8,-1)         180.7794         estimate D2E/DX2                !
 ! A26   L(1,2,4,9,-1)         178.5444         estimate D2E/DX2                !
 ! A27   L(2,1,3,8,-2)         179.3578         estimate D2E/DX2                !
 ! A28   L(1,2,4,9,-2)         180.7745         estimate D2E/DX2                !
 ! D1    D(2,4,5,8)            -57.9712         estimate D2E/DX2                !
 ! D2    D(2,4,5,9)             57.9668         estimate D2E/DX2                !
 ! D3    D(2,4,5,10)           179.9979         estimate D2E/DX2                !
 ! D4    D(6,4,5,8)             64.0703         estimate D2E/DX2                !
 ! D5    D(6,4,5,9)           -179.9916         estimate D2E/DX2                !
 ! D6    D(6,4,5,10)           -57.9605         estimate D2E/DX2                !
 ! D7    D(7,4,5,8)            179.9851         estimate D2E/DX2                !
 ! D8    D(7,4,5,9)            -64.0769         estimate D2E/DX2                !
 ! D9    D(7,4,5,10)            57.9543         estimate D2E/DX2                !
 ! D10   D(4,5,10,11)          -57.9703         estimate D2E/DX2                !
 ! D11   D(4,5,10,12)           57.9674         estimate D2E/DX2                !
 ! D12   D(4,5,10,13)          179.9987         estimate D2E/DX2                !
 ! D13   D(8,5,10,11)         -179.5385         estimate D2E/DX2                !
 ! D14   D(8,5,10,12)          -63.6009         estimate D2E/DX2                !
 ! D15   D(8,5,10,13)           58.4305         estimate D2E/DX2                !
 ! D16   D(9,5,10,11)           63.5984         estimate D2E/DX2                !
 ! D17   D(9,5,10,12)          179.536          estimate D2E/DX2                !
 ! D18   D(9,5,10,13)          -58.4326         estimate D2E/DX2                !
 ! D19   D(5,10,13,14)          59.8471         estimate D2E/DX2                !
 ! D20   D(5,10,13,15)         179.9992         estimate D2E/DX2                !
 ! D21   D(5,10,13,16)         -59.8489         estimate D2E/DX2                !
 ! D22   D(11,10,13,14)        -62.0523         estimate D2E/DX2                !
 ! D23   D(11,10,13,15)         58.0997         estimate D2E/DX2                !
 ! D24   D(11,10,13,16)        178.2517         estimate D2E/DX2                !
 ! D25   D(12,10,13,14)       -178.2532         estimate D2E/DX2                !
 ! D26   D(12,10,13,15)        -58.1011         estimate D2E/DX2                !
 ! D27   D(12,10,13,16)         62.0508         estimate D2E/DX2                !
 --------------------------------------------------------------------------------
 Trust Radius=3.00D-01 FncErr=1.00D-07 GrdErr=1.00D-06 EigMax=2.50D+02 EigMin=1.00D-04
 Number of steps in this run=     80 maximum allowed number of steps=    100.
 GradGradGradGradGradGradGradGradGradGradGradGradGradGradGradGradGradGrad

                          Input orientation:                          
 ---------------------------------------------------------------------
 Center     Atomic      Atomic             Coordinates (Angstroms)
 Number     Number       Type             X           Y           Z
 ---------------------------------------------------------------------
      1          6           0        1.113345    0.299930    0.000401
      2          6           0       -0.042198    0.660258   -0.000140
      3         35           0        2.872117   -0.219349   -0.000028
      4          6           0       -1.451664    1.057492   -0.000067
      5          6           0       -2.420487   -0.144528   -0.000076
      6          1           0       -1.651003    1.686989   -0.879096
      7          1           0       -1.650968    1.686930    0.879012
      8          1           0       -2.216813   -0.769074   -0.880196
      9          1           0       -2.216693   -0.769191    0.879934
     10          6           0       -3.890390    0.292025    0.000052
     11          1           0       -4.082412    0.923272    0.880057
     12          1           0       -4.082521    0.923426   -0.879819
     13          6           0       -4.859008   -0.896673    0.000012
     14          1           0       -4.709008   -1.527280    0.885697
     15          1           0       -5.903130   -0.561773    0.000120
     16          1           0       -4.709138   -1.527112   -0.885815
 ---------------------------------------------------------------------
                    Distance matrix (angstroms):
                    1          2          3          4          5
     1  C    0.000000
     2  C    1.210420   0.000000
     3  Br   1.833829   3.044165   0.000000
     4  C    2.674541   1.464373   4.508371   0.000000
     5  C    3.561673   2.510765   5.293133   1.543849   0.000000
     6  H    3.215442   2.101189   4.986532   1.099406   2.172380
     7  H    3.215144   2.101215   4.986473   1.099406   2.172371
     8  H    3.606684   2.747078   5.193660   2.167123   1.098250
     9  H    3.606349   2.747050   5.193520   2.167128   1.098250
    10  C    5.003741   3.865770   6.781814   2.556037   1.533360
    11  H    5.306434   4.143338   7.102507   2.777313   2.162597
    12  H    5.306652   4.143344   7.102602   2.777291   2.162598
    13  C    6.091047   5.062183   7.760738   3.927945   2.551883
    14  H    6.166218   5.229641   7.743943   4.251578   2.816722
    15  H    7.069190   5.986976   8.781925   4.736831   3.507548
    16  H    6.166423   5.229659   7.744049   4.251572   2.816735
                    6          7          8          9         10
     6  H    0.000000
     7  H    1.758108   0.000000
     8  H    2.520394   3.073589   0.000000
     9  H    3.073599   2.520432   1.760130   0.000000
    10  C    2.780949   2.780889   2.168324   2.168325   0.000000
    11  H    3.096713   2.548548   3.072944   2.518996   1.099888
    12  H    2.548590   3.096591   2.519012   3.072946   1.099888
    13  C    4.211821   4.211789   2.787874   2.787892   1.533370
    14  H    4.774664   4.436530   3.147108   2.605065   2.182744
    15  H    4.889840   4.889785   3.795637   3.795644   2.186342
    16  H    4.436517   4.774629   2.605060   3.147157   2.182743
                   11         12         13         14         15
    11  H    0.000000
    12  H    1.759876   0.000000
    13  C    2.165590   2.165593   0.000000
    14  H    2.529399   3.084719   1.097544   0.000000
    15  H    2.508916   2.508929   1.096517   1.772675   0.000000
    16  H    3.084716   2.529391   1.097544   1.771512   1.772675
                   16
    16  H    0.000000
 Stoichiometry    C6H9Br
 Framework group  C1[X(C6H9Br)]
 Deg. of freedom    42
 Full point group                 C1      NOp   1
 Largest Abelian subgroup         C1      NOp   1
 Largest concise Abelian subgroup C1      NOp   1
                         Standard orientation:                         
 ---------------------------------------------------------------------
 Center     Atomic      Atomic             Coordinates (Angstroms)
 Number     Number       Type             X           Y           Z
 ---------------------------------------------------------------------
      1          6           0       -1.113345    0.299930   -0.000401
      2          6           0        0.042198    0.660258    0.000140
      3         35           0       -2.872117   -0.219349    0.000028
      4          6           0        1.451664    1.057492    0.000067
      5          6           0        2.420487   -0.144528    0.000076
      6          1           0        1.651003    1.686989    0.879096
      7          1           0        1.650968    1.686930   -0.879012
      8          1           0        2.216813   -0.769074    0.880196
      9          1           0        2.216693   -0.769191   -0.879934
     10          6           0        3.890390    0.292025   -0.000052
     11          1           0        4.082412    0.923272   -0.880057
     12          1           0        4.082521    0.923426    0.879819
     13          6           0        4.859008   -0.896673   -0.000012
     14          1           0        4.709008   -1.527280   -0.885697
     15          1           0        5.903130   -0.561773   -0.000120
     16          1           0        4.709138   -1.527112    0.885815
 ---------------------------------------------------------------------
 Rotational constants (GHZ):           9.3203675           0.3766950           0.3653392
 General basis read from cards:  (5D, 7F)
 ======================================================================================================
                                       Pseudopotential Parameters
 ======================================================================================================
  Center     Atomic      Valence      Angular      Power
  Number     Number     Electrons     Momentum     of R      Exponent        Coefficient   SO-Coeffient
 ======================================================================================================
    1          6
                                   No pseudopotential on this center.
    2          6
                                   No pseudopotential on this center.
    3         35            7
                                      G and up 
                                                     2        1.0000000        0.00000000    0.00000000
                                      S - G
                                                     2        5.0218000       61.51372100    0.00000000
                                                     2        2.5109000        9.02149300    0.00000000
                                      P - G
                                                     2        4.2814000       53.87586400    0.00000000
                                                     2        2.1407000        4.62940200    0.00000000
                                      D - G
                                                     2        2.8800000       20.84967700    0.00000000
                                                     2        1.4400000        2.96544400    0.00000000
                                      F - G
                                                     2        2.7207000       -8.16149300    0.00000000
    4          6
                                   No pseudopotential on this center.
    5          6
                                   No pseudopotential on this center.
    6          1
                                   No pseudopotential on this center.
    7          1
                                   No pseudopotential on this center.
    8          1
                                   No pseudopotential on this center.
    9          1
                                   No pseudopotential on this center.
   10          6
                                   No pseudopotential on this center.
   11          1
                                   No pseudopotential on this center.
   12          1
                                   No pseudopotential on this center.
   13          6
                                   No pseudopotential on this center.
   14          1
                                   No pseudopotential on this center.
   15          1
                                   No pseudopotential on this center.
   16          1
                                   No pseudopotential on this center.
 ======================================================================================================
 There are   143 symmetry adapted cartesian basis functions of A   symmetry.
 There are   137 symmetry adapted basis functions of A   symmetry.
   137 basis functions,   247 primitive gaussians,   143 cartesian basis functions
    26 alpha electrons       26 beta electrons
       nuclear repulsion energy       242.1041076755 Hartrees.
 NAtoms=   16 NActive=   16 NUniq=   16 SFac= 1.00D+00 NAtFMM=   60 NAOKFM=F Big=F
 Integral buffers will be    131072 words long.
 Raffenetti 2 integral format.
 Two-electron integral symmetry is turned on.
 Nuclear repulsion after empirical dispersion term =      242.0941423452 Hartrees.
 One-electron integrals computed using PRISM.
   1 Symmetry operations used in ECPInt.
 ECPInt:  NShTT=    1431 NPrTT=    7044 LenC2=    1408 LenP2D=    5227.
 LDataN:  DoStor=T MaxTD1= 6 Len=  172
 NBasis=   137 RedAO= T EigKep=  6.40D-06  NBF=   137
 NBsUse=   136 1.00D-06 EigRej=  3.52D-07 NBFU=   136
 ExpMin= 3.61D-02 ExpMax= 3.05D+03 ExpMxC= 4.57D+02 IAcc=3 IRadAn=         5 AccDes= 0.00D+00
 Harris functional with IExCor=  402 and IRadAn=       5 diagonalized for initial guess.
 HarFok:  IExCor=  402 AccDes= 0.00D+00 IRadAn=         5 IDoV= 1 UseB2=F ITyADJ=14
 ICtDFT=  3500011 ScaDFX=  1.000000  1.000000  1.000000  1.000000
 FoFCou: FMM=F IPFlag=           0 FMFlag=      100000 FMFlg1=           0
         NFxFlg=           0 DoJE=T BraDBF=F KetDBF=T FulRan=T
         wScrn=  0.000000 ICntrl=       500 IOpCl=  0 I1Cent=   200000004 NGrid=           0
         NMat0=    1 NMatS0=      1 NMatT0=    0 NMatD0=    1 NMtDS0=    0 NMtDT0=    0
 Petite list used in FoFCou.
 Requested convergence on RMS density matrix=1.00D-08 within1000 cycles.
 Requested convergence on MAX density matrix=1.00D-06.
 Requested convergence on             energy=1.00D-06.
 No special actions if energy rises.
 SCF Done:  E(RB3LYP) =  -247.370864319     A.U. after   13 cycles
            NFock= 13  Conv=0.16D-08     -V/T= 2.0443

 **********************************************************************

            Population analysis using the SCF Density.

 **********************************************************************

 Orbital symmetries:
       Occupied  (A) (A) (A) (A) (A) (A) (A) (A) (A) (A) (A) (A)
                 (A) (A) (A) (A) (A) (A) (A) (A) (A) (A) (A) (A)
                 (A) (A)
       Virtual   (A) (A) (A) (A) (A) (A) (A) (A) (A) (A) (A) (A)
                 (A) (A) (A) (A) (A) (A) (A) (A) (A) (A) (A) (A)
                 (A) (A) (A) (A) (A) (A) (A) (A) (A) (A) (A) (A)
                 (A) (A) (A) (A) (A) (A) (A) (A) (A) (A) (A) (A)
                 (A) (A) (A) (A) (A) (A) (A) (A) (A) (A) (A) (A)
                 (A) (A) (A) (A) (A) (A) (A) (A) (A) (A) (A) (A)
                 (A) (A) (A) (A) (A) (A) (A) (A) (A) (A) (A) (A)
                 (A) (A) (A) (A) (A) (A) (A) (A) (A) (A) (A) (A)
                 (A) (A) (A) (A) (A) (A) (A) (A) (A) (A) (A) (A)
                 (A) (A)
 The electronic state is 1-A.
 Alpha  occ. eigenvalues --  -10.22368 -10.21247 -10.19861 -10.18991 -10.18674
 Alpha  occ. eigenvalues --  -10.17593  -0.86460  -0.81987  -0.76956  -0.71725
 Alpha  occ. eigenvalues --   -0.65294  -0.59286  -0.50452  -0.48750  -0.46282
 Alpha  occ. eigenvalues --   -0.44041  -0.43634  -0.39462  -0.37530  -0.36332
 Alpha  occ. eigenvalues --   -0.35291  -0.34788  -0.34441  -0.33834  -0.25890
 Alpha  occ. eigenvalues --   -0.25868
 Alpha virt. eigenvalues --   -0.02634   0.01006   0.01801   0.02453   0.03109
 Alpha virt. eigenvalues --    0.03599   0.04002   0.04830   0.05114   0.05713
 Alpha virt. eigenvalues --    0.05948   0.06495   0.07098   0.07633   0.08352
 Alpha virt. eigenvalues --    0.09224   0.09728   0.11203   0.11883   0.13882
 Alpha virt. eigenvalues --    0.14132   0.14973   0.15802   0.17208   0.18292
 Alpha virt. eigenvalues --    0.20053   0.20528   0.20979   0.22640   0.22852
 Alpha virt. eigenvalues --    0.23531   0.24513   0.25205   0.26203   0.28270
 Alpha virt. eigenvalues --    0.29326   0.30070   0.31230   0.32082   0.33939
 Alpha virt. eigenvalues --    0.35110   0.36959   0.40512   0.48723   0.49533
 Alpha virt. eigenvalues --    0.57329   0.63450   0.63920   0.66358   0.67045
 Alpha virt. eigenvalues --    0.68641   0.69975   0.71015   0.71333   0.73327
 Alpha virt. eigenvalues --    0.75805   0.80070   0.80177   0.81681   0.85038
 Alpha virt. eigenvalues --    0.89214   0.91453   0.91594   0.93189   0.95412
 Alpha virt. eigenvalues --    0.99389   1.00332   1.00475   1.05615   1.10434
 Alpha virt. eigenvalues --    1.10671   1.11925   1.12581   1.14084   1.27774
 Alpha virt. eigenvalues --    1.36461   1.41020   1.43786   1.51903   1.52797
 Alpha virt. eigenvalues --    1.53380   1.55664   1.62289   1.69134   1.71033
 Alpha virt. eigenvalues --    1.84392   1.86700   1.90027   1.90693   1.91683
 Alpha virt. eigenvalues --    1.95783   1.97778   2.00326   2.04969   2.05937
 Alpha virt. eigenvalues --    2.15762   2.23146   2.25067   2.26514   2.35736
 Alpha virt. eigenvalues --    2.38736   2.40193   2.52513   2.60437   2.65103
 Alpha virt. eigenvalues --    2.69232   2.69897   2.86181   3.34260   7.52637
          Condensed to atoms (all electrons):
               1          2          3          4          5          6
     1  C    5.996258  -0.255623   0.119218   0.784941  -0.099229   0.004426
     2  C   -0.255623  10.241539  -0.132478  -4.589280   0.619234  -0.042315
     3  Br   0.119218  -0.132478   6.681587   0.078634  -0.001977   0.000217
     4  C    0.784941  -4.589280   0.078634  10.274158  -0.911059   0.395749
     5  C   -0.099229   0.619234  -0.001977  -0.911059   6.720790  -0.051542
     6  H    0.004426  -0.042315   0.000217   0.395749  -0.051542   0.519488
     7  H    0.004515  -0.042642   0.000216   0.395885  -0.051491  -0.036705
     8  H   -0.002382   0.018607  -0.000004  -0.050157   0.383809  -0.005322
     9  H   -0.002395   0.018685  -0.000004  -0.050182   0.383787   0.004438
    10  C    0.060355  -0.415970   0.003128   0.569708  -0.560079  -0.013573
    11  H    0.001711  -0.020692  -0.000013   0.006443  -0.085861  -0.000473
    12  H    0.001710  -0.020670  -0.000013   0.006466  -0.085874   0.003172
    13  C    0.028182  -0.239085  -0.000116   0.063421   0.022023  -0.003699
    14  H    0.000358  -0.005499  -0.000001  -0.003305  -0.001367  -0.000001
    15  H    0.000062  -0.001133  -0.000001  -0.003252   0.024626   0.000000
    16  H    0.000358  -0.005498  -0.000001  -0.003302  -0.001379   0.000002
               7          8          9         10         11         12
     1  C    0.004515  -0.002382  -0.002395   0.060355   0.001711   0.001710
     2  C   -0.042642   0.018607   0.018685  -0.415970  -0.020692  -0.020670
     3  Br   0.000216  -0.000004  -0.000004   0.003128  -0.000013  -0.000013
     4  C    0.395885  -0.050157  -0.050182   0.569708   0.006443   0.006466
     5  C   -0.051491   0.383809   0.383787  -0.560079  -0.085861  -0.085874
     6  H   -0.036705  -0.005322   0.004438  -0.013573  -0.000473   0.003172
     7  H    0.519480   0.004438  -0.005320  -0.013541   0.003173  -0.000473
     8  H    0.004438   0.525112  -0.034517  -0.034325   0.004646  -0.005389
     9  H   -0.005320  -0.034517   0.525099  -0.034312  -0.005389   0.004646
    10  C   -0.013541  -0.034325  -0.034312   6.584467   0.408800   0.408811
    11  H    0.003173   0.004646  -0.005389   0.408800   0.542469  -0.038212
    12  H   -0.000473  -0.005389   0.004646   0.408811  -0.038212   0.542470
    13  C   -0.003679  -0.011919  -0.011950  -0.445378  -0.004596  -0.004638
    14  H    0.000002  -0.000383   0.002930  -0.113754  -0.004885   0.004384
    15  H    0.000000  -0.000020  -0.000020  -0.105209  -0.002816  -0.002816
    16  H   -0.000001   0.002930  -0.000383  -0.113742   0.004384  -0.004885
              13         14         15         16
     1  C    0.028182   0.000358   0.000062   0.000358
     2  C   -0.239085  -0.005499  -0.001133  -0.005498
     3  Br  -0.000116  -0.000001  -0.000001  -0.000001
     4  C    0.063421  -0.003305  -0.003252  -0.003302
     5  C    0.022023  -0.001367   0.024626  -0.001379
     6  H   -0.003699  -0.000001   0.000000   0.000002
     7  H   -0.003679   0.000002   0.000000  -0.000001
     8  H   -0.011919  -0.000383  -0.000020   0.002930
     9  H   -0.011950   0.002930  -0.000020  -0.000383
    10  C   -0.445378  -0.113754  -0.105209  -0.113742
    11  H   -0.004596  -0.004885  -0.002816   0.004384
    12  H   -0.004638   0.004384  -0.002816  -0.004885
    13  C    6.115142   0.466810   0.435465   0.466806
    14  H    0.466810   0.514634  -0.028573  -0.032512
    15  H    0.435465  -0.028573   0.513771  -0.028573
    16  H    0.466806  -0.032512  -0.028573   0.514635
 Mulliken charges:
               1
     1  C   -0.642466
     2  C    0.872821
     3  Br   0.251611
     4  C   -0.964869
     5  C   -0.304409
     6  H    0.226136
     7  H    0.226144
     8  H    0.204877
     9  H    0.204889
    10  C   -0.185386
    11  H    0.191312
    12  H    0.191311
    13  C   -0.872789
    14  H    0.201164
    15  H    0.198490
    16  H    0.201162
 Sum of Mulliken charges =   0.00000
 Mulliken charges with hydrogens summed into heavy atoms:
               1
     1  C   -0.642466
     2  C    0.872821
     3  Br   0.251611
     4  C   -0.512589
     5  C    0.105357
    10  C    0.197238
    13  C   -0.271973
 Electronic spatial extent (au):  <R**2>=           1931.9758
 Charge=              0.0000 electrons
 Dipole moment (field-independent basis, Debye):
    X=              1.4259    Y=              0.2127    Z=              0.0005  Tot=              1.4417
 Quadrupole moment (field-independent basis, Debye-Ang):
   XX=            -48.0148   YY=            -53.6405   ZZ=            -53.5085
   XY=              2.3086   XZ=             -0.0009   YZ=              0.0001
 Traceless Quadrupole moment (field-independent basis, Debye-Ang):
   XX=              3.7065   YY=             -1.9192   ZZ=             -1.7872
   XY=              2.3086   XZ=             -0.0009   YZ=              0.0001
 Octapole moment (field-independent basis, Debye-Ang**2):
  XXX=           -135.5667  YYY=             -9.1862  ZZZ=              0.0028  XYY=            -39.8623
  XXY=             -4.4321  XXZ=              0.0043  XZZ=            -37.5008  YZZ=             -3.1022
  YYZ=              0.0011  XYZ=              0.0006
 Hexadecapole moment (field-independent basis, Debye-Ang**3):
 XXXX=          -2794.8043 YYYY=           -219.0707 ZZZZ=            -94.9033 XXXY=             66.0006
 XXXZ=             -0.0251 YYYX=             34.9923 YYYZ=              0.0010 ZZZX=             -0.0047
 ZZZY=             -0.0003 XXYY=           -525.9223 XXZZ=           -498.4158 YYZZ=            -48.6169
 XXYZ=             -0.0028 YYXZ=             -0.0025 ZZXY=             10.5939
 N-N= 2.420941423452D+02 E-N=-1.051483339498D+03  KE= 2.368821559437D+02
 Evaluate density.
 Using the total density.
 Monte-Carlo method of calculating molar volume:
 based on  0.001 e/bohr**3 density envelope.
 Number of points per bohr**3 =   20 CutOff= 1.00D-04
 Using the SCF density.
 There are       455 points.  Will hold       455 in memory.
 LenV=  8052977046 MDV=  8053063680.
 Box volume =11792.662 fraction occupied=0.112
 Integrated density= 4.0509028827831592D+01 error=-1.1490971172168408D+01
 Molar volume = 1321.815 bohr**3/mol (117.957 cm**3/mol)
 Recommended a0 for SCRF calculation =  4.47 angstrom (  8.44 bohr)
   1 Symmetry operations used in ECPInt.
 ECPInt:  NShTT=    1431 NPrTT=    7044 LenC2=    1408 LenP2D=    5227.
 LDataN:  DoStor=T MaxTD1= 7 Len=  274
 Calling FoFJK, ICntrl=      2127 FMM=F ISym2X=0 I1Cent= 0 IOpClX= 0 NMat=1 NMatS=1 NMatT=0.
 ***** Axes restored to original set *****
 -------------------------------------------------------------------
 Center     Atomic                   Forces (Hartrees/Bohr)
 Number     Number              X              Y              Z
 -------------------------------------------------------------------
      1        6           0.000016729    0.000031130   -0.000017511
      2        6          -0.000002663   -0.000029872    0.000022653
      3       35           0.000000108   -0.000013113    0.000004081
      4        6           0.000034379    0.000009426   -0.000007248
      5        6           0.000001734    0.000022056   -0.000001385
      6        1          -0.000008661    0.000001577    0.000003624
      7        1          -0.000001401    0.000001442   -0.000003657
      8        1          -0.000001643    0.000001237    0.000004602
      9        1          -0.000001146    0.000002582   -0.000004861
     10        6          -0.000010326   -0.000041082   -0.000000072
     11        1           0.000005750    0.000009014   -0.000013407
     12        1           0.000005389    0.000008602    0.000013413
     13        6          -0.000007784    0.000028514   -0.000000493
     14        1          -0.000012509   -0.000004330   -0.000010779
     15        1          -0.000005385   -0.000022748    0.000000011
     16        1          -0.000012570   -0.000004435    0.000011030
 -------------------------------------------------------------------
 Cartesian Forces:  Max     0.000041082 RMS     0.000014082

 GradGradGradGradGradGradGradGradGradGradGradGradGradGradGradGradGradGrad
 Berny optimization.
 FormGI is forming the generalized inverse of G from B-inverse, IUseBI=4.
 Internal  Forces:  Max     0.000037949 RMS     0.000012710
 Search for a local minimum.
 Step number   1 out of a maximum of   80
 All quantities printed in internal units (Hartrees-Bohrs-Radians)
 Mixed Optimization -- En-DIIS/RFO-DIIS
 Second derivative matrix not updated -- first step.
 ITU=  0
     Eigenvalues ---    0.00230   0.00325   0.00325   0.00717   0.00717
     Eigenvalues ---    0.01237   0.01237   0.03488   0.03488   0.04774
     Eigenvalues ---    0.04796   0.05200   0.05442   0.05491   0.06020
     Eigenvalues ---    0.08244   0.08326   0.12147   0.12202   0.16000
     Eigenvalues ---    0.16000   0.16000   0.16000   0.16000   0.21894
     Eigenvalues ---    0.21897   0.21906   0.22307   0.28181   0.29114
     Eigenvalues ---    0.29115   0.33694   0.33694   0.33748   0.33748
     Eigenvalues ---    0.33876   0.33876   0.33955   0.33955   0.34070
     Eigenvalues ---    0.36422   0.99757
 RFO step:  Lambda=-2.60506391D-07 EMin= 2.30000000D-03
 Linear search not attempted -- first point.
 Iteration  1 RMS(Cart)=  0.00094221 RMS(Int)=  0.00000142
 Iteration  2 RMS(Cart)=  0.00000190 RMS(Int)=  0.00000000
 Iteration  3 RMS(Cart)=  0.00000000 RMS(Int)=  0.00000000
 Variable       Old X    -DE/DX   Delta X   Delta X   Delta X     New X
                                 (Linear)    (Quad)   (Total)
    R1        2.28736   0.00001   0.00000   0.00001   0.00001   2.28737
    R2        3.46544   0.00000   0.00000   0.00002   0.00002   3.46545
    R3        2.76726   0.00002   0.00000   0.00004   0.00004   2.76731
    R4        2.91745   0.00003   0.00000   0.00010   0.00010   2.91755
    R5        2.07758   0.00000   0.00000   0.00000   0.00000   2.07758
    R6        2.07758   0.00000   0.00000   0.00000   0.00000   2.07757
    R7        2.07539   0.00000   0.00000  -0.00001  -0.00001   2.07538
    R8        2.07539  -0.00001   0.00000  -0.00002  -0.00002   2.07538
    R9        2.89763   0.00003   0.00000   0.00009   0.00009   2.89772
   R10        2.07849  -0.00001   0.00000  -0.00002  -0.00002   2.07847
   R11        2.07849  -0.00001   0.00000  -0.00002  -0.00002   2.07847
   R12        2.89765   0.00003   0.00000   0.00010   0.00010   2.89775
   R13        2.07406  -0.00001   0.00000  -0.00002  -0.00002   2.07404
   R14        2.07212   0.00000   0.00000  -0.00001  -0.00001   2.07211
   R15        2.07406  -0.00001   0.00000  -0.00002  -0.00002   2.07404
    A1        1.97447   0.00001   0.00000   0.00007   0.00007   1.97454
    A2        1.90689   0.00000   0.00000   0.00007   0.00007   1.90695
    A3        1.90692   0.00000   0.00000   0.00000   0.00000   1.90692
    A4        1.90924  -0.00001   0.00000  -0.00005  -0.00005   1.90918
    A5        1.90922   0.00000   0.00000  -0.00002  -0.00002   1.90920
    A6        1.85316   0.00000   0.00000  -0.00006  -0.00006   1.85310
    A7        1.90328  -0.00001   0.00000  -0.00003  -0.00003   1.90325
    A8        1.90328  -0.00001   0.00000  -0.00004  -0.00004   1.90324
    A9        1.96049   0.00003   0.00000   0.00017   0.00017   1.96066
   A10        1.85904   0.00000   0.00000  -0.00004  -0.00004   1.85900
   A11        1.91745  -0.00001   0.00000  -0.00004  -0.00004   1.91741
   A12        1.91745  -0.00001   0.00000  -0.00004  -0.00004   1.91741
   A13        1.90797  -0.00001   0.00000  -0.00007  -0.00007   1.90790
   A14        1.90797  -0.00001   0.00000  -0.00007  -0.00007   1.90790
   A15        1.96583   0.00004   0.00000   0.00022   0.00022   1.96606
   A16        1.85467   0.00000   0.00000  -0.00017  -0.00017   1.85450
   A17        1.91203  -0.00001   0.00000   0.00004   0.00004   1.91207
   A18        1.91204  -0.00001   0.00000   0.00003   0.00003   1.91207
   A19        1.93805   0.00001   0.00000   0.00007   0.00007   1.93813
   A20        1.94415   0.00003   0.00000   0.00019   0.00019   1.94434
   A21        1.93805   0.00001   0.00000   0.00007   0.00007   1.93813
   A22        1.88130  -0.00002   0.00000  -0.00012  -0.00012   1.88119
   A23        1.87823  -0.00002   0.00000  -0.00012  -0.00012   1.87811
   A24        1.88130  -0.00002   0.00000  -0.00012  -0.00012   1.88119
   A25        3.15520  -0.00003   0.00000  -0.00387  -0.00387   3.15133
   A26        3.11619   0.00003   0.00000   0.00214   0.00214   3.11833
   A27        3.13038   0.00002   0.00000   0.00233   0.00233   3.13271
   A28        3.15511   0.00001   0.00000   0.00042   0.00042   3.15553
    D1       -1.01179   0.00000   0.00000   0.00008   0.00008  -1.01171
    D2        1.01171   0.00000   0.00000   0.00000   0.00000   1.01171
    D3        3.14156   0.00000   0.00000   0.00004   0.00004  -3.14159
    D4        1.11824   0.00001   0.00000   0.00018   0.00018   1.11841
    D5       -3.14145   0.00000   0.00000   0.00009   0.00009  -3.14136
    D6       -1.01160   0.00000   0.00000   0.00013   0.00013  -1.01147
    D7        3.14133   0.00000   0.00000   0.00006   0.00006   3.14139
    D8       -1.11835  -0.00001   0.00000  -0.00003  -0.00003  -1.11838
    D9        1.01149   0.00000   0.00000   0.00001   0.00001   1.01150
   D10       -1.01177   0.00001   0.00000   0.00017   0.00017  -1.01160
   D11        1.01172  -0.00001   0.00000  -0.00012  -0.00012   1.01160
   D12        3.14157   0.00000   0.00000   0.00003   0.00003  -3.14159
   D13       -3.13354   0.00001   0.00000   0.00012   0.00012  -3.13342
   D14       -1.11004  -0.00001   0.00000  -0.00017  -0.00017  -1.11022
   D15        1.01980   0.00000   0.00000  -0.00003  -0.00003   1.01977
   D16        1.11000   0.00001   0.00000   0.00021   0.00021   1.11021
   D17        3.13349  -0.00001   0.00000  -0.00008  -0.00008   3.13342
   D18       -1.01984   0.00000   0.00000   0.00007   0.00007  -1.01977
   D19        1.04453   0.00000   0.00000  -0.00002  -0.00002   1.04451
   D20        3.14158   0.00000   0.00000   0.00001   0.00001   3.14159
   D21       -1.04456   0.00000   0.00000   0.00004   0.00004  -1.04452
   D22       -1.08302  -0.00001   0.00000  -0.00010  -0.00010  -1.08312
   D23        1.01403   0.00000   0.00000  -0.00008  -0.00008   1.01395
   D24        3.11108   0.00000   0.00000  -0.00005  -0.00005   3.11103
   D25       -3.11110   0.00000   0.00000   0.00007   0.00007  -3.11104
   D26       -1.01406   0.00000   0.00000   0.00009   0.00009  -1.01396
   D27        1.08299   0.00001   0.00000   0.00012   0.00012   1.08311
         Item               Value     Threshold  Converged?
 Maximum Force            0.000038     0.000450     YES
 RMS     Force            0.000013     0.000300     YES
 Maximum Displacement     0.004253     0.001800     NO 
 RMS     Displacement     0.000942     0.001200     YES
 Predicted change in Energy=-1.302531D-07
 GradGradGradGradGradGradGradGradGradGradGradGradGradGradGradGradGradGrad

                          Input orientation:                          
 ---------------------------------------------------------------------
 Center     Atomic      Atomic             Coordinates (Angstroms)
 Number     Number       Type             X           Y           Z
 ---------------------------------------------------------------------
      1          6           0        1.114172    0.302180    0.000444
      2          6           0       -0.042045    0.660360    0.000877
      3         35           0        2.871779   -0.221048   -0.001982
      4          6           0       -1.451547    1.057548    0.000422
      5          6           0       -2.420440   -0.144482    0.000345
      6          1           0       -1.650692    1.686891   -0.878761
      7          1           0       -1.651147    1.687166    0.879302
      8          1           0       -2.216430   -0.769234   -0.879542
      9          1           0       -2.216913   -0.768945    0.880547
     10          6           0       -3.890450    0.291876   -0.000134
     11          1           0       -4.082746    0.923423    0.879582
     12          1           0       -4.082259    0.923138   -0.880162
     13          6           0       -4.859197   -0.896783   -0.000209
     14          1           0       -4.709594   -1.527234    0.885640
     15          1           0       -5.903352   -0.561999   -0.000546
     16          1           0       -4.709112   -1.527517   -0.885775
 ---------------------------------------------------------------------
                    Distance matrix (angstroms):
                    1          2          3          4          5
     1  C    0.000000
     2  C    1.210425   0.000000
     3  Br   1.833837   3.044217   0.000000
     4  C    2.674601   1.464396   4.508433   0.000000
     5  C    3.562722   2.510883   5.292774   1.543901   0.000000
     6  H    3.214793   2.101256   4.986153   1.099406   2.172387
     7  H    3.215208   2.101231   4.987465   1.099404   2.172397
     8  H    3.607659   2.747149   5.192349   2.167144   1.098242
     9  H    3.608049   2.747142   5.193635   2.167137   1.098241
    10  C    5.004632   3.866006   6.781655   2.556267   1.533407
    11  H    5.307238   4.143500   7.102985   2.777430   2.162577
    12  H    5.306972   4.143503   7.102043   2.777434   2.162579
    13  C    6.092507   5.062574   7.760452   3.928294   2.552154
    14  H    6.168190   5.230142   7.744108   4.252009   2.817087
    15  H    7.070534   5.987411   8.781753   4.737247   3.507848
    16  H    6.167966   5.230151   7.743246   4.252016   2.817093
                    6          7          8          9         10
     6  H    0.000000
     7  H    1.758063   0.000000
     8  H    2.520439   3.073593   0.000000
     9  H    3.073582   2.520431   1.760089   0.000000
    10  C    2.781109   2.781136   2.168330   2.168333   0.000000
    11  H    3.096698   2.548720   3.072904   2.519016   1.099877
    12  H    2.548694   3.096734   2.519016   3.072907   1.099877
    13  C    4.212093   4.212115   2.788138   2.788142   1.533422
    14  H    4.774997   4.436947   3.147428   2.605472   2.182832
    15  H    4.890183   4.890207   3.795916   3.795917   2.186522
    16  H    4.436936   4.775022   2.605474   3.147440   2.182833
                   11         12         13         14         15
    11  H    0.000000
    12  H    1.759744   0.000000
    13  C    2.165655   2.165655   0.000000
    14  H    2.529564   3.084790   1.097533   0.000000
    15  H    2.509126   2.509130   1.096513   1.772586   0.000000
    16  H    3.084790   2.529562   1.097533   1.771416   1.772587
                   16
    16  H    0.000000
 Stoichiometry    C6H9Br
 Framework group  C1[X(C6H9Br)]
 Deg. of freedom    42
 Full point group                 C1      NOp   1
 Largest Abelian subgroup         C1      NOp   1
 Largest concise Abelian subgroup C1      NOp   1
                         Standard orientation:                         
 ---------------------------------------------------------------------
 Center     Atomic      Atomic             Coordinates (Angstroms)
 Number     Number       Type             X           Y           Z
 ---------------------------------------------------------------------
      1          6           0       -1.114196    0.302998   -0.001190
      2          6           0        0.042095    0.660938   -0.000950
      3         35           0       -2.871913   -0.219868    0.000233
      4          6           0        1.451679    1.057832    0.000287
      5          6           0        2.420323   -0.144398   -0.000545
      6          1           0        1.650710    1.686272    0.880142
      7          1           0        1.651655    1.688270   -0.877920
      8          1           0        2.215937   -0.769971    0.878672
      9          1           0        2.216912   -0.767956   -0.881415
     10          6           0        3.890423    0.291653    0.000772
     11          1           0        4.083095    0.924023   -0.878271
     12          1           0        4.082118    0.922012    0.881471
     13          6           0        4.858923   -0.897207   -0.000050
     14          1           0        4.709436   -1.526758   -0.886558
     15          1           0        5.903148   -0.562641    0.000907
     16          1           0        4.708461   -1.528777    0.884856
 ---------------------------------------------------------------------
 Rotational constants (GHZ):           9.3080311           0.3767191           0.3653426
 Basis read from rwf:  (5D, 7F)
 Pseudo-potential data read from rwf file.
 There are   143 symmetry adapted cartesian basis functions of A   symmetry.
 There are   137 symmetry adapted basis functions of A   symmetry.
   137 basis functions,   247 primitive gaussians,   143 cartesian basis functions
    26 alpha electrons       26 beta electrons
       nuclear repulsion energy       242.0941176887 Hartrees.
 NAtoms=   16 NActive=   16 NUniq=   16 SFac= 1.00D+00 NAtFMM=   60 NAOKFM=F Big=F
 Integral buffers will be    131072 words long.
 Raffenetti 2 integral format.
 Two-electron integral symmetry is turned on.
 Nuclear repulsion after empirical dispersion term =      242.0841533784 Hartrees.
 One-electron integrals computed using PRISM.
   1 Symmetry operations used in ECPInt.
 ECPInt:  NShTT=    1431 NPrTT=    7044 LenC2=    1408 LenP2D=    5227.
 LDataN:  DoStor=T MaxTD1= 6 Len=  172
 NBasis=   137 RedAO= T EigKep=  6.39D-06  NBF=   137
 NBsUse=   136 1.00D-06 EigRej=  3.54D-07 NBFU=   136
 Initial guess from the checkpoint file:  "MOLECULE11-vol.chk"
 B after Tr=     0.000000    0.000000    0.000000
         Rot=    1.000000   -0.000205    0.000005   -0.000001 Ang=  -0.02 deg.
 Requested convergence on RMS density matrix=1.00D-08 within1000 cycles.
 Requested convergence on MAX density matrix=1.00D-06.
 Requested convergence on             energy=1.00D-06.
 No special actions if energy rises.
 SCF Done:  E(RB3LYP) =  -247.370864161     A.U. after    9 cycles
            NFock=  9  Conv=0.40D-08     -V/T= 2.0443
   1 Symmetry operations used in ECPInt.
 ECPInt:  NShTT=    1431 NPrTT=    7044 LenC2=    1408 LenP2D=    5227.
 LDataN:  DoStor=T MaxTD1= 7 Len=  274
 Calling FoFJK, ICntrl=      2127 FMM=F ISym2X=0 I1Cent= 0 IOpClX= 0 NMat=1 NMatS=1 NMatT=0.
 ***** Axes restored to original set *****
 -------------------------------------------------------------------
 Center     Atomic                   Forces (Hartrees/Bohr)
 Number     Number              X              Y              Z
 -------------------------------------------------------------------
      1        6          -0.000036283   -0.000058609   -0.000010958
      2        6           0.000017977    0.000025183   -0.000049769
      3       35           0.000008977    0.000024239    0.000019003
      4        6          -0.000002265    0.000006731    0.000040206
      5        6           0.000000647   -0.000001065    0.000002216
      6        1           0.000009995   -0.000002348   -0.000001277
      7        1          -0.000008827   -0.000000487    0.000000507
      8        1          -0.000000363   -0.000001575   -0.000002058
      9        1          -0.000001956   -0.000002824    0.000002133
     10        6          -0.000005167   -0.000013124    0.000000620
     11        1          -0.000000378    0.000002660    0.000001375
     12        1          -0.000000489    0.000002800   -0.000001659
     13        6           0.000018379    0.000017816   -0.000000326
     14        1          -0.000000881   -0.000001508    0.000001832
     15        1           0.000001481    0.000003575   -0.000000045
     16        1          -0.000000849   -0.000001463   -0.000001799
 -------------------------------------------------------------------
 Cartesian Forces:  Max     0.000058609 RMS     0.000015890

 GradGradGradGradGradGradGradGradGradGradGradGradGradGradGradGradGradGrad
 Berny optimization.
 Using GEDIIS/GDIIS optimizer.
 FormGI is forming the generalized inverse of G from B-inverse, IUseBI=4.
 Internal  Forces:  Max     0.000114669 RMS     0.000016891
 Search for a local minimum.
 Step number   2 out of a maximum of   80
 All quantities printed in internal units (Hartrees-Bohrs-Radians)
 Mixed Optimization -- En-DIIS/RFO-DIIS
 Swapping is turned off.
 Update second derivatives using D2CorX and points    1    2
 DE=  1.57D-07 DEPred=-1.30D-07 R=-1.21D+00
 Trust test=-1.21D+00 RLast= 5.07D-03 DXMaxT set to 1.50D-01
 ITU= -1  0
     Eigenvalues ---    0.00230   0.00325   0.00325   0.00546   0.01079
     Eigenvalues ---    0.01107   0.03486   0.03487   0.03773   0.04736
     Eigenvalues ---    0.04781   0.05280   0.05440   0.05492   0.06012
     Eigenvalues ---    0.08244   0.08292   0.12149   0.12204   0.15428
     Eigenvalues ---    0.16000   0.16000   0.16000   0.16071   0.21390
     Eigenvalues ---    0.21900   0.21909   0.22312   0.28070   0.29064
     Eigenvalues ---    0.29193   0.33683   0.33694   0.33748   0.33750
     Eigenvalues ---    0.33874   0.33876   0.33943   0.33955   0.34069
     Eigenvalues ---    0.36406   0.99815
 En-DIIS/RFO-DIIS/Sim-DIIS IScMMF=       -3 using points:     2    1
 RFO step:  Lambda=-4.80360191D-07.
 DidBck=T Rises=F RFO-DIIS coefs:    0.71079    0.28921
 Iteration  1 RMS(Cart)=  0.00174929 RMS(Int)=  0.00000362
 Iteration  2 RMS(Cart)=  0.00000434 RMS(Int)=  0.00000000
 Iteration  3 RMS(Cart)=  0.00000000 RMS(Int)=  0.00000000
 Variable       Old X    -DE/DX   Delta X   Delta X   Delta X     New X
                                 (Linear)    (Quad)   (Total)
    R1        2.28737  -0.00002   0.00000   0.00000   0.00000   2.28737
    R2        3.46545   0.00000   0.00000   0.00001   0.00001   3.46546
    R3        2.76731  -0.00001  -0.00001   0.00003   0.00002   2.76732
    R4        2.91755  -0.00001  -0.00003   0.00007   0.00005   2.91760
    R5        2.07758   0.00000   0.00000   0.00000   0.00000   2.07757
    R6        2.07757   0.00000   0.00000   0.00000   0.00000   2.07757
    R7        2.07538   0.00000   0.00000  -0.00001  -0.00001   2.07537
    R8        2.07538   0.00000   0.00000  -0.00001  -0.00001   2.07537
    R9        2.89772  -0.00001  -0.00003   0.00006   0.00004   2.89776
   R10        2.07847   0.00000   0.00001  -0.00001  -0.00001   2.07846
   R11        2.07847   0.00000   0.00001  -0.00001  -0.00001   2.07846
   R12        2.89775  -0.00002  -0.00003   0.00005   0.00003   2.89777
   R13        2.07404   0.00000   0.00001  -0.00002  -0.00001   2.07403
   R14        2.07211   0.00000   0.00000  -0.00001   0.00000   2.07210
   R15        2.07404   0.00000   0.00001  -0.00002  -0.00001   2.07403
    A1        1.97454  -0.00001  -0.00002   0.00005   0.00003   1.97457
    A2        1.90695  -0.00001  -0.00002   0.00002   0.00000   1.90695
    A3        1.90692   0.00001   0.00000   0.00004   0.00004   1.90696
    A4        1.90918   0.00001   0.00002  -0.00004  -0.00002   1.90916
    A5        1.90920  -0.00001   0.00001  -0.00003  -0.00002   1.90918
    A6        1.85310   0.00000   0.00002  -0.00005  -0.00003   1.85307
    A7        1.90325   0.00000   0.00001  -0.00002  -0.00001   1.90324
    A8        1.90324   0.00001   0.00001  -0.00002  -0.00001   1.90323
    A9        1.96066  -0.00001  -0.00005   0.00013   0.00008   1.96074
   A10        1.85900   0.00000   0.00001  -0.00003  -0.00002   1.85898
   A11        1.91741   0.00000   0.00001  -0.00003  -0.00002   1.91738
   A12        1.91741   0.00000   0.00001  -0.00003  -0.00002   1.91739
   A13        1.90790   0.00000   0.00002  -0.00006  -0.00004   1.90786
   A14        1.90790   0.00000   0.00002  -0.00006  -0.00004   1.90786
   A15        1.96606  -0.00001  -0.00006   0.00018   0.00011   1.96617
   A16        1.85450   0.00000   0.00005  -0.00015  -0.00010   1.85440
   A17        1.91207   0.00000  -0.00001   0.00004   0.00002   1.91209
   A18        1.91207   0.00000  -0.00001   0.00003   0.00002   1.91209
   A19        1.93813   0.00000  -0.00002   0.00006   0.00004   1.93817
   A20        1.94434   0.00000  -0.00006   0.00015   0.00010   1.94444
   A21        1.93813   0.00000  -0.00002   0.00007   0.00005   1.93817
   A22        1.88119   0.00000   0.00003  -0.00010  -0.00007   1.88112
   A23        1.87811   0.00000   0.00003  -0.00010  -0.00007   1.87804
   A24        1.88119   0.00000   0.00003  -0.00010  -0.00007   1.88112
   A25        3.15133   0.00011   0.00112   0.00214   0.00326   3.15459
   A26        3.11833  -0.00002  -0.00062   0.00115   0.00054   3.11886
   A27        3.13271   0.00001  -0.00067   0.00257   0.00190   3.13462
   A28        3.15553  -0.00006  -0.00012  -0.00141  -0.00153   3.15400
    D1       -1.01171   0.00000  -0.00002   0.00012   0.00009  -1.01161
    D2        1.01171   0.00001   0.00000   0.00006   0.00006   1.01177
    D3       -3.14159   0.00000  -0.00001   0.00009   0.00008  -3.14151
    D4        1.11841   0.00000  -0.00005   0.00015   0.00010   1.11851
    D5       -3.14136   0.00000  -0.00003   0.00009   0.00006  -3.14129
    D6       -1.01147   0.00000  -0.00004   0.00012   0.00008  -1.01139
    D7        3.14139   0.00000  -0.00002   0.00006   0.00004   3.14143
    D8       -1.11838   0.00000   0.00001   0.00000   0.00000  -1.11838
    D9        1.01150   0.00000   0.00000   0.00003   0.00002   1.01153
   D10       -1.01160   0.00000  -0.00005   0.00014   0.00009  -1.01151
   D11        1.01160   0.00000   0.00003  -0.00011  -0.00007   1.01153
   D12       -3.14159   0.00000  -0.00001   0.00001   0.00001  -3.14158
   D13       -3.13342   0.00000  -0.00003   0.00010   0.00006  -3.13336
   D14       -1.11022   0.00000   0.00005  -0.00015  -0.00010  -1.11031
   D15        1.01977   0.00000   0.00001  -0.00003  -0.00002   1.01975
   D16        1.11021   0.00000  -0.00006   0.00017   0.00011   1.11033
   D17        3.13342   0.00000   0.00002  -0.00007  -0.00005   3.13337
   D18       -1.01977   0.00000  -0.00002   0.00005   0.00003  -1.01975
   D19        1.04451   0.00000   0.00001  -0.00001   0.00000   1.04451
   D20        3.14159   0.00000   0.00000   0.00001   0.00001  -3.14159
   D21       -1.04452   0.00000  -0.00001   0.00003   0.00002  -1.04450
   D22       -1.08312   0.00000   0.00003  -0.00008  -0.00005  -1.08317
   D23        1.01395   0.00000   0.00002  -0.00006  -0.00004   1.01391
   D24        3.11103   0.00000   0.00001  -0.00004  -0.00003   3.11100
   D25       -3.11104   0.00000  -0.00002   0.00006   0.00004  -3.11100
   D26       -1.01396   0.00000  -0.00003   0.00008   0.00005  -1.01391
   D27        1.08311   0.00000  -0.00004   0.00010   0.00007   1.08318
         Item               Value     Threshold  Converged?
 Maximum Force            0.000115     0.000450     YES
 RMS     Force            0.000017     0.000300     YES
 Maximum Displacement     0.008425     0.001800     NO 
 RMS     Displacement     0.001751     0.001200     NO 
 Predicted change in Energy=-2.401818D-07
 GradGradGradGradGradGradGradGradGradGradGradGradGradGradGradGradGradGrad

                          Input orientation:                          
 ---------------------------------------------------------------------
 Center     Atomic      Atomic             Coordinates (Angstroms)
 Number     Number       Type             X           Y           Z
 ---------------------------------------------------------------------
      1          6           0        1.114547    0.301248   -0.000786
      2          6           0       -0.041866    0.658790   -0.000681
      3         35           0        2.873757   -0.216590    0.001638
      4          6           0       -1.451205    1.056588   -0.000215
      5          6           0       -2.420664   -0.145017   -0.000245
      6          1           0       -1.650559    1.686358   -0.879044
      7          1           0       -1.650093    1.685965    0.878999
      8          1           0       -2.217343   -0.769556   -0.880439
      9          1           0       -2.216978   -0.769881    0.879632
     10          6           0       -3.890526    0.291905    0.000136
     11          1           0       -4.082098    0.923285    0.880125
     12          1           0       -4.082462    0.923601   -0.879546
     13          6           0       -4.859868   -0.896288    0.000121
     14          1           0       -4.710181   -1.527146    0.885660
     15          1           0       -5.903888   -0.561091    0.000396
     16          1           0       -4.710545   -1.526830   -0.885704
 ---------------------------------------------------------------------
                    Distance matrix (angstroms):
                    1          2          3          4          5
     1  C    0.000000
     2  C    1.210425   0.000000
     3  Br   1.833843   3.044200   0.000000
     4  C    2.674626   1.464405   4.508468   0.000000
     5  C    3.563267   2.510933   5.294905   1.543925   0.000000
     6  H    3.214915   2.101264   4.986607   1.099405   2.172391
     7  H    3.214763   2.101266   4.985449   1.099404   2.172405
     8  H    3.608588   2.747152   5.196453   2.167156   1.098239
     9  H    3.608534   2.747211   5.195439   2.167148   1.098238
    10  C    5.005082   3.866108   6.783369   2.556370   1.533426
    11  H    5.307358   4.143579   7.103166   2.777474   2.162564
    12  H    5.307396   4.143543   7.103907   2.777485   2.162565
    13  C    6.093253   5.062747   7.763436   3.928448   2.552278
    14  H    6.168977   5.230400   7.746945   4.252221   2.817268
    15  H    7.071214   5.987605   8.784402   4.737432   3.507986
    16  H    6.169007   5.230369   7.747628   4.252227   2.817268
                    6          7          8          9         10
     6  H    0.000000
     7  H    1.758043   0.000000
     8  H    2.520467   3.073593   0.000000
     9  H    3.073578   2.520424   1.760071   0.000000
    10  C    2.781170   2.781248   2.168330   2.168332   0.000000
    11  H    3.096665   2.548789   3.072882   2.519024   1.099873
    12  H    2.548715   3.096788   2.519017   3.072884   1.099873
    13  C    4.212202   4.212257   2.788258   2.788258   1.533436
    14  H    4.775151   4.437146   3.147585   2.605676   2.182873
    15  H    4.890321   4.890396   3.796042   3.796044   2.186601
    16  H    4.437131   4.775206   2.605676   3.147580   2.182874
                   11         12         13         14         15
    11  H    0.000000
    12  H    1.759671   0.000000
    13  C    2.165682   2.165679   0.000000
    14  H    2.529650   3.084825   1.097528   0.000000
    15  H    2.509226   2.509222   1.096510   1.772538   0.000000
    16  H    3.084827   2.529651   1.097528   1.771364   1.772538
                   16
    16  H    0.000000
 Stoichiometry    C6H9Br
 Framework group  C1[X(C6H9Br)]
 Deg. of freedom    42
 Full point group                 C1      NOp   1
 Largest Abelian subgroup         C1      NOp   1
 Largest concise Abelian subgroup C1      NOp   1
                         Standard orientation:                         
 ---------------------------------------------------------------------
 Center     Atomic      Atomic             Coordinates (Angstroms)
 Number     Number       Type             X           Y           Z
 ---------------------------------------------------------------------
      1          6           0       -1.113931    0.299665    0.001401
      2          6           0        0.042324    0.657717    0.000764
      3         35           0       -2.872912   -0.218951   -0.000233
      4          6           0        1.451488    1.056137   -0.000323
      5          6           0        2.421476   -0.145040    0.000403
      6          1           0        1.650761    1.686662    0.877982
      7          1           0        1.649900    1.684932   -0.880060
      8          1           0        2.218629   -0.768999    0.881118
      9          1           0        2.217869   -0.770664   -0.878953
     10          6           0        3.891146    0.292529   -0.000642
     11          1           0        4.082240    0.923324   -0.881153
     12          1           0        4.083001    0.924978    0.878517
     13          6           0        4.861011   -0.895235    0.000059
     14          1           0        4.711404   -1.526834   -0.884966
     15          1           0        5.904883   -0.559578   -0.000706
     16          1           0        4.712166   -1.525169    0.886397
 ---------------------------------------------------------------------
 Rotational constants (GHZ):           9.3425454           0.3764697           0.3651607
 Basis read from rwf:  (5D, 7F)
 Pseudo-potential data read from rwf file.
 There are   143 symmetry adapted cartesian basis functions of A   symmetry.
 There are   137 symmetry adapted basis functions of A   symmetry.
   137 basis functions,   247 primitive gaussians,   143 cartesian basis functions
    26 alpha electrons       26 beta electrons
       nuclear repulsion energy       242.0844155548 Hartrees.
 NAtoms=   16 NActive=   16 NUniq=   16 SFac= 1.00D+00 NAtFMM=   60 NAOKFM=F Big=F
 Integral buffers will be    131072 words long.
 Raffenetti 2 integral format.
 Two-electron integral symmetry is turned on.
 Nuclear repulsion after empirical dispersion term =      242.0744523357 Hartrees.
 One-electron integrals computed using PRISM.
   1 Symmetry operations used in ECPInt.
 ECPInt:  NShTT=    1431 NPrTT=    7044 LenC2=    1408 LenP2D=    5227.
 LDataN:  DoStor=T MaxTD1= 6 Len=  172
 NBasis=   137 RedAO= T EigKep=  6.39D-06  NBF=   137
 NBsUse=   136 1.00D-06 EigRej=  3.55D-07 NBFU=   136
 Initial guess from the checkpoint file:  "MOLECULE11-vol.chk"
 B after Tr=     0.000000    0.000000    0.000000
         Rot=    1.000000    0.000354   -0.000009   -0.000025 Ang=   0.04 deg.
 Requested convergence on RMS density matrix=1.00D-08 within1000 cycles.
 Requested convergence on MAX density matrix=1.00D-06.
 Requested convergence on             energy=1.00D-06.
 No special actions if energy rises.
 SCF Done:  E(RB3LYP) =  -247.370864178     A.U. after    9 cycles
            NFock=  9  Conv=0.68D-08     -V/T= 2.0443
   1 Symmetry operations used in ECPInt.
 ECPInt:  NShTT=    1431 NPrTT=    7044 LenC2=    1408 LenP2D=    5227.
 LDataN:  DoStor=T MaxTD1= 7 Len=  274
 Calling FoFJK, ICntrl=      2127 FMM=F ISym2X=0 I1Cent= 0 IOpClX= 0 NMat=1 NMatS=1 NMatT=0.
 ***** Axes restored to original set *****
 -------------------------------------------------------------------
 Center     Atomic                   Forces (Hartrees/Bohr)
 Number     Number              X              Y              Z
 -------------------------------------------------------------------
      1        6          -0.000024004   -0.000021689    0.000023483
      2        6           0.000026527    0.000098981    0.000028912
      3       35          -0.000005568   -0.000015066   -0.000020599
      4        6          -0.000035039   -0.000066057   -0.000035981
      5        6          -0.000015386   -0.000005802   -0.000000682
      6        1           0.000005786   -0.000004130   -0.000004390
      7        1           0.000015805   -0.000005921    0.000007148
      8        1           0.000000200   -0.000002191   -0.000004197
      9        1          -0.000000102   -0.000003691    0.000004888
     10        6          -0.000001291    0.000001445    0.000000681
     11        1          -0.000004196   -0.000000989    0.000009822
     12        1          -0.000003351   -0.000001113   -0.000009614
     13        6           0.000025324    0.000008154    0.000000642
     14        1           0.000005689    0.000000682    0.000008160
     15        1           0.000003759    0.000016557   -0.000000033
     16        1           0.000005847    0.000000831   -0.000008239
 -------------------------------------------------------------------
 Cartesian Forces:  Max     0.000098981 RMS     0.000021729

 GradGradGradGradGradGradGradGradGradGradGradGradGradGradGradGradGradGrad
 Berny optimization.
 Using GEDIIS/GDIIS optimizer.
 FormGI is forming the generalized inverse of G from B-inverse, IUseBI=4.
 Internal  Forces:  Max     0.000104662 RMS     0.000021874
 Search for a local minimum.
 Step number   3 out of a maximum of   80
 All quantities printed in internal units (Hartrees-Bohrs-Radians)
 Mixed Optimization -- En-DIIS/RFO-DIIS
 Swapping is turned off.
 Update second derivatives using D2CorX and points    1    2    3
 DE= -1.67D-08 DEPred=-2.40D-07 R= 6.96D-02
 Trust test= 6.96D-02 RLast= 4.13D-03 DXMaxT set to 7.50D-02
 ITU= -1 -1  0
     Eigenvalues ---    0.00230   0.00324   0.00325   0.00511   0.01083
     Eigenvalues ---    0.02764   0.03486   0.03486   0.04505   0.04778
     Eigenvalues ---    0.05125   0.05439   0.05486   0.05975   0.07235
     Eigenvalues ---    0.08235   0.08269   0.12150   0.12205   0.14809
     Eigenvalues ---    0.16000   0.16000   0.16019   0.16094   0.20940
     Eigenvalues ---    0.21899   0.21909   0.22558   0.27990   0.29061
     Eigenvalues ---    0.29577   0.33692   0.33695   0.33747   0.33749
     Eigenvalues ---    0.33876   0.33878   0.33948   0.33955   0.34069
     Eigenvalues ---    0.36473   0.99882
 En-DIIS/RFO-DIIS/Sim-DIIS IScMMF=       -3 using points:     3    2    1
 RFO step:  Lambda=-4.26199403D-07.
 DidBck=T Rises=F RFO-DIIS coefs:    0.45458    0.23311    0.31230
 Iteration  1 RMS(Cart)=  0.00133746 RMS(Int)=  0.00000114
 Iteration  2 RMS(Cart)=  0.00000189 RMS(Int)=  0.00000000
 Iteration  3 RMS(Cart)=  0.00000000 RMS(Int)=  0.00000000
 Variable       Old X    -DE/DX   Delta X   Delta X   Delta X     New X
                                 (Linear)    (Quad)   (Total)
    R1        2.28737  -0.00002   0.00000   0.00000  -0.00001   2.28737
    R2        3.46546   0.00000  -0.00001   0.00001   0.00000   3.46546
    R3        2.76732  -0.00002  -0.00002   0.00000  -0.00002   2.76730
    R4        2.91760  -0.00002  -0.00006   0.00002  -0.00004   2.91756
    R5        2.07757   0.00000   0.00000   0.00000   0.00000   2.07757
    R6        2.07757   0.00000   0.00000   0.00000   0.00000   2.07757
    R7        2.07537   0.00000   0.00001   0.00000   0.00001   2.07538
    R8        2.07537   0.00001   0.00001   0.00000   0.00001   2.07538
    R9        2.89776  -0.00003  -0.00005   0.00001  -0.00004   2.89772
   R10        2.07846   0.00001   0.00001   0.00000   0.00001   2.07847
   R11        2.07846   0.00001   0.00001   0.00000   0.00001   2.07847
   R12        2.89777  -0.00004  -0.00004  -0.00001  -0.00005   2.89772
   R13        2.07403   0.00001   0.00001   0.00000   0.00001   2.07404
   R14        2.07210   0.00000   0.00000   0.00000   0.00000   2.07211
   R15        2.07403   0.00001   0.00001   0.00000   0.00001   2.07404
    A1        1.97457   0.00002  -0.00004   0.00003  -0.00001   1.97456
    A2        1.90695  -0.00001  -0.00002   0.00000  -0.00002   1.90693
    A3        1.90696  -0.00002  -0.00002  -0.00001  -0.00003   1.90693
    A4        1.90916   0.00000   0.00003  -0.00001   0.00002   1.90918
    A5        1.90918   0.00000   0.00002  -0.00001   0.00001   1.90919
    A6        1.85307   0.00000   0.00004   0.00000   0.00003   1.85310
    A7        1.90324   0.00001   0.00001   0.00000   0.00001   1.90325
    A8        1.90323   0.00001   0.00002   0.00000   0.00002   1.90325
    A9        1.96074  -0.00003  -0.00010   0.00003  -0.00007   1.96067
   A10        1.85898   0.00000   0.00002  -0.00001   0.00002   1.85900
   A11        1.91738   0.00001   0.00002  -0.00001   0.00002   1.91740
   A12        1.91739   0.00001   0.00002  -0.00001   0.00001   1.91740
   A13        1.90786   0.00001   0.00004  -0.00001   0.00003   1.90789
   A14        1.90786   0.00001   0.00004  -0.00002   0.00003   1.90789
   A15        1.96617  -0.00003  -0.00013   0.00005  -0.00008   1.96608
   A16        1.85440   0.00000   0.00011  -0.00005   0.00006   1.85446
   A17        1.91209   0.00000  -0.00003   0.00001  -0.00001   1.91208
   A18        1.91209   0.00001  -0.00002   0.00001  -0.00001   1.91208
   A19        1.93817   0.00000  -0.00005   0.00003  -0.00002   1.93815
   A20        1.94444  -0.00002  -0.00011   0.00004  -0.00007   1.94436
   A21        1.93817   0.00000  -0.00005   0.00003  -0.00002   1.93815
   A22        1.88112   0.00001   0.00007  -0.00003   0.00004   1.88116
   A23        1.87804   0.00001   0.00007  -0.00003   0.00004   1.87808
   A24        1.88112   0.00001   0.00007  -0.00003   0.00004   1.88116
   A25        3.15459  -0.00007  -0.00057   0.00008  -0.00049   3.15410
   A26        3.11886  -0.00010  -0.00096  -0.00122  -0.00218   3.11668
   A27        3.13462  -0.00003  -0.00176   0.00054  -0.00123   3.13339
   A28        3.15400   0.00009   0.00070   0.00044   0.00115   3.15515
    D1       -1.01161  -0.00001  -0.00008   0.00001  -0.00007  -1.01168
    D2        1.01177   0.00000  -0.00003   0.00000  -0.00003   1.01173
    D3       -3.14151   0.00000  -0.00005   0.00000  -0.00005  -3.14157
    D4        1.11851   0.00000  -0.00011   0.00002  -0.00009   1.11842
    D5       -3.14129   0.00000  -0.00006   0.00001  -0.00005  -3.14135
    D6       -1.01139   0.00000  -0.00008   0.00001  -0.00007  -1.01146
    D7        3.14143   0.00000  -0.00004   0.00001  -0.00003   3.14140
    D8       -1.11838   0.00001   0.00001  -0.00001   0.00000  -1.11838
    D9        1.01153   0.00000  -0.00002   0.00000  -0.00002   1.01151
   D10       -1.01151  -0.00001  -0.00010   0.00004  -0.00006  -1.01157
   D11        1.01153   0.00000   0.00008  -0.00003   0.00005   1.01158
   D12       -3.14158   0.00000  -0.00001   0.00001  -0.00001  -3.14159
   D13       -3.13336   0.00000  -0.00007   0.00003  -0.00004  -3.13340
   D14       -1.11031   0.00001   0.00011  -0.00004   0.00007  -1.11025
   D15        1.01975   0.00000   0.00002  -0.00001   0.00001   1.01977
   D16        1.11033  -0.00001  -0.00013   0.00006  -0.00007   1.11025
   D17        3.13337   0.00000   0.00005  -0.00002   0.00003   3.13340
   D18       -1.01975   0.00000  -0.00004   0.00002  -0.00002  -1.01977
   D19        1.04451   0.00000   0.00001   0.00000   0.00001   1.04452
   D20       -3.14159   0.00000  -0.00001   0.00001   0.00000   3.14159
   D21       -1.04450   0.00000  -0.00002   0.00001  -0.00001  -1.04452
   D22       -1.08317   0.00000   0.00006  -0.00002   0.00004  -1.08313
   D23        1.01391   0.00000   0.00005  -0.00002   0.00003   1.01394
   D24        3.11100   0.00000   0.00003  -0.00001   0.00002   3.11102
   D25       -3.11100   0.00000  -0.00004   0.00002  -0.00002  -3.11102
   D26       -1.01391   0.00000  -0.00006   0.00003  -0.00003  -1.01394
   D27        1.08318   0.00000  -0.00007   0.00003  -0.00004   1.08313
         Item               Value     Threshold  Converged?
 Maximum Force            0.000105     0.000450     YES
 RMS     Force            0.000022     0.000300     YES
 Maximum Displacement     0.007404     0.001800     NO 
 RMS     Displacement     0.001338     0.001200     NO 
 Predicted change in Energy=-2.117234D-07
 GradGradGradGradGradGradGradGradGradGradGradGradGradGradGradGradGradGrad

                          Input orientation:                          
 ---------------------------------------------------------------------
 Center     Atomic      Atomic             Coordinates (Angstroms)
 Number     Number       Type             X           Y           Z
 ---------------------------------------------------------------------
      1          6           0        1.113713    0.300877   -0.000283
      2          6           0       -0.042028    0.660578   -0.000391
      3         35           0        2.871873   -0.220508    0.000828
      4          6           0       -1.451552    1.057676   -0.000126
      5          6           0       -2.420396   -0.144399   -0.000155
      6          1           0       -1.651091    1.687265   -0.879042
      7          1           0       -1.650827    1.687022    0.879023
      8          1           0       -2.216717   -0.768892   -0.880303
      9          1           0       -2.216490   -0.769112    0.879784
     10          6           0       -3.890428    0.291880    0.000088
     11          1           0       -4.082384    0.923190    0.880049
     12          1           0       -4.082611    0.923406   -0.879669
     13          6           0       -4.859136   -0.896791    0.000066
     14          1           0       -4.709181   -1.527505    0.885668
     15          1           0       -5.903306   -0.562057    0.000242
     16          1           0       -4.709409   -1.527287   -0.885731
 ---------------------------------------------------------------------
                    Distance matrix (angstroms):
                    1          2          3          4          5
     1  C    0.000000
     2  C    1.210421   0.000000
     3  Br   1.833840   3.044196   0.000000
     4  C    2.674571   1.464393   4.508410   0.000000
     5  C    3.562050   2.510902   5.292816   1.543905   0.000000
     6  H    3.215342   2.101237   4.987080   1.099405   2.172388
     7  H    3.215160   2.101236   4.986453   1.099404   2.172394
     8  H    3.607021   2.747163   5.193348   2.167150   1.098243
     9  H    3.606888   2.747182   5.192780   2.167147   1.098242
    10  C    5.004148   3.866022   6.781685   2.556278   1.533405
    11  H    5.306758   4.143503   7.102307   2.777421   2.162570
    12  H    5.306848   4.143491   7.102721   2.777426   2.162570
    13  C    6.091743   5.062602   7.760532   3.928304   2.552165
    14  H    6.167169   5.230213   7.743614   4.252050   2.817125
    15  H    7.069880   5.987439   8.781823   4.737262   3.507862
    16  H    6.167248   5.230204   7.743997   4.252054   2.817127
                    6          7          8          9         10
     6  H    0.000000
     7  H    1.758065   0.000000
     8  H    2.520445   3.073593   0.000000
     9  H    3.073586   2.520430   1.760087   0.000000
    10  C    2.781115   2.781144   2.168325   2.168326   0.000000
    11  H    3.096676   2.548707   3.072897   2.519017   1.099878
    12  H    2.548680   3.096721   2.519014   3.072897   1.099878
    13  C    4.212094   4.212114   2.788151   2.788151   1.533407
    14  H    4.775025   4.436976   3.147463   2.605514   2.182836
    15  H    4.890187   4.890214   3.795929   3.795929   2.186524
    16  H    4.436970   4.775046   2.605515   3.147462   2.182836
                   11         12         13         14         15
    11  H    0.000000
    12  H    1.759718   0.000000
    13  C    2.165651   2.165650   0.000000
    14  H    2.529587   3.084796   1.097533   0.000000
    15  H    2.509139   2.509138   1.096511   1.772570   0.000000
    16  H    3.084797   2.529587   1.097533   1.771399   1.772570
                   16
    16  H    0.000000
 Stoichiometry    C6H9Br
 Framework group  C1[X(C6H9Br)]
 Deg. of freedom    42
 Full point group                 C1      NOp   1
 Largest Abelian subgroup         C1      NOp   1
 Largest concise Abelian subgroup C1      NOp   1
                         Standard orientation:                         
 ---------------------------------------------------------------------
 Center     Atomic      Atomic             Coordinates (Angstroms)
 Number     Number       Type             X           Y           Z
 ---------------------------------------------------------------------
      1          6           0       -1.113736    0.301451    0.000597
      2          6           0        0.042057    0.660982    0.000434
      3         35           0       -2.871973   -0.219675   -0.000111
      4          6           0        1.451640    1.057873   -0.000146
      5          6           0        2.420307   -0.144345    0.000235
      6          1           0        1.651372    1.687772    0.878504
      7          1           0        1.650906    1.686850   -0.879561
      8          1           0        2.216637   -0.768468    0.880647
      9          1           0        2.216208   -0.769366   -0.879440
     10          6           0        3.890403    0.291718   -0.000344
     11          1           0        4.082351    0.922660   -0.880571
     12          1           0        4.082779    0.923555    0.879147
     13          6           0        4.858936   -0.897095    0.000025
     14          1           0        4.708786   -1.528129   -0.885317
     15          1           0        5.903155   -0.562515   -0.000400
     16          1           0        4.709218   -1.527228    0.886081
 ---------------------------------------------------------------------
 Rotational constants (GHZ):           9.3111967           0.3767158           0.3653443
 Basis read from rwf:  (5D, 7F)
 Pseudo-potential data read from rwf file.
 There are   143 symmetry adapted cartesian basis functions of A   symmetry.
 There are   137 symmetry adapted basis functions of A   symmetry.
   137 basis functions,   247 primitive gaussians,   143 cartesian basis functions
    26 alpha electrons       26 beta electrons
       nuclear repulsion energy       242.0963839661 Hartrees.
 NAtoms=   16 NActive=   16 NUniq=   16 SFac= 1.00D+00 NAtFMM=   60 NAOKFM=F Big=F
 Integral buffers will be    131072 words long.
 Raffenetti 2 integral format.
 Two-electron integral symmetry is turned on.
 Nuclear repulsion after empirical dispersion term =      242.0864193844 Hartrees.
 One-electron integrals computed using PRISM.
   1 Symmetry operations used in ECPInt.
 ECPInt:  NShTT=    1431 NPrTT=    7044 LenC2=    1408 LenP2D=    5227.
 LDataN:  DoStor=T MaxTD1= 6 Len=  172
 NBasis=   137 RedAO= T EigKep=  6.40D-06  NBF=   137
 NBsUse=   136 1.00D-06 EigRej=  3.53D-07 NBFU=   136
 Initial guess from the checkpoint file:  "MOLECULE11-vol.chk"
 B after Tr=     0.000000    0.000000    0.000000
         Rot=    1.000000   -0.000073    0.000002    0.000026 Ang=  -0.01 deg.
 Requested convergence on RMS density matrix=1.00D-08 within1000 cycles.
[...]
   zz         0.590543D+02      0.875094D+01      0.973674D+01

 ----------------------------------------------------------------------

 Dipole orientation:
     6          0.12772413          0.86179587         -1.99838339
     6          0.18007571          1.20893436          0.26187851
    35          0.05628029          0.38368787         -5.42995578
     6          0.23151683          1.55627833          3.00680498
     6         -0.13831404         -0.93221659          4.48420509
     1         -1.24680515          2.90953124          3.55415316
     1          2.03938458          2.42125034          3.55429813
     1         -1.94655139         -1.78671821          3.92985457
     1          1.34341894         -2.27555261          3.93002662
     6         -0.07855478         -0.52901771          7.35309885
     1          1.73168328          0.34137041          7.88742536
     1         -1.55759781          0.83008096          7.88725549
     6         -0.44467349         -2.99266862          8.83396959
     1          1.04378380         -4.36347920          8.37898191
     1         -0.39540507         -2.66034554         10.87865946
     1         -2.26733050         -3.87152579          8.37880847

 Electric dipole moment (dipole orientation):
 (Debye = 10**-18 statcoulomb cm , SI units = C m)
                  (au)            (Debye)         (10**-30 SI)
   Tot        0.567198D+00      0.144167D+01      0.480891D+01
   x          0.000000D+00      0.000000D+00      0.000000D+00
   y          0.000000D+00      0.000000D+00      0.000000D+00
   z          0.567198D+00      0.144167D+01      0.480891D+01

 Dipole polarizability, Alpha (dipole orientation).
 (esu units = cm**3 , SI units = C**2 m**2 J**-1)
 Alpha(0;0):
               (au)            (10**-24 esu)      (10**-40 SI)
   iso        0.852069D+02      0.126264D+02      0.140487D+02
   aniso      0.688621D+02      0.102043D+02      0.113538D+02
   xx         0.591962D+02      0.877197D+01      0.976014D+01
   yx         0.953867D+00      0.141349D+00      0.157271D+00
   yy         0.654658D+02      0.970103D+01      0.107938D+02
   zx         0.253291D-01      0.375339D-02      0.417621D-02
   zy         0.978995D-01      0.145072D-01      0.161414D-01
   zz         0.130959D+03      0.194061D+02      0.215922D+02

 ----------------------------------------------------------------------
 1\1\GINC-IP-172-31-20-208\Freq\RB3LYP\Gen\C6H9Br1\UBUNTU\20-Sep-2023\0
 \\#N Geom=AllCheck Guess=TCheck SCRF=Check GenChk RB3LYP/ChkBas Freq\\
 Title Card Required\\0,1\C,1.1137699297,0.3006056525,-0.0001571365\C,-
 0.0420203427,0.6601417831,0.0002382497\Br,2.872367927,-0.2193002069,-0
 .0003552349\C,-1.4514938832,1.0574062223,0.0001388642\C,-2.420465296,-
 0.1445601581,0.0000791678\H,-1.650782867,1.6868964181,-0.8789052324\H,
 -1.6508764079,1.6868928282,0.8791630061\H,-2.2166921903,-0.7691874591,
 -0.8799526779\H,-2.216799292,-0.7691846955,0.8801374894\C,-3.890435516
 ,0.2919037637,-0.0000106019\H,-4.0824824965,0.9233529245,0.8798330878\
 H,-4.0823781865,0.9233392226,-0.8798866756\C,-4.8592700235,-0.89664421
 75,-0.0000593502\H,-4.7095602679,-1.5272623899,0.8856549041\H,-5.90339
 80209,-0.5617807705,-0.0001246154\H,-4.7094540663,-1.5272769176,-0.885
 7452443\\Version=EM64L-G16RevB.01\State=1-A\HF=-247.3708644\RMSD=3.194
 e-09\RMSF=4.667e-06\ZeroPoint=0.1331656\Thermal=0.1421921\Dipole=-0.56
 10398,0.0833569,-0.0000049\DipoleDeriv=0.2534734,-0.1717012,-0.0001717
 ,-0.1281899,-0.1818115,0.0000383,-0.0000602,-0.0000056,-0.2381899,-0.1
 069243,-0.0080466,0.0000146,-0.0746512,-0.0942662,0.0000079,0.0002505,
 -0.0000287,-0.0543848,-0.2759776,0.087434,0.0000933,0.1177106,0.096227
 5,-0.0000225,-0.0000178,0.0000141,0.1214988,0.2159523,-0.0490988,0.000
 0117,-0.0966341,0.1592983,-0.0000041,-0.0001691,0.0000015,0.2025418,0.
 0583343,0.0180295,-0.0000017,0.1785286,0.0801769,-0.0000235,-0.0000069
 ,0.0000037,0.1683965,-0.0709587,0.0532167,-0.0402751,0.0269084,-0.0066
 605,0.0660802,-0.0442205,0.1014926,-0.0364112,-0.0708891,0.0532194,0.0
 40312,0.0269127,-0.0066628,-0.0660907,0.0442236,-0.1014839,-0.0364265,
 0.0086132,0.0091213,0.0240644,0.0062002,-0.039035,-0.0820018,0.0239187
 ,-0.10425,-0.0756556,0.0086325,0.0091063,-0.0240563,0.0061975,-0.03903
 76,0.0820053,-0.0239124,0.1042552,-0.07567,0.1084479,-0.0040777,-0.000
 0009,-0.1095968,0.1256398,0.0000104,-0.0000152,0.0000024,0.1783282,-0.
 0093356,-0.0071649,0.0063723,0.0197188,-0.0640641,-0.1056236,0.0360551
 ,-0.1293397,-0.0938946,-0.0093326,-0.0071795,-0.0063618,0.019705,-0.06
 40607,0.1056245,-0.0360416,0.129338,-0.0939022,0.0086196,-0.046118,-0.
 0000029,0.0262278,0.0868267,-0.0000028,-0.000003,-0.0000047,0.1348841,
 0.0514174,0.0237084,-0.0567182,-0.0323226,-0.0363339,0.0840426,-0.0103
 889,0.1201698,-0.08885,-0.2214845,0.0158274,-0.0000131,0.0455973,0.020
 099,0.0000053,-0.0000174,0.0000019,0.0765725,0.0514117,0.0237238,0.056
 7334,-0.0323122,-0.0363359,-0.0840455,0.0104051,-0.1201666,-0.0888371\
 Polar=129.517958,-9.5960701,67.0483731,-0.0097448,0.0027374,59.0542927
 \Quadrupole=2.756731,-1.4269779,-1.3297531,-1.7164076,-0.000561,0.0001
 168\PG=C01 [X(C6H9Br1)]\NImag=0\\1.18173690,-0.35481913,0.12757390,-0.
 00029025,0.00009315,0.01762696,-0.97603695,0.29482188,0.00028208,1.297
 39191,0.29146817,-0.10818644,-0.00008824,-0.36541408,0.19410866,0.0002
 4486,-0.00007903,-0.01678499,-0.00026287,0.00008414,0.07814232,-0.2038
 0564,0.05800982,0.00001490,-0.00767046,0.00208708,0.00001232,0.2113461
 8,0.05801902,-0.02269909,-0.00000560,0.00230663,-0.00327788,-0.0000026
 6,-0.06129280,0.02191401,0.00001126,-0.00000425,-0.00528672,0.00001412
 ,-0.00000378,-0.00307669,-0.00002312,0.00000712,0.00375574,-0.00392906
 ,0.00308245,-0.00000908,-0.25099377,0.05739263,0.00000947,0.00329936,-
 0.00008487,-0.00000170,0.48579730,0.00504384,0.00252829,0.00000054,0.0
 5684938,-0.07913279,-0.00000186,-0.00001192,0.00448956,0.00000150,-0.0
 4896159,0.48924965,0.00003284,-0.00001022,0.00285763,-0.00003232,0.000
 00865,-0.06434716,-0.00000338,0.00000157,0.00504561,-0.00001224,-0.000
 00266,0.55964266,0.00262993,-0.00103121,-0.00000040,-0.03507421,-0.021
 82808,-0.00000232,-0.00038945,0.00111012,0.00000023,-0.10220938,-0.046
 76662,-0.00000066,0.45554348,0.00398429,-0.00247556,-0.00000157,-0.001
 46217,0.01328019,0.00000040,0.00126830,-0.00082859,0.00000003,-0.04079
 374,-0.14134804,-0.00000072,-0.03186617,0.52173803,0.00000124,0.000000
 28,0.00044861,-0.00000195,-0.00000178,-0.00189931,-0.00000030,-0.00000
 023,0.00012883,-0.00000243,-0.00000177,-0.07743590,-0.00000877,-0.0000
 0222,0.59768614,-0.00024180,-0.00040405,0.00120441,-0.01376407,0.02076
 579,-0.02790100,-0.00125060,-0.00008184,0.00079468,-0.05344470,0.02660
 401,-0.03606324,0.00300012,-0.01214531,0.01718045,0.06583649,-0.000609
 29,0.00069248,-0.00003053,0.00657976,-0.00620563,0.00620818,0.00030898
 ,0.00005314,-0.00009336,0.02514045,-0.12578564,0.11420604,0.00240144,-
 0.01709625,0.02254925,-0.02757398,0.13889845,0.00161820,-0.00027806,0.
 00035001,-0.00378405,-0.00157284,0.00308676,-0.00009769,0.00020201,-0.
 00019551,-0.03420649,0.11411803,-0.21357012,0.00039128,-0.00015153,0.0
 0033897,0.04001541,-0.12652452,0.22947508,-0.00025167,-0.00040035,-0.0
 0120178,-0.01376112,0.02076526,0.02789956,-0.00125054,-0.00008225,-0.0
 0079542,-0.05345301,0.02661609,0.03608060,0.00300233,-0.01214570,-0.01
 718011,0.00139224,-0.00402621,-0.00465726,0.06584933,-0.00060697,0.000
 69124,0.00003125,0.00657989,-0.00620571,-0.00620856,0.00030902,0.00005
 338,0.00009270,0.02515451,-0.12578411,-0.11420079,0.00240489,-0.017096
 63,-0.02254904,-0.00402892,0.01116567,0.01481011,-0.02759136,0.1388981
 4,-0.00161781,0.00027803,0.00035119,0.00378463,0.00157421,0.00308843,0
 .00009720,-0.00020225,-0.00019573,0.03422421,-0.11411231,-0.21356064,-
 0.00039138,0.00015012,0.00033657,0.00466066,-0.01481075,-0.02227881,-0
 .04003636,0.12652016,0.22946537,-0.00033940,0.00048453,0.00025610,0.00
 147122,-0.00089055,-0.00112884,0.00002821,-0.00005960,-0.00000480,0.00
 166802,-0.01352677,-0.01793711,-0.05636344,0.02725392,0.03804918,0.000
 58093,0.00087099,0.00033951,-0.00259259,-0.00368413,0.00014537,0.06644
 304,-0.00068049,0.00052902,0.00024532,0.00154617,0.00003847,-0.0000143
 4,-0.00007298,-0.00003460,-0.00003090,0.00248908,-0.01642028,-0.021658
 06,0.02619772,-0.12821799,-0.11326670,0.00081578,0.00043963,0.00007977
 ,-0.00348195,-0.00362728,0.00024824,-0.02684097,0.14106910,-0.00030279
 ,0.00031814,0.00005724,0.00004705,-0.00013964,0.00025664,-0.00011591,0
 .00000895,-0.00002459,-0.00002619,0.00093847,0.00076238,0.03689043,-0.
 11442386,-0.21877129,-0.00035626,-0.00024731,0.00085742,0.00008372,0.0
 0054427,0.00150433,-0.04144041,0.12662172,0.23365625,-0.00033975,0.000
 48450,-0.00025574,0.00147068,-0.00089009,0.00112840,0.00002824,-0.0000
 5965,0.00000479,0.00166646,-0.01352707,0.01793747,-0.05635409,0.027239
 73,-0.03802914,-0.00259250,-0.00368410,-0.00014591,0.00058094,0.000870
 91,-0.00033956,0.00089815,-0.00354664,0.00485213,0.06643280,-0.0006805
 9,0.00052892,-0.00024491,0.00154544,0.00003856,0.00001431,-0.00007286,
 -0.00003459,0.00003093,0.00248693,-0.01642040,0.02165825,0.02618377,-0
 .12821732,0.11326962,-0.00348200,-0.00362729,-0.00024862,0.00081587,0.
 00043963,-0.00007978,-0.00354475,0.01136972,-0.01502380,-0.02682508,0.
 14106853,0.00030273,-0.00031797,0.00005723,-0.00004686,0.00013956,0.00
 025674,0.00011587,-0.00000898,-0.00002464,0.00002636,-0.00094034,0.000
 76490,-0.03687049,0.11442704,-0.21878107,-0.00008418,-0.00054466,0.001
 50421,0.00035618,0.00024742,0.00085739,-0.00484942,0.01502343,-0.02186
 994,0.04142001,-0.12662498,0.23366704,0.00053562,-0.00010389,-0.000000
 04,-0.00279578,-0.00158994,0.00000016,-0.00007922,0.00001969,-0.000000
 09,-0.02438194,0.00189471,-0.00000163,-0.17297292,0.03467885,-0.000005
 69,0.00109376,0.00138136,-0.00018058,0.00109390,0.00138163,0.00018081,
 -0.00788882,0.00258590,-0.00025820,-0.00788555,0.00258485,0.00025711,0
 .45863171,-0.00125455,0.00093497,0.00000056,-0.00345532,-0.00527408,-0
 .00000055,-0.00062980,0.00045158,0.00000006,-0.02655778,0.00775649,-0.
 00000219,0.03571715,-0.09212620,0.00000210,-0.00079093,0.00069224,-0.0
 0019944,-0.00079078,0.00069248,0.00019932,0.01814303,-0.00597174,0.000
 49605,0.01814305,-0.00597173,-0.00049377,-0.01806072,0.52849394,-0.000
 00004,-0.00000010,0.00038247,-0.00000004,-0.00000025,0.00032031,0.0000
 0014,0.00000008,-0.00007433,-0.00000155,0.00000022,-0.00111796,-0.0000
 0541,0.00000202,-0.08193979,0.00129227,0.00028034,0.00007131,-0.001292
 10,-0.00028015,0.00007105,0.02732909,-0.00833450,0.00044902,-0.0273302
 7,0.00833491,0.00044558,-0.00000761,-0.00000043,0.58979104,0.00020255,
 -0.00017657,-0.00007183,0.00021581,0.00000064,-0.00038867,0.00001492,0
 .00001255,0.00003635,0.00087302,0.00116492,0.00103287,-0.00816991,0.01
 864025,0.02796565,-0.00001892,-0.00007315,-0.00001483,-0.00057793,-0.0
 0088485,-0.00057355,-0.00627579,0.00175571,-0.00032488,0.00123437,-0.0
 0019924,-0.00049671,-0.05541188,0.02507659,0.03424377,0.06549834,0.000
 01291,0.00000001,0.00000592,-0.00005946,0.00005132,0.00024189,0.000015
 72,-0.00001131,-0.00001263,-0.00068092,0.00046966,0.00046600,0.0025700
 1,-0.00644038,-0.00887458,0.00005288,0.00002213,0.00008524,0.00009160,
 0.00054897,0.00003328,0.00192906,-0.00001230,0.00022630,-0.00018317,-0
 .00025595,0.00000847,0.02506770,-0.12835252,-0.11173006,-0.02563047,0.
 14069034,-0.00003295,0.00002155,0.00000932,0.00001057,0.00034200,0.000
 18426,0.00000118,-0.00002828,-0.00001696,-0.00004737,0.00000477,0.0001
 4162,-0.00006162,0.00018862,-0.00000853,-0.00000447,-0.00012577,-0.000
 11011,0.00051604,0.00037474,0.00025144,-0.00018063,0.00019601,0.001736
 49,0.00048069,0.00002264,0.00090730,0.03456921,-0.11245617,-0.21421424
 ,-0.03849947,0.12550506,0.23002064,0.00020245,-0.00017656,0.00007150,0
 .00021602,0.00000063,0.00038907,0.00001492,0.00001258,-0.00003633,0.00
 087304,0.00116483,-0.00103273,-0.00816649,0.01863996,-0.02796685,-0.00
 057795,-0.00088482,0.00057338,-0.00001896,-0.00007317,0.00001487,0.001
 23436,-0.00019920,0.00049674,-0.00627589,0.00175573,0.00032384,-0.0554
 0374,0.02506296,-0.03422553,0.00074336,-0.00359984,0.00461954,0.065489
 16,0.00001304,0.,-0.00000591,-0.00005957,0.00005129,-0.00024191,0.0000
 1574,-0.00001132,0.00001260,-0.00068084,0.00046971,-0.00046606,0.00256
 906,-0.00644031,0.00887497,0.00009162,0.00054894,-0.00003321,0.0000528
 9,0.00002212,-0.00008522,-0.00018316,-0.00025595,-0.00000848,0.0019290
 8,-0.00001232,-0.00022604,0.02505399,-0.12834892,0.11173182,-0.0035981
 6,0.01144184,-0.01496736,-0.02561522,0.14068649,0.00003285,-0.00002152
 ,0.00000925,-0.00001046,-0.00034202,0.00018439,-0.00000117,0.00002825,
 -0.00001694,0.00004748,-0.00000465,0.00014141,0.00006059,-0.00018631,-
 0.00001189,-0.00051621,-0.00037483,0.00025140,0.00000446,0.00012576,-0
 .00011005,-0.00048065,-0.00002265,0.00090732,0.00017969,-0.00019580,0.
 00173656,-0.03455079,0.11245803,-0.21422609,-0.00461673,0.01496640,-0.
 02229939,0.03848046,-0.12550693,0.23003388,-0.00029905,0.00018725,0.00
 000012,-0.00034935,-0.00164565,-0.00000018,-0.00016471,0.00013629,0.00
 000003,-0.00498746,0.00268770,-0.00000031,-0.02618837,-0.02666374,-0.0
 0000138,-0.00001869,-0.00000314,0.00026395,-0.00001858,-0.00000313,-0.
 00026402,0.00127158,-0.00077492,-0.00009850,0.00127169,-0.00077490,0.0
 0009866,-0.12128572,-0.05376078,-0.00000197,0.00300518,0.00336212,-0.0
 0029547,0.00300295,0.00335955,0.00029563,0.53789426,0.00027432,-0.0001
 9470,0.,0.00054427,0.00114126,-0.00000005,0.00022593,-0.00013381,-0.00
 000006,0.00347166,-0.00094201,0.00000042,0.00151536,0.00901876,0.00000
 002,-0.00008365,-0.00001949,-0.00019510,-0.00008372,-0.00001954,0.0001
 9509,0.00103454,0.00054240,0.00011147,0.00103456,0.00054242,-0.0001113
 3,-0.05481389,-0.15062320,-0.00000286,-0.01342976,-0.01578187,0.000919
 19,-0.01342940,-0.01578161,-0.00092050,-0.04986951,0.50892282,-0.00000
 016,-0.00000001,-0.00008616,0.00000011,0.,0.00058254,-0.00000005,0.000
 00002,-0.00001236,-0.00000038,0.00000003,-0.00042277,-0.00000156,-0.00
 000165,-0.00050607,-0.00004231,-0.00032303,0.00028325,0.00004225,0.000
 32305,0.00028328,0.00098700,0.00062637,0.00015921,-0.00098692,-0.00062
 646,0.00015912,-0.00000195,-0.00000275,-0.08039097,-0.01852811,-0.0216
 4531,0.00092289,0.01852861,0.02164604,0.00092475,-0.00000132,-0.000002
 40,0.56771205,-0.00001227,0.00001123,0.00000434,-0.00003969,0.00011196
 ,-0.00007867,0.00001378,-0.00001348,0.00000421,0.00006694,-0.00009299,
 -0.00010243,0.00130358,-0.00068910,0.00144267,-0.00001224,0.00018010,-
 0.00014825,0.00003113,0.00001331,0.00002981,-0.00005898,0.00004203,-0.
 00000333,-0.00044254,0.00015909,-0.00050303,0.00245417,-0.01228005,0.0
 1848813,0.00066098,0.00088954,-0.00027866,-0.00248182,-0.00372573,0.00
 009081,-0.05458237,0.02223154,-0.03084705,0.05655150,-0.00002613,0.000
 00439,-0.00000583,-0.00004903,0.00003502,-0.00008197,-0.00003967,0.000
 01002,0.00000735,0.00004207,0.00006436,-0.00026203,0.00138003,0.000516
 96,0.00016184,0.00017035,0.00019775,-0.00011907,0.00002572,-0.00005088
 ,0.00002562,-0.00008729,0.00004409,-0.00008153,-0.00085609,0.00052759,
 -0.00036010,0.00358510,-0.01595997,0.02238428,0.00077038,0.00031694,-0
 .00030492,-0.00404809,-0.00369382,-0.00054217,0.02179703,-0.13090532,0
 .11797318,-0.02065935,0.14303545,0.00001985,-0.00002900,0.00000919,0.0
 0004922,0.00007969,-0.00000907,0.00003365,-0.00000842,-0.00000269,0.00
 021808,-0.00021505,0.00027003,-0.00018180,-0.00012909,0.00009428,-0.00
 014594,-0.00011976,-0.00002353,-0.00001605,-0.00001909,-0.00002253,-0.
 00003564,0.00008331,-0.00009854,0.00063771,0.00000058,0.00019758,0.000
 25577,-0.00069437,0.00088393,0.00044817,0.00024072,0.00085636,-0.00020
 599,-0.00033424,0.00163917,-0.03015077,0.11844732,-0.22027178,0.033994
 82,-0.13146574,0.23691565,-0.00003956,0.00001887,0.00000001,-0.0002406
 0,-0.00044576,0.00000001,-0.00014876,0.00007110,0.00000001,-0.00091175
 ,0.00095453,-0.00000014,-0.00089492,-0.00525024,-0.00000006,-0.0000132
 1,-0.00002170,0.00006315,-0.00001318,-0.00002169,-0.00006315,0.0003660
 1,0.00000567,0.00005343,0.00036598,0.00000569,-0.00005341,-0.01816004,
 0.00771838,-0.00000108,0.00048773,-0.00011191,-0.00070536,0.00048760,-
 0.00011188,0.00070542,-0.28396165,0.07913154,-0.00001470,-0.00340105,0
 .00144568,-0.00031134,0.30948167,-0.00011229,0.00006818,0.00000004,-0.
 00022478,-0.00049726,-0.00000004,-0.00008087,0.00004951,0.00000001,-0.
 00154204,0.00074121,-0.00000013,-0.00193755,-0.00478366,-0.00000009,0.
 00006453,0.00007474,0.00005286,0.00006455,0.00007476,-0.00005286,-0.00
 004268,-0.00001986,0.00029925,-0.00004263,-0.00001986,-0.00029925,-0.0
 2725316,0.00956699,-0.00000172,0.00061929,0.00100691,-0.00023386,0.000
 61927,0.00100691,0.00023392,0.08015425,-0.07485681,0.00000503,0.017274
 37,-0.00624462,-0.00133794,-0.08483494,0.08007760,0.,0.,-0.00001041,-0
 .00000001,0.,0.00002382,-0.00000001,0.,-0.00000033,-0.00000008,0.00000
 003,0.00055839,-0.00000005,-0.00000027,0.00022632,-0.00005032,-0.00006
 838,-0.00001781,0.00005032,0.00006837,-0.00001781,-0.00041099,0.000203
 57,0.00022049,0.00041100,-0.00020358,0.00022054,-0.00000080,0.00000038
 ,-0.00133339,-0.00041760,0.00014943,-0.00002026,0.00041765,-0.00014945
 ,-0.00002013,-0.00001472,0.00000495,-0.04907638,-0.02670571,0.00817312
 ,0.00081679,0.00001639,-0.00000535,0.04761003,-0.00001230,0.00001123,-
 0.00000436,-0.00003965,0.00011201,0.00007868,0.00001377,-0.00001348,-0
 .00000421,0.00006693,-0.00009305,0.00010239,0.00130374,-0.00068911,-0.
 00144251,0.00003114,0.00001331,-0.00002981,-0.00001228,0.00018008,0.00
 014826,-0.00044250,0.00015910,0.00050295,-0.00005898,0.00004204,0.0000
 0333,0.00245647,-0.01228045,-0.01848780,-0.00248183,-0.00372577,-0.000
 09122,0.00066100,0.00088958,0.00027862,-0.05458971,0.02224620,0.030866
 52,-0.00005111,-0.00345072,-0.00460975,-0.00340427,0.01727466,0.026704
 93,0.05655958,-0.00002615,0.00000439,0.00000582,-0.00004900,0.00003503
 ,0.00008206,-0.00003969,0.00001002,-0.00000735,0.00004202,0.00006434,0
 .00026195,0.00138006,0.00051698,-0.00016169,0.00002572,-0.00005087,-0.
 00002562,0.00017034,0.00019776,0.00011911,-0.00085615,0.00052758,0.000
 35999,-0.00008730,0.00004409,0.00008151,0.00358783,-0.01596033,-0.0223
 8359,-0.00404814,-0.00369378,0.00054178,0.00077033,0.00031694,0.000305
 02,0.02181158,-0.13090928,-0.11797209,-0.00345249,0.01210204,0.0155010
 8,0.00144666,-0.00624474,-0.00817283,-0.02067563,0.14303981,-0.0000198
 4,0.00002902,0.00000917,-0.00004923,-0.00007971,-0.00000899,-0.0000336
 6,0.00000842,-0.00000268,-0.00021810,0.00021505,0.00026991,0.00018193,
 0.00012900,0.00009412,0.00001605,0.00001909,-0.00002253,0.00014594,0.0
 0011978,-0.00002349,-0.00063778,-0.00000058,0.00019756,0.00003565,-0.0
 0008330,-0.00009854,-0.00025567,0.00069317,0.00088206,0.00020557,0.000
 33389,0.00163917,-0.00044821,-0.00024061,0.00085635,0.03017024,-0.1184
 4619,-0.22026059,0.00461233,-0.01550202,-0.02125486,0.00031080,0.00134
 013,0.00082013,-0.03401603,0.13146486,0.23690319\\-0.00000575,-0.00000
 502,-0.00000795,0.00000818,0.00000631,0.00002154,0.00000221,0.00000430
 ,-0.00000097,0.00000411,0.00000098,-0.00001112,0.00000110,0.00000512,-
 0.00000113,-0.00000454,0.00000050,0.00000044,0.00000274,-0.00000035,-0
 .00000073,-0.00000088,0.00000002,0.00000077,-0.00000027,0.00000068,-0.
 00000085,0.00000040,-0.00000299,-0.00000017,0.00000096,-0.00000007,-0.
 00000301,0.00000099,-0.00000027,0.00000309,-0.00000665,-0.00000227,0.0
 0000004,-0.00000125,-0.00000066,-0.00000247,-0.00000010,-0.00000561,0.
 00000002,-0.00000125,-0.00000067,0.00000250\\\@


 THE MORE ACCURATE THE CALCULATIONS BECOME, THE MORE THE CONCEPTS
 TEND TO VANISH INTO THIN AIR.
     -- R.S. MULLIKEN, J.C.P. 43,S2(1965)
 Job cpu time:       0 days  0 hours 21 minutes 11.5 seconds.
 Elapsed time:       0 days  0 hours  0 minutes 40.0 seconds.
 File lengths (MBytes):  RWF=     38 Int=      0 D2E=      0 Chk=      3 Scr=      1
 Normal termination of Gaussian 16 at Wed Sep 20 06:08:38 2023.
