 Entering Gaussian System, Link 0=/home/ubuntu/g16/g16
 Input=/home/ubuntu/Downloads/o-py-vol.gjf
 Output=/home/ubuntu/Downloads/o-py-vol.log
 Initial command:
 /home/ubuntu/g16/l1.exe "/home/ubuntu/Scratch/Gau-112728.inp" -scrdir="/home/ubuntu/Scratch/"
 Entering Link 1 = /home/ubuntu/g16/l1.exe PID=    112730.
  
 Copyright (c) 1988-2017, Gaussian, Inc.  All Rights Reserved.
  
 This is part of the Gaussian(R) 16 program.  It is based on
 the Gaussian(R) 09 system (copyright 2009, Gaussian, Inc.),
 the Gaussian(R) 03 system (copyright 2003, Gaussian, Inc.),
 the Gaussian(R) 98 system (copyright 1998, Gaussian, Inc.),
 the Gaussian(R) 94 system (copyright 1995, Gaussian, Inc.),
 the Gaussian 92(TM) system (copyright 1992, Gaussian, Inc.),
 the Gaussian 90(TM) system (copyright 1990, Gaussian, Inc.),
 the Gaussian 88(TM) system (copyright 1988, Gaussian, Inc.),
 the Gaussian 86(TM) system (copyright 1986, Carnegie Mellon
 University), and the Gaussian 82(TM) system (copyright 1983,
 Carnegie Mellon University). Gaussian is a federally registered
 trademark of Gaussian, Inc.
  
 This software contains proprietary and confidential information,
 including trade secrets, belonging to Gaussian, Inc.
  
 This software is provided under written license and may be
 used, copied, transmitted, or stored only in accord with that
 written license.
  
 The following legend is applicable only to US Government
 contracts under FAR:
  
                    RESTRICTED RIGHTS LEGEND
  
 Use, reproduction and disclosure by the US Government is
 subject to restrictions as set forth in subparagraphs (a)
 and (c) of the Commercial Computer Software - Restricted
 Rights clause in FAR 52.227-19.
  
 Gaussian, Inc.
 340 Quinnipiac St., Bldg. 40, Wallingford CT 06492
  
  
 ---------------------------------------------------------------
 Warning -- This program may not be used in any manner that
 competes with the business of Gaussian, Inc. or will provide
 assistance to any competitor of Gaussian, Inc.  The licensee
 of this program is prohibited from giving any competitor of
 Gaussian, Inc. access to this program.  By using this program,
 the user acknowledges that Gaussian, Inc. is engaged in the
 business of creating and licensing software in the field of
 computational chemistry and represents and warrants to the
 licensee that it is not a competitor of Gaussian, Inc. and that
 it will not use this program in any manner prohibited above.
 ---------------------------------------------------------------
  

 Cite this work as:
 Gaussian 16, Revision B.01,
 M. J. Frisch, G. W. Trucks, H. B. Schlegel, G. E. Scuseria, 
 M. A. Robb, J. R. Cheeseman, G. Scalmani, V. Barone, 
 G. A. Petersson, H. Nakatsuji, X. Li, M. Caricato, A. V. Marenich, 
 J. Bloino, B. G. Janesko, R. Gomperts, B. Mennucci, H. P. Hratchian, 
 J. V. Ortiz, A. F. Izmaylov, J. L. Sonnenberg, D. Williams-Young, 
 F. Ding, F. Lipparini, F. Egidi, J. Goings, B. Peng, A. Petrone, 
 T. Henderson, D. Ranasinghe, V. G. Zakrzewski, J. Gao, N. Rega, 
 G. Zheng, W. Liang, M. Hada, M. Ehara, K. Toyota, R. Fukuda, 
 J. Hasegawa, M. Ishida, T. Nakajima, Y. Honda, O. Kitao, H. Nakai, 
 T. Vreven, K. Throssell, J. A. Montgomery, Jr., J. E. Peralta, 
 F. Ogliaro, M. J. Bearpark, J. J. Heyd, E. N. Brothers, K. N. Kudin, 
 V. N. Staroverov, T. A. Keith, R. Kobayashi, J. Normand, 
 K. Raghavachari, A. P. Rendell, J. C. Burant, S. S. Iyengar, 
 J. Tomasi, M. Cossi, J. M. Millam, M. Klene, C. Adamo, R. Cammi, 
 J. W. Ochterski, R. L. Martin, K. Morokuma, O. Farkas, 
 J. B. Foresman, and D. J. Fox, Gaussian, Inc., Wallingford CT, 2016.
 
 ******************************************
 Gaussian 16:  EM64L-G16RevB.01 20-Dec-2017
                19-Sep-2023 
 ******************************************
 %nprocshared=32
 Will use up to   32 processors via shared memory.
 %mem=60GB
 %chk=o-py-vol.chk
 ----------------------------------------------------------------------
 # opt freq b3lyp/gen empiricaldispersion=gd3 pseudo=read scf=maxcycle=
 1000 volume
 ----------------------------------------------------------------------
 1/18=20,19=15,26=3,38=1/1,3;
 2/9=110,12=2,17=6,18=5,40=1/2;
 3/5=7,11=2,16=1,17=8,25=1,30=1,71=1,74=-5,124=31/1,2,3;
 4//1;
 5/5=2,7=1000,38=5/2;
 6/7=2,8=2,9=2,10=2,28=1,44=1/1,4;
 7//1,2,3,16;
 1/18=20,19=15,26=3/3(2);
 2/9=110/2;
 99//99;
 2/9=110/2;
 3/5=7,6=1,11=2,16=1,17=8,25=1,30=1,71=1,74=-5,82=7,124=31/1,2,3;
 4/5=5,16=3,69=1/1;
 5/5=2,7=1000,38=5/2;
 7//1,2,3,16;
 1/18=20,19=15,26=3/3(-5);
 2/9=110/2;
 6/7=2,8=2,9=2,10=2,19=2,28=1,44=1/1,4;
 99/9=1/99;
 -------------------
 Title Card Required
 -------------------
 Symbolic Z-matrix:
 Charge =  0 Multiplicity = 1
 C                    -3.48166   1.18549   0.00008 
 C                    -2.08864   1.20748  -0.00002 
 C                    -1.39325  -0.01692   0.00004 
 C                    -3.35538  -1.2104    0.00005 
 H                    -4.04549   2.1146    0.0001 
 H                    -1.53685   2.14228  -0.00014 
 H                    -3.82807  -2.19094   0.00009 
 C                     0.04083  -0.02502  -0.00035 
 C                     1.25198   0.00417  -0.00063 
 Br                    3.07803  -0.00113   0.00011 
 C                    -4.1352   -0.04844   0.00013 
 H                    -5.21925  -0.11509   0.00021 
 N                    -2.01908  -1.21279  -0.00002 
 

 GradGradGradGradGradGradGradGradGradGradGradGradGradGradGradGradGradGrad
 Berny optimization.
 Initialization pass.
                           ----------------------------
                           !    Initial Parameters    !
                           ! (Angstroms and Degrees)  !
 --------------------------                            --------------------------
 ! Name  Definition              Value          Derivative Info.                !
 --------------------------------------------------------------------------------
 ! R1    R(1,2)                  1.3932         estimate D2E/DX2                !
 ! R2    R(1,5)                  1.0868         estimate D2E/DX2                !
 ! R3    R(1,11)                 1.3963         estimate D2E/DX2                !
 ! R4    R(2,3)                  1.4081         estimate D2E/DX2                !
 ! R5    R(2,6)                  1.0855         estimate D2E/DX2                !
 ! R6    R(3,8)                  1.4341         estimate D2E/DX2                !
 ! R7    R(3,13)                 1.3497         estimate D2E/DX2                !
 ! R8    R(4,7)                  1.0885         estimate D2E/DX2                !
 ! R9    R(4,11)                 1.3994         estimate D2E/DX2                !
 ! R10   R(4,13)                 1.3363         estimate D2E/DX2                !
 ! R11   R(8,9)                  1.2115         estimate D2E/DX2                !
 ! R12   R(9,10)                 1.8261         estimate D2E/DX2                !
 ! R13   R(11,12)                1.0861         estimate D2E/DX2                !
 ! A1    A(2,1,5)              120.347          estimate D2E/DX2                !
 ! A2    A(2,1,11)             118.8117         estimate D2E/DX2                !
 ! A3    A(5,1,11)             120.8413         estimate D2E/DX2                !
 ! A4    A(1,2,3)              118.6897         estimate D2E/DX2                !
 ! A5    A(1,2,6)              121.4567         estimate D2E/DX2                !
 ! A6    A(3,2,6)              119.8535         estimate D2E/DX2                !
 ! A7    A(2,3,8)              119.9176         estimate D2E/DX2                !
 ! A8    A(2,3,13)             122.7816         estimate D2E/DX2                !
 ! A9    A(8,3,13)             117.3008         estimate D2E/DX2                !
 ! A10   A(7,4,11)             120.3962         estimate D2E/DX2                !
 ! A11   A(7,4,13)             115.6347         estimate D2E/DX2                !
 ! A12   A(11,4,13)            123.9691         estimate D2E/DX2                !
 ! A13   A(1,11,4)             118.2262         estimate D2E/DX2                !
 ! A14   A(1,11,12)            121.4254         estimate D2E/DX2                !
 ! A15   A(4,11,12)            120.3484         estimate D2E/DX2                !
 ! A16   A(3,13,4)             117.5216         estimate D2E/DX2                !
 ! A17   L(3,8,9,6,-1)         178.2963         estimate D2E/DX2                !
 ! A18   L(8,9,10,6,-1)        181.5463         estimate D2E/DX2                !
 ! A19   L(3,8,9,6,-2)         179.9972         estimate D2E/DX2                !
 ! A20   L(8,9,10,6,-2)        179.9398         estimate D2E/DX2                !
 ! D1    D(5,1,2,3)            179.9965         estimate D2E/DX2                !
 ! D2    D(5,1,2,6)             -0.0036         estimate D2E/DX2                !
 ! D3    D(11,1,2,3)            -0.005          estimate D2E/DX2                !
 ! D4    D(11,1,2,6)           179.995          estimate D2E/DX2                !
 ! D5    D(2,1,11,4)            -0.0013         estimate D2E/DX2                !
 ! D6    D(2,1,11,12)         -179.9999         estimate D2E/DX2                !
 ! D7    D(5,1,11,4)           179.9973         estimate D2E/DX2                !
 ! D8    D(5,1,11,12)           -0.0013         estimate D2E/DX2                !
 ! D9    D(1,2,3,8)            179.9867         estimate D2E/DX2                !
 ! D10   D(1,2,3,13)             0.0105         estimate D2E/DX2                !
 ! D11   D(6,2,3,8)             -0.0132         estimate D2E/DX2                !
 ! D12   D(6,2,3,13)          -179.9895         estimate D2E/DX2                !
 ! D13   D(2,3,13,4)            -0.009          estimate D2E/DX2                !
 ! D14   D(8,3,13,4)          -179.9858         estimate D2E/DX2                !
 ! D15   D(7,4,11,1)           179.9993         estimate D2E/DX2                !
 ! D16   D(7,4,11,12)           -0.0021         estimate D2E/DX2                !
 ! D17   D(13,4,11,1)            0.0028         estimate D2E/DX2                !
 ! D18   D(13,4,11,12)        -179.9985         estimate D2E/DX2                !
 ! D19   D(7,4,13,3)          -179.9944         estimate D2E/DX2                !
 ! D20   D(11,4,13,3)            0.0022         estimate D2E/DX2                !
 --------------------------------------------------------------------------------
 Trust Radius=3.00D-01 FncErr=1.00D-07 GrdErr=1.00D-06 EigMax=2.50D+02 EigMin=1.00D-04
 Number of steps in this run=     63 maximum allowed number of steps=    100.
 GradGradGradGradGradGradGradGradGradGradGradGradGradGradGradGradGradGrad

                          Input orientation:                          
 ---------------------------------------------------------------------
 Center     Atomic      Atomic             Coordinates (Angstroms)
 Number     Number       Type             X           Y           Z
 ---------------------------------------------------------------------
      1          6           0       -3.481661    1.185492    0.000084
      2          6           0       -2.088636    1.207481   -0.000015
      3          6           0       -1.393248   -0.016918    0.000042
      4          6           0       -3.355383   -1.210399    0.000047
      5          1           0       -4.045490    2.114603    0.000101
      6          1           0       -1.536848    2.142276   -0.000135
      7          1           0       -3.828071   -2.190936    0.000091
      8          6           0        0.040833   -0.025015   -0.000345
      9          6           0        1.251982    0.004166   -0.000627
     10         35           0        3.078031   -0.001129    0.000114
     11          6           0       -4.135198   -0.048441    0.000130
     12          1           0       -5.219248   -0.115086    0.000205
     13          7           0       -2.019082   -1.212793   -0.000019
 ---------------------------------------------------------------------
                    Distance matrix (angstroms):
                    1          2          3          4          5
     1  C    0.000000
     2  C    1.393199   0.000000
     3  C    2.409825   1.408090   0.000000
     4  C    2.399217   2.729614   2.296600   0.000000
     5  H    1.086807   2.156884   3.402612   3.395863   0.000000
     6  H    2.167425   1.085501   2.163964   3.814118   2.508795
     7  H    3.394152   3.817705   3.264156   1.088525   4.311025
     8  C    3.724687   2.460424   1.434104   3.597140   4.612592
     9  C    4.878822   3.550732   2.645314   4.764765   5.702381
    10  Br   6.666155   5.306146   4.471307   6.546079   7.431075
    11  C    1.396317   2.401199   2.742131   1.399378   2.164903
    12  H    2.170417   3.398517   3.827259   2.161875   2.519766
    13  N    2.809076   2.421273   1.349735   1.336303   3.895882
                    6          7          8          9         10
     6  H    0.000000
     7  H    4.901676   0.000000
     8  C    2.680714   4.433918   0.000000
     9  C    3.514127   5.534023   1.211501   0.000000
    10  Br   5.088349   7.244964   3.037292   1.826057   0.000000
    11  C    3.398627   2.164396   4.176097   5.387437   7.213384
    12  H    4.319231   2.498905   5.260852   6.472329   8.298062
    13  N    3.389548   2.056503   2.377828   3.490107   5.239150
                   11         12         13
    11  C    0.000000
    12  H    1.086097   0.000000
    13  N    2.415298   3.383197   0.000000
 Stoichiometry    C7H4BrN
 Framework group  C1[X(C7H4BrN)]
 Deg. of freedom    33
 Full point group                 C1      NOp   1
 Largest Abelian subgroup         C1      NOp   1
 Largest concise Abelian subgroup C1      NOp   1
                         Standard orientation:                         
 ---------------------------------------------------------------------
 Center     Atomic      Atomic             Coordinates (Angstroms)
 Number     Number       Type             X           Y           Z
 ---------------------------------------------------------------------
      1          6           0        3.481661    1.185492   -0.000084
      2          6           0        2.088636    1.207481    0.000015
      3          6           0        1.393248   -0.016918   -0.000042
      4          6           0        3.355383   -1.210399   -0.000047
      5          1           0        4.045490    2.114603   -0.000101
      6          1           0        1.536848    2.142276    0.000135
      7          1           0        3.828071   -2.190936   -0.000091
      8          6           0       -0.040833   -0.025015    0.000345
      9          6           0       -1.251982    0.004166    0.000627
     10         35           0       -3.078031   -0.001129   -0.000114
     11          6           0        4.135198   -0.048441   -0.000130
     12          1           0        5.219248   -0.115086   -0.000205
     13          7           0        2.019082   -1.212793    0.000019
 ---------------------------------------------------------------------
 Rotational constants (GHZ):           5.8403923           0.3518391           0.3318478
 General basis read from cards:  (5D, 7F)
 ======================================================================================================
                                       Pseudopotential Parameters
 ======================================================================================================
  Center     Atomic      Valence      Angular      Power
  Number     Number     Electrons     Momentum     of R      Exponent        Coefficient   SO-Coeffient
 ======================================================================================================
    1          6
                                   No pseudopotential on this center.
    2          6
                                   No pseudopotential on this center.
    3          6
                                   No pseudopotential on this center.
    4          6
                                   No pseudopotential on this center.
    5          1
                                   No pseudopotential on this center.
    6          1
                                   No pseudopotential on this center.
    7          1
                                   No pseudopotential on this center.
    8          6
                                   No pseudopotential on this center.
    9          6
                                   No pseudopotential on this center.
   10         35            7
                                      G and up 
                                                     2        1.0000000        0.00000000    0.00000000
                                      S - G
                                                     2        5.0218000       61.51372100    0.00000000
                                                     2        2.5109000        9.02149300    0.00000000
                                      P - G
                                                     2        4.2814000       53.87586400    0.00000000
                                                     2        2.1407000        4.62940200    0.00000000
                                      D - G
                                                     2        2.8800000       20.84967700    0.00000000
                                                     2        1.4400000        2.96544400    0.00000000
                                      F - G
                                                     2        2.7207000       -8.16149300    0.00000000
   11          6
                                   No pseudopotential on this center.
   12          1
                                   No pseudopotential on this center.
   13          7
                                   No pseudopotential on this center.
 ======================================================================================================
 There are   171 symmetry adapted cartesian basis functions of A   symmetry.
 There are   163 symmetry adapted basis functions of A   symmetry.
   163 basis functions,   291 primitive gaussians,   171 cartesian basis functions
    30 alpha electrons       30 beta electrons
       nuclear repulsion energy       338.6256291351 Hartrees.
 NAtoms=   13 NActive=   13 NUniq=   13 SFac= 1.00D+00 NAtFMM=   60 NAOKFM=F Big=F
 Integral buffers will be    131072 words long.
 Raffenetti 2 integral format.
 Two-electron integral symmetry is turned on.
 Nuclear repulsion after empirical dispersion term =      338.6182170653 Hartrees.
 One-electron integrals computed using PRISM.
   1 Symmetry operations used in ECPInt.
 ECPInt:  NShTT=    1431 NPrTT=    7543 LenC2=    1416 LenP2D=    5458.
 LDataN:  DoStor=T MaxTD1= 6 Len=  172
 NBasis=   163 RedAO= T EigKep=  2.47D-06  NBF=   163
 NBsUse=   162 1.00D-06 EigRej=  1.14D-07 NBFU=   162
 ExpMin= 3.61D-02 ExpMax= 4.17D+03 ExpMxC= 6.27D+02 IAcc=3 IRadAn=         5 AccDes= 0.00D+00
 Harris functional with IExCor=  402 and IRadAn=       5 diagonalized for initial guess.
 HarFok:  IExCor=  402 AccDes= 0.00D+00 IRadAn=         5 IDoV= 1 UseB2=F ITyADJ=14
 ICtDFT=  3500011 ScaDFX=  1.000000  1.000000  1.000000  1.000000
 FoFCou: FMM=F IPFlag=           0 FMFlag=      100000 FMFlg1=           0
         NFxFlg=           0 DoJE=T BraDBF=F KetDBF=T FulRan=T
         wScrn=  0.000000 ICntrl=       500 IOpCl=  0 I1Cent=   200000004 NGrid=           0
         NMat0=    1 NMatS0=      1 NMatT0=    0 NMatD0=    1 NMtDS0=    0 NMtDT0=    0
 Petite list used in FoFCou.
 Requested convergence on RMS density matrix=1.00D-08 within1000 cycles.
 Requested convergence on MAX density matrix=1.00D-06.
 Requested convergence on             energy=1.00D-06.
 No special actions if energy rises.
 SCF Done:  E(RB3LYP) =  -337.203163277     A.U. after   15 cycles
            NFock= 15  Conv=0.45D-08     -V/T= 2.0340

 **********************************************************************

            Population analysis using the SCF Density.

 **********************************************************************

 Orbital symmetries:
       Occupied  (A) (A) (A) (A) (A) (A) (A) (A) (A) (A) (A) (A)
                 (A) (A) (A) (A) (A) (A) (A) (A) (A) (A) (A) (A)
                 (A) (A) (A) (A) (A) (A)
       Virtual   (A) (A) (A) (A) (A) (A) (A) (A) (A) (A) (A) (A)
                 (A) (A) (A) (A) (A) (A) (A) (A) (A) (A) (A) (A)
                 (A) (A) (A) (A) (A) (A) (A) (A) (A) (A) (A) (A)
                 (A) (A) (A) (A) (A) (A) (A) (A) (A) (A) (A) (A)
                 (A) (A) (A) (A) (A) (A) (A) (A) (A) (A) (A) (A)
                 (A) (A) (A) (A) (A) (A) (A) (A) (A) (A) (A) (A)
                 (A) (A) (A) (A) (A) (A) (A) (A) (A) (A) (A) (A)
                 (A) (A) (A) (A) (A) (A) (A) (A) (A) (A) (A) (A)
                 (A) (A) (A) (A) (A) (A) (A) (A) (A) (A) (A) (A)
                 (A) (A) (A) (A) (A) (A) (A) (A) (A) (A) (A) (A)
                 (A) (A) (A) (A) (A) (A) (A) (A) (A) (A) (A) (A)
 The electronic state is 1-A.
 Alpha  occ. eigenvalues --  -14.34794 -10.26035 -10.24044 -10.23535 -10.22187
 Alpha  occ. eigenvalues --  -10.21492 -10.21228 -10.20731  -0.96145  -0.87614
 Alpha  occ. eigenvalues --   -0.82131  -0.80381  -0.74311  -0.65809  -0.64785
 Alpha  occ. eigenvalues --   -0.56356  -0.51174  -0.50078  -0.48872  -0.45359
 Alpha  occ. eigenvalues --   -0.42402  -0.42237  -0.39111  -0.36930  -0.36707
 Alpha  occ. eigenvalues --   -0.31564  -0.30016  -0.27512  -0.27443  -0.24992
 Alpha virt. eigenvalues --   -0.05912  -0.04023  -0.03272  -0.00265   0.01877
 Alpha virt. eigenvalues --    0.02382   0.03066   0.04069   0.04242   0.05024
 Alpha virt. eigenvalues --    0.05202   0.05923   0.06007   0.06499   0.06552
 Alpha virt. eigenvalues --    0.08392   0.09268   0.09417   0.10817   0.11650
 Alpha virt. eigenvalues --    0.12808   0.13861   0.13942   0.14790   0.15227
 Alpha virt. eigenvalues --    0.15480   0.17082   0.17303   0.17968   0.19733
 Alpha virt. eigenvalues --    0.20596   0.21027   0.22042   0.22325   0.23232
 Alpha virt. eigenvalues --    0.23554   0.24785   0.25863   0.26057   0.27278
 Alpha virt. eigenvalues --    0.27800   0.29533   0.30259   0.31414   0.32890
 Alpha virt. eigenvalues --    0.33801   0.34807   0.40033   0.40586   0.41752
 Alpha virt. eigenvalues --    0.48236   0.49612   0.53904   0.55745   0.63668
 Alpha virt. eigenvalues --    0.65506   0.66484   0.68440   0.70040   0.70208
 Alpha virt. eigenvalues --    0.71997   0.72119   0.74535   0.74610   0.76638
 Alpha virt. eigenvalues --    0.79479   0.82962   0.83181   0.85757   0.88265
 Alpha virt. eigenvalues --    0.89961   0.91438   0.94667   0.96330   0.97988
 Alpha virt. eigenvalues --    1.00132   1.02064   1.04877   1.05138   1.09110
 Alpha virt. eigenvalues --    1.12845   1.15675   1.17740   1.19844   1.22517
 Alpha virt. eigenvalues --    1.24080   1.27203   1.30448   1.37170   1.41972
 Alpha virt. eigenvalues --    1.44805   1.44876   1.46505   1.47873   1.50095
 Alpha virt. eigenvalues --    1.53264   1.55523   1.64100   1.72265   1.76577
 Alpha virt. eigenvalues --    1.80760   1.83105   1.86051   1.89950   1.93206
 Alpha virt. eigenvalues --    1.93812   1.97894   2.06336   2.09476   2.14488
 Alpha virt. eigenvalues --    2.16228   2.16606   2.21794   2.26233   2.28403
 Alpha virt. eigenvalues --    2.30520   2.33992   2.46097   2.48011   2.57695
 Alpha virt. eigenvalues --    2.61415   2.66586   2.69511   2.70393   2.73282
 Alpha virt. eigenvalues --    2.80809   2.82068   2.88779   3.16616   3.28575
 Alpha virt. eigenvalues --    3.48982   7.57894
          Condensed to atoms (all electrons):
               1          2          3          4          5          6
     1  C    7.617532  -3.397485   3.185050   0.956728   0.278598   0.002640
     2  C   -3.397485  12.130431  -4.979617  -1.535614   0.000041   0.260900
     3  C    3.185050  -4.979617  18.294847   1.429363  -0.001452  -0.032451
     4  C    0.956728  -1.535614   1.429363   6.000481  -0.006259  -0.005021
     5  H    0.278598   0.000041  -0.001452  -0.006259   0.521045  -0.004565
     6  H    0.002640   0.260900  -0.032451  -0.005021  -0.004565   0.508511
     7  H    0.054206  -0.055415   0.050339   0.443971  -0.000146   0.000022
     8  C   -2.586867   3.543855 -16.431507  -1.178448  -0.008300   0.072798
     9  C    0.922629  -1.683669   5.727810   0.420149   0.000348  -0.009430
    10  Br   0.003955  -0.001890   0.109614  -0.000085   0.000001   0.000129
    11  C   -0.412309   1.274866  -1.093928  -0.336566   0.030630   0.000464
    12  H    0.010803  -0.002914   0.007075   0.005898  -0.004511  -0.000116
    13  N   -0.277963   0.452448  -0.209047   0.008051   0.001825   0.004715
               7          8          9         10         11         12
     1  C    0.054206  -2.586867   0.922629   0.003955  -0.412309   0.010803
     2  C   -0.055415   3.543855  -1.683669  -0.001890   1.274866  -0.002914
     3  C    0.050339 -16.431507   5.727810   0.109614  -1.093928   0.007075
     4  C    0.443971  -1.178448   0.420149  -0.000085  -0.336566   0.005898
     5  H   -0.000146  -0.008300   0.000348   0.000001   0.030630  -0.004511
     6  H    0.000022   0.072798  -0.009430   0.000129   0.000464  -0.000116
     7  H    0.553566  -0.001531   0.003810  -0.000005  -0.135205  -0.001908
     8  C   -0.001531  30.885911  -8.960871  -0.230003   0.170022   0.003386
     9  C    0.003810  -8.960871  10.563719   0.205471  -0.184476  -0.000187
    10  Br  -0.000005  -0.230003   0.205471   6.617187  -0.000003   0.000001
    11  C   -0.135205   0.170022  -0.184476  -0.000003   6.143520   0.272615
    12  H   -0.001908   0.003386  -0.000187   0.000001   0.272615   0.516643
    13  N   -0.094449   0.317971  -0.265537   0.000502   0.237503   0.003185
              13
     1  C   -0.277963
     2  C    0.452448
     3  C   -0.209047
     4  C    0.008051
     5  H    0.001825
     6  H    0.004715
     7  H   -0.094449
     8  C    0.317971
     9  C   -0.265537
    10  Br   0.000502
    11  C    0.237503
    12  H    0.003185
    13  N    6.957332
 Mulliken charges:
               1
     1  C   -0.357517
     2  C   -0.005938
     3  C   -0.056095
     4  C   -0.202648
     5  H    0.192744
     6  H    0.201405
     7  H    0.182742
     8  C    0.403584
     9  C   -0.739766
    10  Br   0.295127
    11  C    0.032867
    12  H    0.190031
    13  N   -0.136536
 Sum of Mulliken charges =   0.00000
 Mulliken charges with hydrogens summed into heavy atoms:
               1
     1  C   -0.164773
     2  C    0.195467
     3  C   -0.056095
     4  C   -0.019906
     8  C    0.403584
     9  C   -0.739766
    10  Br   0.295127
    11  C    0.222898
    13  N   -0.136536
 Electronic spatial extent (au):  <R**2>=           1893.5213
 Charge=              0.0000 electrons
 Dipole moment (field-independent basis, Debye):
    X=              1.6949    Y=              1.9870    Z=             -0.0008  Tot=              2.6117
 Quadrupole moment (field-independent basis, Debye-Ang):
   XX=            -42.4979   YY=            -59.7023   ZZ=            -63.4203
   XY=              2.4505   XZ=              0.0010   YZ=              0.0004
 Traceless Quadrupole moment (field-independent basis, Debye-Ang):
   XX=             12.7090   YY=             -4.4954   ZZ=             -8.2135
   XY=              2.4505   XZ=              0.0010   YZ=              0.0004
 Octapole moment (field-independent basis, Debye-Ang**2):
  XXX=            -91.9068  YYY=              8.8569  ZZZ=             -0.0075  XYY=            -32.7970
  XXY=              0.4993  XXZ=             -0.0130  XZZ=            -51.3611  YZZ=             -1.1563
  YYZ=             -0.0027  XYZ=              0.0007
 Hexadecapole moment (field-independent basis, Debye-Ang**3):
 XXXX=          -2343.2851 YYYY=           -303.7945 ZZZZ=            -78.9905 XXXY=             -5.6309
 XXXZ=              0.0354 YYYX=             10.2838 YYYZ=              0.0022 ZZZX=              0.0210
 ZZZY=              0.0005 XXYY=           -475.6365 XXZZ=           -515.5076 YYZZ=            -70.6137
 XXYZ=              0.0015 YYXZ=              0.0052 ZZXY=             -2.7784
 N-N= 3.386182170653D+02 E-N=-1.454580582485D+03  KE= 3.261074250839D+02
 Evaluate density.
 Using the total density.
 Monte-Carlo method of calculating molar volume:
 based on  0.001 e/bohr**3 density envelope.
 Number of points per bohr**3 =   20 CutOff= 1.00D-04
 Using the SCF density.
 There are       450 points.  Will hold       450 in memory.
 LenV=  8052956858 MDV=  8053063680.
 Box volume =11419.057 fraction occupied=0.080
 Integrated density= 5.7595604632110550D+01 error=-2.4043953678894496D+00
 Molar volume =  913.525 bohr**3/mol ( 81.522 cm**3/mol)
 Recommended a0 for SCRF calculation =  4.01 angstrom (  7.57 bohr)
   1 Symmetry operations used in ECPInt.
 ECPInt:  NShTT=    1431 NPrTT=    7543 LenC2=    1416 LenP2D=    5458.
 LDataN:  DoStor=T MaxTD1= 7 Len=  274
 Calling FoFJK, ICntrl=      2127 FMM=F ISym2X=0 I1Cent= 0 IOpClX= 0 NMat=1 NMatS=1 NMatT=0.
 ***** Axes restored to original set *****
 -------------------------------------------------------------------
 Center     Atomic                   Forces (Hartrees/Bohr)
 Number     Number              X              Y              Z
 -------------------------------------------------------------------
      1        6          -0.000038560    0.000010863    0.000000685
      2        6           0.000070782    0.000000580    0.000011653
      3        6          -0.000023234    0.000002436   -0.000055094
      4        6          -0.000018788   -0.000041238    0.000010818
      5        1           0.000004698    0.000001337   -0.000000991
      6        1          -0.000006580   -0.000008797    0.000002264
      7        1          -0.000000591   -0.000007240   -0.000003676
      8        6          -0.000056746    0.000011894    0.000022474
      9        6           0.000013559   -0.000014488    0.000010967
     10       35           0.000025620    0.000005308   -0.000008716
     11        6          -0.000016507    0.000031511   -0.000000551
     12        1          -0.000013837   -0.000003213   -0.000000646
     13        7           0.000060185    0.000011047    0.000010813
 -------------------------------------------------------------------
 Cartesian Forces:  Max     0.000070782 RMS     0.000024385

 GradGradGradGradGradGradGradGradGradGradGradGradGradGradGradGradGradGrad
 Berny optimization.
 FormGI is forming the generalized inverse of G from B-inverse, IUseBI=4.
 Internal  Forces:  Max     0.000047785 RMS     0.000015331
 Search for a local minimum.
 Step number   1 out of a maximum of   63
 All quantities printed in internal units (Hartrees-Bohrs-Radians)
 Mixed Optimization -- En-DIIS/RFO-DIIS
 Second derivative matrix not updated -- first step.
 ITU=  0
     Eigenvalues ---    0.00820   0.00820   0.02056   0.02099   0.02108
     Eigenvalues ---    0.02117   0.02153   0.02159   0.02234   0.02376
     Eigenvalues ---    0.04582   0.04582   0.16000   0.16000   0.16000
     Eigenvalues ---    0.16000   0.22000   0.22398   0.22423   0.24422
     Eigenvalues ---    0.25000   0.34984   0.35184   0.35268   0.35338
     Eigenvalues ---    0.40405   0.41375   0.44210   0.45058   0.46339
     Eigenvalues ---    0.53605   0.56610   0.99250
 RFO step:  Lambda=-1.49175967D-07 EMin= 8.19570472D-03
 Linear search not attempted -- first point.
 Iteration  1 RMS(Cart)=  0.00086235 RMS(Int)=  0.00000141
 Iteration  2 RMS(Cart)=  0.00000179 RMS(Int)=  0.00000003
 Iteration  3 RMS(Cart)=  0.00000000 RMS(Int)=  0.00000003
 Variable       Old X    -DE/DX   Delta X   Delta X   Delta X     New X
                                 (Linear)    (Quad)   (Total)
    R1        2.63276   0.00004   0.00000   0.00009   0.00009   2.63285
    R2        2.05377   0.00000   0.00000   0.00000   0.00000   2.05376
    R3        2.63866   0.00002   0.00000   0.00004   0.00004   2.63870
    R4        2.66090  -0.00002   0.00000  -0.00005  -0.00005   2.66085
    R5        2.05130  -0.00001   0.00000  -0.00003  -0.00003   2.05127
    R6        2.71006  -0.00002   0.00000  -0.00004  -0.00004   2.71002
    R7        2.55063  -0.00001   0.00000  -0.00003  -0.00003   2.55060
    R8        2.05701   0.00001   0.00000   0.00002   0.00002   2.05703
    R9        2.64444   0.00005   0.00000   0.00011   0.00011   2.64455
   R10        2.52525   0.00004   0.00000   0.00007   0.00007   2.52532
   R11        2.28940   0.00004   0.00000   0.00004   0.00004   2.28944
   R12        3.45075   0.00003   0.00000   0.00011   0.00011   3.45086
   R13        2.05243   0.00001   0.00000   0.00004   0.00004   2.05246
    A1        2.10045   0.00000   0.00000  -0.00003  -0.00003   2.10042
    A2        2.07366   0.00000   0.00000   0.00000   0.00000   2.07365
    A3        2.10908   0.00001   0.00000   0.00003   0.00003   2.10911
    A4        2.07153   0.00000   0.00000  -0.00002  -0.00002   2.07150
    A5        2.11982   0.00000   0.00000   0.00000   0.00000   2.11982
    A6        2.09184   0.00000   0.00000   0.00002   0.00002   2.09186
    A7        2.09296  -0.00001   0.00000  -0.00004  -0.00004   2.09292
    A8        2.14294   0.00002   0.00000   0.00007   0.00007   2.14302
    A9        2.04729  -0.00001   0.00000  -0.00004  -0.00004   2.04725
   A10        2.10131   0.00001   0.00000   0.00003   0.00003   2.10135
   A11        2.01821   0.00000   0.00000   0.00000   0.00000   2.01821
   A12        2.16367  -0.00001   0.00000  -0.00004  -0.00004   2.16363
   A13        2.06344  -0.00001   0.00000   0.00000   0.00000   2.06344
   A14        2.11927   0.00000   0.00000   0.00001   0.00001   2.11929
   A15        2.10048   0.00000   0.00000  -0.00001  -0.00001   2.10046
   A16        2.05114   0.00000   0.00000  -0.00001  -0.00001   2.05113
   A17        3.11186   0.00001   0.00000   0.00014   0.00014   3.11199
   A18        3.16858  -0.00002   0.00000  -0.00217  -0.00217   3.16641
   A19        3.14154   0.00002   0.00000   0.00044   0.00044   3.14198
   A20        3.14054   0.00002   0.00000   0.00223   0.00223   3.14277
    D1        3.14153   0.00000   0.00000   0.00013   0.00013  -3.14152
    D2       -0.00006   0.00000   0.00000   0.00013   0.00013   0.00007
    D3       -0.00009   0.00000   0.00000   0.00019   0.00019   0.00010
    D4        3.14151   0.00000   0.00000   0.00018   0.00018  -3.14150
    D5       -0.00002   0.00000   0.00000   0.00008   0.00008   0.00006
    D6       -3.14159   0.00000   0.00000   0.00000   0.00000  -3.14159
    D7        3.14155   0.00000   0.00000   0.00013   0.00013  -3.14151
    D8       -0.00002   0.00000   0.00000   0.00005   0.00005   0.00003
    D9        3.14136   0.00001   0.00000   0.00057   0.00057  -3.14126
   D10        0.00018  -0.00001   0.00000  -0.00042  -0.00042  -0.00024
   D11       -0.00023   0.00001   0.00000   0.00057   0.00057   0.00034
   D12       -3.14141  -0.00001   0.00000  -0.00042  -0.00042   3.14136
   D13       -0.00016   0.00001   0.00000   0.00036   0.00036   0.00020
   D14       -3.14134  -0.00001   0.00000  -0.00061  -0.00061   3.14123
   D15        3.14158   0.00000   0.00000   0.00000   0.00000   3.14158
   D16       -0.00004   0.00000   0.00000   0.00007   0.00007   0.00004
   D17        0.00005   0.00000   0.00000  -0.00015  -0.00015  -0.00010
   D18       -3.14157   0.00000   0.00000  -0.00007  -0.00007   3.14155
   D19       -3.14149   0.00000   0.00000  -0.00021  -0.00021   3.14148
   D20        0.00004   0.00000   0.00000  -0.00007  -0.00007  -0.00003
         Item               Value     Threshold  Converged?
 Maximum Force            0.000048     0.000450     YES
 RMS     Force            0.000015     0.000300     YES
 Maximum Displacement     0.004266     0.001800     NO 
 RMS     Displacement     0.000863     0.001200     YES
 Predicted change in Energy=-7.458862D-08
 GradGradGradGradGradGradGradGradGradGradGradGradGradGradGradGradGradGrad

                          Input orientation:                          
 ---------------------------------------------------------------------
 Center     Atomic      Atomic             Coordinates (Angstroms)
 Number     Number       Type             X           Y           Z
 ---------------------------------------------------------------------
      1          6           0       -3.481461    1.185545   -0.000024
      2          6           0       -2.088385    1.207235   -0.000009
      3          6           0       -1.393303   -0.017306   -0.000111
      4          6           0       -3.355666   -1.210439    0.000073
      5          1           0       -4.045062    2.114793   -0.000013
      6          1           0       -1.536399    2.141895    0.000077
      7          1           0       -3.828531   -2.190902    0.000094
      8          6           0        0.040754   -0.025694    0.000320
      9          6           0        1.251933    0.003078    0.000300
     10         35           0        3.078049    0.001128   -0.001030
     11          6           0       -4.135269   -0.048268   -0.000018
     12          1           0       -5.219353   -0.114701   -0.000033
     13          7           0       -2.019327   -1.213065    0.000047
 ---------------------------------------------------------------------
                    Distance matrix (angstroms):
                    1          2          3          4          5
     1  C    0.000000
     2  C    1.393245   0.000000
     3  C    2.409825   1.408063   0.000000
     4  C    2.399284   2.729680   2.296614   0.000000
     5  H    1.086806   2.156907   3.402598   3.395943   0.000000
     6  H    2.167457   1.085484   2.163938   3.814167   2.508809
     7  H    3.394238   3.817780   3.264178   1.088535   4.311135
     8  C    3.724661   2.460354   1.434081   3.597122   4.612545
     9  C    4.878857   3.550735   2.645314   4.764724   5.702411
    10  Br   6.665584   5.305349   4.471390   6.546800   7.430093
    11  C    1.396338   2.401255   2.742141   1.399436   2.164941
    12  H    2.170463   3.398599   3.827290   2.161937   2.519841
    13  N    2.809122   2.421285   1.349720   1.336342   3.895926
                    6          7          8          9         10
     6  H    0.000000
     7  H    4.901734   0.000000
     8  C    2.680644   4.433902   0.000000
     9  C    3.514162   5.533956   1.211521   0.000000
    10  Br   5.086847   7.246092   3.037414   1.826117   0.000000
    11  C    3.398667   2.164479   4.176084   5.387447   7.213487
    12  H    4.319302   2.498999   5.260860   6.472358   8.298210
    13  N    3.389539   2.056547   2.377768   3.490007   5.239991
                   11         12         13
    11  C    0.000000
    12  H    1.086118   0.000000
    13  N    2.415360   3.383278   0.000000
 Stoichiometry    C7H4BrN
 Framework group  C1[X(C7H4BrN)]
 Deg. of freedom    33
 Full point group                 C1      NOp   1
 Largest Abelian subgroup         C1      NOp   1
 Largest concise Abelian subgroup C1      NOp   1
                         Standard orientation:                         
 ---------------------------------------------------------------------
 Center     Atomic      Atomic             Coordinates (Angstroms)
 Number     Number       Type             X           Y           Z
 ---------------------------------------------------------------------
      1          6           0        3.481001    1.186126   -0.000345
      2          6           0        2.087916    1.207293   -0.000360
      3          6           0        1.393295   -0.017510   -0.000257
      4          6           0        3.356106   -1.209905   -0.000441
      5          1           0        4.044252    2.115585   -0.000355
      6          1           0        1.535580    2.141745   -0.000446
      7          1           0        3.829340   -2.190190   -0.000462
      8          6           0       -0.040758   -0.026437   -0.000688
      9          6           0       -1.251949    0.001880   -0.000669
     10         35           0       -3.078064   -0.000757    0.000662
     11          6           0        4.135272   -0.047441   -0.000350
     12          1           0        5.219381   -0.113467   -0.000336
     13          7           0        2.019768   -1.213033   -0.000415
 ---------------------------------------------------------------------
 Rotational constants (GHZ):           5.8400994           0.3518324           0.3318409
 Basis read from rwf:  (5D, 7F)
 Pseudo-potential data read from rwf file.
 There are   171 symmetry adapted cartesian basis functions of A   symmetry.
 There are   163 symmetry adapted basis functions of A   symmetry.
   163 basis functions,   291 primitive gaussians,   171 cartesian basis functions
    30 alpha electrons       30 beta electrons
       nuclear repulsion energy       338.6226623050 Hartrees.
 NAtoms=   13 NActive=   13 NUniq=   13 SFac= 1.00D+00 NAtFMM=   60 NAOKFM=F Big=F
 Integral buffers will be    131072 words long.
 Raffenetti 2 integral format.
 Two-electron integral symmetry is turned on.
 Nuclear repulsion after empirical dispersion term =      338.6152499181 Hartrees.
 One-electron integrals computed using PRISM.
   1 Symmetry operations used in ECPInt.
 ECPInt:  NShTT=    1431 NPrTT=    7543 LenC2=    1416 LenP2D=    5458.
 LDataN:  DoStor=T MaxTD1= 6 Len=  172
 NBasis=   163 RedAO= T EigKep=  2.47D-06  NBF=   163
 NBsUse=   162 1.00D-06 EigRej=  1.14D-07 NBFU=   162
 Initial guess from the checkpoint file:  "o-py-vol.chk"
 B after Tr=     0.000000    0.000000    0.000000
         Rot=    1.000000   -0.000012   -0.000077   -0.000038 Ang=  -0.01 deg.
 Requested convergence on RMS density matrix=1.00D-08 within1000 cycles.
 Requested convergence on MAX density matrix=1.00D-06.
 Requested convergence on             energy=1.00D-06.
 No special actions if energy rises.
 SCF Done:  E(RB3LYP) =  -337.203163199     A.U. after   10 cycles
            NFock= 10  Conv=0.43D-08     -V/T= 2.0340
   1 Symmetry operations used in ECPInt.
 ECPInt:  NShTT=    1431 NPrTT=    7543 LenC2=    1416 LenP2D=    5458.
 LDataN:  DoStor=T MaxTD1= 7 Len=  274
 Calling FoFJK, ICntrl=      2127 FMM=F ISym2X=0 I1Cent= 0 IOpClX= 0 NMat=1 NMatS=1 NMatT=0.
 ***** Axes restored to original set *****
 -------------------------------------------------------------------
 Center     Atomic                   Forces (Hartrees/Bohr)
 Number     Number              X              Y              Z
 -------------------------------------------------------------------
      1        6          -0.000010168   -0.000007505   -0.000003116
      2        6           0.000014586   -0.000001946   -0.000014982
      3        6          -0.000006524   -0.000028099    0.000080103
      4        6          -0.000003311   -0.000002786   -0.000016660
      5        1           0.000001361   -0.000000027    0.000000770
      6        1          -0.000002351    0.000000676   -0.000002103
      7        1           0.000001502    0.000002094    0.000003917
      8        6           0.000017928    0.000018364   -0.000044363
      9        6          -0.000011762    0.000038168   -0.000009181
     10       35          -0.000000176   -0.000024738    0.000012506
     11        6           0.000004218    0.000008990    0.000003104
     12        1           0.000000824   -0.000000936    0.000001274
     13        7          -0.000006127   -0.000002254   -0.000011267
 -------------------------------------------------------------------
 Cartesian Forces:  Max     0.000080103 RMS     0.000018637

 GradGradGradGradGradGradGradGradGradGradGradGradGradGradGradGradGradGrad
 Berny optimization.
 Using GEDIIS/GDIIS optimizer.
 FormGI is forming the generalized inverse of G from B-inverse, IUseBI=4.
 Internal  Forces:  Max     0.000086133 RMS     0.000016889
 Search for a local minimum.
 Step number   2 out of a maximum of   63
 All quantities printed in internal units (Hartrees-Bohrs-Radians)
 Mixed Optimization -- En-DIIS/RFO-DIIS
 Swapping is turned off.
 Update second derivatives using D2CorX and points    1    2
 DE=  7.79D-08 DEPred=-7.46D-08 R=-1.04D+00
 Trust test=-1.04D+00 RLast= 3.41D-03 DXMaxT set to 1.50D-01
 ITU= -1  0
     Eigenvalues ---    0.00715   0.01601   0.02058   0.02100   0.02117
     Eigenvalues ---    0.02145   0.02159   0.02226   0.02374   0.02844
     Eigenvalues ---    0.04370   0.07116   0.15948   0.16000   0.16000
     Eigenvalues ---    0.16003   0.21938   0.22011   0.22418   0.24311
     Eigenvalues ---    0.25129   0.34945   0.35114   0.35186   0.35316
     Eigenvalues ---    0.39801   0.40599   0.43797   0.44918   0.45829
     Eigenvalues ---    0.53590   0.55913   0.98843
 En-DIIS/RFO-DIIS/Sim-DIIS IScMMF=       -3 using points:     2    1
 RFO step:  Lambda=-2.63344173D-07.
 DidBck=T Rises=F RFO-DIIS coefs:    0.47240    0.52760
 Iteration  1 RMS(Cart)=  0.00119645 RMS(Int)=  0.00000169
 Iteration  2 RMS(Cart)=  0.00000169 RMS(Int)=  0.00000002
 Iteration  3 RMS(Cart)=  0.00000000 RMS(Int)=  0.00000002
 Variable       Old X    -DE/DX   Delta X   Delta X   Delta X     New X
                                 (Linear)    (Quad)   (Total)
    R1        2.63285   0.00000  -0.00005   0.00008   0.00004   2.63289
    R2        2.05376   0.00000   0.00000   0.00000   0.00000   2.05376
    R3        2.63870  -0.00001  -0.00002   0.00003   0.00001   2.63871
    R4        2.66085  -0.00001   0.00003  -0.00005  -0.00002   2.66083
    R5        2.05127   0.00000   0.00002  -0.00003  -0.00001   2.05126
    R6        2.71002   0.00001   0.00002  -0.00004  -0.00001   2.71001
    R7        2.55060   0.00000   0.00001  -0.00002  -0.00001   2.55059
    R8        2.05703   0.00000  -0.00001   0.00002   0.00001   2.05704
    R9        2.64455   0.00000  -0.00006   0.00010   0.00004   2.64459
   R10        2.52532   0.00000  -0.00004   0.00007   0.00003   2.52535
   R11        2.28944  -0.00001  -0.00002   0.00003   0.00001   2.28945
   R12        3.45086   0.00000  -0.00006   0.00010   0.00004   3.45091
   R13        2.05246   0.00000  -0.00002   0.00004   0.00001   2.05248
    A1        2.10042   0.00000   0.00002  -0.00003  -0.00001   2.10041
    A2        2.07365   0.00000   0.00000   0.00000   0.00000   2.07365
    A3        2.10911   0.00000  -0.00002   0.00003   0.00002   2.10913
    A4        2.07150   0.00000   0.00001  -0.00002  -0.00001   2.07149
    A5        2.11982   0.00000   0.00000   0.00000   0.00000   2.11982
    A6        2.09186   0.00000  -0.00001   0.00002   0.00001   2.09187
    A7        2.09292  -0.00001   0.00002  -0.00005  -0.00003   2.09289
    A8        2.14302   0.00000  -0.00004   0.00007   0.00003   2.14305
    A9        2.04725   0.00002   0.00002  -0.00002   0.00000   2.04725
   A10        2.10135   0.00000  -0.00002   0.00003   0.00001   2.10136
   A11        2.01821   0.00000   0.00000   0.00000   0.00000   2.01821
   A12        2.16363   0.00000   0.00002  -0.00003  -0.00001   2.16362
   A13        2.06344   0.00000   0.00000   0.00000   0.00000   2.06344
   A14        2.11929   0.00000  -0.00001   0.00001   0.00001   2.11929
   A15        2.10046   0.00000   0.00001  -0.00001  -0.00001   2.10045
   A16        2.05113   0.00000   0.00000  -0.00001   0.00000   2.05113
   A17        3.11199   0.00006  -0.00007   0.00052   0.00045   3.11244
   A18        3.16641   0.00009   0.00114   0.00146   0.00261   3.16902
   A19        3.14198  -0.00004  -0.00023   0.00011  -0.00012   3.14186
   A20        3.14277  -0.00003  -0.00118   0.00099  -0.00019   3.14258
    D1       -3.14152   0.00000  -0.00007   0.00007   0.00000  -3.14152
    D2        0.00007   0.00000  -0.00007   0.00007   0.00000   0.00006
    D3        0.00010   0.00000  -0.00010   0.00010   0.00000   0.00010
    D4       -3.14150  -0.00001  -0.00010   0.00009   0.00000  -3.14150
    D5        0.00006   0.00000  -0.00004   0.00003  -0.00002   0.00004
    D6       -3.14159   0.00000   0.00000   0.00000   0.00000  -3.14159
    D7       -3.14151   0.00000  -0.00007   0.00005  -0.00002  -3.14152
    D8        0.00003   0.00000  -0.00003   0.00003   0.00000   0.00003
    D9       -3.14126  -0.00002  -0.00030   0.00025  -0.00005  -3.14131
   D10       -0.00024   0.00001   0.00022  -0.00021   0.00002  -0.00022
   D11        0.00034  -0.00002  -0.00030   0.00025  -0.00005   0.00029
   D12        3.14136   0.00001   0.00022  -0.00020   0.00002   3.14137
   D13        0.00020  -0.00001  -0.00019   0.00018  -0.00001   0.00019
   D14        3.14123   0.00002   0.00032  -0.00027   0.00005   3.14128
   D15        3.14158   0.00000   0.00000   0.00001   0.00001   3.14159
   D16        0.00004   0.00000  -0.00004   0.00004   0.00000   0.00004
   D17       -0.00010   0.00001   0.00008  -0.00006   0.00002  -0.00008
   D18        3.14155   0.00000   0.00004  -0.00003   0.00001   3.14156
   D19        3.14148   0.00001   0.00011  -0.00011   0.00000   3.14148
   D20       -0.00003   0.00000   0.00004  -0.00004  -0.00001  -0.00004
         Item               Value     Threshold  Converged?
 Maximum Force            0.000086     0.000450     YES
 RMS     Force            0.000017     0.000300     YES
 Maximum Displacement     0.006820     0.001800     NO 
 RMS     Displacement     0.001197     0.001200     YES
 Predicted change in Energy=-1.316726D-07
 GradGradGradGradGradGradGradGradGradGradGradGradGradGradGradGradGradGrad

                          Input orientation:                          
 ---------------------------------------------------------------------
 Center     Atomic      Atomic             Coordinates (Angstroms)
 Number     Number       Type             X           Y           Z
 ---------------------------------------------------------------------
      1          6           0       -3.481858    1.185519   -0.000008
      2          6           0       -2.088770    1.207725   -0.000028
      3          6           0       -1.393253   -0.016555   -0.000143
      4          6           0       -3.355165   -1.210442    0.000072
      5          1           0       -4.045789    2.114565    0.000015
      6          1           0       -1.537137    2.142585    0.000039
      7          1           0       -3.827654   -2.191089    0.000095
      8          6           0        0.040801   -0.024377    0.000192
      9          6           0        1.251988    0.004328    0.000215
     10         35           0        3.078115   -0.002481   -0.000844
     11          6           0       -4.135211   -0.048541    0.000018
     12          1           0       -5.219277   -0.115384    0.000033
     13          7           0       -2.018809   -1.212554    0.000017
 ---------------------------------------------------------------------
                    Distance matrix (angstroms):
                    1          2          3          4          5
     1  C    0.000000
     2  C    1.393265   0.000000
     3  C    2.409825   1.408051   0.000000
     4  C    2.399308   2.729705   2.296621   0.000000
     5  H    1.086804   2.156915   3.402590   3.395973   0.000000
     6  H    2.167467   1.085478   2.163929   3.814186   2.508809
     7  H    3.394268   3.817808   3.264186   1.088538   4.311176
     8  C    3.724644   2.460314   1.434074   3.597128   4.612514
     9  C    4.878986   3.550891   2.645323   4.764611   5.702591
    10  Br   6.666678   5.306723   4.471390   6.545706   7.431817
    11  C    1.396343   2.401275   2.742145   1.399459   2.164953
    12  H    2.170478   3.398631   3.827301   2.161959   2.519870
    13  N    2.809140   2.421290   1.349716   1.336357   3.895942
                    6          7          8          9         10
     6  H    0.000000
     7  H    4.901754   0.000000
     8  C    2.680599   4.433913   0.000000
     9  C    3.514450   5.533770   1.211527   0.000000
    10  Br   5.089387   7.244284   3.037394   1.826141   0.000000
    11  C    3.398679   2.164510   4.176081   5.387458   7.213473
    12  H    4.319326   2.499033   5.260865   6.472372   8.298161
    13  N    3.389537   2.056563   2.377763   3.489830   5.238599
                   11         12         13
    11  C    0.000000
    12  H    1.086125   0.000000
    13  N    2.415384   3.383308   0.000000
 Stoichiometry    C7H4BrN
 Framework group  C1[X(C7H4BrN)]
 Deg. of freedom    33
 Full point group                 C1      NOp   1
 Largest Abelian subgroup         C1      NOp   1
 Largest concise Abelian subgroup C1      NOp   1
                         Standard orientation:                         
 ---------------------------------------------------------------------
 Center     Atomic      Atomic             Coordinates (Angstroms)
 Number     Number       Type             X           Y           Z
 ---------------------------------------------------------------------
      1          6           0        3.482183    1.185122   -0.000303
      2          6           0        2.089100    1.207660   -0.000283
      3          6           0        1.393291   -0.016454   -0.000168
      4          6           0        3.354918   -1.210809   -0.000382
      5          1           0        4.046336    2.114033   -0.000326
      6          1           0        1.537690    2.142651   -0.000350
      7          1           0        3.827174   -2.191569   -0.000405
      8          6           0       -0.040764   -0.023934   -0.000502
      9          6           0       -1.251944    0.005059   -0.000525
     10         35           0       -3.078074   -0.001314    0.000533
     11          6           0        4.135241   -0.049094   -0.000328
     12          1           0        5.219292   -0.116196   -0.000344
     13          7           0        2.018562   -1.212602   -0.000328
 ---------------------------------------------------------------------
 Rotational constants (GHZ):           5.8402261           0.3518323           0.3318412
 Basis read from rwf:  (5D, 7F)
 Pseudo-potential data read from rwf file.
 There are   171 symmetry adapted cartesian basis functions of A   symmetry.
 There are   163 symmetry adapted basis functions of A   symmetry.
   163 basis functions,   291 primitive gaussians,   171 cartesian basis functions
    30 alpha electrons       30 beta electrons
       nuclear repulsion energy       338.6215784773 Hartrees.
 NAtoms=   13 NActive=   13 NUniq=   13 SFac= 1.00D+00 NAtFMM=   60 NAOKFM=F Big=F
 Integral buffers will be    131072 words long.
 Raffenetti 2 integral format.
 Two-electron integral symmetry is turned on.
 Nuclear repulsion after empirical dispersion term =      338.6141662593 Hartrees.
 One-electron integrals computed using PRISM.
   1 Symmetry operations used in ECPInt.
 ECPInt:  NShTT=    1431 NPrTT=    7543 LenC2=    1416 LenP2D=    5458.
 LDataN:  DoStor=T MaxTD1= 6 Len=  172
 NBasis=   163 RedAO= T EigKep=  2.47D-06  NBF=   163
 NBsUse=   162 1.00D-06 EigRej=  1.14D-07 NBFU=   162
 Initial guess from the checkpoint file:  "o-py-vol.chk"
 B after Tr=     0.000000    0.000000    0.000000
         Rot=    1.000000    0.000002    0.000013    0.000065 Ang=   0.01 deg.
 Requested convergence on RMS density matrix=1.00D-08 within1000 cycles.
 Requested convergence on MAX density matrix=1.00D-06.
 Requested convergence on             energy=1.00D-06.
 No special actions if energy rises.
 SCF Done:  E(RB3LYP) =  -337.203163264     A.U. after   10 cycles
            NFock= 10  Conv=0.38D-08     -V/T= 2.0340
   1 Symmetry operations used in ECPInt.
 ECPInt:  NShTT=    1431 NPrTT=    7543 LenC2=    1416 LenP2D=    5458.
 LDataN:  DoStor=T MaxTD1= 7 Len=  274
 Calling FoFJK, ICntrl=      2127 FMM=F ISym2X=0 I1Cent= 0 IOpClX= 0 NMat=1 NMatS=1 NMatT=0.
 ***** Axes restored to original set *****
 -------------------------------------------------------------------
 Center     Atomic                   Forces (Hartrees/Bohr)
 Number     Number              X              Y              Z
 -------------------------------------------------------------------
      1        6           0.000003159   -0.000010436   -0.000001612
      2        6          -0.000021032   -0.000004913   -0.000014049
      3        6          -0.000005631    0.000027279    0.000069302
      4        6           0.000003996    0.000014571   -0.000013797
      5        1          -0.000001097   -0.000000657    0.000000853
      6        1           0.000000192    0.000003729   -0.000002225
      7        1           0.000002551    0.000004903    0.000003925
      8        6           0.000029758   -0.000022976   -0.000034993
      9        6          -0.000006226   -0.000020000   -0.000008432
     10       35          -0.000011621    0.000016269    0.000010059
     11        6           0.000011439   -0.000001816    0.000001763
     12        1           0.000006222   -0.000000217    0.000000966
     13        7          -0.000011710   -0.000005737   -0.000011760
 -------------------------------------------------------------------
 Cartesian Forces:  Max     0.000069302 RMS     0.000016782

 GradGradGradGradGradGradGradGradGradGradGradGradGradGradGradGradGradGrad
 Berny optimization.
 Using GEDIIS/GDIIS optimizer.
 FormGI is forming the generalized inverse of G from B-inverse, IUseBI=4.
 Internal  Forces:  Max     0.000055173 RMS     0.000013646
 Search for a local minimum.
 Step number   3 out of a maximum of   63
 All quantities printed in internal units (Hartrees-Bohrs-Radians)
 Mixed Optimization -- En-DIIS/RFO-DIIS
 Swapping is turned off.
 Update second derivatives using D2CorX and points    1    2    3
 DE= -6.49D-08 DEPred=-1.32D-07 R= 4.93D-01
 Trust test= 4.93D-01 RLast= 2.66D-03 DXMaxT set to 1.50D-01
 ITU=  0 -1  0
     Eigenvalues ---    0.01021   0.02057   0.02099   0.02117   0.02144
     Eigenvalues ---    0.02159   0.02225   0.02371   0.02595   0.02875
     Eigenvalues ---    0.06358   0.08485   0.15795   0.16000   0.16001
     Eigenvalues ---    0.16009   0.21136   0.22010   0.22418   0.24141
     Eigenvalues ---    0.25445   0.34433   0.35016   0.35186   0.35311
     Eigenvalues ---    0.37870   0.40521   0.43443   0.44815   0.45639
     Eigenvalues ---    0.53623   0.55346   0.98484
 En-DIIS/RFO-DIIS/Sim-DIIS IScMMF=       -3 using points:     3    2    1
 RFO step:  Lambda=-1.23397007D-07.
 DidBck=T Rises=F RFO-DIIS coefs:    0.19587    0.28396    0.52017
 Iteration  1 RMS(Cart)=  0.00053757 RMS(Int)=  0.00000043
 Iteration  2 RMS(Cart)=  0.00000053 RMS(Int)=  0.00000001
 Variable       Old X    -DE/DX   Delta X   Delta X   Delta X     New X
                                 (Linear)    (Quad)   (Total)
    R1        2.63289  -0.00001  -0.00008   0.00006  -0.00001   2.63288
    R2        2.05376   0.00000   0.00000   0.00000   0.00000   2.05376
    R3        2.63871  -0.00002  -0.00003   0.00001  -0.00001   2.63869
    R4        2.66083   0.00001   0.00005  -0.00004   0.00001   2.66084
    R5        2.05126   0.00000   0.00003  -0.00002   0.00001   2.05126
    R6        2.71001   0.00001   0.00003  -0.00002   0.00001   2.71002
    R7        2.55059   0.00000   0.00002  -0.00002   0.00000   2.55060
    R8        2.05704  -0.00001  -0.00001   0.00001  -0.00001   2.05703
    R9        2.64459  -0.00002  -0.00009   0.00007  -0.00002   2.64457
   R10        2.52535  -0.00001  -0.00006   0.00005  -0.00001   2.52534
   R11        2.28945  -0.00002  -0.00003   0.00002  -0.00001   2.28945
   R12        3.45091  -0.00001  -0.00009   0.00007  -0.00002   3.45088
   R13        2.05248  -0.00001  -0.00003   0.00002  -0.00001   2.05247
    A1        2.10041   0.00000   0.00003  -0.00002   0.00000   2.10041
    A2        2.07365   0.00000   0.00000   0.00000   0.00000   2.07365
    A3        2.10913   0.00000  -0.00003   0.00003   0.00000   2.10912
    A4        2.07149   0.00000   0.00002  -0.00002   0.00000   2.07150
    A5        2.11982   0.00000   0.00000  -0.00001  -0.00001   2.11982
    A6        2.09187   0.00000  -0.00002   0.00002   0.00000   2.09187
    A7        2.09289   0.00002   0.00005  -0.00003   0.00002   2.09290
    A8        2.14305  -0.00001  -0.00006   0.00005  -0.00001   2.14304
    A9        2.04725  -0.00001   0.00002  -0.00002  -0.00001   2.04725
   A10        2.10136   0.00000  -0.00003   0.00002  -0.00001   2.10135
   A11        2.01821   0.00000   0.00000   0.00000   0.00000   2.01821
   A12        2.16362   0.00001   0.00003  -0.00002   0.00001   2.16362
   A13        2.06344   0.00000   0.00000   0.00000   0.00000   2.06344
   A14        2.11929   0.00000  -0.00001   0.00001   0.00000   2.11929
   A15        2.10045   0.00000   0.00001  -0.00001   0.00000   2.10045
   A16        2.05113   0.00000   0.00001  -0.00001   0.00000   2.05112
   A17        3.11244  -0.00005  -0.00043   0.00022  -0.00022   3.11223
   A18        3.16902  -0.00006  -0.00097  -0.00006  -0.00102   3.16799
   A19        3.14186  -0.00003  -0.00013  -0.00015  -0.00027   3.14158
   A20        3.14258  -0.00002  -0.00101  -0.00006  -0.00107   3.14151
    D1       -3.14152   0.00000  -0.00007   0.00001  -0.00006  -3.14159
    D2        0.00006   0.00000  -0.00006   0.00000  -0.00006   0.00000
    D3        0.00010   0.00000  -0.00010   0.00001  -0.00009   0.00001
    D4       -3.14150   0.00000  -0.00009   0.00001  -0.00009  -3.14158
    D5        0.00004   0.00000  -0.00003  -0.00002  -0.00005  -0.00001
    D6       -3.14159   0.00000   0.00000   0.00000   0.00000   3.14159
    D7       -3.14152   0.00000  -0.00006  -0.00001  -0.00007   3.14159
    D8        0.00003   0.00000  -0.00003   0.00000  -0.00003   0.00000
    D9       -3.14131  -0.00001  -0.00026  -0.00003  -0.00029  -3.14159
   D10       -0.00022   0.00001   0.00021   0.00000   0.00020  -0.00002
   D11        0.00029  -0.00001  -0.00026  -0.00003  -0.00029   0.00001
   D12        3.14137   0.00001   0.00020   0.00000   0.00020   3.14158
   D13        0.00019  -0.00001  -0.00018   0.00001  -0.00017   0.00002
   D14        3.14128   0.00002   0.00027   0.00003   0.00031   3.14159
   D15        3.14159   0.00000  -0.00001   0.00002   0.00001  -3.14159
   D16        0.00004   0.00000  -0.00004   0.00000  -0.00003   0.00000
   D17       -0.00008   0.00000   0.00006   0.00002   0.00008   0.00000
   D18        3.14156   0.00000   0.00003   0.00001   0.00004  -3.14159
   D19        3.14148   0.00001   0.00011  -0.00001   0.00010   3.14158
   D20       -0.00004   0.00000   0.00004  -0.00001   0.00003  -0.00001
         Item               Value     Threshold  Converged?
 Maximum Force            0.000055     0.000450     YES
 RMS     Force            0.000014     0.000300     YES
 Maximum Displacement     0.002785     0.001800     NO 
 RMS     Displacement     0.000538     0.001200     YES
 Predicted change in Energy=-6.119772D-08
 GradGradGradGradGradGradGradGradGradGradGradGradGradGradGradGradGradGrad

                          Input orientation:                          
 ---------------------------------------------------------------------
 Center     Atomic      Atomic             Coordinates (Angstroms)
 Number     Number       Type             X           Y           Z
 ---------------------------------------------------------------------
      1          6           0       -3.481696    1.185528    0.000048
      2          6           0       -2.088611    1.207520   -0.000039
      3          6           0       -1.393274   -0.016867   -0.000084
      4          6           0       -3.355371   -1.210439    0.000059
      5          1           0       -4.045489    2.114658    0.000079
      6          1           0       -1.536838    2.142300   -0.000075
      7          1           0       -3.828016   -2.191007    0.000092
      8          6           0        0.040784   -0.024927   -0.000173
      9          6           0        1.251965    0.003839   -0.000237
     10         35           0        3.078087   -0.001007   -0.000245
     11          6           0       -4.135232   -0.048426    0.000102
     12          1           0       -5.219305   -0.115103    0.000172
     13          7           0       -2.019023   -1.212767   -0.000025
 ---------------------------------------------------------------------
                    Distance matrix (angstroms):
                    1          2          3          4          5
     1  C    0.000000
     2  C    1.393258   0.000000
     3  C    2.409825   1.408055   0.000000
     4  C    2.399295   2.729690   2.296614   0.000000
     5  H    1.086805   2.156912   3.402593   3.395957   0.000000
     6  H    2.167460   1.085480   2.163935   3.814174   2.508803
     7  H    3.394249   3.817789   3.264177   1.088535   4.311154
     8  C    3.724656   2.460335   1.434081   3.597125   4.612531
     9  C    4.878927   3.550816   2.645320   4.764664   5.702505
    10  Br   6.666229   5.306157   4.471389   6.546152   7.431108
    11  C    1.396336   2.401262   2.742139   1.399448   2.164945
    12  H    2.170467   3.398613   3.827291   2.161945   2.519856
    13  N    2.809134   2.421288   1.349718   1.336350   3.895936
                    6          7          8          9         10
     6  H    0.000000
     7  H    4.901739   0.000000
     8  C    2.680628   4.433905   0.000000
     9  C    3.514319   5.533855   1.211523   0.000000
    10  Br   5.088349   7.245022   3.037397   1.826128   0.000000
    11  C    3.398667   2.164494   4.176082   5.387451   7.213475
    12  H    4.319309   2.499013   5.260862   6.472363   8.298176
    13  N    3.389540   2.056552   2.377766   3.489913   5.239169
                   11         12         13
    11  C    0.000000
    12  H    1.086121   0.000000
    13  N    2.415374   3.383293   0.000000
 Stoichiometry    C7H4BrN
 Framework group  C1[X(C7H4BrN)]
 Deg. of freedom    33
 Full point group                 C1      NOp   1
 Largest Abelian subgroup         C1      NOp   1
 Largest concise Abelian subgroup C1      NOp   1
                         Standard orientation:                         
 ---------------------------------------------------------------------
 Center     Atomic      Atomic             Coordinates (Angstroms)
 Number     Number       Type             X           Y           Z
 ---------------------------------------------------------------------
      1          6           0        3.481699    1.185532   -0.000167
      2          6           0        2.088614    1.207506   -0.000080
      3          6           0        1.393293   -0.016890   -0.000034
      4          6           0        3.355405   -1.210436   -0.000177
      5          1           0        4.045480    2.114669   -0.000197
      6          1           0        1.536829    2.142279   -0.000043
      7          1           0        3.828062   -2.190999   -0.000210
      8          6           0       -0.040765   -0.024968    0.000054
      9          6           0       -1.251947    0.003782    0.000119
     10         35           0       -3.078068   -0.001088    0.000126
     11          6           0        4.135251   -0.048414   -0.000220
     12          1           0        5.219324   -0.115077   -0.000290
     13          7           0        2.019057   -1.212782   -0.000093
 ---------------------------------------------------------------------
 Rotational constants (GHZ):           5.8401875           0.3518326           0.3318414
 Basis read from rwf:  (5D, 7F)
 Pseudo-potential data read from rwf file.
 There are   171 symmetry adapted cartesian basis functions of A   symmetry.
 There are   163 symmetry adapted basis functions of A   symmetry.
   163 basis functions,   291 primitive gaussians,   171 cartesian basis functions
    30 alpha electrons       30 beta electrons
       nuclear repulsion energy       338.6221997424 Hartrees.
 NAtoms=   13 NActive=   13 NUniq=   13 SFac= 1.00D+00 NAtFMM=   60 NAOKFM=F Big=F
 Integral buffers will be    131072 words long.
 Raffenetti 2 integral format.
 Two-electron integral symmetry is turned on.
 Nuclear repulsion after empirical dispersion term =      338.6147874616 Hartrees.
 One-electron integrals computed using PRISM.
   1 Symmetry operations used in ECPInt.
 ECPInt:  NShTT=    1431 NPrTT=    7543 LenC2=    1416 LenP2D=    5458.
 LDataN:  DoStor=T MaxTD1= 6 Len=  172
 NBasis=   163 RedAO= T EigKep=  2.47D-06  NBF=   163
 NBsUse=   162 1.00D-06 EigRej=  1.14D-07 NBFU=   162
 Initial guess from the checkpoint file:  "o-py-vol.chk"
 B after Tr=     0.000000    0.000000    0.000000
         Rot=    1.000000    0.000006    0.000040   -0.000027 Ang=   0.01 deg.
 Requested convergence on RMS density matrix=1.00D-08 within1000 cycles.
 Requested convergence on MAX density matrix=1.00D-06.
 Requested convergence on             energy=1.00D-06.
 No special actions if energy rises.
 SCF Done:  E(RB3LYP) =  -337.203163318     A.U. after    9 cycles
            NFock=  9  Conv=0.41D-08     -V/T= 2.0340
   1 Symmetry operations used in ECPInt.
 ECPInt:  NShTT=    1431 NPrTT=    7543 LenC2=    1416 LenP2D=    5458.
 LDataN:  DoStor=T MaxTD1= 7 Len=  274
 Calling FoFJK, ICntrl=      2127 FMM=F ISym2X=0 I1Cent= 0 IOpClX= 0 NMat=1 NMatS=1 NMatT=0.
 ***** Axes restored to original set *****
 -------------------------------------------------------------------
 Center     Atomic                   Forces (Hartrees/Bohr)
 Number     Number              X              Y              Z
 -------------------------------------------------------------------
      1        6           0.000000499   -0.000006364    0.000000877
      2        6          -0.000007205   -0.000002661   -0.000001185
      3        6          -0.000002327    0.000003956    0.000001601
      4        6           0.000001846    0.000006590    0.000000314
      5        1          -0.000000237   -0.000000227    0.000000108
      6        1          -0.000000180    0.000002092   -0.000000302
      7        1           0.000001174    0.000002462    0.000000447
      8        6           0.000017620   -0.000004178    0.000000687
      9        6          -0.000005149    0.000002557    0.000000647
     10       35          -0.000005594   -0.000000189   -0.000000667
     11        6           0.000006063   -0.000000112   -0.000000672
     12        1           0.000003111   -0.000000415   -0.000000072
     13        7          -0.000009621   -0.000003511   -0.000001784
 -------------------------------------------------------------------
 Cartesian Forces:  Max     0.000017620 RMS     0.000004337

 GradGradGradGradGradGradGradGradGradGradGradGradGradGradGradGradGradGrad
 Berny optimization.
 Using GEDIIS/GDIIS optimizer.
 FormGI is forming the generalized inverse of G from B-inverse, IUseBI=4.
 Internal  Forces:  Max     0.000010704 RMS     0.000003099
 Search for a local minimum.
 Step number   4 out of a maximum of   63
 All quantities printed in internal units (Hartrees-Bohrs-Radians)
 Mixed Optimization -- En-DIIS/RFO-DIIS
 Swapping is turned off.
 Update second derivatives using D2CorX and points    1    2    3    4
 DE= -5.46D-08 DEPred=-6.12D-08 R= 8.92D-01
 Trust test= 8.92D-01 RLast= 1.66D-03 DXMaxT set to 1.50D-01
 ITU=  0  0 -1  0
     Eigenvalues ---    0.01055   0.02059   0.02101   0.02117   0.02146
     Eigenvalues ---    0.02159   0.02225   0.02377   0.02796   0.02872
     Eigenvalues ---    0.06489   0.08455   0.15837   0.16000   0.16001
     Eigenvalues ---    0.16004   0.21961   0.22139   0.22418   0.24206
     Eigenvalues ---    0.25408   0.34995   0.35133   0.35195   0.35308
     Eigenvalues ---    0.40190   0.40490   0.43963   0.44923   0.45348
     Eigenvalues ---    0.53633   0.55990   0.99279
 En-DIIS/RFO-DIIS/Sim-DIIS IScMMF=       -3 using points:     4    3    2    1
 RFO step:  Lambda=-1.32191465D-09.
 DidBck=T Rises=F RFO-DIIS coefs:    0.58782    0.10369    0.09984    0.20865
 Iteration  1 RMS(Cart)=  0.00003982 RMS(Int)=  0.00000000
 Iteration  2 RMS(Cart)=  0.00000000 RMS(Int)=  0.00000000
 Variable       Old X    -DE/DX   Delta X   Delta X   Delta X     New X
                                 (Linear)    (Quad)   (Total)
    R1        2.63288   0.00000  -0.00002   0.00001  -0.00001   2.63286
    R2        2.05376   0.00000   0.00000   0.00000   0.00000   2.05376
    R3        2.63869  -0.00001  -0.00001  -0.00001  -0.00001   2.63868
    R4        2.66084   0.00000   0.00001  -0.00001   0.00001   2.66084
    R5        2.05126   0.00000   0.00001   0.00000   0.00000   2.05127
    R6        2.71002   0.00001   0.00001   0.00001   0.00001   2.71003
    R7        2.55060   0.00000   0.00001   0.00000   0.00000   2.55060
    R8        2.05703   0.00000   0.00000   0.00000  -0.00001   2.05703
    R9        2.64457  -0.00001  -0.00003   0.00001  -0.00002   2.64455
   R10        2.52534  -0.00001  -0.00002   0.00001  -0.00001   2.52532
   R11        2.28945  -0.00001  -0.00001   0.00000  -0.00001   2.28944
   R12        3.45088  -0.00001  -0.00003   0.00001  -0.00002   3.45086
   R13        2.05247   0.00000  -0.00001   0.00000  -0.00001   2.05246
    A1        2.10041   0.00000   0.00001  -0.00001   0.00000   2.10042
    A2        2.07365   0.00000   0.00000   0.00000   0.00000   2.07365
    A3        2.10912   0.00000  -0.00001   0.00001   0.00000   2.10912
    A4        2.07150   0.00000   0.00001   0.00000   0.00000   2.07150
    A5        2.11982   0.00000   0.00000  -0.00001  -0.00001   2.11981
    A6        2.09187   0.00000  -0.00001   0.00001   0.00000   2.09187
    A7        2.09290   0.00000   0.00001   0.00000   0.00001   2.09291
    A8        2.14304   0.00000  -0.00002   0.00001  -0.00001   2.14303
    A9        2.04725   0.00000   0.00001  -0.00001   0.00000   2.04725
   A10        2.10135   0.00000  -0.00001   0.00000  -0.00001   2.10135
   A11        2.01821   0.00000   0.00000   0.00000   0.00000   2.01820
   A12        2.16362   0.00000   0.00001   0.00000   0.00001   2.16363
   A13        2.06344   0.00000   0.00000   0.00000   0.00000   2.06344
   A14        2.11929   0.00000   0.00000   0.00000   0.00000   2.11929
   A15        2.10045   0.00000   0.00001  -0.00001   0.00000   2.10045
   A16        2.05112   0.00000   0.00000  -0.00001   0.00000   2.05112
   A17        3.11223   0.00000  -0.00008   0.00000  -0.00008   3.11215
   A18        3.16799   0.00000   0.00007   0.00000   0.00007   3.16806
   A19        3.14158   0.00000   0.00006  -0.00003   0.00003   3.14161
   A20        3.14151   0.00000   0.00003   0.00005   0.00008   3.14159
    D1       -3.14159   0.00000   0.00000  -0.00001  -0.00001   3.14159
    D2        0.00000   0.00000   0.00000   0.00000   0.00000   0.00000
    D3        0.00001   0.00000   0.00000  -0.00001  -0.00002   0.00000
    D4       -3.14158   0.00000   0.00000  -0.00001  -0.00001   3.14159
    D5       -0.00001   0.00000   0.00001   0.00000   0.00000   0.00000
    D6        3.14159   0.00000   0.00000   0.00000   0.00000  -3.14159
    D7        3.14159   0.00000   0.00001  -0.00001   0.00000   3.14159
    D8        0.00000   0.00000   0.00000   0.00000   0.00000   0.00000
    D9       -3.14159   0.00000   0.00001  -0.00002  -0.00001   3.14158
   D10       -0.00002   0.00000   0.00000   0.00003   0.00003   0.00001
   D11        0.00001   0.00000   0.00001  -0.00003  -0.00001  -0.00001
   D12        3.14158   0.00000   0.00000   0.00002   0.00002  -3.14159
   D13        0.00002   0.00000   0.00000  -0.00002  -0.00003  -0.00001
   D14        3.14159   0.00000  -0.00002   0.00003   0.00001  -3.14158
   D15       -3.14159   0.00000  -0.00001   0.00000  -0.00001   3.14159
   D16        0.00000   0.00000   0.00000   0.00000  -0.00001   0.00000
   D17        0.00000   0.00000  -0.00001   0.00001   0.00000   0.00000
   D18       -3.14159   0.00000   0.00000   0.00000   0.00000  -3.14159
   D19        3.14158   0.00000   0.00000   0.00001   0.00002  -3.14159
   D20       -0.00001   0.00000   0.00001   0.00001   0.00001   0.00000
         Item               Value     Threshold  Converged?
 Maximum Force            0.000011     0.000450     YES
 RMS     Force            0.000003     0.000300     YES
 Maximum Displacement     0.000170     0.001800     YES
 RMS     Displacement     0.000040     0.001200     YES
 Predicted change in Energy=-9.216771D-10
 Optimization completed.
    -- Stationary point found.
                           ----------------------------
                           !   Optimized Parameters   !
                           ! (Angstroms and Degrees)  !
 --------------------------                            --------------------------
 ! Name  Definition              Value          Derivative Info.                !
 --------------------------------------------------------------------------------
 ! R1    R(1,2)                  1.3933         -DE/DX =    0.0                 !
 ! R2    R(1,5)                  1.0868         -DE/DX =    0.0                 !
 ! R3    R(1,11)                 1.3963         -DE/DX =    0.0                 !
 ! R4    R(2,3)                  1.4081         -DE/DX =    0.0                 !
 ! R5    R(2,6)                  1.0855         -DE/DX =    0.0                 !
 ! R6    R(3,8)                  1.4341         -DE/DX =    0.0                 !
 ! R7    R(3,13)                 1.3497         -DE/DX =    0.0                 !
 ! R8    R(4,7)                  1.0885         -DE/DX =    0.0                 !
 ! R9    R(4,11)                 1.3994         -DE/DX =    0.0                 !
 ! R10   R(4,13)                 1.3364         -DE/DX =    0.0                 !
 ! R11   R(8,9)                  1.2115         -DE/DX =    0.0                 !
 ! R12   R(9,10)                 1.8261         -DE/DX =    0.0                 !
 ! R13   R(11,12)                1.0861         -DE/DX =    0.0                 !
 ! A1    A(2,1,5)              120.3448         -DE/DX =    0.0                 !
 ! A2    A(2,1,11)             118.8114         -DE/DX =    0.0                 !
 ! A3    A(5,1,11)             120.8438         -DE/DX =    0.0                 !
 ! A4    A(1,2,3)              118.6881         -DE/DX =    0.0                 !
 ! A5    A(1,2,6)              121.4565         -DE/DX =    0.0                 !
 ! A6    A(3,2,6)              119.8554         -DE/DX =    0.0                 !
 ! A7    A(2,3,8)              119.9145         -DE/DX =    0.0                 !
 ! A8    A(2,3,13)             122.7869         -DE/DX =    0.0                 !
 ! A9    A(8,3,13)             117.2986         -DE/DX =    0.0                 !
 ! A10   A(7,4,11)             120.3987         -DE/DX =    0.0                 !
 ! A11   A(7,4,13)             115.6347         -DE/DX =    0.0                 !
 ! A12   A(11,4,13)            123.9666         -DE/DX =    0.0                 !
 ! A13   A(1,11,4)             118.2263         -DE/DX =    0.0                 !
 ! A14   A(1,11,12)            121.4265         -DE/DX =    0.0                 !
 ! A15   A(4,11,12)            120.3471         -DE/DX =    0.0                 !
 ! A16   A(3,13,4)             117.5207         -DE/DX =    0.0                 !
 ! A17   L(3,8,9,6,-1)         178.3174         -DE/DX =    0.0                 !
 ! A18   L(8,9,10,6,-1)        181.5126         -DE/DX =    0.0                 !
 ! A19   L(3,8,9,6,-2)         179.9994         -DE/DX =    0.0                 !
 ! A20   L(8,9,10,6,-2)        179.9953         -DE/DX =    0.0                 !
 ! D1    D(5,1,2,3)            180.0004         -DE/DX =    0.0                 !
 ! D2    D(5,1,2,6)              0.0002         -DE/DX =    0.0                 !
 ! D3    D(11,1,2,3)             0.0007         -DE/DX =    0.0                 !
 ! D4    D(11,1,2,6)           180.0004         -DE/DX =    0.0                 !
 ! D5    D(2,1,11,4)            -0.0003         -DE/DX =    0.0                 !
 ! D6    D(2,1,11,12)         -180.0001         -DE/DX =    0.0                 !
 ! D7    D(5,1,11,4)           180.0            -DE/DX =    0.0                 !
 ! D8    D(5,1,11,12)            0.0002         -DE/DX =    0.0                 !
[...]
 --------------------------------------------------------------------------------
 ! R1    R(1,2)                  1.3933         -DE/DX =    0.0                 !
 ! R2    R(1,5)                  1.0868         -DE/DX =    0.0                 !
 ! R3    R(1,11)                 1.3963         -DE/DX =    0.0                 !
 ! R4    R(2,3)                  1.4081         -DE/DX =    0.0                 !
 ! R5    R(2,6)                  1.0855         -DE/DX =    0.0                 !
 ! R6    R(3,8)                  1.4341         -DE/DX =    0.0                 !
 ! R7    R(3,13)                 1.3497         -DE/DX =    0.0                 !
 ! R8    R(4,7)                  1.0885         -DE/DX =    0.0                 !
 ! R9    R(4,11)                 1.3994         -DE/DX =    0.0                 !
 ! R10   R(4,13)                 1.3364         -DE/DX =    0.0                 !
 ! R11   R(8,9)                  1.2115         -DE/DX =    0.0                 !
 ! R12   R(9,10)                 1.8261         -DE/DX =    0.0                 !
 ! R13   R(11,12)                1.0861         -DE/DX =    0.0                 !
 ! A1    A(2,1,5)              120.3448         -DE/DX =    0.0                 !
 ! A2    A(2,1,11)             118.8114         -DE/DX =    0.0                 !
 ! A3    A(5,1,11)             120.8438         -DE/DX =    0.0                 !
 ! A4    A(1,2,3)              118.6881         -DE/DX =    0.0                 !
 ! A5    A(1,2,6)              121.4565         -DE/DX =    0.0                 !
 ! A6    A(3,2,6)              119.8554         -DE/DX =    0.0                 !
 ! A7    A(2,3,8)              119.9145         -DE/DX =    0.0                 !
 ! A8    A(2,3,13)             122.7869         -DE/DX =    0.0                 !
 ! A9    A(8,3,13)             117.2986         -DE/DX =    0.0                 !
 ! A10   A(7,4,11)             120.3987         -DE/DX =    0.0                 !
 ! A11   A(7,4,13)             115.6347         -DE/DX =    0.0                 !
 ! A12   A(11,4,13)            123.9666         -DE/DX =    0.0                 !
 ! A13   A(1,11,4)             118.2263         -DE/DX =    0.0                 !
 ! A14   A(1,11,12)            121.4265         -DE/DX =    0.0                 !
 ! A15   A(4,11,12)            120.3471         -DE/DX =    0.0                 !
 ! A16   A(3,13,4)             117.5207         -DE/DX =    0.0                 !
 ! A17   L(3,8,9,6,-1)         178.3174         -DE/DX =    0.0                 !
 ! A18   L(8,9,10,6,-1)        181.5126         -DE/DX =    0.0                 !
 ! A19   L(3,8,9,6,-2)         179.9994         -DE/DX =    0.0                 !
 ! A20   L(8,9,10,6,-2)        179.9953         -DE/DX =    0.0                 !
 ! D1    D(5,1,2,3)            180.0004         -DE/DX =    0.0                 !
 ! D2    D(5,1,2,6)              0.0002         -DE/DX =    0.0                 !
 ! D3    D(11,1,2,3)             0.0007         -DE/DX =    0.0                 !
 ! D4    D(11,1,2,6)          -179.9996         -DE/DX =    0.0                 !
 ! D5    D(2,1,11,4)            -0.0003         -DE/DX =    0.0                 !
 ! D6    D(2,1,11,12)          179.9999         -DE/DX =    0.0                 !
 ! D7    D(5,1,11,4)           180.0            -DE/DX =    0.0                 !
 ! D8    D(5,1,11,12)            0.0002         -DE/DX =    0.0                 !
 ! D9    D(1,2,3,8)           -180.0            -DE/DX =    0.0                 !
 ! D10   D(1,2,3,13)            -0.0011         -DE/DX =    0.0                 !
 ! D11   D(6,2,3,8)              0.0003         -DE/DX =    0.0                 !
 ! D12   D(6,2,3,13)           179.9991         -DE/DX =    0.0                 !
 ! D13   D(2,3,13,4)             0.0011         -DE/DX =    0.0                 !
 ! D14   D(8,3,13,4)           179.9999         -DE/DX =    0.0                 !
 ! D15   D(7,4,11,1)          -179.9996         -DE/DX =    0.0                 !
 ! D16   D(7,4,11,12)            0.0002         -DE/DX =    0.0                 !
 ! D17   D(13,4,11,1)            0.0003         -DE/DX =    0.0                 !
 ! D18   D(13,4,11,12)         180.0001         -DE/DX =    0.0                 !
 ! D19   D(7,4,13,3)          -180.0007         -DE/DX =    0.0                 !
 ! D20   D(11,4,13,3)           -0.0006         -DE/DX =    0.0                 !
 --------------------------------------------------------------------------------
 GradGradGradGradGradGradGradGradGradGradGradGradGradGradGradGradGradGrad


 ----------------------------------------------------------------------

 Electric dipole moment (input orientation):
 (Debye = 10**-18 statcoulomb cm , SI units = C m)
                  (au)            (Debye)         (10**-30 SI)
   Tot        0.102768D+01      0.261210D+01      0.871301D+01
   x         -0.666978D+00     -0.169529D+01     -0.565488D+01
   y          0.781832D+00      0.198722D+01      0.662865D+01
   z          0.633422D-04      0.161000D-03      0.537038D-03

 Dipole polarizability, Alpha (input orientation).
 (esu units = cm**3 , SI units = C**2 m**2 J**-1)
 Alpha(0;0):
               (au)            (10**-24 esu)      (10**-40 SI)
   iso        0.108350D+03      0.160558D+02      0.178645D+02
   aniso      0.122971D+03      0.182224D+02      0.202751D+02
   xx         0.187940D+03      0.278498D+02      0.309871D+02
   yx         0.792351D+00      0.117414D+00      0.130641D+00
   yy         0.855558D+02      0.126781D+02      0.141062D+02
   zx        -0.687071D-02     -0.101813D-02     -0.113283D-02
   zy        -0.301944D-03     -0.447435D-04     -0.497838D-04
   zz         0.515537D+02      0.763946D+01      0.850005D+01

 ----------------------------------------------------------------------

 Dipole orientation:
     6         -2.70206206         -2.30475487          5.97454525
     6         -1.15791657         -0.98737008          4.29759928
     6         -1.53978224         -1.31323662          1.68454637
     6         -4.79932348         -4.09423863          2.37503349
     1         -2.45181164         -2.09117792          8.00178523
     1          0.31771253          0.27162901          4.96476516
     1         -6.23112787         -5.31585504          1.54499065
     6          0.02113994          0.01845668         -0.08585634
     6          1.37267057          1.17148551         -1.52996571
    35          3.36552274          2.87141605         -3.77659916
     6         -4.56810850         -3.89688344          5.00207799
     1         -5.81597393         -4.96150627          6.23579153
     7         -3.33992304         -2.84915359          0.73270722

 Electric dipole moment (dipole orientation):
 (Debye = 10**-18 statcoulomb cm , SI units = C m)
                  (au)            (Debye)         (10**-30 SI)
   Tot        0.102768D+01      0.261210D+01      0.871301D+01
   x          0.000000D+00      0.000000D+00      0.000000D+00
   y          0.000000D+00      0.000000D+00      0.000000D+00
   z          0.102768D+01      0.261210D+01      0.871301D+01

 Dipole polarizability, Alpha (dipole orientation).
 (esu units = cm**3 , SI units = C**2 m**2 J**-1)
 Alpha(0;0):
               (au)            (10**-24 esu)      (10**-40 SI)
   iso        0.108350D+03      0.160558D+02      0.178645D+02
   aniso      0.122971D+03      0.182224D+02      0.202751D+02
   xx         0.105981D+03      0.157048D+02      0.174739D+02
   yx         0.464342D+02      0.688084D+01      0.765597D+01
   yy         0.911685D+02      0.135098D+02      0.150317D+02
   zx        -0.383645D+02     -0.568503D+01     -0.632545D+01
   zy        -0.327280D+02     -0.484979D+01     -0.539611D+01
   zz         0.127900D+03      0.189528D+02      0.210878D+02

 ----------------------------------------------------------------------
 1\1\GINC-IP-172-31-28-242\Freq\RB3LYP\Gen\C7H4Br1N1\UBUNTU\19-Sep-2023
 \0\\#N Geom=AllCheck Guess=TCheck SCRF=Check GenChk RB3LYP/ChkBas Freq
 \\Title Card Required\\0,1\C,-3.4816955649,1.1855280961,0.0000483238\C
 ,-2.0886111902,1.2075199809,-0.0000386336\C,-1.3932744801,-0.016867394
 ,-0.0000842513\C,-3.3553713177,-1.2104385992,0.0000589523\H,-4.0454885
 864,2.1146575647,0.0000785098\H,-1.5368379202,2.1423001322,-0.00007545
 23\H,-3.828015503,-2.1910073048,0.0000920794\C,0.0407839355,-0.0249269
 588,-0.0001728054\C,1.2519649533,0.0038393719,-0.0002372904\Br,3.07808
 65499,-0.0010071905,-0.0002445182\C,-4.1352321298,-0.0484262007,0.0001
 017332\H,-5.2193046653,-0.11510303,0.0001715944\N,-2.0190230812,-1.212
 7674679,-0.0000252417\\Version=EM64L-G16RevB.01\State=1-A\HF=-337.2031
 633\RMSD=2.452e-09\RMSF=4.336e-06\ZeroPoint=0.0884358\Thermal=0.096294
 2\Dipole=-0.666978,0.7818321,0.0000633\DipoleDeriv=0.322506,-0.043655,
 -0.0000259,0.0291991,0.1918591,-0.0000035,-0.0000299,0.0000015,-0.0939
 828,-0.5122223,0.0640788,0.0000229,0.2722574,-0.0025919,-0.0000163,0.0
 00029,-0.0000036,-0.0935236,1.2015367,0.0406753,-0.0000592,-0.2165322,
 0.2413692,0.0000127,-0.0000585,-0.0000054,0.1112923,0.1375852,-0.03077
 45,-0.000007,0.2792236,0.4110275,-0.0000203,-0.0000129,0.0000013,0.003
 4955,0.0147056,0.0707013,0.0000063,0.0874527,-0.0436095,-0.0000044,0.0
 000076,-0.0000046,0.1286525,0.0420441,-0.0670054,0.0000066,-0.0732695,
 -0.0234929,0.0000049,0.0000075,0.0000047,0.1368054,-0.0154076,-0.06722
 74,0.0000076,-0.1090757,-0.0661961,0.0000083,0.0000072,0.0000046,0.105
 0767,-0.7084273,-0.0156177,0.0000127,0.0709436,-0.0442642,-0.0000017,-
 0.000019,0.0000037,0.0124949,0.7166026,-0.0036452,-0.0000173,-0.030715
 7,-0.1763319,0.0000005,0.0000456,-0.0000013,-0.2159885,-0.4717812,0.00
 26957,0.0000283,0.0070557,0.1350427,0.,-0.0000193,0.,0.1413793,-0.0451
 348,0.062373,-0.0000058,-0.2407433,-0.2625224,0.0000158,-0.0000018,-0.
 0000035,-0.1129863,-0.1044469,-0.015609,0.0000157,-0.0150475,0.0737578
 ,0.0000015,0.0000149,0.0000018,0.1424957,-0.5775599,0.0030101,0.000015
 1,-0.0607481,-0.4340473,0.0000025,0.0000297,0.0000006,-0.2652112\Polar
 =187.9397107,0.7923514,85.555758,-0.0068707,-0.0003019,51.5536541\Quad
 rupole=9.449201,-3.3420179,-6.1071831,-1.8206312,-0.0006913,0.000044\P
 G=C01 [X(C7H4Br1N1)]\NImag=0\\0.69393884,-0.03795898,0.73121194,-0.000
 03525,-0.00000161,0.13888383,-0.35064948,0.02942236,0.00001768,0.70303
 138,-0.03374622,-0.13258591,0.00000266,0.05376805,0.70960431,0.0000182
 9,-0.00000173,-0.06149841,-0.00003703,-0.00000466,0.13001113,-0.029001
 82,0.02879209,0.00000249,-0.16365733,0.10019142,0.00000595,0.68528685,
 0.07651190,0.04016630,-0.00000532,0.04467989,-0.25605384,-0.00000335,-
 0.00489102,0.62266573,0.00000150,-0.00000205,0.00652224,0.00000664,-0.
 00000669,-0.07132147,-0.00003368,-0.00000298,0.16947129,0.07272536,0.0
 2953252,-0.00000439,-0.05462657,0.03714465,0.00000282,-0.05415788,-0.0
 8893917,0.00000413,0.68081815,-0.01785338,-0.05686460,0.00000150,0.023
 78569,-0.01723074,-0.00000145,-0.04286298,0.01739343,0.00000275,0.0450
 2729,0.74246867,-0.00000410,-0.00000135,0.00755931,0.00000280,-0.00000
 233,-0.00857006,0.00000433,0.00000587,0.00200149,-0.00003351,-0.000006
 25,0.15525159,-0.13629288,0.12421595,0.00000530,-0.01104512,0.02895109
 ,0.00000092,-0.00523153,-0.00182853,0.00000087,-0.00100019,-0.00347320
 ,0.00000063,0.14001306,0.12439074,-0.26580684,-0.00000655,-0.00193680,
 0.00486204,0.00000012,-0.00128172,0.00205440,0.00000015,-0.00456956,-0
 .00339116,0.00000038,-0.13400034,0.27941635,0.00000524,-0.00000671,-0.
 04055275,0.00000119,-0.00000186,0.00479944,0.00000087,0.00000024,0.008
 68666,0.00000072,0.00000028,0.00843780,-0.00000645,0.00000699,0.026363
 52,-0.01014112,-0.02867149,0.00000103,-0.13245680,-0.12533719,0.000006
 41,0.01174700,0.01453728,-0.00000074,-0.00127450,0.00057995,0.00000007
 ,0.00077402,0.00036265,-0.00000032,0.13727514,0.00216281,0.00506022,-0
 .00000015,-0.12379353,-0.27238694,0.00000833,-0.01753795,-0.01651159,0
 .00000127,0.00182458,0.00050866,-0.00000013,-0.00042744,0.00078980,0.0
 0000003,0.13348019,0.28518756,0.00000087,0.00000183,0.00332788,0.00000
 642,0.00000844,-0.03653213,-0.00000073,-0.00000087,0.00146782,0.000000
 10,0.,-0.00036351,-0.00000031,-0.00000006,-0.00416671,-0.00000749,-0.0
 0000908,0.02503340,-0.00196802,0.00317909,0.00000053,-0.00069039,-0.00
 008435,0.00000003,-0.00411820,-0.00080266,0.00000090,-0.09821872,-0.09
 905738,0.00000388,0.00048985,0.00095636,-0.00000007,0.00019846,-0.0002
 0794,-0.00000012,0.11975260,0.00420023,-0.00286461,-0.00000024,0.00073
 051,0.00040679,-0.00000004,0.00202421,0.00297040,-0.00000016,-0.100485
 59,-0.29157427,0.00000735,-0.00078086,-0.00098863,0.00000005,-0.000055
 02,-0.00003530,0.,0.11230112,0.30296791,0.00000058,-0.00000009,0.00704
 014,-0.00000005,0.00000008,-0.00041146,0.00000095,-0.00000001,0.010713
 82,0.00000373,0.00000722,-0.04167168,-0.00000005,-0.00000005,-0.000420
 61,-0.00000013,0.00000002,-0.00180889,-0.00000632,-0.00000826,0.026737
 64,0.00593173,0.00529160,0.00000004,-0.03810991,0.01774803,0.00000267,
 -0.28616020,0.01725566,0.00001334,0.00721334,-0.00269676,0.00000028,-0
 .00051024,0.00008109,0.00000003,0.00014144,-0.00048730,-0.00000012,-0.
 00027792,-0.00020612,0.00000008,1.41545365,0.00228795,-0.00535236,-0.0
 0000018,0.03024756,0.00434905,-0.00000177,0.01073559,-0.06887310,-0.00
 000054,-0.00331885,-0.00401018,0.00000047,0.00136081,0.00010707,-0.000
 00007,0.00085311,-0.00007084,-0.00000006,-0.00089733,0.00009671,0.0000
 0008,0.01932733,0.09665125,0.00000013,-0.00000038,0.00653297,0.0000027
 8,-0.00000106,0.00632179,0.00001269,-0.00000108,-0.05457791,-0.0000000
 3,0.00000040,0.00934523,0.00000004,0.00000001,-0.00014557,-0.00000017,
 0.00000005,-0.00252288,0.00000008,-0.00000002,0.00066038,-0.00007147,-
 0.00000163,0.05859156,-0.00287154,-0.00045325,0.00000014,0.00556165,-0
 .00829354,-0.00000030,-0.02379990,-0.00018440,0.00000256,-0.00290747,-
 0.00012008,0.00000009,-0.00021221,-0.00016932,0.,0.00005089,0.00060684
 ,0.,-0.00013496,0.00018116,0.,-1.03949639,-0.01984044,0.00005170,1.278
 25687,-0.00086135,0.00027096,0.00000013,0.00059128,-0.00152691,-0.0000
 0012,0.00031713,0.00413901,-0.00000014,0.00081052,0.00005581,-0.000000
 17,-0.00005557,-0.00003145,0.,-0.00009962,0.00035649,-0.00000004,0.000
 01052,-0.00005202,-0.00000002,-0.02026189,-0.01909774,0.00000137,0.019
 20633,0.02258441,0.00000004,0.00000006,0.00012289,-0.00000015,0.000000
 51,0.00123895,0.00000219,0.,0.00115071,0.00000048,-0.00000018,0.000353
 11,0.,-0.00000001,-0.00015239,0.,-0.00000005,-0.00005871,0.,0.00000002
 ,-0.00018487,0.00005049,0.00000142,-0.01604163,-0.00005380,-0.00000144
 ,0.01720821,0.00097618,0.00057764,-0.00000005,-0.00263550,0.00049423,0
 .00000022,0.00845710,0.00041850,-0.00000098,-0.00019434,0.00053762,0.0
 0000002,-0.00018128,0.00007818,0.00000001,0.00002779,-0.00004130,-0.00
 000001,-0.00018602,-0.00011229,0.,-0.01372789,-0.00007773,0.00000080,-
 0.22258672,0.00104308,0.00000124,0.23286848,0.00007788,0.00014585,-0.0
 0000003,-0.00077205,-0.00011290,0.00000006,-0.00054055,0.00440948,0.00
 000007,-0.00006958,0.00011646,0.00000003,-0.00005457,-0.00001410,0.,0.
 00003602,-0.00005671,0.00000001,0.00004176,-0.00000177,0.,-0.00106875,
 -0.00167169,-0.00000004,0.00173289,-0.00697250,0.00000008,-0.00073449,
 0.00416236,0.,-0.00000002,-0.00037308,0.00000002,-0.00000004,-0.000146
 95,-0.00000006,0.,0.00487961,-0.00000013,0.00000005,-0.00064273,0.,0.,
 0.00002677,0.,0.,0.00011273,0.,0.,0.00000236,0.00000144,-0.00000012,-0
 .00313913,0.00000011,0.00000012,-0.00475087,-0.00000152,-0.00000005,0.
 00352705,-0.17757427,-0.11896131,0.00000849,-0.02228876,-0.03493511,0.
 00000208,0.00397960,0.01091973,-0.00000094,-0.18426139,0.11633451,0.00
 000667,0.01282955,0.01699014,-0.00000062,-0.00543787,0.00082937,0.0000
 0086,0.01161388,-0.01318131,-0.00000022,-0.00402300,-0.00072972,0.0000
 0009,0.00239702,0.00006977,-0.00000007,-0.00076759,0.00002074,0.,0.754
 18483,-0.05485175,-0.29916563,0.00000563,-0.07519357,0.03386627,0.0000
 0482,-0.00435029,-0.07283784,0.00000080,0.04467078,-0.27181390,-0.0000
 0164,-0.01386907,-0.01808420,0.00000117,0.00162876,0.00190002,-0.00000
 005,0.01659198,-0.01793130,-0.00000091,-0.00050370,-0.00048242,-0.0000
 0011,0.00053940,0.00074836,0.00000017,-0.00078316,-0.00006080,-0.00000
 005,0.01509285,0.66020376,0.00000812,0.00000973,-0.06177065,0.00000226
 ,0.00000196,0.00600319,-0.00000083,-0.00000017,-0.00970286,0.00000728,
 -0.00000606,-0.06835514,-0.00000043,-0.00000098,0.00493344,0.00000083,
 -0.00000007,0.00806294,-0.00000041,0.00000101,0.00665958,0.00000021,0.
 00000003,-0.00036863,-0.00000016,0.,-0.00033900,0.00000005,0.,0.000094
 87,-0.00004055,-0.00000503,0.12718341,-0.00906051,0.00166936,0.0000007
 3,0.00107395,-0.00266317,0.00000045,0.00128746,0.00055352,-0.00000011,
 -0.01202492,-0.00566858,0.00000086,0.00072611,-0.00039464,-0.00000030,
 -0.00043256,0.00030308,0.00000005,0.00042101,0.00056723,-0.00000022,-0
 .00004182,-0.00004052,-0.00000011,0.00000353,-0.00001015,0.00000002,-0
 .00007640,0.00000437,0.,-0.34223859,-0.01644351,0.00001976,0.36119188,
 -0.02943347,0.00383852,0.00000184,-0.00190267,-0.00494407,0.00000022,-
 0.00062256,-0.00215862,0.00000005,0.02707384,0.00873491,-0.00000176,0.
 00045440,0.00084246,-0.00000006,-0.00145775,0.00018573,0.00000010,-0.0
 0048189,0.00032804,0.,0.00012887,0.00026575,-0.00000003,0.00002686,0.0
 0003941,0.,0.00000328,-0.00002031,0.,-0.01647689,-0.06129878,0.0000012
 7,0.01859374,0.05848232,0.00000101,-0.00000012,0.00276228,0.00000045,0
 .00000026,0.00773301,-0.00000012,-0.00000002,-0.00021526,0.00000058,0.
 00000033,0.00100080,-0.00000030,0.,-0.00394773,0.00000006,-0.00000003,
 0.00030850,-0.00000020,-0.00000005,-0.00299792,-0.00000012,-0.00000003
 ,-0.00179765,0.00000002,0.00000001,0.00011180,0.,0.,0.00006896,0.00001
 970,0.00000121,-0.03546554,-0.00002164,-0.00000146,0.02486750,-0.05601
 247,-0.03663559,0.00000326,0.06649288,-0.03323787,-0.00000252,-0.14463
 115,-0.06823070,0.00000650,-0.35209086,-0.01453268,0.00001799,-0.00035
 913,-0.00050678,-0.00000029,-0.00047191,0.00328858,0.00000050,-0.02688
 155,-0.00518327,0.00000166,-0.04639279,-0.03990776,0.00000347,0.005739
 25,-0.00076005,-0.00000046,-0.00197380,0.00132633,0.00000012,-0.048413
 41,0.08747129,0.00000388,-0.00082913,0.00409424,0.00000056,0.60582407,
 -0.03492636,-0.01805383,0.00000233,0.02037329,-0.06824715,-0.00000044,
 -0.06997337,-0.27736377,0.00000746,0.01129854,-0.12439309,-0.00000047,
 -0.00049268,0.00024426,-0.00000007,0.00414310,-0.00492711,-0.00000022,
 -0.03154928,0.00667804,0.00000195,-0.03460806,-0.00191150,0.00000251,0
 .00676757,-0.00051383,-0.00000060,-0.00140356,0.00007662,0.00000009,0.
 02402725,0.04495648,-0.00000168,0.00352929,-0.00429535,-0.00000011,0.1
 0281426,0.44775023,0.00000358,0.00000245,-0.00855665,-0.00000302,0.000
 00274,0.02237297,0.00000595,0.00000768,-0.06907614,0.00001822,0.000001
 41,-0.06434618,-0.00000022,0.,-0.00386187,0.00000044,-0.00000020,0.007
 13957,0.00000170,0.00000033,-0.00431850,0.00000312,0.00000239,-0.00285
 852,-0.00000035,0.00000029,0.00134180,0.00000021,-0.00000014,0.0003404
 1,0.00000450,-0.00000602,0.02306439,0.00000052,-0.00000017,0.00757125,
 -0.00003467,-0.00001075,0.09118748\\-0.00000050,0.00000635,-0.00000088
 ,0.00000719,0.00000266,0.00000118,0.00000232,-0.00000394,-0.00000160,-
 0.00000187,-0.00000659,-0.00000031,0.00000024,0.00000022,-0.00000011,0
 .00000018,-0.00000209,0.00000030,-0.00000117,-0.00000247,-0.00000045,-
 0.00001762,0.00000417,-0.00000069,0.00000516,-0.00000255,-0.00000065,0
 .00000560,0.00000019,0.00000067,-0.00000605,0.00000013,0.00000067,-0.0
 0000311,0.00000041,0.00000007,0.00000963,0.00000351,0.00000179\\\@


 IT'S WHAT YOU LEARN AFTER YOU KNOW IT ALL
 THAT COUNTS.
 Job cpu time:       0 days  0 hours 22 minutes 44.2 seconds.
 Elapsed time:       0 days  0 hours  0 minutes 42.9 seconds.
 File lengths (MBytes):  RWF=     46 Int=      0 D2E=      0 Chk=      3 Scr=      1
 Normal termination of Gaussian 16 at Tue Sep 19 07:16:26 2023.
