 Entering Gaussian System, Link 0=/home/ubuntu/g16/g16
 Input=/home/ubuntu/Downloads/ARyLHALIDE-cn-SOL-disp-g16-gas-gen-volume.gjf
 Output=/home/ubuntu/Downloads/ARyLHALIDE-cn-SOL-disp-g16-gas-gen-volume.log
 Initial command:
 /home/ubuntu/g16/l1.exe "/home/ubuntu/Scratch/Gau-49349.inp" -scrdir="/home/ubuntu/Scratch/"
 Entering Link 1 = /home/ubuntu/g16/l1.exe PID=     49353.
  
 Copyright (c) 1988-2017, Gaussian, Inc.  All Rights Reserved.
  
 This is part of the Gaussian(R) 16 program.  It is based on
 the Gaussian(R) 09 system (copyright 2009, Gaussian, Inc.),
 the Gaussian(R) 03 system (copyright 2003, Gaussian, Inc.),
 the Gaussian(R) 98 system (copyright 1998, Gaussian, Inc.),
 the Gaussian(R) 94 system (copyright 1995, Gaussian, Inc.),
 the Gaussian 92(TM) system (copyright 1992, Gaussian, Inc.),
 the Gaussian 90(TM) system (copyright 1990, Gaussian, Inc.),
 the Gaussian 88(TM) system (copyright 1988, Gaussian, Inc.),
 the Gaussian 86(TM) system (copyright 1986, Carnegie Mellon
 University), and the Gaussian 82(TM) system (copyright 1983,
 Carnegie Mellon University). Gaussian is a federally registered
 trademark of Gaussian, Inc.
  
 This software contains proprietary and confidential information,
 including trade secrets, belonging to Gaussian, Inc.
  
 This software is provided under written license and may be
 used, copied, transmitted, or stored only in accord with that
 written license.
  
 The following legend is applicable only to US Government
 contracts under FAR:
  
                    RESTRICTED RIGHTS LEGEND
  
 Use, reproduction and disclosure by the US Government is
 subject to restrictions as set forth in subparagraphs (a)
 and (c) of the Commercial Computer Software - Restricted
 Rights clause in FAR 52.227-19.
  
 Gaussian, Inc.
 340 Quinnipiac St., Bldg. 40, Wallingford CT 06492
  
  
 ---------------------------------------------------------------
 Warning -- This program may not be used in any manner that
 competes with the business of Gaussian, Inc. or will provide
 assistance to any competitor of Gaussian, Inc.  The licensee
 of this program is prohibited from giving any competitor of
 Gaussian, Inc. access to this program.  By using this program,
 the user acknowledges that Gaussian, Inc. is engaged in the
 business of creating and licensing software in the field of
 computational chemistry and represents and warrants to the
 licensee that it is not a competitor of Gaussian, Inc. and that
 it will not use this program in any manner prohibited above.
 ---------------------------------------------------------------
  

 Cite this work as:
 Gaussian 16, Revision B.01,
 M. J. Frisch, G. W. Trucks, H. B. Schlegel, G. E. Scuseria, 
 M. A. Robb, J. R. Cheeseman, G. Scalmani, V. Barone, 
 G. A. Petersson, H. Nakatsuji, X. Li, M. Caricato, A. V. Marenich, 
 J. Bloino, B. G. Janesko, R. Gomperts, B. Mennucci, H. P. Hratchian, 
 J. V. Ortiz, A. F. Izmaylov, J. L. Sonnenberg, D. Williams-Young, 
 F. Ding, F. Lipparini, F. Egidi, J. Goings, B. Peng, A. Petrone, 
 T. Henderson, D. Ranasinghe, V. G. Zakrzewski, J. Gao, N. Rega, 
 G. Zheng, W. Liang, M. Hada, M. Ehara, K. Toyota, R. Fukuda, 
 J. Hasegawa, M. Ishida, T. Nakajima, Y. Honda, O. Kitao, H. Nakai, 
 T. Vreven, K. Throssell, J. A. Montgomery, Jr., J. E. Peralta, 
 F. Ogliaro, M. J. Bearpark, J. J. Heyd, E. N. Brothers, K. N. Kudin, 
 V. N. Staroverov, T. A. Keith, R. Kobayashi, J. Normand, 
 K. Raghavachari, A. P. Rendell, J. C. Burant, S. S. Iyengar, 
 J. Tomasi, M. Cossi, J. M. Millam, M. Klene, C. Adamo, R. Cammi, 
 J. W. Ochterski, R. L. Martin, K. Morokuma, O. Farkas, 
 J. B. Foresman, and D. J. Fox, Gaussian, Inc., Wallingford CT, 2016.
 
 ******************************************
 Gaussian 16:  EM64L-G16RevB.01 20-Dec-2017
                18-Sep-2023 
 ******************************************
 %nprocshared=32
 Will use up to   32 processors via shared memory.
 %mem=62GB
 %chk=ARyLHALIDE-cn-SOL-disp-g16-gas-gen-volume.chk
 ----------------------------------------------------------------------
 # opt freq b3lyp/gen empiricaldispersion=gd3 pseudo=read scf=maxcycle=
 1000 volume
 ----------------------------------------------------------------------
 1/18=20,19=15,26=3,38=1/1,3;
 2/9=110,12=2,17=6,18=5,40=1/2;
 3/5=7,11=2,16=1,17=8,25=1,30=1,71=1,74=-5,124=31/1,2,3;
 4//1;
 5/5=2,7=1000,38=5/2;
 6/7=2,8=2,9=2,10=2,28=1,44=1/1,4;
 7//1,2,3,16;
 1/18=20,19=15,26=3/3(2);
 2/9=110/2;
 99//99;
 2/9=110/2;
 3/5=7,6=1,11=2,16=1,17=8,25=1,30=1,71=1,74=-5,82=7,124=31/1,2,3;
 4/5=5,16=3,69=1/1;
 5/5=2,7=1000,38=5/2;
 7//1,2,3,16;
 1/18=20,19=15,26=3/3(-5);
 2/9=110/2;
 6/7=2,8=2,9=2,10=2,19=2,28=1,44=1/1,4;
 99/9=1/99;
 -------------------
 Title Card Required
 -------------------
 Symbolic Z-matrix:
 Charge =  0 Multiplicity = 1
 C                     2.03478   1.21633   0. 
 C                     2.73915   0.        0. 
 C                     2.03478  -1.21633   0. 
 C                     0.64025  -1.21719   0. 
 C                    -0.04733   0.        0. 
 C                     0.64025   1.21719   0. 
 H                     2.57841   2.15603   0. 
 H                     2.57841  -2.15603   0. 
 H                     0.10112  -2.15854   0. 
 H                     0.10112   2.15854   0. 
 I                    -2.18906   0.        0. 
 C                     4.17404   0.        0. 
 N                     5.33796   0.        0. 
 

 GradGradGradGradGradGradGradGradGradGradGradGradGradGradGradGradGradGrad
 Berny optimization.
 Initialization pass.
                           ----------------------------
                           !    Initial Parameters    !
                           ! (Angstroms and Degrees)  !
 --------------------------                            --------------------------
 ! Name  Definition              Value          Derivative Info.                !
 --------------------------------------------------------------------------------
 ! R1    R(1,2)                  1.4056         estimate D2E/DX2                !
 ! R2    R(1,6)                  1.3945         estimate D2E/DX2                !
 ! R3    R(1,7)                  1.0856         estimate D2E/DX2                !
 ! R4    R(2,3)                  1.4056         estimate D2E/DX2                !
 ! R5    R(2,12)                 1.4349         estimate D2E/DX2                !
 ! R6    R(3,4)                  1.3945         estimate D2E/DX2                !
 ! R7    R(3,8)                  1.0856         estimate D2E/DX2                !
 ! R8    R(4,5)                  1.398          estimate D2E/DX2                !
 ! R9    R(4,9)                  1.0848         estimate D2E/DX2                !
 ! R10   R(5,6)                  1.398          estimate D2E/DX2                !
 ! R11   R(5,11)                 2.1417         estimate D2E/DX2                !
 ! R12   R(6,10)                 1.0848         estimate D2E/DX2                !
 ! R13   R(12,13)                1.1639         estimate D2E/DX2                !
 ! A1    A(2,1,6)              120.1107         estimate D2E/DX2                !
 ! A2    A(2,1,7)              119.8748         estimate D2E/DX2                !
 ! A3    A(6,1,7)              120.0145         estimate D2E/DX2                !
 ! A4    A(1,2,3)              119.8498         estimate D2E/DX2                !
 ! A5    A(1,2,12)             120.0751         estimate D2E/DX2                !
 ! A6    A(3,2,12)             120.0751         estimate D2E/DX2                !
 ! A7    A(2,3,4)              120.1107         estimate D2E/DX2                !
 ! A8    A(2,3,8)              119.8748         estimate D2E/DX2                !
 ! A9    A(4,3,8)              120.0145         estimate D2E/DX2                !
 ! A10   A(3,4,5)              119.426          estimate D2E/DX2                !
 ! A11   A(3,4,9)              119.8364         estimate D2E/DX2                !
 ! A12   A(5,4,9)              120.7375         estimate D2E/DX2                !
 ! A13   A(4,5,6)              121.0767         estimate D2E/DX2                !
 ! A14   A(4,5,11)             119.4616         estimate D2E/DX2                !
 ! A15   A(6,5,11)             119.4616         estimate D2E/DX2                !
 ! A16   A(1,6,5)              119.426          estimate D2E/DX2                !
 ! A17   A(1,6,10)             119.8364         estimate D2E/DX2                !
 ! A18   A(5,6,10)             120.7375         estimate D2E/DX2                !
 ! A19   L(2,12,13,7,-1)       180.0            estimate D2E/DX2                !
 ! A20   L(2,12,13,7,-2)       180.0            estimate D2E/DX2                !
 ! D1    D(6,1,2,3)              0.0            estimate D2E/DX2                !
 ! D2    D(6,1,2,12)           180.0            estimate D2E/DX2                !
 ! D3    D(7,1,2,3)            180.0            estimate D2E/DX2                !
 ! D4    D(7,1,2,12)             0.0            estimate D2E/DX2                !
 ! D5    D(2,1,6,5)              0.0            estimate D2E/DX2                !
 ! D6    D(2,1,6,10)           180.0            estimate D2E/DX2                !
 ! D7    D(7,1,6,5)            180.0            estimate D2E/DX2                !
 ! D8    D(7,1,6,10)             0.0            estimate D2E/DX2                !
 ! D9    D(1,2,3,4)              0.0            estimate D2E/DX2                !
 ! D10   D(1,2,3,8)            180.0            estimate D2E/DX2                !
 ! D11   D(12,2,3,4)           180.0            estimate D2E/DX2                !
 ! D12   D(12,2,3,8)             0.0            estimate D2E/DX2                !
 ! D13   D(2,3,4,5)              0.0            estimate D2E/DX2                !
 ! D14   D(2,3,4,9)            180.0            estimate D2E/DX2                !
 ! D15   D(8,3,4,5)            180.0            estimate D2E/DX2                !
 ! D16   D(8,3,4,9)              0.0            estimate D2E/DX2                !
 ! D17   D(3,4,5,6)              0.0            estimate D2E/DX2                !
 ! D18   D(3,4,5,11)           180.0            estimate D2E/DX2                !
 ! D19   D(9,4,5,6)            180.0            estimate D2E/DX2                !
 ! D20   D(9,4,5,11)             0.0            estimate D2E/DX2                !
 ! D21   D(4,5,6,1)              0.0            estimate D2E/DX2                !
 ! D22   D(4,5,6,10)           180.0            estimate D2E/DX2                !
 ! D23   D(11,5,6,1)           180.0            estimate D2E/DX2                !
 ! D24   D(11,5,6,10)            0.0            estimate D2E/DX2                !
 --------------------------------------------------------------------------------
 Trust Radius=3.00D-01 FncErr=1.00D-07 GrdErr=1.00D-06 EigMax=2.50D+02 EigMin=1.00D-04
 Number of steps in this run=     67 maximum allowed number of steps=    100.
 GradGradGradGradGradGradGradGradGradGradGradGradGradGradGradGradGradGrad

                          Input orientation:                          
 ---------------------------------------------------------------------
 Center     Atomic      Atomic             Coordinates (Angstroms)
 Number     Number       Type             X           Y           Z
 ---------------------------------------------------------------------
      1          6           0        2.034776    1.216327    0.000000
      2          6           0        2.739150    0.000000    0.000000
      3          6           0        2.034776   -1.216327    0.000000
      4          6           0        0.640250   -1.217193    0.000000
      5          6           0       -0.047329    0.000000    0.000000
      6          6           0        0.640250    1.217193    0.000000
      7          1           0        2.578409    2.156029    0.000000
      8          1           0        2.578409   -2.156029    0.000000
      9          1           0        0.101116   -2.158541    0.000000
     10          1           0        0.101116    2.158541    0.000000
     11         53           0       -2.189061    0.000000    0.000000
     12          6           0        4.174044    0.000000    0.000000
     13          7           0        5.337955    0.000000    0.000000
 ---------------------------------------------------------------------
                    Distance matrix (angstroms):
                    1          2          3          4          5
     1  C    0.000000
     2  C    1.405558   0.000000
     3  C    2.432654   1.405558   0.000000
     4  C    2.804768   2.426302   1.394526   0.000000
     5  C    2.411351   2.786479   2.411351   1.397971   0.000000
     6  C    1.394526   2.426302   2.804768   2.434386   1.397971
     7  H    1.085623   2.162013   3.415893   3.890384   3.397493
     8  H    3.415893   2.162013   1.085623   2.153572   3.397493
     9  H    3.889573   3.408595   2.151002   1.084805   2.163639
    10  H    2.151002   3.408595   3.889573   3.418515   2.163639
    11  I    4.395481   4.928211   4.395481   3.080026   2.141732
    12  C    2.460878   1.434894   2.460878   3.737547   4.221373
    13  N    3.520006   2.598805   3.520006   4.852833   5.385284
                    6          7          8          9         10
     6  C    0.000000
     7  H    2.153572   0.000000
     8  H    3.890384   4.312058   0.000000
     9  H    3.418515   4.975188   2.477294   0.000000
    10  H    1.084805   2.477294   4.975188   4.317082   0.000000
    11  I    3.080026   5.232326   5.232326   3.147095   3.147095
    12  C    3.737547   2.682259   2.682259   4.609560   4.609560
    13  N    4.852833   3.501936   3.501936   5.664255   5.664255
                   11         12         13
    11  I    0.000000
    12  C    6.363105   0.000000
    13  N    7.527016   1.163911   0.000000
 Stoichiometry    C7H4IN
 Framework group  C2V[C2(NCCCI),SGV(C4H4)]
 Deg. of freedom    12
 Full point group                 C2V     NOp   4
 Largest Abelian subgroup         C2V     NOp   4
 Largest concise Abelian subgroup C2      NOp   2
                         Standard orientation:                         
 ---------------------------------------------------------------------
 Center     Atomic      Atomic             Coordinates (Angstroms)
 Number     Number       Type             X           Y           Z
 ---------------------------------------------------------------------
      1          6           0        0.000000    1.216327   -2.034776
      2          6           0        0.000000    0.000000   -2.739150
      3          6           0        0.000000   -1.216327   -2.034776
      4          6           0        0.000000   -1.217193   -0.640250
      5          6           0        0.000000    0.000000    0.047329
      6          6           0        0.000000    1.217193   -0.640250
      7          1           0        0.000000    2.156029   -2.578409
      8          1           0        0.000000   -2.156029   -2.578409
      9          1           0        0.000000   -2.158541   -0.101116
     10          1           0        0.000000    2.158541   -0.101116
     11         53           0        0.000000    0.000000    2.189061
     12          6           0        0.000000    0.000000   -4.174044
     13          7           0        0.000000    0.000000   -5.337955
 ---------------------------------------------------------------------
 Rotational constants (GHZ):           5.6262352           0.3565332           0.3352861
 General basis read from cards:  (5D, 7F)
 ======================================================================================================
                                       Pseudopotential Parameters
 ======================================================================================================
  Center     Atomic      Valence      Angular      Power
  Number     Number     Electrons     Momentum     of R      Exponent        Coefficient   SO-Coeffient
 ======================================================================================================
    1          6
                                   No pseudopotential on this center.
    2          6
                                   No pseudopotential on this center.
    3          6
                                   No pseudopotential on this center.
    4          6
                                   No pseudopotential on this center.
    5          6
                                   No pseudopotential on this center.
    6          6
                                   No pseudopotential on this center.
    7          1
                                   No pseudopotential on this center.
    8          1
                                   No pseudopotential on this center.
    9          1
                                   No pseudopotential on this center.
   10          1
                                   No pseudopotential on this center.
   11         53            7
                                      G and up 
                                                     2        1.0000000        0.00000000    0.00000000
                                      S - G
                                                     2        3.5112000       83.11386300    0.00000000
                                                     2        1.7556000        5.20187600    0.00000000
                                      P - G
                                                     2        2.9688000       82.81110900    0.00000000
                                                     2        1.4844000        3.37968200    0.00000000
                                      D - G
                                                     2        1.9066000       10.30427700    0.00000000
                                                     2        0.9533000        7.58803200    0.00000000
                                      F - G
                                                     2        2.3075000      -21.47793600    0.00000000
   12          6
                                   No pseudopotential on this center.
   13          7
                                   No pseudopotential on this center.
 ======================================================================================================
 There are    77 symmetry adapted cartesian basis functions of A1  symmetry.
 There are    14 symmetry adapted cartesian basis functions of A2  symmetry.
 There are    29 symmetry adapted cartesian basis functions of B1  symmetry.
 There are    51 symmetry adapted cartesian basis functions of B2  symmetry.
 There are    71 symmetry adapted basis functions of A1  symmetry.
 There are    14 symmetry adapted basis functions of A2  symmetry.
 There are    29 symmetry adapted basis functions of B1  symmetry.
 There are    49 symmetry adapted basis functions of B2  symmetry.
   163 basis functions,   291 primitive gaussians,   171 cartesian basis functions
    30 alpha electrons       30 beta electrons
       nuclear repulsion energy       338.6760630426 Hartrees.
 NAtoms=   13 NActive=   13 NUniq=    9 SFac= 2.09D+00 NAtFMM=   60 NAOKFM=F Big=F
 Integral buffers will be    131072 words long.
 Raffenetti 2 integral format.
 Two-electron integral symmetry is turned on.
 Nuclear repulsion after empirical dispersion term =      338.6662521177 Hartrees.
 One-electron integrals computed using PRISM.
   4 Symmetry operations used in ECPInt.
 ECPInt:  NShTT=    1431 NPrTT=    7543 LenC2=    1417 LenP2D=    5548.
 LDataN:  DoStor=T MaxTD1= 6 Len=  172
 NBasis=   163 RedAO= T EigKep=  4.11D-06  NBF=    71    14    29    49
 NBsUse=   163 1.00D-06 EigRej= -1.00D+00 NBFU=    71    14    29    49
 Defaulting to unpruned grid for atomic number  53.
 ExpMin= 3.26D-02 ExpMax= 4.17D+03 ExpMxC= 6.27D+02 IAcc=3 IRadAn=         5 AccDes= 0.00D+00
 Harris functional with IExCor=  402 and IRadAn=       5 diagonalized for initial guess.
 HarFok:  IExCor=  402 AccDes= 0.00D+00 IRadAn=         5 IDoV= 1 UseB2=F ITyADJ=14
 ICtDFT=  3500011 ScaDFX=  1.000000  1.000000  1.000000  1.000000
 Defaulting to unpruned grid for atomic number  53.
 FoFCou: FMM=F IPFlag=           0 FMFlag=      100000 FMFlg1=           0
         NFxFlg=           0 DoJE=T BraDBF=F KetDBF=T FulRan=T
         wScrn=  0.000000 ICntrl=       500 IOpCl=  0 I1Cent=   200000004 NGrid=           0
         NMat0=    1 NMatS0=      1 NMatT0=    0 NMatD0=    1 NMtDS0=    0 NMtDT0=    0
 Petite list used in FoFCou.
 Initial guess orbital symmetries:
       Occupied  (A1) (B2) (A1) (A1) (B2) (A1) (A1) (A1) (A1) (A1)
                 (A1) (B2) (A1) (B2) (A1) (A1) (B2) (A1) (A1) (B2)
                 (B1) (B2) (A1) (B1) (B2) (A1) (A2) (B1) (B2) (B1)
       Virtual   (B1) (A2) (A1) (B2) (B1) (A1) (B2) (A1) (A1) (B1)
                 (A1) (B2) (B1) (A1) (B2) (B1) (A1) (A2) (A1) (B2)
                 (B1) (A1) (A2) (B2) (B2) (A1) (B1) (A1) (B1) (A1)
                 (B2) (A1) (B1) (B2) (A1) (B2) (A1) (A1) (A1) (B2)
                 (B1) (B2) (B2) (A1) (B2) (A1) (B2) (A1) (A1) (B2)
                 (B2) (A1) (B2) (A1) (A1) (B1) (B2) (B1) (A2) (A1)
                 (A1) (A2) (B1) (B2) (B1) (A1) (B1) (A1) (B2) (B2)
                 (A1) (B1) (B2) (A1) (B2) (B1) (A1) (A1) (B2) (B2)
                 (A1) (B2) (A1) (A2) (A1) (B2) (A1) (B1) (B2) (A1)
                 (B1) (A2) (B2) (A2) (B1) (A1) (A2) (A1) (A1) (B2)
                 (A1) (B1) (B2) (A1) (B2) (A2) (A1) (A1) (B2) (A1)
                 (B1) (A2) (A1) (B2) (A1) (B1) (A2) (B1) (B2) (A1)
                 (A1) (B2) (A2) (B2) (A1) (B1) (A1) (B2) (A1) (B2)
                 (A1) (A1) (A1)
 The electronic state of the initial guess is 1-A1.
 Requested convergence on RMS density matrix=1.00D-08 within1000 cycles.
 Requested convergence on MAX density matrix=1.00D-06.
 Requested convergence on             energy=1.00D-06.
 No special actions if energy rises.
 Defaulting to unpruned grid for atomic number  53.
 Defaulting to unpruned grid for atomic number  53.
 Defaulting to unpruned grid for atomic number  53.
 Defaulting to unpruned grid for atomic number  53.
 Defaulting to unpruned grid for atomic number  53.
 Defaulting to unpruned grid for atomic number  53.
 Defaulting to unpruned grid for atomic number  53.
 Defaulting to unpruned grid for atomic number  53.
 Defaulting to unpruned grid for atomic number  53.
 Defaulting to unpruned grid for atomic number  53.
 Defaulting to unpruned grid for atomic number  53.
 Defaulting to unpruned grid for atomic number  53.
 Defaulting to unpruned grid for atomic number  53.
 Defaulting to unpruned grid for atomic number  53.
 Defaulting to unpruned grid for atomic number  53.
 Defaulting to unpruned grid for atomic number  53.
 Defaulting to unpruned grid for atomic number  53.
 Defaulting to unpruned grid for atomic number  53.
 Defaulting to unpruned grid for atomic number  53.
 Defaulting to unpruned grid for atomic number  53.
 Defaulting to unpruned grid for atomic number  53.
 Defaulting to unpruned grid for atomic number  53.
 Defaulting to unpruned grid for atomic number  53.
 Defaulting to unpruned grid for atomic number  53.
 Defaulting to unpruned grid for atomic number  53.
 Defaulting to unpruned grid for atomic number  53.
 Defaulting to unpruned grid for atomic number  53.
 Defaulting to unpruned grid for atomic number  53.
 Defaulting to unpruned grid for atomic number  53.
 Defaulting to unpruned grid for atomic number  53.
 Defaulting to unpruned grid for atomic number  53.
 Defaulting to unpruned grid for atomic number  53.
 SCF Done:  E(RB3LYP) =  -335.315027415     A.U. after   14 cycles
            NFock= 14  Conv=0.74D-08     -V/T= 2.0316

 **********************************************************************

            Population analysis using the SCF Density.

 **********************************************************************

 Orbital symmetries:
       Occupied  (A1) (A1) (A1) (A1) (B2) (A1) (B2) (A1) (A1) (A1)
                 (A1) (B2) (A1) (B2) (A1) (A1) (B2) (A1) (A1) (B2)
                 (B1) (B2) (A1) (B1) (A1) (B2) (B1) (A2) (B2) (B1)
       Virtual   (B1) (A1) (A2) (A1) (B2) (B2) (A1) (B1) (A1) (B2)
                 (A1) (B1) (B1) (B2) (A1) (A2) (A1) (A1) (B1) (B2)
                 (A2) (B1) (B2) (B1) (A1) (B2) (A1) (A1) (B1) (B2)
                 (B1) (A1) (A1) (A1) (B2) (A1) (B2) (B2) (B1) (B2)
                 (A1) (A1) (B2) (A1) (B2) (A1) (B2) (A1) (A1) (B2)
                 (B2) (A1) (B2) (A1) (A1) (B1) (B1) (A2) (B2) (A1)
                 (B1) (A2) (A1) (B1) (B2) (A1) (B1) (A1) (B1) (B2)
                 (B2) (A1) (B2) (A1) (B2) (A1) (B1) (B2) (A1) (B2)
                 (A1) (B2) (A1) (A1) (A2) (B2) (A1) (B2) (B1) (A1)
                 (B1) (A2) (B2) (B1) (A2) (A1) (A2) (A1) (A1) (B2)
                 (A1) (B1) (B2) (A1) (A2) (B2) (A1) (A1) (B2) (A1)
                 (B1) (A2) (A1) (B2) (A1) (B1) (A2) (B1) (A1) (B2)
                 (B2) (A2) (A1) (B2) (A1) (B1) (A1) (B2) (A1) (B2)
                 (A1) (A1) (A1)
 The electronic state is 1-A1.
 Alpha  occ. eigenvalues --  -14.35646 -10.27421 -10.25860 -10.24509 -10.23804
 Alpha  occ. eigenvalues --  -10.23804 -10.23455 -10.23455  -0.92719  -0.90240
 Alpha  occ. eigenvalues --   -0.81546  -0.79513  -0.72450  -0.65609  -0.65061
 Alpha  occ. eigenvalues --   -0.58740  -0.50691  -0.49937  -0.47384  -0.46885
 Alpha  occ. eigenvalues --   -0.42815  -0.39998  -0.38271  -0.37442  -0.37006
 Alpha  occ. eigenvalues --   -0.34957  -0.31280  -0.29854  -0.28886  -0.26511
 Alpha virt. eigenvalues --   -0.07623  -0.06347  -0.05273  -0.00548   0.01133
 Alpha virt. eigenvalues --    0.01251   0.01307   0.02804   0.03624   0.04046
 Alpha virt. eigenvalues --    0.04365   0.05012   0.05807   0.06495   0.07205
 Alpha virt. eigenvalues --    0.07491   0.08939   0.09618   0.09693   0.09865
 Alpha virt. eigenvalues --    0.12259   0.12588   0.13320   0.13950   0.14362
 Alpha virt. eigenvalues --    0.15031   0.15317   0.16114   0.16631   0.18639
 Alpha virt. eigenvalues --    0.18872   0.19710   0.21170   0.21322   0.21947
 Alpha virt. eigenvalues --    0.23331   0.23840   0.24371   0.25139   0.25704
 Alpha virt. eigenvalues --    0.25823   0.27238   0.28149   0.29132   0.29732
 Alpha virt. eigenvalues --    0.30021   0.31643   0.32295   0.34158   0.35757
 Alpha virt. eigenvalues --    0.51427   0.52752   0.60507   0.61689   0.63130
 Alpha virt. eigenvalues --    0.64500   0.67273   0.68204   0.69730   0.69976
 Alpha virt. eigenvalues --    0.70711   0.71027   0.72971   0.74207   0.74576
 Alpha virt. eigenvalues --    0.77822   0.78394   0.80876   0.83012   0.84130
 Alpha virt. eigenvalues --    0.86906   0.88809   0.91142   0.92656   0.96700
 Alpha virt. eigenvalues --    0.98925   1.00195   1.03830   1.04914   1.05494
 Alpha virt. eigenvalues --    1.09648   1.11690   1.15871   1.17882   1.19799
 Alpha virt. eigenvalues --    1.21084   1.27263   1.28237   1.30843   1.32480
 Alpha virt. eigenvalues --    1.39216   1.41305   1.41556   1.44777   1.45819
 Alpha virt. eigenvalues --    1.46183   1.51929   1.54337   1.61669   1.73919
 Alpha virt. eigenvalues --    1.75816   1.78430   1.79891   1.88843   1.93566
 Alpha virt. eigenvalues --    1.95272   1.96187   2.00283   2.04747   2.06552
 Alpha virt. eigenvalues --    2.09723   2.11086   2.12397   2.14638   2.18097
 Alpha virt. eigenvalues --    2.24655   2.25847   2.26631   2.47776   2.47952
 Alpha virt. eigenvalues --    2.59381   2.59732   2.60364   2.70041   2.70571
 Alpha virt. eigenvalues --    2.78870   2.78957   2.85287   3.06409   3.13717
 Alpha virt. eigenvalues --    3.23886   3.44162  15.04249
          Condensed to atoms (all electrons):
               1          2          3          4          5          6
     1  C    8.258438  -0.080201  -1.716270  -0.283269  -0.385049   0.038184
     2  C   -0.080201   7.596273  -0.080201   0.068280  -0.749553   0.068280
     3  C   -1.716270  -0.080201   8.258438   0.038184  -0.385049  -0.283269
     4  C   -0.283269   0.068280   0.038184   6.645156   0.256695  -0.725291
     5  C   -0.385049  -0.749553  -0.385049   0.256695   6.921812   0.256695
     6  C    0.038184   0.068280  -0.283269  -0.725291   0.256695   6.645156
     7  H    0.242717   0.064052   0.066151  -0.018785   0.015578  -0.049750
     8  H    0.066151   0.064052   0.242717  -0.049750   0.015578  -0.018785
     9  H   -0.025934  -0.002745  -0.027184   0.278124   0.031188   0.056760
    10  H   -0.027184  -0.002745  -0.025934   0.056760   0.031188   0.278124
    11  I    0.168992   0.030090   0.168992   0.186488  -0.695867   0.186488
    12  C    0.109731  -1.608927   0.109731  -0.107387  -0.002967  -0.107387
    13  N   -0.033413   0.155969  -0.033413   0.000054   0.001368   0.000054
               7          8          9         10         11         12
     1  C    0.242717   0.066151  -0.025934  -0.027184   0.168992   0.109731
     2  C    0.064052   0.064052  -0.002745  -0.002745   0.030090  -1.608927
     3  C    0.066151   0.242717  -0.027184  -0.025934   0.168992   0.109731
     4  C   -0.018785  -0.049750   0.278124   0.056760   0.186488  -0.107387
     5  C    0.015578   0.015578   0.031188   0.031188  -0.695867  -0.002967
     6  C   -0.049750  -0.018785   0.056760   0.278124   0.186488  -0.107387
     7  H    0.506219  -0.000127   0.000013  -0.004907  -0.000494  -0.033169
     8  H   -0.000127   0.506219  -0.004907   0.000013  -0.000494  -0.033169
     9  H    0.000013  -0.004907   0.494518  -0.000146  -0.003974  -0.003943
    10  H   -0.004907   0.000013  -0.000146   0.494518  -0.003974  -0.003943
    11  I   -0.000494  -0.000494  -0.003974  -0.003974   6.856804  -0.000531
    12  C   -0.033169  -0.033169  -0.003943  -0.003943  -0.000531   7.761971
    13  N    0.001174   0.001174   0.000022   0.000022  -0.000060   0.276893
              13
     1  C   -0.033413
     2  C    0.155969
     3  C   -0.033413
     4  C    0.000054
     5  C    0.001368
     6  C    0.000054
     7  H    0.001174
     8  H    0.001174
     9  H    0.000022
    10  H    0.000022
    11  I   -0.000060
    12  C    0.276893
    13  N    7.029312
 Mulliken charges:
               1
     1  C   -0.332894
     2  C    0.477375
     3  C   -0.332894
     4  C   -0.345260
     5  C    0.688381
     6  C   -0.345260
     7  H    0.211328
     8  H    0.211328
     9  H    0.208208
    10  H    0.208208
    11  I    0.107538
    12  C   -0.356902
    13  N   -0.399156
 Sum of Mulliken charges =   0.00000
 Mulliken charges with hydrogens summed into heavy atoms:
               1
     1  C   -0.121566
     2  C    0.477375
     3  C   -0.121566
     4  C   -0.137052
     5  C    0.688381
     6  C   -0.137052
    11  I    0.107538
    12  C   -0.356902
    13  N   -0.399156
 Electronic spatial extent (au):  <R**2>=           1967.9707
 Charge=              0.0000 electrons
 Dipole moment (field-independent basis, Debye):
    X=              0.0000    Y=              0.0000    Z=              3.3154  Tot=              3.3154
 Quadrupole moment (field-independent basis, Debye-Ang):
   XX=            -69.3044   YY=            -58.6321   ZZ=            -95.1889
   XY=              0.0000   XZ=              0.0000   YZ=              0.0000
 Traceless Quadrupole moment (field-independent basis, Debye-Ang):
   XX=              5.0707   YY=             15.7431   ZZ=            -20.8138
   XY=              0.0000   XZ=              0.0000   YZ=              0.0000
 Octapole moment (field-independent basis, Debye-Ang**2):
  XXX=              0.0000  YYY=              0.0000  ZZZ=            381.2346  XYY=              0.0000
  XXY=              0.0000  XXZ=             56.4983  XZZ=              0.0000  YZZ=              0.0000
  YYZ=             41.6979  XYZ=              0.0000
 Hexadecapole moment (field-independent basis, Debye-Ang**3):
 XXXX=            -95.7518 YYYY=           -306.5293 ZZZZ=          -4017.9113 XXXY=              0.0000
 XXXZ=              0.0000 YYYX=              0.0000 YYYZ=              0.0000 ZZZX=              0.0000
 ZZZY=              0.0000 XXYY=            -79.6514 XXZZ=           -498.0872 YYZZ=           -501.6353
 XXYZ=              0.0000 YYXZ=              0.0000 ZZXY=              0.0000
 N-N= 3.386662521177D+02 E-N=-1.449640686865D+03  KE= 3.250295194864D+02
 Symmetry A1   KE= 2.327126545655D+02
 Symmetry A2   KE= 2.231102786116D+00
 Symmetry B1   KE= 8.082391862815D+00
 Symmetry B2   KE= 8.200337027199D+01
 Evaluate density.
 Using the total density.
 Monte-Carlo method of calculating molar volume:
 based on  0.001 e/bohr**3 density envelope.
 Number of points per bohr**3 =   20 CutOff= 1.00D-04
 Using the SCF density.
 There are       505 points.  Will hold       505 in memory.
 LenV=  8321382689 MDV=  8321499136.
 Box volume =16161.774 fraction occupied=0.093
 Integrated density= 5.8927754640861600D+01 error=-1.0722453591383996D+00
 Molar volume = 1504.165 bohr**3/mol (134.230 cm**3/mol)
 Recommended a0 for SCRF calculation =  4.64 angstrom (  8.77 bohr)
   4 Symmetry operations used in ECPInt.
 ECPInt:  NShTT=    1431 NPrTT=    7543 LenC2=    1417 LenP2D=    5548.
 LDataN:  DoStor=T MaxTD1= 7 Len=  274
 Calling FoFJK, ICntrl=      2127 FMM=F ISym2X=1 I1Cent= 0 IOpClX= 0 NMat=1 NMatS=1 NMatT=0.
 Defaulting to unpruned grid for atomic number  53.
 Defaulting to unpruned grid for atomic number  53.
 Defaulting to unpruned grid for atomic number  53.
 Defaulting to unpruned grid for atomic number  53.
 Defaulting to unpruned grid for atomic number  53.
 Defaulting to unpruned grid for atomic number  53.
 Defaulting to unpruned grid for atomic number  53.
 Defaulting to unpruned grid for atomic number  53.
 Defaulting to unpruned grid for atomic number  53.
 Defaulting to unpruned grid for atomic number  53.
 Defaulting to unpruned grid for atomic number  53.
 Defaulting to unpruned grid for atomic number  53.
 Defaulting to unpruned grid for atomic number  53.
 Defaulting to unpruned grid for atomic number  53.
 Defaulting to unpruned grid for atomic number  53.
 Defaulting to unpruned grid for atomic number  53.
 Defaulting to unpruned grid for atomic number  53.
 Defaulting to unpruned grid for atomic number  53.
 Defaulting to unpruned grid for atomic number  53.
 Defaulting to unpruned grid for atomic number  53.
 Defaulting to unpruned grid for atomic number  53.
 Defaulting to unpruned grid for atomic number  53.
 Defaulting to unpruned grid for atomic number  53.
 Defaulting to unpruned grid for atomic number  53.
 Defaulting to unpruned grid for atomic number  53.
 Defaulting to unpruned grid for atomic number  53.
 Defaulting to unpruned grid for atomic number  53.
 Defaulting to unpruned grid for atomic number  53.
 Defaulting to unpruned grid for atomic number  53.
 Defaulting to unpruned grid for atomic number  53.
 Defaulting to unpruned grid for atomic number  53.
 Defaulting to unpruned grid for atomic number  53.
 ***** Axes restored to original set *****
 -------------------------------------------------------------------
 Center     Atomic                   Forces (Hartrees/Bohr)
 Number     Number              X              Y              Z
 -------------------------------------------------------------------
      1        6           0.000004784   -0.000101984    0.000000000
      2        6           0.000057350    0.000000000    0.000000000
      3        6           0.000004784    0.000101984    0.000000000
      4        6          -0.000106538   -0.000053452    0.000000000
      5        6           0.000121638    0.000000000    0.000000000
      6        6          -0.000106538    0.000053452    0.000000000
      7        1           0.000033652    0.000003447    0.000000000
      8        1           0.000033652   -0.000003447    0.000000000
      9        1           0.000051289    0.000046227    0.000000000
     10        1           0.000051289   -0.000046227    0.000000000
     11       53           0.000029027    0.000000000    0.000000000
     12        6           0.000119786    0.000000000    0.000000000
     13        7          -0.000294174    0.000000000    0.000000000
 -------------------------------------------------------------------
 Cartesian Forces:  Max     0.000294174 RMS     0.000068106

 GradGradGradGradGradGradGradGradGradGradGradGradGradGradGradGradGradGrad
 Berny optimization.
 FormGI is forming the generalized inverse of G from B-inverse, IUseBI=4.
 Internal  Forces:  Max     0.000294174 RMS     0.000054771
 Search for a local minimum.
 Step number   1 out of a maximum of   67
 All quantities printed in internal units (Hartrees-Bohrs-Radians)
 Mixed Optimization -- En-DIIS/RFO-DIIS
 Second derivative matrix not updated -- first step.
 ITU=  0
     Eigenvalues ---    0.02015   0.02042   0.02080   0.02092   0.02116
     Eigenvalues ---    0.02120   0.02129   0.02140   0.02142   0.04815
     Eigenvalues ---    0.04815   0.12664   0.16000   0.16000   0.16000
     Eigenvalues ---    0.16000   0.22000   0.22982   0.24000   0.25000
     Eigenvalues ---    0.25000   0.35323   0.35323   0.35420   0.35420
     Eigenvalues ---    0.40294   0.41467   0.41806   0.45090   0.45414
     Eigenvalues ---    0.46095   0.46540   1.25268
 RFO step:  Lambda=-3.20876991D-07 EMin= 2.01523031D-02
 Linear search not attempted -- first point.
 Iteration  1 RMS(Cart)=  0.00022097 RMS(Int)=  0.00000001
 Iteration  2 RMS(Cart)=  0.00000002 RMS(Int)=  0.00000000
 ClnCor:  largest displacement from symmetrization is 7.41D-13 for atom    13.
 Variable       Old X    -DE/DX   Delta X   Delta X   Delta X     New X
                                 (Linear)    (Quad)   (Total)
    R1        2.65612  -0.00010   0.00000  -0.00024  -0.00024   2.65588
    R2        2.63527  -0.00002   0.00000  -0.00004  -0.00004   2.63523
    R3        2.05153   0.00002   0.00000   0.00006   0.00006   2.05159
    R4        2.65612  -0.00010   0.00000  -0.00024  -0.00024   2.65588
    R5        2.71156  -0.00017   0.00000  -0.00043  -0.00043   2.71112
    R6        2.63527  -0.00002   0.00000  -0.00004  -0.00004   2.63523
    R7        2.05153   0.00002   0.00000   0.00006   0.00006   2.05159
    R8        2.64178  -0.00004   0.00000  -0.00008  -0.00008   2.64170
    R9        2.04998  -0.00007   0.00000  -0.00019  -0.00019   2.04980
   R10        2.64178  -0.00004   0.00000  -0.00008  -0.00008   2.64170
   R11        4.04729  -0.00003   0.00000  -0.00023  -0.00023   4.04706
   R12        2.04998  -0.00007   0.00000  -0.00019  -0.00019   2.04980
   R13        2.19947  -0.00029   0.00000  -0.00023  -0.00023   2.19924
    A1        2.09633   0.00001   0.00000   0.00002   0.00002   2.09634
    A2        2.09221  -0.00003   0.00000  -0.00018  -0.00018   2.09203
    A3        2.09465   0.00003   0.00000   0.00017   0.00017   2.09482
    A4        2.09177   0.00004   0.00000   0.00012   0.00012   2.09190
    A5        2.09571  -0.00002   0.00000  -0.00006  -0.00006   2.09564
    A6        2.09571  -0.00002   0.00000  -0.00006  -0.00006   2.09564
    A7        2.09633   0.00001   0.00000   0.00002   0.00002   2.09634
    A8        2.09221  -0.00003   0.00000  -0.00018  -0.00018   2.09203
    A9        2.09465   0.00003   0.00000   0.00017   0.00017   2.09482
   A10        2.08438  -0.00005   0.00000  -0.00019  -0.00019   2.08418
   A11        2.09154   0.00000   0.00000  -0.00004  -0.00004   2.09150
   A12        2.10727   0.00005   0.00000   0.00024   0.00024   2.10750
   A13        2.11319   0.00005   0.00000   0.00023   0.00023   2.11342
   A14        2.08500  -0.00002   0.00000  -0.00012  -0.00012   2.08488
   A15        2.08500  -0.00002   0.00000  -0.00012  -0.00012   2.08488
   A16        2.08438  -0.00005   0.00000  -0.00019  -0.00019   2.08418
   A17        2.09154   0.00000   0.00000  -0.00004  -0.00004   2.09150
   A18        2.10727   0.00005   0.00000   0.00024   0.00024   2.10750
   A19        3.14159   0.00000   0.00000   0.00000   0.00000   3.14159
   A20        3.14159   0.00000   0.00000   0.00000   0.00000   3.14159
    D1        0.00000   0.00000   0.00000   0.00000   0.00000   0.00000
    D2        3.14159   0.00000   0.00000   0.00000   0.00000   3.14159
    D3        3.14159   0.00000   0.00000   0.00000   0.00000   3.14159
    D4        0.00000   0.00000   0.00000   0.00000   0.00000   0.00000
    D5        0.00000   0.00000   0.00000   0.00000   0.00000   0.00000
    D6        3.14159   0.00000   0.00000   0.00000   0.00000   3.14159
    D7        3.14159   0.00000   0.00000   0.00000   0.00000   3.14159
    D8        0.00000   0.00000   0.00000   0.00000   0.00000   0.00000
    D9        0.00000   0.00000   0.00000   0.00000   0.00000   0.00000
   D10        3.14159   0.00000   0.00000   0.00000   0.00000   3.14159
   D11        3.14159   0.00000   0.00000   0.00000   0.00000   3.14159
   D12        0.00000   0.00000   0.00000   0.00000   0.00000   0.00000
   D13        0.00000   0.00000   0.00000   0.00000   0.00000   0.00000
   D14        3.14159   0.00000   0.00000   0.00000   0.00000   3.14159
   D15        3.14159   0.00000   0.00000   0.00000   0.00000   3.14159
   D16        0.00000   0.00000   0.00000   0.00000   0.00000   0.00000
   D17        0.00000   0.00000   0.00000   0.00000   0.00000   0.00000
   D18        3.14159   0.00000   0.00000   0.00000   0.00000   3.14159
   D19        3.14159   0.00000   0.00000   0.00000   0.00000   3.14159
   D20        0.00000   0.00000   0.00000   0.00000   0.00000   0.00000
   D21        0.00000   0.00000   0.00000   0.00000   0.00000   0.00000
   D22        3.14159   0.00000   0.00000   0.00000   0.00000   3.14159
   D23        3.14159   0.00000   0.00000   0.00000   0.00000   3.14159
   D24        0.00000   0.00000   0.00000   0.00000   0.00000   0.00000
         Item               Value     Threshold  Converged?
 Maximum Force            0.000294     0.000450     YES
 RMS     Force            0.000055     0.000300     YES
 Maximum Displacement     0.000989     0.001800     YES
 RMS     Displacement     0.000221     0.001200     YES
 Predicted change in Energy=-1.604385D-07
 Optimization completed.
    -- Stationary point found.
                           ----------------------------
                           !   Optimized Parameters   !
                           ! (Angstroms and Degrees)  !
 --------------------------                            --------------------------
 ! Name  Definition              Value          Derivative Info.                !
 --------------------------------------------------------------------------------
 ! R1    R(1,2)                  1.4056         -DE/DX =   -0.0001              !
 ! R2    R(1,6)                  1.3945         -DE/DX =    0.0                 !
 ! R3    R(1,7)                  1.0856         -DE/DX =    0.0                 !
 ! R4    R(2,3)                  1.4056         -DE/DX =   -0.0001              !
 ! R5    R(2,12)                 1.4349         -DE/DX =   -0.0002              !
 ! R6    R(3,4)                  1.3945         -DE/DX =    0.0                 !
 ! R7    R(3,8)                  1.0856         -DE/DX =    0.0                 !
 ! R8    R(4,5)                  1.398          -DE/DX =    0.0                 !
 ! R9    R(4,9)                  1.0848         -DE/DX =   -0.0001              !
 ! R10   R(5,6)                  1.398          -DE/DX =    0.0                 !
 ! R11   R(5,11)                 2.1417         -DE/DX =    0.0                 !
 ! R12   R(6,10)                 1.0848         -DE/DX =   -0.0001              !
 ! R13   R(12,13)                1.1639         -DE/DX =   -0.0003              !
 ! A1    A(2,1,6)              120.1107         -DE/DX =    0.0                 !
 ! A2    A(2,1,7)              119.8748         -DE/DX =    0.0                 !
 ! A3    A(6,1,7)              120.0145         -DE/DX =    0.0                 !
 ! A4    A(1,2,3)              119.8498         -DE/DX =    0.0                 !
 ! A5    A(1,2,12)             120.0751         -DE/DX =    0.0                 !
 ! A6    A(3,2,12)             120.0751         -DE/DX =    0.0                 !
 ! A7    A(2,3,4)              120.1107         -DE/DX =    0.0                 !
 ! A8    A(2,3,8)              119.8748         -DE/DX =    0.0                 !
 ! A9    A(4,3,8)              120.0145         -DE/DX =    0.0                 !
 ! A10   A(3,4,5)              119.426          -DE/DX =    0.0                 !
 ! A11   A(3,4,9)              119.8364         -DE/DX =    0.0                 !
 ! A12   A(5,4,9)              120.7375         -DE/DX =    0.0                 !
 ! A13   A(4,5,6)              121.0767         -DE/DX =    0.0                 !
 ! A14   A(4,5,11)             119.4616         -DE/DX =    0.0                 !
 ! A15   A(6,5,11)             119.4616         -DE/DX =    0.0                 !
 ! A16   A(1,6,5)              119.426          -DE/DX =    0.0                 !
 ! A17   A(1,6,10)             119.8364         -DE/DX =    0.0                 !
 ! A18   A(5,6,10)             120.7375         -DE/DX =    0.0                 !
 ! A19   L(2,12,13,7,-1)       180.0            -DE/DX =    0.0                 !
 ! A20   L(2,12,13,7,-2)       180.0            -DE/DX =    0.0                 !
 ! D1    D(6,1,2,3)              0.0            -DE/DX =    0.0                 !
 ! D2    D(6,1,2,12)           180.0            -DE/DX =    0.0                 !
 ! D3    D(7,1,2,3)            180.0            -DE/DX =    0.0                 !
 ! D4    D(7,1,2,12)             0.0            -DE/DX =    0.0                 !
 ! D5    D(2,1,6,5)              0.0            -DE/DX =    0.0                 !
 ! D6    D(2,1,6,10)           180.0            -DE/DX =    0.0                 !
 ! D7    D(7,1,6,5)            180.0            -DE/DX =    0.0                 !
 ! D8    D(7,1,6,10)             0.0            -DE/DX =    0.0                 !
 ! D9    D(1,2,3,4)              0.0            -DE/DX =    0.0                 !
 ! D10   D(1,2,3,8)            180.0            -DE/DX =    0.0                 !
 ! D11   D(12,2,3,4)           180.0            -DE/DX =    0.0                 !
 ! D12   D(12,2,3,8)             0.0            -DE/DX =    0.0                 !
 ! D13   D(2,3,4,5)              0.0            -DE/DX =    0.0                 !
 ! D14   D(2,3,4,9)            180.0            -DE/DX =    0.0                 !
 ! D15   D(8,3,4,5)            180.0            -DE/DX =    0.0                 !
 ! D16   D(8,3,4,9)              0.0            -DE/DX =    0.0                 !
 ! D17   D(3,4,5,6)              0.0            -DE/DX =    0.0                 !
 ! D18   D(3,4,5,11)           180.0            -DE/DX =    0.0                 !
 ! D19   D(9,4,5,6)            180.0            -DE/DX =    0.0                 !
 ! D20   D(9,4,5,11)             0.0            -DE/DX =    0.0                 !
 ! D21   D(4,5,6,1)              0.0            -DE/DX =    0.0                 !
 ! D22   D(4,5,6,10)           180.0            -DE/DX =    0.0                 !
 ! D23   D(11,5,6,1)           180.0            -DE/DX =    0.0                 !
 ! D24   D(11,5,6,10)            0.0            -DE/DX =    0.0                 !
 --------------------------------------------------------------------------------
 GradGradGradGradGradGradGradGradGradGradGradGradGradGradGradGradGradGrad

                          Input orientation:                          
 ---------------------------------------------------------------------
 Center     Atomic      Atomic             Coordinates (Angstroms)
 Number     Number       Type             X           Y           Z
 ---------------------------------------------------------------------
      1          6           0        2.034776    1.216327    0.000000
      2          6           0        2.739150    0.000000    0.000000
      3          6           0        2.034776   -1.216327    0.000000
      4          6           0        0.640250   -1.217193    0.000000
      5          6           0       -0.047329    0.000000    0.000000
      6          6           0        0.640250    1.217193    0.000000
      7          1           0        2.578409    2.156029    0.000000
      8          1           0        2.578409   -2.156029    0.000000
      9          1           0        0.101116   -2.158541    0.000000
     10          1           0        0.101116    2.158541    0.000000
     11         53           0       -2.189061    0.000000    0.000000
     12          6           0        4.174044    0.000000    0.000000
     13          7           0        5.337955    0.000000    0.000000
 ---------------------------------------------------------------------
                    Distance matrix (angstroms):
                    1          2          3          4          5
     1  C    0.000000
     2  C    1.405558   0.000000
     3  C    2.432654   1.405558   0.000000
     4  C    2.804768   2.426302   1.394526   0.000000
     5  C    2.411351   2.786479   2.411351   1.397971   0.000000
     6  C    1.394526   2.426302   2.804768   2.434386   1.397971
     7  H    1.085623   2.162013   3.415893   3.890384   3.397493
     8  H    3.415893   2.162013   1.085623   2.153572   3.397493
     9  H    3.889573   3.408595   2.151002   1.084805   2.163639
    10  H    2.151002   3.408595   3.889573   3.418515   2.163639
    11  I    4.395481   4.928211   4.395481   3.080026   2.141732
    12  C    2.460878   1.434894   2.460878   3.737547   4.221373
    13  N    3.520006   2.598805   3.520006   4.852833   5.385284
                    6          7          8          9         10
     6  C    0.000000
     7  H    2.153572   0.000000
     8  H    3.890384   4.312058   0.000000
     9  H    3.418515   4.975188   2.477294   0.000000
    10  H    1.084805   2.477294   4.975188   4.317082   0.000000
    11  I    3.080026   5.232326   5.232326   3.147095   3.147095
    12  C    3.737547   2.682259   2.682259   4.609560   4.609560
    13  N    4.852833   3.501936   3.501936   5.664255   5.664255
                   11         12         13
    11  I    0.000000
    12  C    6.363105   0.000000
    13  N    7.527016   1.163911   0.000000
 Stoichiometry    C7H4IN
 Framework group  C2V[C2(NCCCI),SGV(C4H4)]
 Deg. of freedom    12
 Full point group                 C2V     NOp   4
 Largest Abelian subgroup         C2V     NOp   4
 Largest concise Abelian subgroup C2      NOp   2
                         Standard orientation:                         
 ---------------------------------------------------------------------
 Center     Atomic      Atomic             Coordinates (Angstroms)
 Number     Number       Type             X           Y           Z
 ---------------------------------------------------------------------
      1          6           0        0.000000    1.216327   -2.034776
      2          6           0        0.000000    0.000000   -2.739150
      3          6           0        0.000000   -1.216327   -2.034776
      4          6           0        0.000000   -1.217193   -0.640250
      5          6           0        0.000000    0.000000    0.047329
      6          6           0        0.000000    1.217193   -0.640250
      7          1           0        0.000000    2.156029   -2.578409
      8          1           0        0.000000   -2.156029   -2.578409
      9          1           0        0.000000   -2.158541   -0.101116
     10          1           0        0.000000    2.158541   -0.101116
     11         53           0        0.000000    0.000000    2.189061
     12          6           0        0.000000    0.000000   -4.174044
     13          7           0        0.000000    0.000000   -5.337955
 ---------------------------------------------------------------------
 Rotational constants (GHZ):           5.6262352           0.3565332           0.3352861
 1\1\GINC-IP-172-31-4-202\FOpt\RB3LYP\Gen\C7H4I1N1\UBUNTU\18-Sep-2023\0
 \\# opt freq b3lyp/gen empiricaldispersion=gd3 pseudo=read scf=maxcycl
 e=1000 volume\\Title Card Required\\0,1\C,2.034776,1.216327,0.\C,2.739
 15,0.,0.\C,2.034776,-1.216327,0.\C,0.64025,-1.217193,0.\C,-0.047329,0.
 ,0.\C,0.64025,1.217193,0.\H,2.578409,2.156029,0.\H,2.578409,-2.156029,
 0.\H,0.101116,-2.158541,0.\H,0.101116,2.158541,0.\I,-2.189061,0.,0.\C,
 4.174044,0.,0.\N,5.337955,0.,0.\\Version=EM64L-G16RevB.01\State=1-A1\H
 F=-335.3150274\RMSD=7.354e-09\RMSF=6.811e-05\Dipole=-1.3043933,0.,0.\Q
 uadrupole=-15.4745516,11.7045991,3.7699525,0.,0.,0.\PG=C02V [C2(N1C1C1
 C1I1),SGV(C4H4)]\\@


 BETTER TO HUNT IN FIELDS, FOR HEALTH UNBOUGHT
 THAN FEE THE DOCTOR FOR A NAUSEOUS DRAUGHT.
 THE WISE, FOR CURE, ON EXERCISE DEPEND;
 GOD NEVER MADE HIS WORK FOR MAN TO MEND.
     -- JOHN DRYDEN (1631-1700)
 Job cpu time:       0 days  0 hours  3 minutes  5.5 seconds.
 Elapsed time:       0 days  0 hours  0 minutes  5.9 seconds.
 File lengths (MBytes):  RWF=     18 Int=      0 D2E=      0 Chk=      3 Scr=      1
 Normal termination of Gaussian 16 at Mon Sep 18 06:35:44 2023.
 Link1:  Proceeding to internal job step number  2.
 ------------------------------------------------------------------
 #N Geom=AllCheck Guess=TCheck SCRF=Check GenChk RB3LYP/ChkBas Freq
 ------------------------------------------------------------------
 1/10=4,29=7,30=1,38=1,40=1/1,3;
 2/12=2,40=1/2;
 3/5=7,6=2,11=2,14=-4,16=1,17=8,25=1,30=1,67=1,70=2,71=2,74=-5,82=7,116=1,124=31,140=1/1,2,3;
 4/5=101/1;
 5/5=2,7=1000,38=6,98=1/2;
 8/6=4,10=90,11=11/1;
 11/6=1,8=1,9=11,15=111,16=1/1,2,10;
 10/6=1/2;
 6/7=2,8=2,9=2,10=2,28=1/1;
 7/8=1,10=1,25=1/1,2,3,16;
 1/10=4,30=1/3;
 99//99;
 Structure from the checkpoint file:  "ARyLHALIDE-cn-SOL-disp-g16-gas-gen-volume.chk"
 -------------------
 Title Card Required
 -------------------
 Charge =  0 Multiplicity = 1
 Redundant internal coordinates found in file.  (old form).
 C,0,2.034776,1.216327,0.
 C,0,2.73915,0.,0.
 C,0,2.034776,-1.216327,0.
 C,0,0.64025,-1.217193,0.
 C,0,-0.047329,0.,0.
 C,0,0.64025,1.217193,0.
 H,0,2.578409,2.156029,0.
 H,0,2.578409,-2.156029,0.
 H,0,0.101116,-2.158541,0.
 H,0,0.101116,2.158541,0.
 I,0,-2.189061,0.,0.
 C,0,4.174044,0.,0.
 N,0,5.337955,0.,0.
 Recover connectivity data from disk.

 GradGradGradGradGradGradGradGradGradGradGradGradGradGradGradGradGradGrad
 Berny optimization.
 Initialization pass.
                           ----------------------------
                           !    Initial Parameters    !
                           ! (Angstroms and Degrees)  !
 --------------------------                            --------------------------
 ! Name  Definition              Value          Derivative Info.                !
 --------------------------------------------------------------------------------
 ! R1    R(1,2)                  1.4056         calculate D2E/DX2 analytically  !
 ! R2    R(1,6)                  1.3945         calculate D2E/DX2 analytically  !
 ! R3    R(1,7)                  1.0856         calculate D2E/DX2 analytically  !
 ! R4    R(2,3)                  1.4056         calculate D2E/DX2 analytically  !
 ! R5    R(2,12)                 1.4349         calculate D2E/DX2 analytically  !
 ! R6    R(3,4)                  1.3945         calculate D2E/DX2 analytically  !
 ! R7    R(3,8)                  1.0856         calculate D2E/DX2 analytically  !
 ! R8    R(4,5)                  1.398          calculate D2E/DX2 analytically  !
 ! R9    R(4,9)                  1.0848         calculate D2E/DX2 analytically  !
 ! R10   R(5,6)                  1.398          calculate D2E/DX2 analytically  !
 ! R11   R(5,11)                 2.1417         calculate D2E/DX2 analytically  !
 ! R12   R(6,10)                 1.0848         calculate D2E/DX2 analytically  !
 ! R13   R(12,13)                1.1639         calculate D2E/DX2 analytically  !
 ! A1    A(2,1,6)              120.1107         calculate D2E/DX2 analytically  !
 ! A2    A(2,1,7)              119.8748         calculate D2E/DX2 analytically  !
 ! A3    A(6,1,7)              120.0145         calculate D2E/DX2 analytically  !
 ! A4    A(1,2,3)              119.8498         calculate D2E/DX2 analytically  !
 ! A5    A(1,2,12)             120.0751         calculate D2E/DX2 analytically  !
 ! A6    A(3,2,12)             120.0751         calculate D2E/DX2 analytically  !
 ! A7    A(2,3,4)              120.1107         calculate D2E/DX2 analytically  !
 ! A8    A(2,3,8)              119.8748         calculate D2E/DX2 analytically  !
 ! A9    A(4,3,8)              120.0145         calculate D2E/DX2 analytically  !
 ! A10   A(3,4,5)              119.426          calculate D2E/DX2 analytically  !
 ! A11   A(3,4,9)              119.8364         calculate D2E/DX2 analytically  !
 ! A12   A(5,4,9)              120.7375         calculate D2E/DX2 analytically  !
 ! A13   A(4,5,6)              121.0767         calculate D2E/DX2 analytically  !
 ! A14   A(4,5,11)             119.4616         calculate D2E/DX2 analytically  !
 ! A15   A(6,5,11)             119.4616         calculate D2E/DX2 analytically  !
 ! A16   A(1,6,5)              119.426          calculate D2E/DX2 analytically  !
 ! A17   A(1,6,10)             119.8364         calculate D2E/DX2 analytically  !
 ! A18   A(5,6,10)             120.7375         calculate D2E/DX2 analytically  !
 ! A19   L(2,12,13,7,-1)       180.0            calculate D2E/DX2 analytically  !
 ! A20   L(2,12,13,7,-2)       180.0            calculate D2E/DX2 analytically  !
 ! D1    D(6,1,2,3)              0.0            calculate D2E/DX2 analytically  !
 ! D2    D(6,1,2,12)           180.0            calculate D2E/DX2 analytically  !
 ! D3    D(7,1,2,3)            180.0            calculate D2E/DX2 analytically  !
 ! D4    D(7,1,2,12)             0.0            calculate D2E/DX2 analytically  !
 ! D5    D(2,1,6,5)              0.0            calculate D2E/DX2 analytically  !
 ! D6    D(2,1,6,10)           180.0            calculate D2E/DX2 analytically  !
 ! D7    D(7,1,6,5)            180.0            calculate D2E/DX2 analytically  !
 ! D8    D(7,1,6,10)             0.0            calculate D2E/DX2 analytically  !
 ! D9    D(1,2,3,4)              0.0            calculate D2E/DX2 analytically  !
 ! D10   D(1,2,3,8)            180.0            calculate D2E/DX2 analytically  !
 ! D11   D(12,2,3,4)           180.0            calculate D2E/DX2 analytically  !
 ! D12   D(12,2,3,8)             0.0            calculate D2E/DX2 analytically  !
 ! D13   D(2,3,4,5)              0.0            calculate D2E/DX2 analytically  !
 ! D14   D(2,3,4,9)            180.0            calculate D2E/DX2 analytically  !
 ! D15   D(8,3,4,5)            180.0            calculate D2E/DX2 analytically  !
 ! D16   D(8,3,4,9)              0.0            calculate D2E/DX2 analytically  !
 ! D17   D(3,4,5,6)              0.0            calculate D2E/DX2 analytically  !
 ! D18   D(3,4,5,11)           180.0            calculate D2E/DX2 analytically  !
 ! D19   D(9,4,5,6)            180.0            calculate D2E/DX2 analytically  !
 ! D20   D(9,4,5,11)             0.0            calculate D2E/DX2 analytically  !
 ! D21   D(4,5,6,1)              0.0            calculate D2E/DX2 analytically  !
 ! D22   D(4,5,6,10)           180.0            calculate D2E/DX2 analytically  !
 ! D23   D(11,5,6,1)           180.0            calculate D2E/DX2 analytically  !
 ! D24   D(11,5,6,10)            0.0            calculate D2E/DX2 analytically  !
 --------------------------------------------------------------------------------
 Trust Radius=3.00D-01 FncErr=1.00D-07 GrdErr=1.00D-07 EigMax=2.50D+02 EigMin=1.00D-04
 Number of steps in this run=      2 maximum allowed number of steps=      2.
 GradGradGradGradGradGradGradGradGradGradGradGradGradGradGradGradGradGrad

                          Input orientation:                          
 ---------------------------------------------------------------------
 Center     Atomic      Atomic             Coordinates (Angstroms)
 Number     Number       Type             X           Y           Z
 ---------------------------------------------------------------------
      1          6           0        2.034776    1.216327    0.000000
      2          6           0        2.739150    0.000000    0.000000
      3          6           0        2.034776   -1.216327    0.000000
      4          6           0        0.640250   -1.217193    0.000000
      5          6           0       -0.047329    0.000000    0.000000
      6          6           0        0.640250    1.217193    0.000000
      7          1           0        2.578409    2.156029    0.000000
      8          1           0        2.578409   -2.156029    0.000000
      9          1           0        0.101116   -2.158541    0.000000
     10          1           0        0.101116    2.158541    0.000000
     11         53           0       -2.189061    0.000000    0.000000
     12          6           0        4.174044    0.000000    0.000000
     13          7           0        5.337955    0.000000    0.000000
 ---------------------------------------------------------------------
                    Distance matrix (angstroms):
                    1          2          3          4          5
     1  C    0.000000
     2  C    1.405558   0.000000
     3  C    2.432654   1.405558   0.000000
     4  C    2.804768   2.426302   1.394526   0.000000
     5  C    2.411351   2.786479   2.411351   1.397971   0.000000
     6  C    1.394526   2.426302   2.804768   2.434386   1.397971
     7  H    1.085623   2.162013   3.415893   3.890384   3.397493
     8  H    3.415893   2.162013   1.085623   2.153572   3.397493
     9  H    3.889573   3.408595   2.151002   1.084805   2.163639
    10  H    2.151002   3.408595   3.889573   3.418515   2.163639
    11  I    4.395481   4.928211   4.395481   3.080026   2.141732
    12  C    2.460878   1.434894   2.460878   3.737547   4.221373
    13  N    3.520006   2.598805   3.520006   4.852833   5.385284
                    6          7          8          9         10
     6  C    0.000000
     7  H    2.153572   0.000000
     8  H    3.890384   4.312058   0.000000
     9  H    3.418515   4.975188   2.477294   0.000000
    10  H    1.084805   2.477294   4.975188   4.317082   0.000000
    11  I    3.080026   5.232326   5.232326   3.147095   3.147095
    12  C    3.737547   2.682259   2.682259   4.609560   4.609560
    13  N    4.852833   3.501936   3.501936   5.664255   5.664255
                   11         12         13
    11  I    0.000000
    12  C    6.363105   0.000000
    13  N    7.527016   1.163911   0.000000
 Stoichiometry    C7H4IN
 Framework group  C2V[C2(NCCCI),SGV(C4H4)]
 Deg. of freedom    12
 Full point group                 C2V     NOp   4
 Largest Abelian subgroup         C2V     NOp   4
 Largest concise Abelian subgroup C2      NOp   2
                         Standard orientation:                         
 ---------------------------------------------------------------------
 Center     Atomic      Atomic             Coordinates (Angstroms)
 Number     Number       Type             X           Y           Z
 ---------------------------------------------------------------------
      1          6           0        0.000000    1.216327   -2.034776
      2          6           0        0.000000    0.000000   -2.739150
      3          6           0        0.000000   -1.216327   -2.034776
      4          6           0        0.000000   -1.217193   -0.640250
      5          6           0        0.000000    0.000000    0.047329
      6          6           0        0.000000    1.217193   -0.640250
      7          1           0        0.000000    2.156029   -2.578409
      8          1           0        0.000000   -2.156029   -2.578409
      9          1           0        0.000000   -2.158541   -0.101116
     10          1           0        0.000000    2.158541   -0.101116
     11         53           0        0.000000    0.000000    2.189061
     12          6           0        0.000000    0.000000   -4.174044
     13          7           0        0.000000    0.000000   -5.337955
 ---------------------------------------------------------------------
 Rotational constants (GHZ):           5.6262352           0.3565332           0.3352861
 Basis read from chk: "ARyLHALIDE-cn-SOL-disp-g16-gas-gen-volume.chk" (5D, 7F)
 Pseudo-potential data read from chk file.
 There are    77 symmetry adapted cartesian basis functions of A1  symmetry.
 There are    14 symmetry adapted cartesian basis functions of A2  symmetry.
 There are    29 symmetry adapted cartesian basis functions of B1  symmetry.
 There are    51 symmetry adapted cartesian basis functions of B2  symmetry.
 There are    71 symmetry adapted basis functions of A1  symmetry.
 There are    14 symmetry adapted basis functions of A2  symmetry.
 There are    29 symmetry adapted basis functions of B1  symmetry.
 There are    49 symmetry adapted basis functions of B2  symmetry.
   163 basis functions,   291 primitive gaussians,   171 cartesian basis functions
    30 alpha electrons       30 beta electrons
       nuclear repulsion energy       338.6760630426 Hartrees.
 NAtoms=   13 NActive=   13 NUniq=    9 SFac= 2.09D+00 NAtFMM=   60 NAOKFM=F Big=F
 Integral buffers will be    131072 words long.
 Raffenetti 2 integral format.
 Two-electron integral symmetry is turned on.
 Nuclear repulsion after empirical dispersion term =      338.6662521177 Hartrees.
 One-electron integrals computed using PRISM.
   4 Symmetry operations used in ECPInt.
 ECPInt:  NShTT=    1431 NPrTT=    7543 LenC2=    1417 LenP2D=    5548.
 LDataN:  DoStor=T MaxTD1= 6 Len=  172
 NBasis=   163 RedAO= T EigKep=  4.11D-06  NBF=    71    14    29    49
 NBsUse=   163 1.00D-06 EigRej= -1.00D+00 NBFU=    71    14    29    49
 Defaulting to unpruned grid for atomic number  53.
 Initial guess from the checkpoint file:  "ARyLHALIDE-cn-SOL-disp-g16-gas-gen-volume.chk"
 B after Tr=     0.000000    0.000000    0.000000
         Rot=    1.000000    0.000000    0.000000    0.000000 Ang=   0.00 deg.
 Initial guess orbital symmetries:
       Occupied  (A1) (A1) (A1) (A1) (B2) (A1) (B2) (A1) (A1) (A1)
                 (A1) (B2) (A1) (B2) (A1) (A1) (B2) (A1) (A1) (B2)
                 (B1) (B2) (A1) (B1) (A1) (B2) (B1) (A2) (B2) (B1)
       Virtual   (B1) (A1) (A2) (A1) (B2) (B2) (A1) (B1) (A1) (B2)
                 (A1) (B1) (B1) (B2) (A1) (A2) (A1) (A1) (B1) (B2)
                 (A2) (B1) (B2) (B1) (A1) (B2) (A1) (A1) (B1) (B2)
                 (B1) (A1) (A1) (A1) (B2) (A1) (B2) (B2) (B1) (B2)
                 (A1) (A1) (B2) (A1) (B2) (A1) (B2) (A1) (A1) (B2)
                 (B2) (A1) (B2) (A1) (A1) (B1) (B1) (A2) (B2) (A1)
                 (B1) (A2) (A1) (B1) (B2) (A1) (B1) (A1) (B1) (B2)
                 (B2) (A1) (B2) (A1) (B2) (A1) (B1) (B2) (A1) (B2)
                 (A1) (B2) (A1) (A1) (A2) (B2) (A1) (B2) (B1) (A1)
                 (B1) (A2) (B2) (B1) (A2) (A1) (A2) (A1) (A1) (B2)
                 (A1) (B1) (B2) (A1) (A2) (B2) (A1) (A1) (B2) (A1)
                 (B1) (A2) (A1) (B2) (A1) (B1) (A2) (B1) (A1) (B2)
                 (B2) (A2) (A1) (B2) (A1) (B1) (A1) (B2) (A1) (B2)
                 (A1) (A1) (A1)
 Requested convergence on RMS density matrix=1.00D-08 within1000 cycles.
 Requested convergence on MAX density matrix=1.00D-06.
 Requested convergence on             energy=1.00D-06.
 No special actions if energy rises.
 Defaulting to unpruned grid for atomic number  53.
 Defaulting to unpruned grid for atomic number  53.
 Defaulting to unpruned grid for atomic number  53.
 Defaulting to unpruned grid for atomic number  53.
 Defaulting to unpruned grid for atomic number  53.
 Defaulting to unpruned grid for atomic number  53.
 Defaulting to unpruned grid for atomic number  53.
 Defaulting to unpruned grid for atomic number  53.
 Defaulting to unpruned grid for atomic number  53.
 Defaulting to unpruned grid for atomic number  53.
 Defaulting to unpruned grid for atomic number  53.
 Defaulting to unpruned grid for atomic number  53.
 Defaulting to unpruned grid for atomic number  53.
 Defaulting to unpruned grid for atomic number  53.
 Defaulting to unpruned grid for atomic number  53.
 Defaulting to unpruned grid for atomic number  53.
 Defaulting to unpruned grid for atomic number  53.
 Defaulting to unpruned grid for atomic number  53.
 Defaulting to unpruned grid for atomic number  53.
 Defaulting to unpruned grid for atomic number  53.
 Defaulting to unpruned grid for atomic number  53.
 Defaulting to unpruned grid for atomic number  53.
 Defaulting to unpruned grid for atomic number  53.
 Defaulting to unpruned grid for atomic number  53.
 Defaulting to unpruned grid for atomic number  53.
 Defaulting to unpruned grid for atomic number  53.
 Defaulting to unpruned grid for atomic number  53.
 Defaulting to unpruned grid for atomic number  53.
 Defaulting to unpruned grid for atomic number  53.
 Defaulting to unpruned grid for atomic number  53.
 Defaulting to unpruned grid for atomic number  53.
 Defaulting to unpruned grid for atomic number  53.
 SCF Done:  E(RB3LYP) =  -335.315027415     A.U. after    1 cycles
            NFock=  1  Conv=0.28D-08     -V/T= 2.0316
 DoSCS=F DFT=T ScalE2(SS,OS)=  1.000000  1.000000
 Range of M.O.s used for correlation:     1   163
 NBasis=   163 NAE=    30 NBE=    30 NFC=     0 NFV=     0
 NROrb=    163 NOA=    30 NOB=    30 NVA=   133 NVB=   133

 **** Warning!!: The largest alpha MO coefficient is  0.15822677D+03

   4 Symmetry operations used in ECPInt.
 ECPInt:  NShTT=    1431 NPrTT=    7543 LenC2=    1417 LenP2D=    5548.
 LDataN:  DoStor=T MaxTD1= 7 Len=  274
 Symmetrizing basis deriv contribution to polar:
 IMax=3 JMax=2 DiffMx= 0.00D+00
 G2DrvN: will do    14 centers at a time, making    1 passes.
 Calling FoFCou, ICntrl=  3107 FMM=F I1Cent=   0 AccDes= 0.00D+00.
 Defaulting to unpruned grid for atomic number  53.
 Defaulting to unpruned grid for atomic number  53.
 Defaulting to unpruned grid for atomic number  53.
 Defaulting to unpruned grid for atomic number  53.
 Defaulting to unpruned grid for atomic number  53.
 Defaulting to unpruned grid for atomic number  53.
 Defaulting to unpruned grid for atomic number  53.
 Defaulting to unpruned grid for atomic number  53.
 Defaulting to unpruned grid for atomic number  53.
 Defaulting to unpruned grid for atomic number  53.
 Defaulting to unpruned grid for atomic number  53.
 Defaulting to unpruned grid for atomic number  53.
 Defaulting to unpruned grid for atomic number  53.
 Defaulting to unpruned grid for atomic number  53.
 Defaulting to unpruned grid for atomic number  53.
 Defaulting to unpruned grid for atomic number  53.
 Defaulting to unpruned grid for atomic number  53.
 Defaulting to unpruned grid for atomic number  53.
 Defaulting to unpruned grid for atomic number  53.
 Defaulting to unpruned grid for atomic number  53.
 Defaulting to unpruned grid for atomic number  53.
 Defaulting to unpruned grid for atomic number  53.
 Defaulting to unpruned grid for atomic number  53.
 Defaulting to unpruned grid for atomic number  53.
 Defaulting to unpruned grid for atomic number  53.
 Defaulting to unpruned grid for atomic number  53.
 Defaulting to unpruned grid for atomic number  53.
 Defaulting to unpruned grid for atomic number  53.
 Defaulting to unpruned grid for atomic number  53.
 Defaulting to unpruned grid for atomic number  53.
 Defaulting to unpruned grid for atomic number  53.
 Defaulting to unpruned grid for atomic number  53.
 End of G2Drv F.D. properties file   721 does not exist.
 End of G2Drv F.D. properties file   722 does not exist.
 End of G2Drv F.D. properties file   788 does not exist.
          IDoAtm=1111111111111
          Differentiating once with respect to electric field.
                with respect to dipole field.
          Differentiating once with respect to nuclear coordinates.
 Defaulting to unpruned grid for atomic number  53.
 Keep R1 ints in memory in symmetry-blocked form, NReq=121175893.
 Defaulting to unpruned grid for atomic number  53.
 Defaulting to unpruned grid for atomic number  53.
 Defaulting to unpruned grid for atomic number  53.
 Defaulting to unpruned grid for atomic number  53.
 Defaulting to unpruned grid for atomic number  53.
 Defaulting to unpruned grid for atomic number  53.
 Defaulting to unpruned grid for atomic number  53.
 Defaulting to unpruned grid for atomic number  53.
 Defaulting to unpruned grid for atomic number  53.
 Defaulting to unpruned grid for atomic number  53.
 Defaulting to unpruned grid for atomic number  53.
 Defaulting to unpruned grid for atomic number  53.
 Defaulting to unpruned grid for atomic number  53.
 Defaulting to unpruned grid for atomic number  53.
 Defaulting to unpruned grid for atomic number  53.
 Defaulting to unpruned grid for atomic number  53.
 Defaulting to unpruned grid for atomic number  53.
 Defaulting to unpruned grid for atomic number  53.
 Defaulting to unpruned grid for atomic number  53.
 Defaulting to unpruned grid for atomic number  53.
 Defaulting to unpruned grid for atomic number  53.
 Defaulting to unpruned grid for atomic number  53.
 Defaulting to unpruned grid for atomic number  53.
 Defaulting to unpruned grid for atomic number  53.
 Defaulting to unpruned grid for atomic number  53.
 Defaulting to unpruned grid for atomic number  53.
 Defaulting to unpruned grid for atomic number  53.
 Defaulting to unpruned grid for atomic number  53.
 Defaulting to unpruned grid for atomic number  53.
 Defaulting to unpruned grid for atomic number  53.
 Defaulting to unpruned grid for atomic number  53.
 Defaulting to unpruned grid for atomic number  53.
          There are    30 degrees of freedom in the 1st order CPHF.  IDoFFX=4 NUNeed=    30.
     30 vectors produced by pass  0 Test12= 1.33D-14 3.33D-09 XBig12= 2.57D+02 1.09D+01.
 AX will form    30 AO Fock derivatives at one time.
     30 vectors produced by pass  1 Test12= 1.33D-14 3.33D-09 XBig12= 5.73D+01 2.21D+00.
     30 vectors produced by pass  2 Test12= 1.33D-14 3.33D-09 XBig12= 2.01D+00 3.19D-01.
     30 vectors produced by pass  3 Test12= 1.33D-14 3.33D-09 XBig12= 2.57D-02 4.53D-02.
     30 vectors produced by pass  4 Test12= 1.33D-14 3.33D-09 XBig12= 8.65D-05 2.19D-03.
     30 vectors produced by pass  5 Test12= 1.33D-14 3.33D-09 XBig12= 1.76D-07 7.42D-05.
     14 vectors produced by pass  6 Test12= 1.33D-14 3.33D-09 XBig12= 2.53D-10 1.93D-06.
      3 vectors produced by pass  7 Test12= 1.33D-14 3.33D-09 XBig12= 2.37D-13 8.59D-08.
 InvSVY:  IOpt=1 It=  1 EMax= 1.07D-14
 Solved reduced A of dimension   197 with    30 vectors.
 Isotropic polarizability for W=    0.000000      116.34 Bohr**3.
 End of Minotr F.D. properties file   721 does not exist.
 End of Minotr F.D. properties file   722 does not exist.
 End of Minotr F.D. properties file   788 does not exist.

 **********************************************************************

            Population analysis using the SCF Density.

 **********************************************************************

 Orbital symmetries:
       Occupied  (A1) (A1) (A1) (A1) (B2) (A1) (B2) (A1) (A1) (A1)
                 (A1) (B2) (A1) (B2) (A1) (A1) (B2) (A1) (A1) (B2)
                 (B1) (B2) (A1) (B1) (A1) (B2) (B1) (A2) (B2) (B1)
       Virtual   (B1) (A1) (A2) (A1) (B2) (B2) (A1) (B1) (A1) (B2)
                 (A1) (B1) (B1) (B2) (A1) (A2) (A1) (A1) (B1) (B2)
                 (A2) (B1) (B2) (B1) (A1) (B2) (A1) (A1) (B1) (B2)
                 (B1) (A1) (A1) (A1) (B2) (A1) (B2) (B2) (B1) (B2)
                 (A1) (A1) (B2) (A1) (B2) (A1) (B2) (A1) (A1) (B2)
                 (B2) (A1) (B2) (A1) (A1) (B1) (B1) (A2) (B2) (A1)
                 (B1) (A2) (A1) (B1) (B2) (A1) (B1) (A1) (B1) (B2)
                 (B2) (A1) (B2) (A1) (B2) (A1) (B1) (B2) (A1) (B2)
                 (A1) (B2) (A1) (A1) (A2) (B2) (A1) (B2) (B1) (A1)
                 (B1) (A2) (B2) (B1) (A2) (A1) (A2) (A1) (A1) (B2)
                 (A1) (B1) (B2) (A1) (A2) (B2) (A1) (A1) (B2) (A1)
                 (B1) (A2) (A1) (B2) (A1) (B1) (A2) (B1) (A1) (B2)
                 (B2) (A2) (A1) (B2) (A1) (B1) (A1) (B2) (A1) (B2)
                 (A1) (A1) (A1)
 The electronic state is 1-A1.
 Alpha  occ. eigenvalues --  -14.35646 -10.27421 -10.25860 -10.24509 -10.23804
 Alpha  occ. eigenvalues --  -10.23804 -10.23455 -10.23455  -0.92719  -0.90240
 Alpha  occ. eigenvalues --   -0.81546  -0.79513  -0.72450  -0.65609  -0.65061
 Alpha  occ. eigenvalues --   -0.58740  -0.50691  -0.49937  -0.47384  -0.46885
 Alpha  occ. eigenvalues --   -0.42815  -0.39998  -0.38271  -0.37442  -0.37006
 Alpha  occ. eigenvalues --   -0.34957  -0.31280  -0.29854  -0.28886  -0.26511
 Alpha virt. eigenvalues --   -0.07623  -0.06347  -0.05273  -0.00548   0.01133
 Alpha virt. eigenvalues --    0.01251   0.01307   0.02804   0.03624   0.04046
 Alpha virt. eigenvalues --    0.04365   0.05012   0.05807   0.06495   0.07205
 Alpha virt. eigenvalues --    0.07491   0.08939   0.09618   0.09693   0.09865
 Alpha virt. eigenvalues --    0.12259   0.12588   0.13320   0.13950   0.14362
 Alpha virt. eigenvalues --    0.15031   0.15317   0.16114   0.16631   0.18639
 Alpha virt. eigenvalues --    0.18872   0.19710   0.21170   0.21322   0.21947
 Alpha virt. eigenvalues --    0.23331   0.23840   0.24371   0.25139   0.25704
 Alpha virt. eigenvalues --    0.25823   0.27238   0.28149   0.29132   0.29732
 Alpha virt. eigenvalues --    0.30021   0.31643   0.32295   0.34158   0.35757
 Alpha virt. eigenvalues --    0.51427   0.52752   0.60507   0.61689   0.63130
 Alpha virt. eigenvalues --    0.64500   0.67273   0.68204   0.69730   0.69976
 Alpha virt. eigenvalues --    0.70711   0.71027   0.72971   0.74207   0.74576
 Alpha virt. eigenvalues --    0.77822   0.78394   0.80876   0.83012   0.84130
 Alpha virt. eigenvalues --    0.86906   0.88809   0.91142   0.92656   0.96700
 Alpha virt. eigenvalues --    0.98925   1.00195   1.03830   1.04914   1.05494
 Alpha virt. eigenvalues --    1.09648   1.11690   1.15871   1.17882   1.19799
 Alpha virt. eigenvalues --    1.21084   1.27263   1.28237   1.30843   1.32480
 Alpha virt. eigenvalues --    1.39216   1.41305   1.41556   1.44777   1.45819
 Alpha virt. eigenvalues --    1.46183   1.51929   1.54337   1.61669   1.73919
 Alpha virt. eigenvalues --    1.75816   1.78430   1.79891   1.88843   1.93566
 Alpha virt. eigenvalues --    1.95272   1.96187   2.00283   2.04747   2.06552
 Alpha virt. eigenvalues --    2.09723   2.11086   2.12397   2.14638   2.18097
 Alpha virt. eigenvalues --    2.24655   2.25847   2.26631   2.47776   2.47952
 Alpha virt. eigenvalues --    2.59381   2.59732   2.60364   2.70041   2.70571
 Alpha virt. eigenvalues --    2.78870   2.78957   2.85287   3.06409   3.13717
 Alpha virt. eigenvalues --    3.23886   3.44162  15.04249
          Condensed to atoms (all electrons):
               1          2          3          4          5          6
     1  C    8.258438  -0.080201  -1.716270  -0.283269  -0.385049   0.038184
     2  C   -0.080201   7.596273  -0.080201   0.068280  -0.749553   0.068280
     3  C   -1.716270  -0.080201   8.258438   0.038184  -0.385049  -0.283269
     4  C   -0.283269   0.068280   0.038184   6.645157   0.256695  -0.725291
     5  C   -0.385049  -0.749553  -0.385049   0.256695   6.921812   0.256695
     6  C    0.038184   0.068280  -0.283269  -0.725291   0.256695   6.645157
     7  H    0.242717   0.064052   0.066151  -0.018785   0.015578  -0.049750
     8  H    0.066151   0.064052   0.242717  -0.049750   0.015578  -0.018785
     9  H   -0.025934  -0.002745  -0.027184   0.278124   0.031188   0.056760
    10  H   -0.027184  -0.002745  -0.025934   0.056760   0.031188   0.278124
    11  I    0.168992   0.030090   0.168992   0.186488  -0.695867   0.186488
    12  C    0.109731  -1.608927   0.109731  -0.107387  -0.002967  -0.107387
    13  N   -0.033413   0.155969  -0.033413   0.000054   0.001368   0.000054
               7          8          9         10         11         12
[...]
    A7        2.09633   0.00001   0.00000   0.00004   0.00004   2.09636
    A8        2.09221  -0.00003   0.00000  -0.00024  -0.00024   2.09197
    A9        2.09465   0.00003   0.00000   0.00020   0.00020   2.09485
   A10        2.08438  -0.00005   0.00000  -0.00025  -0.00025   2.08413
   A11        2.09154   0.00000   0.00000  -0.00003  -0.00003   2.09151
   A12        2.10727   0.00005   0.00000   0.00028   0.00028   2.10754
   A13        2.11319   0.00005   0.00000   0.00032   0.00032   2.11351
   A14        2.08500  -0.00002   0.00000  -0.00016  -0.00016   2.08484
   A15        2.08500  -0.00002   0.00000  -0.00016  -0.00016   2.08484
   A16        2.08438  -0.00005   0.00000  -0.00025  -0.00025   2.08413
   A17        2.09154   0.00000   0.00000  -0.00003  -0.00003   2.09151
   A18        2.10727   0.00005   0.00000   0.00028   0.00028   2.10754
   A19        3.14159   0.00000   0.00000   0.00000   0.00000   3.14159
   A20        3.14159   0.00000   0.00000   0.00000   0.00000   3.14159
    D1        0.00000   0.00000   0.00000   0.00000   0.00000   0.00000
    D2        3.14159   0.00000   0.00000   0.00000   0.00000   3.14159
    D3        3.14159   0.00000   0.00000   0.00000   0.00000   3.14159
    D4        0.00000   0.00000   0.00000   0.00000   0.00000   0.00000
    D5        0.00000   0.00000   0.00000   0.00000   0.00000   0.00000
    D6        3.14159   0.00000   0.00000   0.00000   0.00000   3.14159
    D7        3.14159   0.00000   0.00000   0.00000   0.00000   3.14159
    D8        0.00000   0.00000   0.00000   0.00000   0.00000   0.00000
    D9        0.00000   0.00000   0.00000   0.00000   0.00000   0.00000
   D10        3.14159   0.00000   0.00000   0.00000   0.00000   3.14159
   D11        3.14159   0.00000   0.00000   0.00000   0.00000   3.14159
   D12        0.00000   0.00000   0.00000   0.00000   0.00000   0.00000
   D13        0.00000   0.00000   0.00000   0.00000   0.00000   0.00000
   D14        3.14159   0.00000   0.00000   0.00000   0.00000   3.14159
   D15        3.14159   0.00000   0.00000   0.00000   0.00000   3.14159
   D16        0.00000   0.00000   0.00000   0.00000   0.00000   0.00000
   D17        0.00000   0.00000   0.00000   0.00000   0.00000   0.00000
   D18        3.14159   0.00000   0.00000   0.00000   0.00000   3.14159
   D19        3.14159   0.00000   0.00000   0.00000   0.00000   3.14159
   D20        0.00000   0.00000   0.00000   0.00000   0.00000   0.00000
   D21        0.00000   0.00000   0.00000   0.00000   0.00000   0.00000
   D22        3.14159   0.00000   0.00000   0.00000   0.00000   3.14159
   D23        3.14159   0.00000   0.00000   0.00000   0.00000   3.14159
   D24        0.00000   0.00000   0.00000   0.00000   0.00000   0.00000
         Item               Value     Threshold  Converged?
 Maximum Force            0.000294     0.000450     YES
 RMS     Force            0.000055     0.000300     YES
 Maximum Displacement     0.000954     0.001800     YES
 RMS     Displacement     0.000218     0.001200     YES
 Predicted change in Energy=-1.641491D-07
 Optimization completed.
    -- Stationary point found.
                           ----------------------------
                           !   Optimized Parameters   !
                           ! (Angstroms and Degrees)  !
 --------------------------                            --------------------------
 ! Name  Definition              Value          Derivative Info.                !
 --------------------------------------------------------------------------------
 ! R1    R(1,2)                  1.4056         -DE/DX =   -0.0001              !
 ! R2    R(1,6)                  1.3945         -DE/DX =    0.0                 !
 ! R3    R(1,7)                  1.0856         -DE/DX =    0.0                 !
 ! R4    R(2,3)                  1.4056         -DE/DX =   -0.0001              !
 ! R5    R(2,12)                 1.4349         -DE/DX =   -0.0002              !
 ! R6    R(3,4)                  1.3945         -DE/DX =    0.0                 !
 ! R7    R(3,8)                  1.0856         -DE/DX =    0.0                 !
 ! R8    R(4,5)                  1.398          -DE/DX =    0.0                 !
 ! R9    R(4,9)                  1.0848         -DE/DX =   -0.0001              !
 ! R10   R(5,6)                  1.398          -DE/DX =    0.0                 !
 ! R11   R(5,11)                 2.1417         -DE/DX =    0.0                 !
 ! R12   R(6,10)                 1.0848         -DE/DX =   -0.0001              !
 ! R13   R(12,13)                1.1639         -DE/DX =   -0.0003              !
 ! A1    A(2,1,6)              120.1107         -DE/DX =    0.0                 !
 ! A2    A(2,1,7)              119.8748         -DE/DX =    0.0                 !
 ! A3    A(6,1,7)              120.0145         -DE/DX =    0.0                 !
 ! A4    A(1,2,3)              119.8498         -DE/DX =    0.0                 !
 ! A5    A(1,2,12)             120.0751         -DE/DX =    0.0                 !
 ! A6    A(3,2,12)             120.0751         -DE/DX =    0.0                 !
 ! A7    A(2,3,4)              120.1107         -DE/DX =    0.0                 !
 ! A8    A(2,3,8)              119.8748         -DE/DX =    0.0                 !
 ! A9    A(4,3,8)              120.0145         -DE/DX =    0.0                 !
 ! A10   A(3,4,5)              119.426          -DE/DX =    0.0                 !
 ! A11   A(3,4,9)              119.8364         -DE/DX =    0.0                 !
 ! A12   A(5,4,9)              120.7375         -DE/DX =    0.0                 !
 ! A13   A(4,5,6)              121.0767         -DE/DX =    0.0                 !
 ! A14   A(4,5,11)             119.4616         -DE/DX =    0.0                 !
 ! A15   A(6,5,11)             119.4616         -DE/DX =    0.0                 !
 ! A16   A(1,6,5)              119.426          -DE/DX =    0.0                 !
 ! A17   A(1,6,10)             119.8364         -DE/DX =    0.0                 !
 ! A18   A(5,6,10)             120.7375         -DE/DX =    0.0                 !
 ! A19   L(2,12,13,7,-1)       180.0            -DE/DX =    0.0                 !
 ! A20   L(2,12,13,7,-2)       180.0            -DE/DX =    0.0                 !
 ! D1    D(6,1,2,3)              0.0            -DE/DX =    0.0                 !
 ! D2    D(6,1,2,12)           180.0            -DE/DX =    0.0                 !
 ! D3    D(7,1,2,3)            180.0            -DE/DX =    0.0                 !
 ! D4    D(7,1,2,12)             0.0            -DE/DX =    0.0                 !
 ! D5    D(2,1,6,5)              0.0            -DE/DX =    0.0                 !
 ! D6    D(2,1,6,10)           180.0            -DE/DX =    0.0                 !
 ! D7    D(7,1,6,5)            180.0            -DE/DX =    0.0                 !
 ! D8    D(7,1,6,10)             0.0            -DE/DX =    0.0                 !
 ! D9    D(1,2,3,4)              0.0            -DE/DX =    0.0                 !
 ! D10   D(1,2,3,8)            180.0            -DE/DX =    0.0                 !
 ! D11   D(12,2,3,4)           180.0            -DE/DX =    0.0                 !
 ! D12   D(12,2,3,8)             0.0            -DE/DX =    0.0                 !
 ! D13   D(2,3,4,5)              0.0            -DE/DX =    0.0                 !
 ! D14   D(2,3,4,9)            180.0            -DE/DX =    0.0                 !
 ! D15   D(8,3,4,5)            180.0            -DE/DX =    0.0                 !
 ! D16   D(8,3,4,9)              0.0            -DE/DX =    0.0                 !
 ! D17   D(3,4,5,6)              0.0            -DE/DX =    0.0                 !
 ! D18   D(3,4,5,11)           180.0            -DE/DX =    0.0                 !
 ! D19   D(9,4,5,6)            180.0            -DE/DX =    0.0                 !
 ! D20   D(9,4,5,11)             0.0            -DE/DX =    0.0                 !
 ! D21   D(4,5,6,1)              0.0            -DE/DX =    0.0                 !
 ! D22   D(4,5,6,10)           180.0            -DE/DX =    0.0                 !
 ! D23   D(11,5,6,1)           180.0            -DE/DX =    0.0                 !
 ! D24   D(11,5,6,10)            0.0            -DE/DX =    0.0                 !
 --------------------------------------------------------------------------------
 GradGradGradGradGradGradGradGradGradGradGradGradGradGradGradGradGradGrad


 ----------------------------------------------------------------------

 Electric dipole moment (input orientation):
 (Debye = 10**-18 statcoulomb cm , SI units = C m)
                  (au)            (Debye)         (10**-30 SI)
   Tot        0.130439D+01      0.331544D+01      0.110591D+02
   x         -0.130439D+01     -0.331544D+01     -0.110591D+02
   y          0.000000D+00      0.000000D+00      0.000000D+00
   z          0.000000D+00      0.000000D+00      0.000000D+00

 Dipole polarizability, Alpha (input orientation).
 (esu units = cm**3 , SI units = C**2 m**2 J**-1)
 Alpha(0;0):
               (au)            (10**-24 esu)      (10**-40 SI)
   iso        0.116337D+03      0.172393D+02      0.191813D+02
   aniso      0.118781D+03      0.176015D+02      0.195843D+02
   xx         0.192887D+03      0.285830D+02      0.318028D+02
   yx         0.000000D+00      0.000000D+00      0.000000D+00
   yy         0.956095D+02      0.141679D+02      0.157639D+02
   zx         0.000000D+00      0.000000D+00      0.000000D+00
   zy         0.000000D+00      0.000000D+00      0.000000D+00
   zz         0.605133D+02      0.896715D+01      0.997730D+01

 ----------------------------------------------------------------------

 Dipole orientation:
     6          0.00000000          2.29852491         -3.84516936
     6          0.00000000          0.00000000         -5.17624331
     6          0.00000000         -2.29852491         -3.84516936
     6          0.00000000         -2.30016141         -1.20989715
     6          0.00000000          0.00000000          0.08943885
     6          0.00000000          2.30016141         -1.20989715
     1          0.00000000          4.07430433         -4.87248685
     1          0.00000000         -4.07430433         -4.87248685
     1          0.00000000         -4.07905132         -0.19108155
     1          0.00000000          4.07905132         -0.19108155
    53          0.00000000          0.00000000          4.13672576
     6          0.00000000          0.00000000         -7.88779999
     7          0.00000000          0.00000000        -10.08727302

 Electric dipole moment (dipole orientation):
 (Debye = 10**-18 statcoulomb cm , SI units = C m)
                  (au)            (Debye)         (10**-30 SI)
   Tot        0.130439D+01      0.331544D+01      0.110591D+02
   x          0.000000D+00      0.000000D+00      0.000000D+00
   y          0.000000D+00      0.000000D+00      0.000000D+00
   z          0.130439D+01      0.331544D+01      0.110591D+02

 Dipole polarizability, Alpha (dipole orientation).
 (esu units = cm**3 , SI units = C**2 m**2 J**-1)
 Alpha(0;0):
               (au)            (10**-24 esu)      (10**-40 SI)
   iso        0.116337D+03      0.172393D+02      0.191813D+02
   aniso      0.118781D+03      0.176015D+02      0.195843D+02
   xx         0.605133D+02      0.896715D+01      0.997730D+01
   yx         0.000000D+00      0.000000D+00      0.000000D+00
   yy         0.956095D+02      0.141679D+02      0.157639D+02
   zx         0.000000D+00      0.000000D+00      0.000000D+00
   zy         0.000000D+00      0.000000D+00      0.000000D+00
   zz         0.192887D+03      0.285830D+02      0.318028D+02

 ----------------------------------------------------------------------
 1\1\GINC-IP-172-31-4-202\Freq\RB3LYP\Gen\C7H4I1N1\UBUNTU\18-Sep-2023\0
 \\#N Geom=AllCheck Guess=TCheck SCRF=Check GenChk RB3LYP/ChkBas Freq\\
 Title Card Required\\0,1\C,2.034776,1.216327,0.\C,2.73915,0.,0.\C,2.03
 4776,-1.216327,0.\C,0.64025,-1.217193,0.\C,-0.047329,0.,0.\C,0.64025,1
 .217193,0.\H,2.578409,2.156029,0.\H,2.578409,-2.156029,0.\H,0.101116,-
 2.158541,0.\H,0.101116,2.158541,0.\I,-2.189061,0.,0.\C,4.174044,0.,0.\
 N,5.337955,0.,0.\\Version=EM64L-G16RevB.01\State=1-A1\HF=-335.3150274\
 RMSD=2.763e-09\RMSF=6.811e-05\ZeroPoint=0.0886466\Thermal=0.0963569\Di
 pole=-1.3043932,0.,0.\DipoleDeriv=0.1311077,0.1136754,0.,-0.1894585,0.
 0416507,0.,0.,0.,-0.0540286,-0.1285959,0.,0.,0.,0.111436,0.,0.,0.,0.02
 5144,0.1311077,-0.1136754,0.,0.1894585,0.0416506,0.,0.,0.,-0.0540286,-
 0.5286832,0.2002261,0.,0.0418189,-0.0018868,0.,0.,0.,-0.0999452,1.3010
 389,0.,0.,0.,0.0537336,0.,0.,0.,-0.0696431,-0.5286831,-0.2002261,0.,-0
 .041819,-0.0018868,0.,0.,0.,-0.0999452,0.0092858,-0.0553025,0.,-0.0406
 991,0.0012579,0.,0.,0.,0.137957,0.0092858,0.0553025,0.,0.0406991,0.001
 2579,0.,0.,0.,0.137957,0.0468018,-0.0548579,0.,-0.043029,0.0122207,0.,
 0.,0.,0.1300706,0.0468018,0.0548579,0.,0.043029,0.0122207,0.,0.,0.,0.1
 300706,-0.5050737,0.,0.,0.,-0.0136124,0.,0.,0.,0.0032561,0.5840335,0.,
 0.,0.,0.0289103,0.,0.,0.,0.1266502,-0.5684271,0.,0.,0.,-0.2869526,0.,0
 .,0.,-0.3135145\Polar=192.8873955,0.,95.6095398,0.,0.,60.5133158\Quadr
 upole=-15.4745528,11.7045997,3.7699531,0.,0.,0.\PG=C02V [C2(N1C1C1C1I1
 ),SGV(C4H4)]\NImag=0\\0.69136843,0.04113201,0.71353269,0.,0.,0.1337817
 0,-0.15737147,0.10545781,0.,0.67153587,0.05386887,-0.27419054,0.,0.,0.
 64815965,0.,0.,-0.06258705,0.,0.,0.13762465,0.06112486,-0.02150119,0.,
 -0.15737147,-0.05386887,0.,0.69136843,0.02150119,-0.05688436,0.,-0.105
 45781,-0.27419054,0.,-0.04113201,0.71353269,0.,0.,0.00897357,0.,0.,-0.
 06258705,0.,0.,0.13378170,-0.04801277,0.02843514,0.,-0.03114447,-0.071
 20377,0.,-0.34195828,0.03233571,0.,0.67799374,0.02733562,-0.01703594,0
 .,-0.02503714,0.03200572,0.,-0.03694944,-0.12745342,0.,0.04808899,0.72
 249446,0.,0.,-0.00484260,0.,0.,0.00750276,0.,0.,-0.06147158,0.,0.,0.12
 982666,-0.03001531,-0.02525342,0.,0.00285850,0.,0.,-0.03001531,0.02525
 342,0.,-0.15086731,0.11377711,0.,0.43740229,-0.08136377,0.03186805,0.,
 0.,-0.06838237,0.,0.08136377,0.03186805,0.,0.05708885,-0.28188068,0.,0
 .,0.62860480,0.,0.,0.00852743,0.,0.,-0.00706661,0.,0.,0.00852743,0.,0.
 ,-0.05873757,0.,0.,0.10541717,-0.34195828,-0.03233571,0.,-0.03114447,0
 .07120377,0.,-0.04801277,-0.02843514,0.,0.06131272,-0.02093489,0.,-0.1
 5086731,-0.05708884,0.,0.67799374,0.03694944,-0.12745342,0.,0.02503714
 ,0.03200572,0.,-0.02733562,-0.01703594,0.,0.02093489,-0.05290309,0.,-0
 .11377711,-0.28188068,0.,-0.04808899,0.72249446,0.,0.,-0.06147158,0.,0
 .,0.00750276,0.,0.,-0.00484260,0.,0.,0.00621350,0.,0.,-0.05873757,0.,0
 .,0.12982666,-0.13108460,-0.12499085,0.,0.01122824,0.01597759,0.,-0.00
 157556,0.00307220,0.,-0.00070831,0.00070021,0.,-0.00421297,0.00080509,
 0.,-0.01122430,-0.02799911,0.,0.13611285,-0.12310615,-0.27452416,0.,-0
 .01482396,-0.01803152,0.,0.00413160,-0.00266563,0.,0.00061259,0.000373
 90,0.,0.00050012,0.00135170,0.,0.00267086,0.00476660,0.,0.13125732,0.2
 8857063,0.,0.,-0.03729631,0.,0.,0.00340425,0.,0.,0.00586543,0.,0.,-0.0
 0073360,0.,0.,0.00708121,0.,0.,0.00428156,0.,0.,0.02540671,-0.00157556
 ,-0.00307220,0.,0.01122824,-0.01597758,0.,-0.13108460,0.12499085,0.,-0
 .01122430,0.02799911,0.,-0.00421297,-0.00080509,0.,-0.00070831,-0.0007
 0021,0.,0.00059923,-0.00083292,0.,0.13611285,-0.00413160,-0.00266563,0
 .,0.01482396,-0.01803152,0.,0.12310615,-0.27452416,0.,-0.00267086,0.00
 476660,0.,-0.00050012,0.00135170,0.,-0.00061259,0.00037390,0.,0.000832
 92,-0.00085204,0.,-0.13125732,0.28857063,0.,0.,0.00586543,0.,0.,0.0034
 0425,0.,0.,-0.03729631,0.,0.,0.00428156,0.,0.,0.00708121,0.,0.,-0.0007
 3360,0.,0.,0.00051358,0.,0.,0.02540671,-0.00073757,0.00082552,0.,-0.00
 476266,0.00134597,0.,-0.01145543,-0.02808113,0.,-0.12820721,-0.1265221
 7,0.,0.00979544,0.01636501,0.,-0.00143915,0.00324103,0.,0.00010485,-0.
 00008960,0.,0.00062671,0.00020618,0.,0.13632230,0.00084723,0.00022732,
 0.,0.00109108,0.00162614,0.,0.00203006,0.00476819,0.,-0.12398761,-0.27
 536080,0.,-0.01478911,-0.01923043,0.,0.00388601,-0.00273639,0.,-0.0000
 8532,0.00000836,0.,-0.00017768,0.00079813,0.,0.13125734,0.29052697,0.,
 0.,-0.00074889,0.,0.,0.00706606,0.,0.,0.00397577,0.,0.,-0.03687414,0.,
 0.,0.00162433,0.,0.,0.00595871,0.,0.,-0.00090086,0.,0.,-0.00427112,0.,
 0.,0.02516483,-0.01145543,0.02808113,0.,-0.00476266,-0.00134597,0.,-0.
 00073757,-0.00082552,0.,-0.00143915,-0.00324103,0.,0.00979544,-0.01636
 501,0.,-0.12820721,0.12652217,0.,0.00062671,-0.00020618,0.,0.00010485,
 0.00008960,0.,0.00073940,-0.00077252,0.,0.13632230,-0.00203006,0.00476
 819,0.,-0.00109108,0.00162614,0.,-0.00084723,0.00022732,0.,-0.00388601
 ,-0.00273639,0.,0.01478911,-0.01923043,0.,0.12398761,-0.27536080,0.,0.
 00017768,0.00079813,0.,0.00008532,0.00000836,0.,0.00077252,-0.00080018
 ,0.,-0.13125734,0.29052697,0.,0.,0.00397577,0.,0.,0.00706606,0.,0.,-0.
 00074889,0.,0.,0.00595871,0.,0.,0.00162433,0.,0.,-0.03687414,0.,0.,-0.
 00427112,0.,0.,-0.00090086,0.,0.,0.00028831,0.,0.,0.02516483,0.0034768
 6,-0.00414514,0.,-0.00232242,0.,0.,0.00347686,0.00414514,0.,-0.0291199
 7,-0.00011487,0.,-0.08867858,0.,0.,-0.02911997,0.00011487,0.,-0.000967
 47,0.00038901,0.,-0.00096747,-0.00038901,0.,-0.00023420,0.00056398,0.,
 -0.00023420,-0.00056398,0.,0.14413915,0.00059211,-0.00220516,0.,0.,0.0
 0081271,0.,-0.00059211,-0.00220516,0.,0.01713392,0.00170464,0.,0.,-0.0
 2235010,0.,-0.01713393,0.00170464,0.,-0.00053823,0.00009230,0.,0.00053
 823,0.00009230,0.,0.00184319,0.00001496,0.,-0.00184319,0.00001496,0.,0
 .,0.02211705,0.,0.,0.00341282,0.,0.,-0.00047403,0.,0.,0.00341282,0.,0.
 ,0.00267172,0.,0.,-0.01440350,0.,0.,0.00267172,0.,0.,0.00001723,0.,0.,
 0.00001723,0.,0.,-0.00161475,0.,0.,-0.00161475,0.,0.,0.00648367,-0.039
 28562,0.01624721,0.,-0.28330596,0.,0.,-0.03928562,-0.01624721,0.,0.006
 24969,-0.00566913,0.,-0.00348674,0.,0.,0.00624969,0.00566914,0.,0.0012
 0241,-0.00108583,0.,0.00120241,0.00108583,0.,-0.00046972,0.00007071,0.
 ,-0.00046972,-0.00007071,0.,0.00168994,0.,0.,1.55629301,0.03067106,0.0
 0681282,0.,0.,-0.08296099,0.,-0.03067106,0.00681282,0.,-0.00357572,-0.
 00486868,0.,0.,-0.00286317,0.,0.00357572,-0.00486868,0.,0.00102518,-0.
 00010207,0.,-0.00102518,-0.00010207,0.,-0.00142213,0.00024692,0.,0.001
 42213,0.00024692,0.,0.,0.00022042,0.,0.,0.11534792,0.,0.,0.00073917,0.
 ,0.,-0.05652811,0.,0.,0.00073917,0.,0.,0.00749729,0.,0.,-0.00124231,0.
 ,0.,0.00749729,0.,0.,-0.00376738,0.,0.,-0.00376738,0.,0.,0.00052496,0.
 ,0.,0.00052496,0.,0.,-0.00068314,0.,0.,0.08486782,0.00552646,-0.008880
 30,0.,-0.02466529,0.,0.,0.00552645,0.00888030,0.,-0.00287437,0.0005676
 2,0.,0.00250481,0.,0.,-0.00287437,-0.00056763,0.,-0.00010108,0.0005831
 4,0.,-0.00010108,-0.00058314,0.,-0.00028277,0.00006584,0.,-0.00028277,
 -0.00006584,0.,-0.00113853,0.,0.,-1.20658377,0.,0.,1.22534632,-0.00226
 594,-0.00224984,0.,0.,0.01955141,0.,0.00226594,-0.00224984,0.,0.000693
 87,0.00089368,0.,0.,0.00077356,0.,-0.00069387,0.00089368,0.,-0.0002346
 8,0.00021379,0.,0.00023468,0.00021379,0.,0.00025828,-0.00008918,0.,-0.
 00025828,-0.00008918,0.,0.,-0.00001356,0.,0.,-0.03392215,0.,0.,0.01607
 384,0.,0.,0.00167054,0.,0.,0.01567206,0.,0.,0.00167054,0.,0.,-0.001292
 72,0.,0.,0.00030443,0.,0.,-0.00129272,0.,0.,0.00039931,0.,0.,0.0003993
 1,0.,0.,-0.00019320,0.,0.,-0.00019320,0.,0.,0.00010297,0.,0.,-0.036402
 35,0.,0.,0.01915502\\-0.00000479,0.00010199,0.,-0.00005735,0.,0.,-0.00
 000479,-0.00010199,0.,0.00010654,0.00005345,0.,-0.00012164,0.,0.,0.000
 10654,-0.00005345,0.,-0.00003365,-0.00000344,0.,-0.00003365,0.00000344
 ,0.,-0.00005129,-0.00004623,0.,-0.00005129,0.00004623,0.,-0.00002903,0
 .,0.,-0.00011978,0.,0.,0.00029418,0.,0.\\\@


 There are more things in heaven and earth, Horatio,
 than are dreamt of in your philosophy.
                   -- Hamlet, Act I, Scene 5
 Job cpu time:       0 days  0 hours 11 minutes 38.1 seconds.
 Elapsed time:       0 days  0 hours  0 minutes 21.9 seconds.
 File lengths (MBytes):  RWF=     38 Int=      0 D2E=      0 Chk=      3 Scr=      1
 Normal termination of Gaussian 16 at Mon Sep 18 06:36:06 2023.
