 Entering Gaussian System, Link 0=g16
 Input=/home/ubuntu/Downloads/et3n-vol.gjf
 Output=/home/ubuntu/Downloads/et3n-vol.log
 Initial command:
 /home/ubuntu/g16/l1.exe "/home/ubuntu/Scratch/Gau-45493.inp" -scrdir="/home/ubuntu/Scratch/"
 Entering Link 1 = /home/ubuntu/g16/l1.exe PID=     45497.
  
 Copyright (c) 1988-2017, Gaussian, Inc.  All Rights Reserved.
  
 This is part of the Gaussian(R) 16 program.  It is based on
 the Gaussian(R) 09 system (copyright 2009, Gaussian, Inc.),
 the Gaussian(R) 03 system (copyright 2003, Gaussian, Inc.),
 the Gaussian(R) 98 system (copyright 1998, Gaussian, Inc.),
 the Gaussian(R) 94 system (copyright 1995, Gaussian, Inc.),
 the Gaussian 92(TM) system (copyright 1992, Gaussian, Inc.),
 the Gaussian 90(TM) system (copyright 1990, Gaussian, Inc.),
 the Gaussian 88(TM) system (copyright 1988, Gaussian, Inc.),
 the Gaussian 86(TM) system (copyright 1986, Carnegie Mellon
 University), and the Gaussian 82(TM) system (copyright 1983,
 Carnegie Mellon University). Gaussian is a federally registered
 trademark of Gaussian, Inc.
  
 This software contains proprietary and confidential information,
 including trade secrets, belonging to Gaussian, Inc.
  
 This software is provided under written license and may be
 used, copied, transmitted, or stored only in accord with that
 written license.
  
 The following legend is applicable only to US Government
 contracts under FAR:
  
                    RESTRICTED RIGHTS LEGEND
  
 Use, reproduction and disclosure by the US Government is
 subject to restrictions as set forth in subparagraphs (a)
 and (c) of the Commercial Computer Software - Restricted
 Rights clause in FAR 52.227-19.
  
 Gaussian, Inc.
 340 Quinnipiac St., Bldg. 40, Wallingford CT 06492
  
  
 ---------------------------------------------------------------
 Warning -- This program may not be used in any manner that
 competes with the business of Gaussian, Inc. or will provide
 assistance to any competitor of Gaussian, Inc.  The licensee
 of this program is prohibited from giving any competitor of
 Gaussian, Inc. access to this program.  By using this program,
 the user acknowledges that Gaussian, Inc. is engaged in the
 business of creating and licensing software in the field of
 computational chemistry and represents and warrants to the
 licensee that it is not a competitor of Gaussian, Inc. and that
 it will not use this program in any manner prohibited above.
 ---------------------------------------------------------------
  

 Cite this work as:
 Gaussian 16, Revision B.01,
 M. J. Frisch, G. W. Trucks, H. B. Schlegel, G. E. Scuseria, 
 M. A. Robb, J. R. Cheeseman, G. Scalmani, V. Barone, 
 G. A. Petersson, H. Nakatsuji, X. Li, M. Caricato, A. V. Marenich, 
 J. Bloino, B. G. Janesko, R. Gomperts, B. Mennucci, H. P. Hratchian, 
 J. V. Ortiz, A. F. Izmaylov, J. L. Sonnenberg, D. Williams-Young, 
 F. Ding, F. Lipparini, F. Egidi, J. Goings, B. Peng, A. Petrone, 
 T. Henderson, D. Ranasinghe, V. G. Zakrzewski, J. Gao, N. Rega, 
 G. Zheng, W. Liang, M. Hada, M. Ehara, K. Toyota, R. Fukuda, 
 J. Hasegawa, M. Ishida, T. Nakajima, Y. Honda, O. Kitao, H. Nakai, 
 T. Vreven, K. Throssell, J. A. Montgomery, Jr., J. E. Peralta, 
 F. Ogliaro, M. J. Bearpark, J. J. Heyd, E. N. Brothers, K. N. Kudin, 
 V. N. Staroverov, T. A. Keith, R. Kobayashi, J. Normand, 
 K. Raghavachari, A. P. Rendell, J. C. Burant, S. S. Iyengar, 
 J. Tomasi, M. Cossi, J. M. Millam, M. Klene, C. Adamo, R. Cammi, 
 J. W. Ochterski, R. L. Martin, K. Morokuma, O. Farkas, 
 J. B. Foresman, and D. J. Fox, Gaussian, Inc., Wallingford CT, 2016.
 
 ******************************************
 Gaussian 16:  EM64L-G16RevB.01 20-Dec-2017
                13-Sep-2023 
 ******************************************
 %nprocshared=48
 Will use up to   48 processors via shared memory.
 %mem=62GB
 %chk=et3n-vol.chk
 ----------------------------------------------------------------------
 # opt freq b3lyp/6-31+g(d) empiricaldispersion=gd3 scf=maxcycle=1000 v
 olume
 ----------------------------------------------------------------------
 1/18=20,19=15,26=3,38=1/1,3;
 2/9=110,12=2,17=6,18=5,40=1/2;
 3/5=1,6=6,7=11,11=2,25=1,30=1,71=1,74=-5,124=31/1,2,3;
 4//1;
 5/5=2,7=1000,38=5/2;
 6/7=2,8=2,9=2,10=2,28=1,44=1/1,4;
 7//1,2,3,16;
 1/18=20,19=15,26=3/3(2);
 2/9=110/2;
 99//99;
 2/9=110/2;
 3/5=1,6=6,7=11,11=2,25=1,30=1,71=1,74=-5,124=31/1,2,3;
 4/5=5,16=3,69=1/1;
 5/5=2,7=1000,38=5/2;
 7//1,2,3,16;
 1/18=20,19=15,26=3/3(-5);
 2/9=110/2;
 6/7=2,8=2,9=2,10=2,19=2,28=1,44=1/1,4;
 99/9=1/99;
 -------------------
 Title Card Required
 -------------------
 Symbolic Z-matrix:
 Charge =  0 Multiplicity = 1
 N                     0.        0.       -0.01638 
 C                    -0.33592   1.36446  -0.44443 
 H                    -1.42347   1.47838  -0.39531 
 H                    -0.05703   1.52331  -1.50641 
 C                     0.2995    2.44259   0.4368 
 H                     0.        3.44042   0.09265 
 H                    -0.02254   2.31791   1.47656 
 H                     1.39437   2.40135   0.4165 
 C                     1.34961  -0.39132  -0.44443 
 H                     1.99205   0.49357  -0.39531 
 H                     1.34774  -0.71226  -1.50641 
 C                     1.9656   -1.48067   0.4368 
 H                     2.97949  -1.72021   0.09265 
 H                     2.01864  -1.13943   1.47656 
 H                     1.38245  -2.40823   0.4165 
 C                    -1.0137   -0.97314  -0.44443 
 H                    -1.29071  -0.81105  -1.50641 
 H                    -0.56858  -1.97195  -0.39531 
 C                    -2.2651   -0.96192   0.4368 
 H                    -2.77682   0.00688   0.4165 
 H                    -2.97949  -1.72021   0.09265 
 H                    -1.9961   -1.17848   1.47656 
 

 GradGradGradGradGradGradGradGradGradGradGradGradGradGradGradGradGradGrad
 Berny optimization.
 Initialization pass.
                           ----------------------------
                           !    Initial Parameters    !
                           ! (Angstroms and Degrees)  !
 --------------------------                            --------------------------
 ! Name  Definition              Value          Derivative Info.                !
 --------------------------------------------------------------------------------
 ! R1    R(1,2)                  1.469          estimate D2E/DX2                !
 ! R2    R(1,9)                  1.469          estimate D2E/DX2                !
 ! R3    R(1,16)                 1.469          estimate D2E/DX2                !
 ! R4    R(2,3)                  1.0946         estimate D2E/DX2                !
 ! R5    R(2,4)                  1.1094         estimate D2E/DX2                !
 ! R6    R(2,5)                  1.5306         estimate D2E/DX2                !
 ! R7    R(5,6)                  1.0972         estimate D2E/DX2                !
 ! R8    R(5,7)                  1.0956         estimate D2E/DX2                !
 ! R9    R(5,8)                  1.0958         estimate D2E/DX2                !
 ! R10   R(9,10)                 1.0946         estimate D2E/DX2                !
 ! R11   R(9,11)                 1.1094         estimate D2E/DX2                !
 ! R12   R(9,12)                 1.5306         estimate D2E/DX2                !
 ! R13   R(12,13)                1.0972         estimate D2E/DX2                !
 ! R14   R(12,14)                1.0956         estimate D2E/DX2                !
 ! R15   R(12,15)                1.0958         estimate D2E/DX2                !
 ! R16   R(16,17)                1.1094         estimate D2E/DX2                !
 ! R17   R(16,18)                1.0946         estimate D2E/DX2                !
 ! R18   R(16,19)                1.5306         estimate D2E/DX2                !
 ! R19   R(19,20)                1.0958         estimate D2E/DX2                !
 ! R20   R(19,21)                1.0972         estimate D2E/DX2                !
 ! R21   R(19,22)                1.0956         estimate D2E/DX2                !
 ! A1    A(2,1,9)              111.8776         estimate D2E/DX2                !
 ! A2    A(2,1,16)             111.8776         estimate D2E/DX2                !
 ! A3    A(9,1,16)             111.8776         estimate D2E/DX2                !
 ! A4    A(1,2,3)              108.1077         estimate D2E/DX2                !
 ! A5    A(1,2,4)              110.7602         estimate D2E/DX2                !
 ! A6    A(1,2,5)              113.0525         estimate D2E/DX2                !
 ! A7    A(3,2,4)              106.1297         estimate D2E/DX2                !
 ! A8    A(3,2,5)              108.2594         estimate D2E/DX2                !
 ! A9    A(4,2,5)              110.2377         estimate D2E/DX2                !
 ! A10   A(2,5,6)              110.2847         estimate D2E/DX2                !
 ! A11   A(2,5,7)              110.1337         estimate D2E/DX2                !
 ! A12   A(2,5,8)              112.1855         estimate D2E/DX2                !
 ! A13   A(6,5,7)              108.7198         estimate D2E/DX2                !
 ! A14   A(6,5,8)              107.5265         estimate D2E/DX2                !
 ! A15   A(7,5,8)              107.8774         estimate D2E/DX2                !
 ! A16   A(1,9,10)             108.1076         estimate D2E/DX2                !
 ! A17   A(1,9,11)             110.7601         estimate D2E/DX2                !
 ! A18   A(1,9,12)             113.0524         estimate D2E/DX2                !
 ! A19   A(10,9,11)            106.1297         estimate D2E/DX2                !
 ! A20   A(10,9,12)            108.2594         estimate D2E/DX2                !
 ! A21   A(11,9,12)            110.2377         estimate D2E/DX2                !
 ! A22   A(9,12,13)            110.2847         estimate D2E/DX2                !
 ! A23   A(9,12,14)            110.1338         estimate D2E/DX2                !
 ! A24   A(9,12,15)            112.1855         estimate D2E/DX2                !
 ! A25   A(13,12,14)           108.7198         estimate D2E/DX2                !
 ! A26   A(13,12,15)           107.5265         estimate D2E/DX2                !
 ! A27   A(14,12,15)           107.8774         estimate D2E/DX2                !
 ! A28   A(1,16,17)            110.7601         estimate D2E/DX2                !
 ! A29   A(1,16,18)            108.1076         estimate D2E/DX2                !
 ! A30   A(1,16,19)            113.0524         estimate D2E/DX2                !
 ! A31   A(17,16,18)           106.1297         estimate D2E/DX2                !
 ! A32   A(17,16,19)           110.2377         estimate D2E/DX2                !
 ! A33   A(18,16,19)           108.2594         estimate D2E/DX2                !
 ! A34   A(16,19,20)           112.1855         estimate D2E/DX2                !
 ! A35   A(16,19,21)           110.2847         estimate D2E/DX2                !
 ! A36   A(16,19,22)           110.1338         estimate D2E/DX2                !
 ! A37   A(20,19,21)           107.5265         estimate D2E/DX2                !
 ! A38   A(20,19,22)           107.8774         estimate D2E/DX2                !
 ! A39   A(21,19,22)           108.7197         estimate D2E/DX2                !
 ! D1    D(9,1,2,3)            161.7858         estimate D2E/DX2                !
 ! D2    D(9,1,2,4)             45.9025         estimate D2E/DX2                !
 ! D3    D(9,1,2,5)            -78.3855         estimate D2E/DX2                !
 ! D4    D(16,1,2,3)            35.3484         estimate D2E/DX2                !
 ! D5    D(16,1,2,4)           -80.5348         estimate D2E/DX2                !
 ! D6    D(16,1,2,5)           155.1772         estimate D2E/DX2                !
 ! D7    D(2,1,9,10)            35.3484         estimate D2E/DX2                !
 ! D8    D(2,1,9,11)           -80.5348         estimate D2E/DX2                !
 ! D9    D(2,1,9,12)           155.1772         estimate D2E/DX2                !
 ! D10   D(16,1,9,10)          161.7858         estimate D2E/DX2                !
 ! D11   D(16,1,9,11)           45.9025         estimate D2E/DX2                !
 ! D12   D(16,1,9,12)          -78.3855         estimate D2E/DX2                !
 ! D13   D(2,1,16,17)           45.9025         estimate D2E/DX2                !
 ! D14   D(2,1,16,18)          161.7858         estimate D2E/DX2                !
 ! D15   D(2,1,16,19)          -78.3855         estimate D2E/DX2                !
 ! D16   D(9,1,16,17)          -80.5348         estimate D2E/DX2                !
 ! D17   D(9,1,16,18)           35.3484         estimate D2E/DX2                !
 ! D18   D(9,1,16,19)          155.1772         estimate D2E/DX2                !
 ! D19   D(1,2,5,6)           -178.618          estimate D2E/DX2                !
 ! D20   D(1,2,5,7)            -58.6224         estimate D2E/DX2                !
 ! D21   D(1,2,5,8)             61.5503         estimate D2E/DX2                !
 ! D22   D(3,2,5,6)            -58.8764         estimate D2E/DX2                !
 ! D23   D(3,2,5,7)             61.1193         estimate D2E/DX2                !
 ! D24   D(3,2,5,8)           -178.708          estimate D2E/DX2                !
 ! D25   D(4,2,5,6)             56.809          estimate D2E/DX2                !
 ! D26   D(4,2,5,7)            176.8047         estimate D2E/DX2                !
 ! D27   D(4,2,5,8)            -63.0227         estimate D2E/DX2                !
 ! D28   D(1,9,12,13)         -178.618          estimate D2E/DX2                !
 ! D29   D(1,9,12,14)          -58.6224         estimate D2E/DX2                !
 ! D30   D(1,9,12,15)           61.5503         estimate D2E/DX2                !
 ! D31   D(10,9,12,13)         -58.8764         estimate D2E/DX2                !
 ! D32   D(10,9,12,14)          61.1193         estimate D2E/DX2                !
 ! D33   D(10,9,12,15)        -178.7081         estimate D2E/DX2                !
 ! D34   D(11,9,12,13)          56.809          estimate D2E/DX2                !
 ! D35   D(11,9,12,14)         176.8047         estimate D2E/DX2                !
 ! D36   D(11,9,12,15)         -63.0226         estimate D2E/DX2                !
 ! D37   D(1,16,19,20)          61.5503         estimate D2E/DX2                !
 ! D38   D(1,16,19,21)        -178.618          estimate D2E/DX2                !
 ! D39   D(1,16,19,22)         -58.6225         estimate D2E/DX2                !
 ! D40   D(17,16,19,20)        -63.0226         estimate D2E/DX2                !
 ! D41   D(17,16,19,21)         56.8091         estimate D2E/DX2                !
 ! D42   D(17,16,19,22)        176.8047         estimate D2E/DX2                !
 ! D43   D(18,16,19,20)       -178.708          estimate D2E/DX2                !
 ! D44   D(18,16,19,21)        -58.8764         estimate D2E/DX2                !
 ! D45   D(18,16,19,22)         61.1192         estimate D2E/DX2                !
 --------------------------------------------------------------------------------
 Trust Radius=3.00D-01 FncErr=1.00D-07 GrdErr=1.00D-06 EigMax=2.50D+02 EigMin=1.00D-04
 Number of steps in this run=    115 maximum allowed number of steps=    132.
 GradGradGradGradGradGradGradGradGradGradGradGradGradGradGradGradGradGrad

                          Input orientation:                          
 ---------------------------------------------------------------------
 Center     Atomic      Atomic             Coordinates (Angstroms)
 Number     Number       Type             X           Y           Z
 ---------------------------------------------------------------------
      1          7           0        0.000000    0.000000   -0.016375
      2          6           0       -0.335916    1.364457   -0.444434
      3          1           0       -1.423468    1.478384   -0.395313
      4          1           0       -0.057033    1.523306   -1.506408
      5          6           0        0.299501    2.442592    0.436804
      6          1           0        0.000000    3.440416    0.092649
      7          1           0       -0.022543    2.317912    1.476558
      8          1           0        1.394366    2.401354    0.416504
      9          6           0        1.349613   -0.391317   -0.444434
     10          1           0        1.992053    0.493568   -0.395313
     11          1           0        1.347738   -0.712261   -1.506408
     12          6           0        1.965596   -1.480671    0.436804
     13          1           0        2.979488   -1.720208    0.092649
     14          1           0        2.018642   -1.139434    1.476558
     15          1           0        1.382450   -2.408233    0.416504
     16          6           0       -1.013697   -0.973141   -0.444434
     17          1           0       -1.290705   -0.811045   -1.506408
     18          1           0       -0.568584   -1.971952   -0.395313
     19          6           0       -2.265097   -0.961920    0.436804
     20          1           0       -2.776817    0.006880    0.416504
     21          1           0       -2.979488   -1.720208    0.092649
     22          1           0       -1.996100   -1.178479    1.476558
 ---------------------------------------------------------------------
                    Distance matrix (angstroms):
                    1          2          3          4          5
     1  N    0.000000
     2  C    1.468951   0.000000
     3  H    2.086977   1.094606   0.000000
     4  H    2.131645   1.109413   1.761731   0.000000
     5  C    2.502265   1.530591   2.142601   2.179054   0.000000
     6  H    3.442143   2.170462   2.472638   2.497108   1.097176
     7  H    2.757186   2.167369   2.484210   3.087179   1.095603
     8  H    2.810363   2.193227   3.074266   2.564199   1.095829
     9  C    1.468952   2.433876   3.344873   2.602350   3.148072
    10  H    2.086978   2.486021   3.554665   2.548263   2.712166
    11  H    2.131645   2.876671   3.703112   2.640292   3.850710
    12  C    2.502264   3.764079   4.575389   4.109864   4.262378
    13  H    3.442143   4.560211   5.463984   4.722057   4.962830
    14  H    2.757186   3.937464   4.712217   4.505186   4.106999
    15  H    2.810363   4.234051   4.861894   4.607244   4.970281
    16  C    1.468952   2.433876   2.486021   2.876672   3.764080
    17  H    2.131645   2.602349   2.548263   2.640292   4.109864
    18  H    2.086978   3.344873   3.554665   3.703113   4.575389
    19  C    2.502264   3.148071   2.712165   3.850710   4.262378
    20  H    2.810364   2.922709   2.157759   3.659831   3.923880
    21  H    3.442143   4.097815   3.590306   4.649528   5.310284
    22  H    2.757186   3.593459   3.300111   4.467405   4.411692
                    6          7          8          9         10
     6  H    0.000000
     7  H    1.782057   0.000000
     8  H    1.768838   1.771527   0.000000
     9  C    4.097815   3.593459   2.922709   0.000000
    10  H    3.590306   3.300110   2.157759   1.094607   0.000000
    11  H    4.649528   4.467405   3.659831   1.109413   1.761731
    12  C    5.310283   4.411691   3.923880   1.530591   2.142601
    13  H    5.958975   5.218602   4.427727   2.170461   2.472638
    14  H    5.192797   4.014932   3.748415   2.167369   2.484211
    15  H    6.018533   5.043230   4.809602   2.193227   3.074266
    16  C    4.560211   3.937464   4.234052   2.433876   3.344874
    17  H    4.722057   4.505185   4.607245   2.876672   3.703113
    18  H    5.463984   4.712218   4.861895   2.486021   3.554666
    19  C    4.962829   4.106998   4.970281   3.764080   4.575390
    20  H    4.427727   3.748414   4.809602   4.234052   4.861896
    21  H    5.958975   5.192797   6.018534   4.560211   5.463985
    22  H    5.218602   4.014932   5.043231   3.937465   4.712219
                   11         12         13         14         15
    11  H    0.000000
    12  C    2.179054   0.000000
    13  H    2.497108   1.097177   0.000000
    14  H    3.087179   1.095603   1.782057   0.000000
    15  H    2.564199   1.095830   1.768839   1.771526   0.000000
    16  C    2.602349   3.148071   4.097816   3.593458   2.922708
    17  H    2.640292   3.850710   4.649528   4.467405   3.659830
    18  H    2.548263   2.712166   3.590306   3.300110   2.157758
    19  C    4.109864   4.262378   5.310284   4.411691   3.923880
    20  H    4.607245   4.970282   6.018535   5.043231   4.809602
    21  H    4.722057   4.962829   5.958976   5.218602   4.427727
    22  H    4.505186   4.106999   5.192798   4.014932   3.748414
                   16         17         18         19         20
    16  C    0.000000
    17  H    1.109413   0.000000
    18  H    1.094606   1.761731   0.000000
    19  C    1.530591   2.179054   2.142601   0.000000
    20  H    2.193228   2.564200   3.074267   1.095830   0.000000
    21  H    2.170461   2.497108   2.472638   1.097177   1.768839
    22  H    2.167369   3.087179   2.484211   1.095603   1.771527
                   21         22
    21  H    0.000000
    22  H    1.782057   0.000000
 This structure is nearly, but not quite of a higher symmetry.
 Consider Symm=Loose if the higher symmetry is desired.
 Stoichiometry    C6H15N
 Framework group  C1[X(C6H15N)]
 Deg. of freedom    60
 Full point group                 C1      NOp   1
 Largest Abelian subgroup         C1      NOp   1
 Largest concise Abelian subgroup C1      NOp   1
                         Standard orientation:                         
 ---------------------------------------------------------------------
 Center     Atomic      Atomic             Coordinates (Angstroms)
 Number     Number       Type             X           Y           Z
 ---------------------------------------------------------------------
      1          7           0        0.000000    0.000000    0.016375
      2          6           0       -0.027112    1.404937    0.444434
      3          1           0        0.994332    1.795323    0.395313
      4          1           0       -0.337514    1.486539    1.506408
      5          6           0       -0.918941    2.282872   -0.436804
      6          1           0       -0.886741    3.324177   -0.092649
      7          1           0       -0.575643    2.245409   -1.476558
      8          1           0       -1.966186    1.960834   -0.416504
      9          6           0       -1.203156   -0.725948    0.444434
     10          1           0       -2.051962   -0.036544    0.395313
     11          1           0       -1.118623   -1.035565    1.506408
     12          6           0       -1.517554   -1.937262   -0.436804
     13          1           0       -2.435452   -2.430029   -0.092649
     14          1           0       -1.656759   -1.621226   -1.476558
     15          1           0       -0.715039   -2.683184   -0.416504
     16          6           0        1.230268   -0.678990    0.444434
     17          1           0        1.456137   -0.450974    1.506408
     18          1           0        1.057629   -1.758779    0.395313
     19          6           0        2.436495   -0.345609   -0.436804
     20          1           0        2.681225    0.722351   -0.416504
     21          1           0        3.322192   -0.894148   -0.092649
     22          1           0        2.232403   -0.624183   -1.476558
 ---------------------------------------------------------------------
 Rotational constants (GHZ):           2.2913297           2.2913294           1.3153856
 Standard basis: 6-31+G(d) (6D, 7F)
 There are   163 symmetry adapted cartesian basis functions of A   symmetry.
 There are   163 symmetry adapted basis functions of A   symmetry.
   163 basis functions,   284 primitive gaussians,   163 cartesian basis functions
    29 alpha electrons       29 beta electrons
       nuclear repulsion energy       335.2069259067 Hartrees.
 NAtoms=   22 NActive=   22 NUniq=   22 SFac= 1.00D+00 NAtFMM=   60 NAOKFM=F Big=F
 Integral buffers will be    131072 words long.
 Raffenetti 2 integral format.
 Two-electron integral symmetry is turned on.
 Nuclear repulsion after empirical dispersion term =      335.1910915815 Hartrees.
 One-electron integrals computed using PRISM.
 NBasis=   163 RedAO= T EigKep=  6.58D-05  NBF=   163
 NBsUse=   163 1.00D-06 EigRej= -1.00D+00 NBFU=   163
 ExpMin= 4.38D-02 ExpMax= 4.17D+03 ExpMxC= 6.27D+02 IAcc=3 IRadAn=         5 AccDes= 0.00D+00
 Harris functional with IExCor=  402 and IRadAn=       5 diagonalized for initial guess.
 HarFok:  IExCor=  402 AccDes= 0.00D+00 IRadAn=         5 IDoV= 1 UseB2=F ITyADJ=14
 ICtDFT=  3500011 ScaDFX=  1.000000  1.000000  1.000000  1.000000
 FoFCou: FMM=F IPFlag=           0 FMFlag=      100000 FMFlg1=           0
         NFxFlg=           0 DoJE=T BraDBF=F KetDBF=T FulRan=T
         wScrn=  0.000000 ICntrl=       500 IOpCl=  0 I1Cent=   200000004 NGrid=           0
         NMat0=    1 NMatS0=      1 NMatT0=    0 NMatD0=    1 NMtDS0=    0 NMtDT0=    0
 Petite list used in FoFCou.
 Requested convergence on RMS density matrix=1.00D-08 within1000 cycles.
 Requested convergence on MAX density matrix=1.00D-06.
 Requested convergence on             energy=1.00D-06.
 No special actions if energy rises.
 SCF Done:  E(RB3LYP) =  -292.441859060     A.U. after   11 cycles
            NFock= 11  Conv=0.71D-08     -V/T= 2.0104

 **********************************************************************

            Population analysis using the SCF Density.

 **********************************************************************

 Orbital symmetries:
       Occupied  (A) (A) (A) (A) (A) (A) (A) (A) (A) (A) (A) (A)
                 (A) (A) (A) (A) (A) (A) (A) (A) (A) (A) (A) (A)
                 (A) (A) (A) (A) (A)
       Virtual   (A) (A) (A) (A) (A) (A) (A) (A) (A) (A) (A) (A)
                 (A) (A) (A) (A) (A) (A) (A) (A) (A) (A) (A) (A)
                 (A) (A) (A) (A) (A) (A) (A) (A) (A) (A) (A) (A)
                 (A) (A) (A) (A) (A) (A) (A) (A) (A) (A) (A) (A)
                 (A) (A) (A) (A) (A) (A) (A) (A) (A) (A) (A) (A)
                 (A) (A) (A) (A) (A) (A) (A) (A) (A) (A) (A) (A)
                 (A) (A) (A) (A) (A) (A) (A) (A) (A) (A) (A) (A)
                 (A) (A) (A) (A) (A) (A) (A) (A) (A) (A) (A) (A)
                 (A) (A) (A) (A) (A) (A) (A) (A) (A) (A) (A) (A)
                 (A) (A) (A) (A) (A) (A) (A) (A) (A) (A) (A) (A)
                 (A) (A) (A) (A) (A) (A) (A) (A) (A) (A) (A) (A)
                 (A) (A)
 The electronic state is 1-A.
 Alpha  occ. eigenvalues --  -14.32572 -10.20873 -10.20873 -10.20872 -10.17597
 Alpha  occ. eigenvalues --  -10.17597 -10.17597  -0.91955  -0.76011  -0.76011
 Alpha  occ. eigenvalues --   -0.70668  -0.62323  -0.62323  -0.56395  -0.47798
 Alpha  occ. eigenvalues --   -0.47798  -0.45386  -0.43435  -0.43434  -0.39862
 Alpha  occ. eigenvalues --   -0.38290  -0.37529  -0.37529  -0.35375  -0.35375
 Alpha  occ. eigenvalues --   -0.35307  -0.32887  -0.32887  -0.21422
 Alpha virt. eigenvalues --    0.00929   0.01888   0.01888   0.02359   0.04368
 Alpha virt. eigenvalues --    0.04368   0.05821   0.05944   0.05944   0.07437
 Alpha virt. eigenvalues --    0.08149   0.08150   0.09271   0.10154   0.10154
 Alpha virt. eigenvalues --    0.10473   0.11517   0.11881   0.11881   0.15925
 Alpha virt. eigenvalues --    0.15925   0.17068   0.17068   0.17535   0.18844
 Alpha virt. eigenvalues --    0.19821   0.19821   0.20738   0.21334   0.22959
 Alpha virt. eigenvalues --    0.22960   0.23617   0.23617   0.26442   0.26442
 Alpha virt. eigenvalues --    0.26854   0.28497   0.28497   0.29417   0.30011
 Alpha virt. eigenvalues --    0.32580   0.32581   0.32724   0.36231   0.36234
 Alpha virt. eigenvalues --    0.39493   0.40473   0.40476   0.45660   0.62951
 Alpha virt. eigenvalues --    0.62951   0.66473   0.66473   0.67424   0.68055
 Alpha virt. eigenvalues --    0.68954   0.68954   0.71629   0.73516   0.73517
 Alpha virt. eigenvalues --    0.75835   0.78066   0.78385   0.78386   0.87811
 Alpha virt. eigenvalues --    0.90065   0.90066   0.94012   0.95739   0.95739
 Alpha virt. eigenvalues --    0.98606   0.98606   0.99317   1.02274   1.02275
 Alpha virt. eigenvalues --    1.06186   1.10113   1.10432   1.10432   1.13177
 Alpha virt. eigenvalues --    1.14013   1.14014   1.17615   1.17615   1.18244
 Alpha virt. eigenvalues --    1.21456   1.28480   1.28480   1.43150   1.43150
 Alpha virt. eigenvalues --    1.46995   1.51660   1.64107   1.64610   1.64610
 Alpha virt. eigenvalues --    1.80245   1.82801   1.82801   1.89542   1.89542
 Alpha virt. eigenvalues --    1.93974   1.96853   1.96853   1.99408   2.03195
 Alpha virt. eigenvalues --    2.03195   2.03445   2.10353   2.10353   2.24269
 Alpha virt. eigenvalues --    2.24269   2.25559   2.32167   2.32733   2.32734
 Alpha virt. eigenvalues --    2.35249   2.35664   2.35664   2.42765   2.50716
 Alpha virt. eigenvalues --    2.50716   2.53341   2.71854   2.76827   2.76827
 Alpha virt. eigenvalues --    2.88797   2.88798   4.16998   4.24682   4.24683
 Alpha virt. eigenvalues --    4.31317   4.50649   4.50649   4.55228
          Condensed to atoms (all electrons):
               1          2          3          4          5          6
     1  N    7.235129   0.021678  -0.064609  -0.118546   0.068265   0.008574
     2  C    0.021678   6.258213   0.398224   0.447346  -0.355871  -0.081807
     3  H   -0.064609   0.398224   0.554216  -0.040866  -0.041966  -0.002799
     4  H   -0.118546   0.447346  -0.040866   0.586683  -0.067782   0.000848
     5  C    0.068265  -0.355871  -0.041966  -0.067782   5.899071   0.411211
     6  H    0.008574  -0.081807  -0.002799   0.000848   0.411211   0.522745
     7  H   -0.000157  -0.092632  -0.005227   0.004262   0.443192  -0.026587
     8  H   -0.006865  -0.080390   0.004678  -0.004840   0.428179  -0.029866
     9  C    0.021453   0.013055   0.015663   0.025090  -0.100622   0.005975
    10  H   -0.064619   0.024014   0.000380  -0.003128  -0.029128  -0.000175
    11  H   -0.118619  -0.012647  -0.000236   0.007793  -0.003473   0.000021
    12  C    0.068349  -0.111587   0.000797  -0.013784   0.038882  -0.000464
    13  H    0.008567  -0.001647   0.000002   0.000024  -0.000091   0.000000
    14  H   -0.000174  -0.011537  -0.000005   0.000010   0.003630   0.000000
    15  H   -0.006857   0.002292   0.000005  -0.000016  -0.001903   0.000000
    16  C    0.021638   0.012920   0.023998  -0.012639  -0.111602  -0.001647
    17  H   -0.118552   0.025031  -0.003130   0.007792  -0.013782   0.000024
    18  H   -0.064617   0.015665   0.000380  -0.000235   0.000796   0.000002
    19  C    0.068256  -0.100486  -0.029126  -0.003460   0.038851  -0.000091
    20  H   -0.006849  -0.004090   0.005501  -0.000009   0.002543   0.000013
    21  H    0.008570   0.005975  -0.000175   0.000021  -0.000464   0.000000
    22  H   -0.000161   0.007764  -0.000041  -0.000001  -0.002913   0.000001
               7          8          9         10         11         12
     1  N   -0.000157  -0.006865   0.021453  -0.064619  -0.118619   0.068349
     2  C   -0.092632  -0.080390   0.013055   0.024014  -0.012647  -0.111587
     3  H   -0.005227   0.004678   0.015663   0.000380  -0.000236   0.000797
     4  H    0.004262  -0.004840   0.025090  -0.003128   0.007793  -0.013784
     5  C    0.443192   0.428179  -0.100622  -0.029128  -0.003473   0.038882
     6  H   -0.026587  -0.029866   0.005975  -0.000175   0.000021  -0.000464
     7  H    0.494752  -0.030247   0.007780  -0.000040  -0.000001  -0.002914
     8  H   -0.030247   0.523256  -0.004088   0.005502  -0.000009   0.002544
     9  C    0.007780  -0.004088   6.258639   0.398234   0.447462  -0.356041
    10  H   -0.000040   0.005502   0.398234   0.554215  -0.040859  -0.041978
    11  H   -0.000001  -0.000009   0.447462  -0.040859   0.586702  -0.067800
    12  C   -0.002914   0.002544  -0.356041  -0.041978  -0.067800   5.899095
    13  H    0.000001   0.000013  -0.081798  -0.002798   0.000849   0.411207
    14  H   -0.000019   0.000027  -0.092599  -0.005226   0.004263   0.443179
    15  H    0.000002   0.000001  -0.080397   0.004678  -0.004839   0.428176
    16  C   -0.011541   0.002291   0.013092   0.015663   0.025048  -0.100550
    17  H    0.000010  -0.000016  -0.012587  -0.000235   0.007793  -0.003475
    18  H   -0.000005   0.000005   0.023999   0.000380  -0.003128  -0.029125
    19  C    0.003634  -0.001903  -0.111656   0.000795  -0.013773   0.038862
    20  H    0.000027   0.000001   0.002290   0.000005  -0.000017  -0.001902
    21  H    0.000000   0.000000  -0.001648   0.000002   0.000024  -0.000091
    22  H   -0.000019   0.000002  -0.011531  -0.000005   0.000010   0.003630
              13         14         15         16         17         18
     1  N    0.008567  -0.000174  -0.006857   0.021638  -0.118552  -0.064617
     2  C   -0.001647  -0.011537   0.002292   0.012920   0.025031   0.015665
     3  H    0.000002  -0.000005   0.000005   0.023998  -0.003130   0.000380
     4  H    0.000024   0.000010  -0.000016  -0.012639   0.007792  -0.000235
     5  C   -0.000091   0.003630  -0.001903  -0.111602  -0.013782   0.000796
     6  H    0.000000   0.000000   0.000000  -0.001647   0.000024   0.000002
     7  H    0.000001  -0.000019   0.000002  -0.011541   0.000010  -0.000005
     8  H    0.000013   0.000027   0.000001   0.002291  -0.000016   0.000005
     9  C   -0.081798  -0.092599  -0.080397   0.013092  -0.012587   0.023999
    10  H   -0.002798  -0.005226   0.004678   0.015663  -0.000235   0.000380
    11  H    0.000849   0.004263  -0.004839   0.025048   0.007793  -0.003128
    12  C    0.411207   0.443179   0.428176  -0.100550  -0.003475  -0.029125
    13  H    0.522741  -0.026585  -0.029865   0.005974   0.000021  -0.000175
    14  H   -0.026585   0.494761  -0.030248   0.007772  -0.000001  -0.000041
    15  H   -0.029865  -0.030248   0.523252  -0.004085  -0.000008   0.005502
    16  C    0.005974   0.007772  -0.004085   6.258237   0.447338   0.398234
    17  H    0.000021  -0.000001  -0.000008   0.447338   0.586686  -0.040862
    18  H   -0.000175  -0.000041   0.005502   0.398234  -0.040862   0.554221
    19  C   -0.000464  -0.002913   0.002542  -0.355767  -0.067753  -0.041972
    20  H    0.000000   0.000002   0.000001  -0.080411  -0.004841   0.004678
    21  H    0.000000   0.000001   0.000013  -0.081812   0.000847  -0.002799
    22  H    0.000000  -0.000019   0.000027  -0.092614   0.004262  -0.005226
              19         20         21         22
     1  N    0.068256  -0.006849   0.008570  -0.000161
     2  C   -0.100486  -0.004090   0.005975   0.007764
     3  H   -0.029126   0.005501  -0.000175  -0.000041
     4  H   -0.003460  -0.000009   0.000021  -0.000001
     5  C    0.038851   0.002543  -0.000464  -0.002913
     6  H   -0.000091   0.000013   0.000000   0.000001
     7  H    0.003634   0.000027   0.000000  -0.000019
     8  H   -0.001903   0.000001   0.000000   0.000002
     9  C   -0.111656   0.002290  -0.001648  -0.011531
    10  H    0.000795   0.000005   0.000002  -0.000005
    11  H   -0.013773  -0.000017   0.000024   0.000010
    12  C    0.038862  -0.001902  -0.000091   0.003630
    13  H   -0.000464   0.000000   0.000000   0.000000
    14  H   -0.002913   0.000002   0.000001  -0.000019
    15  H    0.002542   0.000001   0.000013   0.000027
    16  C   -0.355767  -0.080411  -0.081812  -0.092614
    17  H   -0.067753  -0.004841   0.000847   0.004262
    18  H   -0.041972   0.004678  -0.002799  -0.005226
    19  C    5.898898   0.428188   0.411216   0.443189
    20  H    0.428188   0.523249  -0.029866  -0.030249
    21  H    0.411216  -0.029866   0.522751  -0.026588
    22  H    0.443189  -0.030249  -0.026588   0.494755
 Mulliken charges:
               1
     1  N    0.040148
     2  C   -0.379482
     3  H    0.184334
     4  H    0.185439
     5  C   -0.605021
     6  H    0.194025
     7  H    0.215728
     8  H    0.191726
     9  C   -0.379766
    10  H    0.184324
    11  H    0.185436
    12  C   -0.605008
    13  H    0.194027
    14  H    0.215721
    15  H    0.191729
    16  C   -0.379536
    17  H    0.185439
    18  H    0.184323
    19  C   -0.605070
    20  H    0.191735
    21  H    0.194022
    22  H    0.215726
 Sum of Mulliken charges =   0.00000
 Mulliken charges with hydrogens summed into heavy atoms:
               1
     1  N    0.040148
     2  C   -0.009709
     5  C   -0.003541
     9  C   -0.010006
    12  C   -0.003530
    16  C   -0.009774
    19  C   -0.003586
 Electronic spatial extent (au):  <R**2>=           1037.0764
 Charge=              0.0000 electrons
 Dipole moment (field-independent basis, Debye):
    X=             -0.0001    Y=             -0.0001    Z=              0.5471  Tot=              0.5471
 Quadrupole moment (field-independent basis, Debye-Ang):
   XX=            -47.2832   YY=            -47.2833   ZZ=            -50.1927
   XY=              0.0000   XZ=              0.0001   YZ=              0.0001
 Traceless Quadrupole moment (field-independent basis, Debye-Ang):
   XX=              0.9698   YY=              0.9698   ZZ=             -1.9396
   XY=              0.0000   XZ=              0.0001   YZ=              0.0001
 Octapole moment (field-independent basis, Debye-Ang**2):
  XXX=             -2.3757  YYY=              0.9473  ZZZ=             -2.9016  XYY=              2.3755
  XXY=             -0.9476  XXZ=              0.3736  XZZ=             -0.0001  YZZ=             -0.0002
  YYZ=              0.3735  XYZ=              0.0001
 Hexadecapole moment (field-independent basis, Debye-Ang**3):
 XXXX=           -658.7377 YYYY=           -658.7380 ZZZZ=           -168.5373 XXXY=              0.0007
 XXXZ=              2.3385 YYYX=              0.0005 YYYZ=              1.1585 ZZZX=              0.0005
 ZZZY=              0.0004 XXYY=           -219.5793 XXZZ=           -142.0966 YYZZ=           -142.0968
 XXYZ=             -1.1583 YYXZ=             -2.3384 ZZXY=             -0.0001
 N-N= 3.351910915815D+02 E-N=-1.346135441895D+03  KE= 2.894422357244D+02
 Evaluate density.
 Using the total density.
 Monte-Carlo method of calculating molar volume:
 based on  0.001 e/bohr**3 density envelope.
 Number of points per bohr**3 =   20 CutOff= 1.00D-04
 Using the SCF density.
 There are       369 points.  Will hold       369 in memory.
 LenV=  8321410781 MDV=  8321499136.
 Box volume = 6323.763 fraction occupied=0.209
 Integrated density= 2.3247811308120941D+02 error= 1.7447811308120941D+02
 Molar volume = 1319.593 bohr**3/mol (117.759 cm**3/mol)
 Recommended a0 for SCRF calculation =  4.46 angstrom (  8.43 bohr)
 Calling FoFJK, ICntrl=      2127 FMM=F ISym2X=0 I1Cent= 0 IOpClX= 0 NMat=1 NMatS=1 NMatT=0.
 ***** Axes restored to original set *****
 -------------------------------------------------------------------
 Center     Atomic                   Forces (Hartrees/Bohr)
 Number     Number              X              Y              Z
 -------------------------------------------------------------------
      1        7           0.000007765   -0.000014909   -0.000013012
      2        6           0.000024859   -0.000057888   -0.000014589
      3        1           0.000003326    0.000003395    0.000014472
      4        1           0.000011146   -0.000002720    0.000009084
      5        6          -0.000039815    0.000007822   -0.000032208
      6        1           0.000009182    0.000004811   -0.000001631
      7        1           0.000003413    0.000007139    0.000001377
      8        1           0.000020163    0.000021598    0.000025654
      9        6          -0.000078503    0.000015352   -0.000016500
     10        1           0.000004014   -0.000000366    0.000016736
     11        1          -0.000006365   -0.000004589    0.000008485
     12        6           0.000032754    0.000023423   -0.000029949
     13        1          -0.000000765   -0.000010499   -0.000001383
     14        1          -0.000004510   -0.000002671    0.000002305
     15        1           0.000010949   -0.000031877    0.000021216
     16        6           0.000039336    0.000057310   -0.000012266
     17        1          -0.000000071    0.000008377    0.000010118
     18        1          -0.000003535    0.000001182    0.000019915
     19        6           0.000012149   -0.000038781   -0.000031772
     20        1          -0.000033813    0.000006003    0.000024602
     21        1          -0.000008643    0.000005946   -0.000001623
     22        1          -0.000003035    0.000001942    0.000000970
 -------------------------------------------------------------------
 Cartesian Forces:  Max     0.000078503 RMS     0.000021658

 GradGradGradGradGradGradGradGradGradGradGradGradGradGradGradGradGradGrad
 Berny optimization.
 FormGI is forming the generalized inverse of G from B-inverse, IUseBI=4.
 Internal  Forces:  Max     0.000088546 RMS     0.000022876
 Search for a local minimum.
 Step number   1 out of a maximum of  115
 All quantities printed in internal units (Hartrees-Bohrs-Radians)
 Mixed Optimization -- En-DIIS/RFO-DIIS
 Second derivative matrix not updated -- first step.
 ITU=  0
     Eigenvalues ---    0.00361   0.00361   0.00361   0.00780   0.00780
     Eigenvalues ---    0.00780   0.02524   0.04042   0.04042   0.04042
     Eigenvalues ---    0.05456   0.05456   0.05456   0.05461   0.05461
     Eigenvalues ---    0.05461   0.05630   0.05630   0.05630   0.09495
     Eigenvalues ---    0.09495   0.09495   0.12934   0.12934   0.12934
     Eigenvalues ---    0.16000   0.16000   0.16000   0.16000   0.16000
     Eigenvalues ---    0.16000   0.16000   0.16000   0.16000   0.17556
     Eigenvalues ---    0.17556   0.21934   0.21934   0.21934   0.29369
     Eigenvalues ---    0.29369   0.29369   0.32662   0.32662   0.32662
     Eigenvalues ---    0.33996   0.33996   0.33996   0.34148   0.34148
     Eigenvalues ---    0.34148   0.34173   0.34173   0.34173   0.34286
     Eigenvalues ---    0.34286   0.34286   0.35866   0.35866   0.35866
 RFO step:  Lambda=-4.86941016D-07 EMin= 3.61280996D-03
 Linear search not attempted -- first point.
 Iteration  1 RMS(Cart)=  0.00112844 RMS(Int)=  0.00000078
 Iteration  2 RMS(Cart)=  0.00000096 RMS(Int)=  0.00000005
 Variable       Old X    -DE/DX   Delta X   Delta X   Delta X     New X
                                 (Linear)    (Quad)   (Total)
    R1        2.77592  -0.00002   0.00000  -0.00006  -0.00006   2.77585
    R2        2.77592  -0.00004   0.00000  -0.00010  -0.00010   2.77581
    R3        2.77592  -0.00003   0.00000  -0.00009  -0.00009   2.77582
    R4        2.06850   0.00000   0.00000  -0.00001  -0.00001   2.06850
    R5        2.09649  -0.00001   0.00000  -0.00002  -0.00002   2.09647
    R6        2.89240   0.00002   0.00000   0.00008   0.00008   2.89248
    R7        2.07336   0.00000   0.00000   0.00001   0.00001   2.07337
    R8        2.07039   0.00000   0.00000   0.00000   0.00000   2.07039
    R9        2.07082   0.00002   0.00000   0.00006   0.00006   2.07087
   R10        2.06851   0.00000   0.00000   0.00001   0.00001   2.06851
   R11        2.09649  -0.00001   0.00000  -0.00002  -0.00002   2.09647
   R12        2.89240   0.00003   0.00000   0.00009   0.00009   2.89249
   R13        2.07336   0.00000   0.00000   0.00001   0.00001   2.07337
   R14        2.07039   0.00000   0.00000   0.00000   0.00000   2.07039
   R15        2.07082   0.00002   0.00000   0.00006   0.00006   2.07088
   R16        2.09649  -0.00001   0.00000  -0.00003  -0.00003   2.09646
   R17        2.06851   0.00000   0.00000  -0.00001  -0.00001   2.06850
   R18        2.89240   0.00002   0.00000   0.00008   0.00008   2.89248
   R19        2.07082   0.00002   0.00000   0.00006   0.00006   2.07088
   R20        2.07336   0.00000   0.00000   0.00001   0.00001   2.07337
   R21        2.07039   0.00000   0.00000   0.00000   0.00000   2.07039
    A1        1.95263  -0.00002   0.00000  -0.00041  -0.00041   1.95223
    A2        1.95263   0.00000   0.00000  -0.00032  -0.00032   1.95231
    A3        1.95263   0.00000   0.00000  -0.00031  -0.00031   1.95232
    A4        1.88683  -0.00002   0.00000  -0.00006  -0.00006   1.88678
    A5        1.93313  -0.00004   0.00000  -0.00014  -0.00014   1.93299
    A6        1.97314   0.00009   0.00000   0.00041   0.00041   1.97355
    A7        1.85231   0.00002   0.00000   0.00006   0.00006   1.85238
    A8        1.88948  -0.00004   0.00000  -0.00024  -0.00024   1.88924
    A9        1.92401  -0.00002   0.00000  -0.00006  -0.00006   1.92395
   A10        1.92483   0.00000   0.00000  -0.00002  -0.00002   1.92482
   A11        1.92220   0.00000   0.00000   0.00000   0.00000   1.92220
   A12        1.95801   0.00005   0.00000   0.00030   0.00030   1.95831
   A13        1.89752   0.00000   0.00000  -0.00006  -0.00006   1.89746
   A14        1.87669  -0.00002   0.00000  -0.00012  -0.00012   1.87657
   A15        1.88282  -0.00002   0.00000  -0.00013  -0.00013   1.88269
   A16        1.88683  -0.00002   0.00000  -0.00011  -0.00011   1.88673
   A17        1.93313  -0.00003   0.00000  -0.00009  -0.00009   1.93304
   A18        1.97314   0.00008   0.00000   0.00039   0.00039   1.97353
   A19        1.85231   0.00002   0.00000   0.00006   0.00006   1.85237
   A20        1.88948  -0.00003   0.00000  -0.00023  -0.00023   1.88925
   A21        1.92401  -0.00002   0.00000  -0.00005  -0.00005   1.92396
   A22        1.92483   0.00000   0.00000   0.00000   0.00000   1.92483
   A23        1.92220  -0.00001   0.00000  -0.00005  -0.00005   1.92214
   A24        1.95801   0.00005   0.00000   0.00031   0.00031   1.95831
   A25        1.89752   0.00000   0.00000  -0.00001  -0.00001   1.89751
   A26        1.87669  -0.00002   0.00000  -0.00013  -0.00013   1.87656
   A27        1.88282  -0.00002   0.00000  -0.00012  -0.00012   1.88270
   A28        1.93313  -0.00003   0.00000  -0.00009  -0.00009   1.93304
   A29        1.88683  -0.00002   0.00000  -0.00012  -0.00012   1.88671
   A30        1.97314   0.00009   0.00000   0.00040   0.00040   1.97354
   A31        1.85231   0.00002   0.00000   0.00007   0.00007   1.85239
   A32        1.92401  -0.00002   0.00000  -0.00002  -0.00002   1.92399
   A33        1.88948  -0.00004   0.00000  -0.00027  -0.00027   1.88921
   A34        1.95801   0.00005   0.00000   0.00034   0.00034   1.95835
   A35        1.92483   0.00000   0.00000  -0.00001  -0.00001   1.92482
   A36        1.92220  -0.00001   0.00000  -0.00004  -0.00004   1.92215
   A37        1.87669  -0.00002   0.00000  -0.00013  -0.00013   1.87656
   A38        1.88282  -0.00002   0.00000  -0.00012  -0.00012   1.88269
   A39        1.89752   0.00000   0.00000  -0.00004  -0.00004   1.89748
    D1        2.82369  -0.00002   0.00000  -0.00144  -0.00144   2.82226
    D2        0.80115  -0.00001   0.00000  -0.00140  -0.00140   0.79975
    D3       -1.36808  -0.00002   0.00000  -0.00152  -0.00152  -1.36961
    D4        0.61695   0.00000   0.00000  -0.00044  -0.00044   0.61651
    D5       -1.40560   0.00001   0.00000  -0.00040  -0.00040  -1.40600
    D6        2.70835   0.00000   0.00000  -0.00052  -0.00052   2.70783
    D7        0.61695   0.00001   0.00000   0.00019   0.00019   0.61714
    D8       -1.40560   0.00001   0.00000   0.00024   0.00024  -1.40536
    D9        2.70835   0.00000   0.00000   0.00008   0.00008   2.70843
   D10        2.82369  -0.00001   0.00000  -0.00081  -0.00081   2.82288
   D11        0.80115  -0.00001   0.00000  -0.00076  -0.00076   0.80039
   D12       -1.36808  -0.00002   0.00000  -0.00092  -0.00092  -1.36901
   D13        0.80115  -0.00001   0.00000  -0.00108  -0.00108   0.80007
   D14        2.82369  -0.00002   0.00000  -0.00112  -0.00112   2.82258
   D15       -1.36808  -0.00003   0.00000  -0.00129  -0.00129  -1.36938
   D16       -1.40560   0.00002   0.00000  -0.00004  -0.00004  -1.40563
   D17        0.61695   0.00001   0.00000  -0.00007  -0.00007   0.61688
   D18        2.70835   0.00000   0.00000  -0.00024  -0.00024   2.70811
   D19       -3.11747   0.00000   0.00000  -0.00089  -0.00089  -3.11837
   D20       -1.02315  -0.00001   0.00000  -0.00098  -0.00098  -1.02413
   D21        1.07426   0.00000   0.00000  -0.00094  -0.00094   1.07332
   D22       -1.02759   0.00000   0.00000  -0.00087  -0.00087  -1.02846
   D23        1.06673   0.00000   0.00000  -0.00095  -0.00095   1.06578
   D24       -3.11904   0.00000   0.00000  -0.00091  -0.00091  -3.11996
   D25        0.99150  -0.00001   0.00000  -0.00097  -0.00097   0.99054
   D26        3.08582  -0.00001   0.00000  -0.00105  -0.00105   3.08478
   D27       -1.09995  -0.00001   0.00000  -0.00101  -0.00101  -1.10096
   D28       -3.11747   0.00000   0.00000  -0.00013  -0.00013  -3.11760
   D29       -1.02315   0.00000   0.00000  -0.00018  -0.00018  -1.02333
   D30        1.07426   0.00000   0.00000  -0.00016  -0.00016   1.07409
   D31       -1.02759   0.00000   0.00000  -0.00018  -0.00018  -1.02776
   D32        1.06673   0.00000   0.00000  -0.00022  -0.00022   1.06651
   D33       -3.11904   0.00000   0.00000  -0.00021  -0.00021  -3.11925
   D34        0.99150   0.00000   0.00000  -0.00027  -0.00027   0.99124
   D35        3.08582  -0.00001   0.00000  -0.00031  -0.00031   3.08551
   D36       -1.09995  -0.00001   0.00000  -0.00030  -0.00030  -1.10025
   D37        1.07426   0.00000   0.00000  -0.00049  -0.00049   1.07377
   D38       -3.11747   0.00000   0.00000  -0.00044  -0.00044  -3.11791
   D39       -1.02315   0.00000   0.00000  -0.00053  -0.00053  -1.02368
   D40       -1.09995  -0.00001   0.00000  -0.00065  -0.00065  -1.10061
   D41        0.99151   0.00000   0.00000  -0.00061  -0.00061   0.99090
   D42        3.08582  -0.00001   0.00000  -0.00069  -0.00069   3.08513
   D43       -3.11904   0.00000   0.00000  -0.00058  -0.00058  -3.11962
   D44       -1.02759   0.00000   0.00000  -0.00053  -0.00053  -1.02812
   D45        1.06673   0.00000   0.00000  -0.00062  -0.00062   1.06611
         Item               Value     Threshold  Converged?
 Maximum Force            0.000089     0.000450     YES
 RMS     Force            0.000023     0.000300     YES
 Maximum Displacement     0.004193     0.001800     NO 
 RMS     Displacement     0.001128     0.001200     YES
 Predicted change in Energy=-2.434050D-07
 GradGradGradGradGradGradGradGradGradGradGradGradGradGradGradGradGradGrad

                          Input orientation:                          
 ---------------------------------------------------------------------
 Center     Atomic      Atomic             Coordinates (Angstroms)
 Number     Number       Type             X           Y           Z
 ---------------------------------------------------------------------
      1          7           0        0.000061    0.000038   -0.015787
      2          6           0       -0.335263    1.364401   -0.444490
      3          1           0       -1.422848    1.478423   -0.396405
      4          1           0       -0.055338    1.522790   -1.506248
      5          6           0        0.299116    2.443146    0.436821
      6          1           0        0.000553    3.440758    0.091228
      7          1           0       -0.024762    2.319609    1.476141
      8          1           0        1.394040    2.401709    0.418618
      9          6           0        1.349315   -0.391720   -0.444390
     10          1           0        1.991918    0.493079   -0.395762
     11          1           0        1.346751   -0.712861   -1.506292
     12          6           0        1.966026   -1.480928    0.436602
     13          1           0        2.979600   -1.720620    0.091608
     14          1           0        2.020038   -1.139364    1.476200
     15          1           0        1.382984   -2.408615    0.417287
     16          6           0       -1.013870   -0.972612   -0.444241
     17          1           0       -1.290919   -0.809787   -1.506078
     18          1           0       -0.568840   -1.971487   -0.395727
     19          6           0       -2.265309   -0.962264    0.437025
     20          1           0       -2.777113    0.006558    0.418186
     21          1           0       -2.979819   -1.720013    0.091922
     22          1           0       -1.996322   -1.180239    1.476486
 ---------------------------------------------------------------------
                    Distance matrix (angstroms):
                    1          2          3          4          5
     1  N    0.000000
     2  C    1.468917   0.000000
     3  H    2.086902   1.094602   0.000000
     4  H    2.131506   1.109403   1.761761   0.000000
     5  C    2.502612   1.530632   2.142455   2.179038   0.000000
     6  H    3.442384   2.170489   2.472774   2.496728   1.097180
     7  H    2.758057   2.167408   2.483680   3.087150   1.095602
     8  H    2.810678   2.193502   3.074342   2.564820   1.095859
     9  C    1.468898   2.433468   3.344342   2.601142   3.148955
    10  H    2.086855   2.485427   3.554086   2.546515   2.713214
    11  H    2.131526   2.876042   3.701926   2.638938   3.851442
    12  C    2.502586   3.764061   4.575601   4.108881   4.263443
    13  H    3.442361   4.559942   5.463843   4.720561   4.963981
    14  H    2.757638   3.937681   4.713058   4.504358   4.108072
    15  H    2.810985   4.234464   4.862495   4.607028   4.971392
    16  C    1.468903   2.433545   2.485382   2.876400   3.763988
    17  H    2.131528   2.601411   2.546504   2.639617   4.109092
    18  H    2.086842   3.344411   3.554041   3.702285   4.575529
    19  C    2.502592   3.148892   2.713172   3.851724   4.262992
    20  H    2.810884   2.924138   2.159626   3.662031   3.924347
    21  H    3.442363   4.098174   3.590629   4.650001   5.310581
    22  H    2.757803   3.595060   3.302283   4.468835   4.413486
                    6          7          8          9         10
     6  H    0.000000
     7  H    1.782021   0.000000
     8  H    1.768789   1.771467   0.000000
     9  C    4.098040   3.595529   2.924043   0.000000
    10  H    3.590474   3.302609   2.159523   1.094611   0.000000
    11  H    4.649395   4.468985   3.661702   1.109402   1.761763
    12  C    5.310872   4.414517   3.924584   1.530638   2.142476
    13  H    5.959408   5.221740   4.428829   2.170507   2.472551
    14  H    5.193648   4.018171   3.748273   2.167373   2.483928
    15  H    6.019352   5.045693   4.810337   2.193510   3.074358
    16  C    4.560002   3.937629   4.234218   2.433532   3.344452
    17  H    4.720849   4.504431   4.607295   2.876246   3.702334
    18  H    5.463856   4.713111   4.862190   2.485427   3.554091
    19  C    4.963901   4.107372   4.970663   3.764030   4.575537
    20  H    4.429002   3.747655   4.809914   4.234391   4.862393
    21  H    5.959545   5.192974   6.018801   4.559977   5.463861
    22  H    5.221117   4.016962   5.044204   3.937615   4.712893
                   11         12         13         14         15
    11  H    0.000000
    12  C    2.179051   0.000000
    13  H    2.497009   1.097180   0.000000
    14  H    3.087147   1.095604   1.782053   0.000000
    15  H    2.564576   1.095862   1.768781   1.771477   0.000000
    16  C    2.601530   3.148659   4.098104   3.594509   2.923909
    17  H    2.639450   3.851250   4.649682   4.468225   3.661331
    18  H    2.546955   2.712741   3.590523   3.301337   2.159095
    19  C    4.109217   4.263005   5.310696   4.413100   3.924585
    20  H    4.607324   4.970948   6.019098   5.044322   4.810351
    21  H    4.721001   4.963603   5.959419   5.220340   4.428779
    22  H    4.504614   4.107552   5.193236   4.016568   3.748403
                   16         17         18         19         20
    16  C    0.000000
    17  H    1.109399   0.000000
    18  H    1.094603   1.761767   0.000000
    19  C    1.530633   2.179068   2.142432   0.000000
    20  H    2.193531   2.564758   3.074343   1.095862   0.000000
    21  H    2.170491   2.496898   2.472622   1.097180   1.768781
    22  H    2.167374   3.087153   2.483739   1.095603   1.771473
                   21         22
    21  H    0.000000
    22  H    1.782033   0.000000
 Stoichiometry    C6H15N
 Framework group  C1[X(C6H15N)]
 Deg. of freedom    60
 Full point group                 C1      NOp   1
 Largest Abelian subgroup         C1      NOp   1
 Largest concise Abelian subgroup C1      NOp   1
                         Standard orientation:                         
 ---------------------------------------------------------------------
 Center     Atomic      Atomic             Coordinates (Angstroms)
 Number     Number       Type             X           Y           Z
 ---------------------------------------------------------------------
      1          7           0        0.000011    0.000061    0.015867
      2          6           0        1.394835    0.168571    0.444570
      3          1           0        1.885873   -0.808529    0.396485
      4          1           0        1.444071    0.486409    1.506327
      5          6           0        2.179761    1.143260   -0.436742
      6          1           0        3.218510    1.216540   -0.091149
      7          1           0        2.178661    0.796623   -1.476061
      8          1           0        1.754030    2.152878   -0.418538
      9          6           0       -0.843318    1.123786    0.444470
     10          1           0       -0.242728    2.037624    0.395841
     11          1           0       -1.142828    1.007890    1.506371
     12          6           0       -2.080192    1.315750   -0.436522
     13          1           0       -2.662632    2.179201   -0.091528
     14          1           0       -1.779759    1.486991   -1.476120
     15          1           0       -2.741951    0.442472   -0.417208
     16          6           0       -0.551526   -1.292189    0.444320
     17          1           0       -0.301294   -1.493813    1.506158
     18          1           0       -1.643220   -1.228901    0.395806
     19          6           0       -0.099562   -2.459210   -0.436946
     20          1           0        0.987618   -2.595583   -0.418106
     21          1           0       -0.555888   -3.395412   -0.091842
     22          1           0       -0.398535   -2.284618   -1.476406
 ---------------------------------------------------------------------
 Rotational constants (GHZ):           2.2911263           2.2907454           1.3151171
 Standard basis: 6-31+G(d) (6D, 7F)
 There are   163 symmetry adapted cartesian basis functions of A   symmetry.
 There are   163 symmetry adapted basis functions of A   symmetry.
   163 basis functions,   284 primitive gaussians,   163 cartesian basis functions
    29 alpha electrons       29 beta electrons
       nuclear repulsion energy       335.1943798293 Hartrees.
 NAtoms=   22 NActive=   22 NUniq=   22 SFac= 1.00D+00 NAtFMM=   60 NAOKFM=F Big=F
 Integral buffers will be    131072 words long.
 Raffenetti 2 integral format.
 Two-electron integral symmetry is turned on.
 Nuclear repulsion after empirical dispersion term =      335.1785475778 Hartrees.
 One-electron integrals computed using PRISM.
 NBasis=   163 RedAO= T EigKep=  6.58D-05  NBF=   163
 NBsUse=   163 1.00D-06 EigRej= -1.00D+00 NBFU=   163
 Initial guess from the checkpoint file:  "et3n-vol.chk"
 B after Tr=     0.000000    0.000000    0.000000
         Rot=    0.741748   -0.000009   -0.000013    0.670679 Ang= -84.24 deg.
 Requested convergence on RMS density matrix=1.00D-08 within1000 cycles.
 Requested convergence on MAX density matrix=1.00D-06.
 Requested convergence on             energy=1.00D-06.
 No special actions if energy rises.
 SCF Done:  E(RB3LYP) =  -292.441858758     A.U. after    7 cycles
            NFock=  7  Conv=0.85D-08     -V/T= 2.0104
 Calling FoFJK, ICntrl=      2127 FMM=F ISym2X=0 I1Cent= 0 IOpClX= 0 NMat=1 NMatS=1 NMatT=0.
 ***** Axes restored to original set *****
 -------------------------------------------------------------------
 Center     Atomic                   Forces (Hartrees/Bohr)
 Number     Number              X              Y              Z
 -------------------------------------------------------------------
      1        7           0.000008945    0.000040340   -0.000008847
      2        6          -0.000005160    0.000017560   -0.000004985
      3        1          -0.000016096    0.000004029    0.000010149
      4        1          -0.000004514   -0.000003287    0.000004295
      5        6          -0.000011456   -0.000014288   -0.000009784
      6        1          -0.000002242   -0.000001195   -0.000004591
      7        1          -0.000001169   -0.000009561    0.000006925
      8        1           0.000015802   -0.000008858    0.000001367
      9        6           0.000038829   -0.000023246    0.000009593
     10        1           0.000005768    0.000003782    0.000006634
     11        1          -0.000001588    0.000001427    0.000001126
     12        6          -0.000018266    0.000022901   -0.000014314
     13        1          -0.000000902    0.000003006   -0.000003295
     14        1           0.000004858   -0.000003026    0.000003385
     15        1          -0.000011049    0.000000839    0.000007846
     16        6          -0.000011357   -0.000015814   -0.000001388
     17        1           0.000000796   -0.000001086    0.000000781
     18        1          -0.000003254   -0.000016994    0.000004937
     19        6           0.000016209    0.000003401   -0.000011472
     20        1           0.000006199    0.000011823    0.000000488
     21        1           0.000002338   -0.000001224   -0.000004607
     22        1          -0.000012692   -0.000010528    0.000005757
 -------------------------------------------------------------------
 Cartesian Forces:  Max     0.000040340 RMS     0.000011466

 GradGradGradGradGradGradGradGradGradGradGradGradGradGradGradGradGradGrad
 Berny optimization.
 Using GEDIIS/GDIIS optimizer.
 FormGI is forming the generalized inverse of G from B-inverse, IUseBI=4.
 Internal  Forces:  Max     0.000045525 RMS     0.000010300
 Search for a local minimum.
 Step number   2 out of a maximum of  115
 All quantities printed in internal units (Hartrees-Bohrs-Radians)
 Mixed Optimization -- En-DIIS/RFO-DIIS
 Swapping is turned off.
 Update second derivatives using D2CorX and points    1    2
 DE=  3.02D-07 DEPred=-2.43D-07 R=-1.24D+00
 Trust test=-1.24D+00 RLast= 5.15D-03 DXMaxT set to 1.50D-01
 ITU= -1  0
     Eigenvalues ---    0.00309   0.00361   0.00372   0.00777   0.00780
     Eigenvalues ---    0.00919   0.02622   0.04039   0.04040   0.04168
     Eigenvalues ---    0.05453   0.05454   0.05454   0.05460   0.05461
     Eigenvalues ---    0.05502   0.05624   0.05630   0.05648   0.09459
     Eigenvalues ---    0.09499   0.09502   0.12771   0.12937   0.12948
     Eigenvalues ---    0.15563   0.16000   0.16000   0.16000   0.16000
     Eigenvalues ---    0.16000   0.16000   0.16000   0.16407   0.17544
     Eigenvalues ---    0.17708   0.21459   0.21934   0.24250   0.29360
     Eigenvalues ---    0.29369   0.30611   0.32642   0.32662   0.32669
     Eigenvalues ---    0.33969   0.33996   0.33996   0.34005   0.34148
     Eigenvalues ---    0.34154   0.34173   0.34173   0.34186   0.34285
     Eigenvalues ---    0.34286   0.34476   0.35792   0.35866   0.36643
 En-DIIS/RFO-DIIS/Sim-DIIS IScMMF=       -3 using points:     2    1
 RFO step:  Lambda=-1.27841313D-07.
 DidBck=T Rises=T En-DIIS coefs:    0.25602    0.74398
 Iteration  1 RMS(Cart)=  0.00055876 RMS(Int)=  0.00000019
 Iteration  2 RMS(Cart)=  0.00000022 RMS(Int)=  0.00000004
 Variable       Old X    -DE/DX   Delta X   Delta X   Delta X     New X
                                 (Linear)    (Quad)   (Total)
    R1        2.77585  -0.00001   0.00005  -0.00008  -0.00003   2.77582
    R2        2.77581   0.00001   0.00008  -0.00007   0.00001   2.77582
    R3        2.77582   0.00002   0.00007  -0.00004   0.00003   2.77585
    R4        2.06850   0.00002   0.00001   0.00003   0.00004   2.06854
    R5        2.09647  -0.00001   0.00001  -0.00003  -0.00002   2.09645
    R6        2.89248  -0.00003  -0.00006   0.00000  -0.00006   2.89242
    R7        2.07337   0.00000   0.00000   0.00001   0.00000   2.07337
    R8        2.07039   0.00001   0.00000   0.00002   0.00002   2.07040
    R9        2.07087   0.00002  -0.00004   0.00009   0.00005   2.07092
   R10        2.06851   0.00001  -0.00001   0.00002   0.00002   2.06853
   R11        2.09647   0.00000   0.00002  -0.00002  -0.00001   2.09646
   R12        2.89249  -0.00003  -0.00007   0.00000  -0.00007   2.89242
   R13        2.07337   0.00000   0.00000   0.00001   0.00000   2.07337
   R14        2.07039   0.00000   0.00000   0.00001   0.00001   2.07040
   R15        2.07088   0.00000  -0.00005   0.00007   0.00002   2.07090
   R16        2.09646   0.00000   0.00002  -0.00003  -0.00001   2.09645
   R17        2.06850   0.00001   0.00000   0.00003   0.00003   2.06853
   R18        2.89248  -0.00001  -0.00006   0.00004  -0.00002   2.89246
   R19        2.07088   0.00001  -0.00005   0.00008   0.00003   2.07091
   R20        2.07337   0.00000   0.00000   0.00001   0.00000   2.07337
   R21        2.07039   0.00001   0.00000   0.00001   0.00001   2.07040
    A1        1.95223   0.00002   0.00030  -0.00024   0.00006   1.95229
    A2        1.95231  -0.00001   0.00024  -0.00027  -0.00004   1.95228
    A3        1.95232  -0.00001   0.00023  -0.00028  -0.00004   1.95228
    A4        1.88678   0.00001   0.00004  -0.00001   0.00003   1.88681
    A5        1.93299   0.00001   0.00011  -0.00010   0.00000   1.93299
    A6        1.97355  -0.00005  -0.00031   0.00021  -0.00010   1.97345
    A7        1.85238   0.00000  -0.00005   0.00012   0.00007   1.85244
    A8        1.88924   0.00001   0.00018  -0.00019  -0.00001   1.88923
    A9        1.92395   0.00001   0.00004  -0.00002   0.00002   1.92397
   A10        1.92482   0.00000   0.00001  -0.00002   0.00000   1.92481
   A11        1.92220  -0.00001   0.00000  -0.00004  -0.00004   1.92216
   A12        1.95831  -0.00001  -0.00023   0.00025   0.00002   1.95833
   A13        1.89746   0.00001   0.00004   0.00000   0.00005   1.89750
   A14        1.87657   0.00001   0.00009  -0.00006   0.00002   1.87660
   A15        1.88269   0.00000   0.00010  -0.00014  -0.00004   1.88264
   A16        1.88673   0.00001   0.00008  -0.00003   0.00005   1.88678
   A17        1.93304   0.00000   0.00007  -0.00012  -0.00005   1.93298
   A18        1.97353  -0.00002  -0.00029   0.00027  -0.00002   1.97351
   A19        1.85237   0.00000  -0.00004   0.00009   0.00005   1.85242
   A20        1.88925   0.00000   0.00017  -0.00020  -0.00003   1.88922
   A21        1.92396   0.00001   0.00004  -0.00003   0.00001   1.92397
   A22        1.92483  -0.00001   0.00000  -0.00003  -0.00003   1.92480
   A23        1.92214   0.00001   0.00004  -0.00002   0.00002   1.92217
   A24        1.95831   0.00000  -0.00023   0.00027   0.00005   1.95836
   A25        1.89751   0.00000   0.00001  -0.00002  -0.00001   1.89750
   A26        1.87656   0.00001   0.00010  -0.00008   0.00002   1.87658
   A27        1.88270   0.00000   0.00009  -0.00014  -0.00005   1.88264
   A28        1.93304   0.00000   0.00007  -0.00016  -0.00009   1.93294
   A29        1.88671   0.00001   0.00009   0.00003   0.00012   1.88683
   A30        1.97354   0.00000  -0.00030   0.00036   0.00006   1.97360
   A31        1.85239   0.00000  -0.00006   0.00009   0.00003   1.85242
   A32        1.92399   0.00000   0.00001  -0.00009  -0.00008   1.92392
   A33        1.88921   0.00000   0.00020  -0.00024  -0.00004   1.88917
   A34        1.95835  -0.00001  -0.00025   0.00027   0.00001   1.95836
   A35        1.92482  -0.00001   0.00001  -0.00006  -0.00005   1.92477
   A36        1.92215   0.00002   0.00003   0.00007   0.00010   1.92225
   A37        1.87656   0.00001   0.00010  -0.00009   0.00000   1.87656
   A38        1.88269   0.00000   0.00009  -0.00011  -0.00002   1.88267
   A39        1.89748  -0.00001   0.00003  -0.00008  -0.00005   1.89742
    D1        2.82226   0.00001   0.00107  -0.00048   0.00059   2.82284
    D2        0.79975   0.00000   0.00104  -0.00056   0.00049   0.80023
    D3       -1.36961   0.00001   0.00113  -0.00060   0.00053  -1.36908
    D4        0.61651   0.00001   0.00033   0.00029   0.00062   0.61713
    D5       -1.40600   0.00000   0.00030   0.00022   0.00052  -1.40548
    D6        2.70783   0.00001   0.00039   0.00018   0.00057   2.70839
    D7        0.61714   0.00000  -0.00014   0.00016   0.00002   0.61715
    D8       -1.40536   0.00000  -0.00018   0.00013  -0.00005  -1.40541
    D9        2.70843   0.00000  -0.00006   0.00006   0.00000   2.70843
   D10        2.82288   0.00000   0.00060  -0.00062  -0.00001   2.82287
   D11        0.80039   0.00000   0.00057  -0.00065  -0.00008   0.80031
   D12       -1.36901   0.00000   0.00069  -0.00072  -0.00003  -1.36904
   D13        0.80007   0.00001   0.00081  -0.00049   0.00032   0.80038
   D14        2.82258   0.00001   0.00083  -0.00046   0.00037   2.82295
   D15       -1.36938   0.00002   0.00096  -0.00052   0.00045  -1.36893
   D16       -1.40563  -0.00001   0.00003   0.00027   0.00029  -1.40534
   D17        0.61688   0.00000   0.00005   0.00030   0.00035   0.61723
   D18        2.70811   0.00000   0.00018   0.00024   0.00042   2.70853
   D19       -3.11837   0.00000   0.00067  -0.00089  -0.00023  -3.11860
   D20       -1.02413   0.00000   0.00073  -0.00093  -0.00020  -1.02433
   D21        1.07332   0.00000   0.00070  -0.00096  -0.00027   1.07305
   D22       -1.02846   0.00000   0.00065  -0.00091  -0.00026  -1.02872
   D23        1.06578   0.00000   0.00071  -0.00094  -0.00023   1.06555
   D24       -3.11996  -0.00001   0.00068  -0.00098  -0.00030  -3.12026
   D25        0.99054   0.00000   0.00072  -0.00089  -0.00017   0.99036
   D26        3.08478   0.00001   0.00078  -0.00093  -0.00015   3.08463
   D27       -1.10096   0.00000   0.00075  -0.00096  -0.00021  -1.10118
   D28       -3.11760  -0.00001   0.00010  -0.00092  -0.00082  -3.11843
   D29       -1.02333  -0.00001   0.00013  -0.00097  -0.00084  -1.02417
   D30        1.07409  -0.00001   0.00012  -0.00098  -0.00086   1.07323
   D31       -1.02776   0.00000   0.00013  -0.00092  -0.00079  -1.02855
   D32        1.06651   0.00000   0.00017  -0.00097  -0.00080   1.06571
   D33       -3.11925  -0.00001   0.00016  -0.00098  -0.00082  -3.12008
   D34        0.99124   0.00000   0.00020  -0.00094  -0.00074   0.99050
   D35        3.08551   0.00000   0.00023  -0.00099  -0.00076   3.08475
   D36       -1.10025   0.00000   0.00022  -0.00100  -0.00078  -1.10103
   D37        1.07377  -0.00001   0.00036  -0.00144  -0.00108   1.07269
   D38       -3.11791  -0.00001   0.00033  -0.00143  -0.00110  -3.11901
   D39       -1.02368  -0.00001   0.00039  -0.00152  -0.00113  -1.02481
   D40       -1.10061   0.00000   0.00049  -0.00143  -0.00094  -1.10155
   D41        0.99090   0.00000   0.00045  -0.00141  -0.00096   0.98994
   D42        3.08513   0.00000   0.00052  -0.00151  -0.00099   3.08414
   D43       -3.11962   0.00000   0.00043  -0.00134  -0.00091  -3.12054
   D44       -1.02812   0.00000   0.00039  -0.00133  -0.00093  -1.02905
   D45        1.06611   0.00000   0.00046  -0.00142  -0.00096   1.06515
         Item               Value     Threshold  Converged?
 Maximum Force            0.000046     0.000450     YES
 RMS     Force            0.000010     0.000300     YES
 Maximum Displacement     0.002106     0.001800     NO 
 RMS     Displacement     0.000559     0.001200     YES
 Predicted change in Energy=-6.392109D-08
 GradGradGradGradGradGradGradGradGradGradGradGradGradGradGradGradGradGrad

                          Input orientation:                          
 ---------------------------------------------------------------------
 Center     Atomic      Atomic             Coordinates (Angstroms)
 Number     Number       Type             X           Y           Z
 ---------------------------------------------------------------------
      1          7           0        0.000035    0.000025   -0.015636
      2          6           0       -0.335550    1.364327   -0.444270
      3          1           0       -1.423123    1.478378   -0.395561
      4          1           0       -0.056164    1.522647   -1.506170
      5          6           0        0.299333    2.443034    0.436671
      6          1           0        0.000802    3.440661    0.091087
      7          1           0       -0.024172    2.319604    1.476129
      8          1           0        1.394269    2.401403    0.418098
      9          6           0        1.349330   -0.391561   -0.444278
     10          1           0        1.991881    0.493287   -0.395658
     11          1           0        1.346712   -0.712726   -1.506169
     12          6           0        1.966159   -1.480679    0.436682
     13          1           0        2.979438   -1.720827    0.091139
     14          1           0        2.020938   -1.138811    1.476143
     15          1           0        1.382777   -2.408181    0.418078
     16          6           0       -1.013758   -0.972768   -0.444142
     17          1           0       -1.290537   -0.810050   -1.506061
     18          1           0       -0.568797   -1.971679   -0.395369
     19          6           0       -2.265479   -0.962308    0.436705
     20          1           0       -2.776755    0.006820    0.418342
     21          1           0       -2.980267   -1.719433    0.090807
     22          1           0       -1.997073   -1.181163    1.476137
 ---------------------------------------------------------------------
                    Distance matrix (angstroms):
                    1          2          3          4          5
     1  N    0.000000
     2  C    1.468899   0.000000
     3  H    2.086924   1.094622   0.000000
     4  H    2.131485   1.109394   1.761815   0.000000
     5  C    2.502490   1.530602   2.142435   2.179019   0.000000
     6  H    3.442291   2.170461   2.472841   2.496648   1.097182
     7  H    2.757970   2.167359   2.483536   3.087114   1.095611
     8  H    2.810450   2.193508   3.074364   2.564912   1.095885
     9  C    1.468902   2.433509   3.344480   2.601389   3.148571
    10  H    2.086905   2.485559   3.554245   2.547019   2.712748
    11  H    2.131488   2.876071   3.702213   2.639120   3.851033
    12  C    2.502543   3.764040   4.575575   4.109067   4.263078
    13  H    3.442321   4.560042   5.463912   4.720847   4.963879
    14  H    2.757971   3.937857   4.713228   4.504654   4.107802
    15  H    2.810612   4.234160   4.862142   4.607027   4.970763
    16  C    1.468918   2.433512   2.485570   2.876107   3.764006
    17  H    2.131469   2.601407   2.547095   2.639158   4.109069
    18  H    2.086956   3.344508   3.554261   3.702296   4.575548
    19  C    2.502648   3.148646   2.712780   3.851083   4.263169
    20  H    2.810506   2.923424   2.158759   3.661024   3.924002
    21  H    3.442392   4.097611   3.589881   4.648850   5.310511
    22  H    2.758447   3.595573   3.302398   4.468991   4.414609
                    6          7          8          9         10
     6  H    0.000000
     7  H    1.782059   0.000000
     8  H    1.768826   1.771467   0.000000
     9  C    4.097691   3.595120   2.923416   0.000000
    10  H    3.590032   3.302043   2.158759   1.094619   0.000000
    11  H    4.649013   4.468607   3.660992   1.109399   1.761802
    12  C    5.310522   4.414070   3.924023   1.530603   2.142427
    13  H    5.959298   5.221585   4.428593   2.170454   2.472760
    14  H    5.193351   4.017848   3.747704   2.167362   2.483591
    15  H    6.018781   5.044891   4.809597   2.193520   3.074360
    16  C    4.560061   3.937821   4.234038   2.433514   3.344478
    17  H    4.720909   4.504650   4.606951   2.876007   3.702154
    18  H    5.463928   4.713198   4.862017   2.485635   3.554312
    19  C    4.964032   4.107896   4.970779   3.764137   4.575663
    20  H    4.428677   3.747613   4.809519   4.234076   4.862009
    21  H    5.959307   5.193403   6.018719   4.560151   5.463976
    22  H    5.222176   4.018421   5.045337   3.938258   4.713719
                   11         12         13         14         15
    11  H    0.000000
    12  C    2.179022   0.000000
    13  H    2.496688   1.097181   0.000000
    14  H    3.087121   1.095607   1.782050   0.000000
    15  H    2.564877   1.095875   1.768805   1.771455   0.000000
    16  C    2.601412   3.148608   4.097772   3.595058   2.923562
    17  H    2.639044   3.850982   4.649005   4.468500   3.661003
    18  H    2.547159   2.712821   3.590208   3.301963   2.158905
    19  C    4.109132   4.263269   5.310736   4.414176   3.924368
    20  H    4.607002   4.970736   6.018769   5.044727   4.809775
    21  H    4.720862   4.964249   5.959705   5.221909   4.429180
    22  H    4.504939   4.108209   5.193757   4.018234   3.748125
                   16         17         18         19         20
    16  C    0.000000
    17  H    1.109395   0.000000
    18  H    1.094620   1.761797   0.000000
    19  C    1.530622   2.178998   2.142406   0.000000
    20  H    2.193542   2.565043   3.074355   1.095878   0.000000
    21  H    2.170446   2.496428   2.472890   1.097181   1.768797
    22  H    2.167442   3.087138   2.483429   1.095609   1.771479
                   21         22
    21  H    0.000000
    22  H    1.782006   0.000000
 Stoichiometry    C6H15N
 Framework group  C1[X(C6H15N)]
 Deg. of freedom    60
 Full point group                 C1      NOp   1
 Largest Abelian subgroup         C1      NOp   1
 Largest concise Abelian subgroup C1      NOp   1
                         Standard orientation:                         
 ---------------------------------------------------------------------
 Center     Atomic      Atomic             Coordinates (Angstroms)
 Number     Number       Type             X           Y           Z
 ---------------------------------------------------------------------
      1          7           0       -0.000031    0.000013    0.015735
      2          6           0        0.103124    1.401190    0.444369
      3          1           0        1.156404    1.695173    0.395660
      4          1           0       -0.198768    1.510656    1.506269
      5          6           0       -0.702903    2.358793   -0.436572
      6          1           0       -0.575078    3.392254   -0.090988
      7          1           0       -0.363335    2.291093   -1.476031
      8          1           0       -1.775530    2.134986   -0.417999
      9          6           0       -1.265036   -0.611296    0.444377
     10          1           0       -2.046266    0.153888    0.395756
     11          1           0       -1.208848   -0.927518    1.506268
     12          6           0       -1.691423   -1.788092   -0.436583
     13          1           0       -2.650402   -2.194002   -0.091040
     14          1           0       -1.802496   -1.460163   -1.476045
     15          1           0       -0.961411   -2.605208   -0.417980
     16          6           0        1.161913   -0.789916    0.444240
     17          1           0        1.407649   -0.583282    1.506160
     18          1           0        0.889927   -1.849084    0.395468
     19          6           0        2.394328   -0.570673   -0.436606
     20          1           0        2.736670    0.470199   -0.418243
     21          1           0        3.225464   -1.197868   -0.090708
     22          1           0        2.166217   -0.831258   -1.476038
 ---------------------------------------------------------------------
 Rotational constants (GHZ):           2.2911136           2.2909539           1.3151020
 Standard basis: 6-31+G(d) (6D, 7F)
 There are   163 symmetry adapted cartesian basis functions of A   symmetry.
 There are   163 symmetry adapted basis functions of A   symmetry.
   163 basis functions,   284 primitive gaussians,   163 cartesian basis functions
    29 alpha electrons       29 beta electrons
[...]
 0.01222986,-0.02110551,0.01871365,-0.00436916,0.00710681,-0.00597157,0
 .02927104,0.52763360,0.00283025,-0.00896157,0.00844413,0.00322595,-0.0
 0029913,-0.00052522,0.00059964,-0.00103810,0.00026936,-0.00000893,-0.0
 0028822,0.00029970,-0.00006348,-0.00003451,0.00032267,-0.00001167,-0.0
 0005085,-0.00012236,0.00018974,-0.00000349,-0.00011148,-0.00002660,0.0
 0003614,0.00010102,-0.02676999,0.05282988,-0.12413316,0.00010657,-0.00
 062222,0.00042837,-0.01248036,0.02452663,-0.01872287,-0.02858036,0.041
 08598,0.54389069,-0.00048102,0.00307906,-0.00190278,-0.00085604,-0.000
 77233,-0.00012491,-0.00010064,0.00032331,-0.00008354,0.00000166,0.0001
 5547,-0.00017951,0.00000676,-0.00003110,-0.00005425,0.00000166,0.00005
 989,0.00000828,0.00000068,-0.00001763,0.00002194,0.00004481,-0.0000058
 4,0.00002115,-0.01060989,-0.00028274,0.00641698,0.00063312,0.00046692,
 0.00009391,-0.00002637,-0.00023607,-0.00085643,-0.27030906,0.05144967,
 0.07592466,0.29378149,0.00210230,-0.00441675,0.00307592,0.00139837,0.0
 0055141,0.00009019,0.00020303,-0.00048425,0.00011903,-0.00000148,-0.00
 009993,0.00016070,0.00003647,0.00003053,0.00003168,-0.00002199,-0.0000
 3202,-0.00000437,-0.00001953,0.00001521,-0.00001196,-0.00006384,-0.000
 00804,-0.00002965,0.02094596,-0.00378776,-0.01055016,-0.00023669,0.000
 03898,-0.00080666,-0.00032451,0.00080417,0.00020144,0.05026133,-0.0597
 6634,-0.01715359,-0.05771505,0.06304384,-0.00074869,0.00301635,-0.0016
 0399,-0.00116739,0.00016996,0.00038809,-0.00012664,0.00038130,-0.00009
 153,0.00004974,-0.00010243,0.00001137,0.00001173,-0.00002181,-0.000077
 46,0.00001866,0.00000610,0.00003734,-0.00002964,0.00002202,0.00001914,
 0.00004118,0.00001098,0.00000901,-0.01890341,0.00264965,0.00680724,0.0
 0039361,-0.00053003,0.00062336,0.00014139,-0.00082115,0.00015059,0.077
 39724,-0.01793401,-0.07623132,-0.08458380,0.01758347,0.07819726,0.0012
 4603,-0.00110354,-0.00007106,0.00007288,0.00045540,-0.00012849,0.00000
 274,-0.00005134,0.00004243,-0.00002778,-0.00012582,0.00024766,0.000040
 92,-0.00002366,-0.00001951,-0.00001987,-0.00001510,0.00002997,-0.00003
 191,0.00005423,0.00003274,-0.00003437,-0.00001434,-0.00001148,-0.00151
 941,-0.00393111,-0.01367427,0.00025520,-0.00017893,0.00085328,-0.00038
 833,0.00212324,-0.00152599,-0.04948907,-0.00515776,-0.01060482,0.00334
 188,0.00982682,0.02934842,0.04805428,-0.00143978,0.00122810,-0.0005060
 9,-0.00022903,-0.00024124,0.00026741,-0.00003219,0.00004550,-0.0000677
 7,0.00003319,0.00006714,-0.00020140,0.00010873,0.00007228,-0.00008218,
 -0.00004428,0.00001259,-0.00002113,0.00002165,-0.00004272,-0.00001628,
 -0.00005934,-0.00004830,0.00005234,0.00175566,0.00737100,0.02574430,-0
 .00054334,0.00115193,-0.00015052,0.00266882,-0.00313641,0.00319911,-0.
 00522848,-0.07665349,-0.08298317,-0.00089583,-0.00310167,-0.00519439,0
 .00387479,0.08180891,0.00030179,-0.00065788,0.00230294,-0.00000635,-0.
 00008478,0.00020639,-0.00002803,0.00005348,0.00007356,0.00011376,-0.00
 021134,0.00012164,-0.00004708,0.00001208,-0.00004671,0.00003515,0.0000
 1597,0.00004955,-0.00007203,0.00003680,0.00006532,0.00001546,0.0000471
 9,-0.00008251,-0.00023940,-0.00623843,-0.02067988,0.00046221,0.0002289
 7,0.00056178,-0.00160514,0.00370556,-0.00118717,-0.01229798,-0.0810044
 8,-0.28423377,-0.00050664,-0.00258446,-0.00788702,0.01378677,0.0866726
 5,0.31017291,0.00067818,-0.00060404,0.00064516,0.00013822,0.00018500,-
 0.00003366,-0.00000647,-0.00008061,0.00002819,-0.00002861,-0.00008796,
 0.00015524,0.00003007,-0.00002624,0.00006321,-0.00001384,-0.00003506,-
 0.00000985,-0.00002278,0.00001197,-0.00000167,-0.00003239,-0.00001971,
 -0.00003564,0.00837288,0.01230972,0.00083729,-0.00039667,0.00268784,-0
 .00172258,0.00036895,-0.00080419,0.00078840,-0.12456311,-0.11949509,-0
 .00328812,-0.01606107,-0.02624427,-0.00186603,-0.00101575,0.00007628,-
 0.00008795,0.13522082,-0.00054516,0.00117549,-0.00011894,0.00012385,-0
 .00006943,-0.00007613,0.00016706,-0.00008688,-0.00004926,-0.00011570,0
 .00017912,-0.00018249,-0.00007532,0.00000659,-0.00001579,0.00009817,-0
 .00000246,0.00000719,0.00003397,-0.00001879,-0.00003188,0.00015964,0.0
 0016734,0.00007323,-0.01382192,-0.02026182,-0.00126392,0.00256055,-0.0
 0225530,0.00349731,0.00034717,0.00097520,0.00002412,-0.11860122,-0.233
 32974,-0.00642303,0.00383836,0.00738006,0.00044831,-0.00559142,-0.0085
 1806,-0.00014994,0.13098919,0.25401214,0.00006113,-0.00112611,0.000214
 73,0.00009935,0.00000414,-0.00010577,-0.00005590,-0.00001521,0.0000382
 4,0.00002606,-0.00002854,0.00010680,0.00004572,0.00001612,0.00000833,-
 0.00003591,0.00000202,0.00001545,-0.00006824,0.00001876,0.00003742,-0.
 00008716,-0.00003453,-0.00007985,0.01288839,0.01730147,0.00064494,-0.0
 0218161,0.00324731,-0.00175141,0.00072679,-0.00048192,0.00057470,-0.00
 397253,-0.00669179,-0.04977678,0.00558604,0.00962746,-0.00043988,-0.01
 818858,-0.02644853,0.00059665,0.00620045,0.00426135,0.04980400,-0.1405
 9067,-0.03753531,-0.01077562,0.01032417,-0.00357386,0.00073706,-0.0012
 2370,0.00259304,0.00038008,-0.00015573,0.00428634,-0.00161601,-0.00107
 472,0.00371814,-0.00135297,0.00047071,0.00153830,0.00043646,-0.0000638
 5,-0.00053317,0.00007627,0.00011572,-0.00019776,-0.00005334,-0.0345211
 4,-0.02230481,-0.00957640,-0.00447631,0.00182007,0.00024087,0.00309226
 ,-0.00170726,-0.00192922,-0.00050345,-0.00016223,-0.00054397,0.0006161
 3,-0.00034675,-0.00006555,-0.00051054,0.00010211,0.00002548,-0.0009852
 0,0.00009139,-0.00017596,0.49373153,-0.04040097,-0.13785985,-0.0101416
 1,-0.02125167,-0.03512293,-0.01542583,-0.00155478,-0.00020593,-0.00060
 252,0.00014236,0.00279944,-0.00127886,0.00173535,-0.00411350,0.0029437
 0,-0.00063265,-0.00077568,-0.00109626,0.00014943,-0.00010309,0.0000364
 4,-0.00013661,-0.00004718,0.00008415,-0.00463793,0.00971366,0.00340991
 ,0.00353145,-0.00023848,-0.00136464,0.00266428,-0.00070110,-0.00252054
 ,0.00145115,0.00117823,-0.00101276,0.00027393,-0.00097583,0.00029147,-
 0.00055635,-0.00028630,-0.00001089,0.00056425,-0.00141804,0.00067615,-
 0.06679600,0.57126890,-0.04482939,-0.03981171,-0.07455024,0.00774302,0
 .00659613,-0.00456307,-0.00056589,-0.00032434,0.00137501,0.00093844,0.
 00493981,-0.00049472,0.00003008,-0.00032231,-0.00052588,-0.00001558,-0
 .00015351,0.00038815,-0.00016797,-0.00024717,0.00020661,0.00008290,0.0
 0000924,-0.00010625,0.01299366,0.00835449,-0.00456619,0.00417168,0.000
 17611,-0.00012436,0.00350165,0.00148989,0.00230437,-0.00132682,0.00073
 774,-0.00025849,0.00021274,-0.00003934,0.00006611,-0.00033474,-0.00005
 760,-0.00007121,-0.00093673,-0.00042242,0.00017336,0.00547176,-0.02818
 395,0.52030291,-0.01604863,-0.00646069,-0.02656799,-0.00016538,0.00358
 918,-0.00046351,0.00036695,-0.00015289,0.00028955,-0.00009451,-0.00061
 576,0.00121632,-0.00001463,-0.00018957,0.00025380,-0.00000782,-0.00016
 094,0.00006392,0.00000315,0.00014308,0.00012625,0.00003912,0.00012717,
 0.00001167,0.00397976,-0.00190086,-0.00474624,-0.00007416,0.00005515,0
 .00053477,0.00012829,0.00073695,0.00199941,-0.00028445,0.00046164,0.00
 029248,-0.00010151,0.00012145,-0.00000954,-0.00001552,-0.00016003,0.00
 019549,-0.00000744,-0.00009234,0.00002571,-0.06205978,0.01243689,-0.04
 880496,0.07335716,-0.01550884,-0.00249849,-0.02494249,-0.00078051,0.00
 255256,-0.00378165,0.00001432,-0.00049487,-0.00028995,-0.00017326,0.00
 063911,0.00102844,0.00021527,-0.00015879,0.00013604,-0.00000391,-0.000
 09033,0.00009437,-0.00001510,0.00003580,0.00020438,0.00015496,0.000111
 65,0.00003682,0.00224766,-0.00133562,-0.00165506,-0.00002191,0.0000845
 2,0.00010360,0.00029491,0.00043022,0.00089213,-0.00016678,-0.00054665,
 0.00021606,0.00004460,0.00030091,0.00007667,0.00014794,0.00002326,0.00
 003834,0.00007153,0.00045070,0.00000574,0.01269186,-0.06041796,0.04072
 406,-0.00567933,0.06283491,-0.01266870,-0.00928639,-0.01243297,-0.0012
 1645,0.00293363,0.00230616,0.00063982,-0.00062370,-0.00043708,-0.00022
 882,-0.00217975,0.00063528,0.00037570,-0.00036483,0.00029929,-0.000049
 43,-0.00023582,0.00001143,0.00005022,0.00031417,0.00012170,0.00008052,
 0.00022587,0.00010676,0.00191548,-0.00075914,-0.00049406,-0.00028438,0
 .00004671,0.00018700,-0.00149882,0.00054037,0.00063543,-0.00018248,-0.
 00000251,0.00028281,-0.00013264,0.00011736,0.00003410,0.00019114,-0.00
 012923,0.00011380,0.00009871,0.00003418,-0.00008852,-0.04575429,0.0424
 5384,-0.24999102,0.05929132,-0.03964732,0.27995407,0.00801611,-0.02609
 592,0.00101833,-0.00361592,-0.00231779,-0.00193246,0.00012819,-0.00010
 260,-0.00010475,0.00003059,-0.00011586,0.00018275,0.00054589,-0.001198
 70,0.00059923,-0.00016048,-0.00035786,-0.00026694,-0.00000138,0.000049
 12,-0.00003230,-0.00002924,0.00006757,0.00004112,-0.00001496,-0.001891
 68,0.00055744,0.00028532,0.00019312,-0.00006291,-0.00034974,-0.0002594
 8,0.00022002,-0.00198143,-0.00058515,-0.00088731,0.00015546,0.00001691
 ,0.00014695,0.00013546,0.00004835,0.00005047,-0.00186400,0.00031453,-0
 .00097093,-0.09494632,0.10489429,-0.00796778,-0.00275362,0.00680601,-0
 .00046790,0.11275717,0.00548440,-0.02566621,0.00190273,-0.00402960,-0.
 00109755,-0.00369984,-0.00006366,0.00043378,-0.00009111,-0.00003826,-0
 .00002129,0.00022307,0.00052848,-0.00100086,0.00103835,-0.00023759,-0.
 00042447,-0.00030035,0.00002949,0.00004925,-0.00005105,-0.00018014,-0.
 00006371,-0.00004085,0.00226457,-0.00140980,-0.00034040,0.00015446,0.0
 0027643,0.00028409,-0.00043481,0.00020069,0.00087285,0.00042647,-0.000
 03983,0.00015990,0.00017719,0.00037599,-0.00000844,0.00018637,0.000136
 74,0.00009593,0.00069526,0.00116322,-0.00000208,0.09518766,-0.26159061
 ,0.01216867,0.00286717,-0.00418047,0.00175033,-0.10355579,0.28984684,0
 .00452081,-0.01220035,0.00042537,-0.00130266,0.00047364,-0.00012177,0.
 00027793,-0.00008848,-0.00024201,-0.00017758,-0.00051511,0.00018720,0.
 00014510,-0.00049364,0.00026937,-0.00006130,-0.00013191,-0.00009151,0.
 00003713,0.00007032,0.00007348,0.00002862,0.00004921,0.00003821,0.0003
 2344,0.00063390,0.00137541,0.00013131,-0.00004526,-0.00024243,0.000114
 07,0.00040541,-0.00044395,-0.00053236,-0.00054304,-0.00012994,0.000165
 13,0.00016497,0.00000759,-0.00002767,-0.00002256,-0.00008562,-0.000914
 51,0.00036853,0.00007969,-0.00964907,0.01641331,-0.05223452,-0.0136461
 8,0.02878317,-0.00205550,0.00725867,-0.01385419,0.05332898,-0.02801504
 ,-0.00597963,0.00873167,0.00019768,-0.00024401,0.00130149,-0.00046079,
 -0.00029733,-0.00019831,-0.00060874,-0.00027453,0.00008955,0.00006381,
 0.00027800,0.00006135,0.00002692,0.00004273,0.00001311,0.00010088,0.00
 005821,0.00001305,-0.00003140,-0.00000915,-0.00003682,-0.00099191,-0.0
 0366948,0.00026343,-0.00090448,0.00036115,0.00035492,-0.00011141,0.000
 13345,0.00012800,0.00019897,-0.00020078,0.00014823,0.00000476,0.000087
 32,-0.00001821,0.00000604,-0.00003750,-0.00001454,0.00010548,0.0002153
 3,-0.00001604,-0.14646310,0.00716641,0.05454468,0.00641875,0.00083901,
 -0.00392286,-0.01360995,0.00045156,0.01071381,0.50888519,-0.02437426,0
 .00015077,0.01147078,-0.00185573,0.00047441,0.00078143,-0.00131332,-0.
 00156929,0.00073912,0.00035412,-0.00022291,0.00015951,-0.00003592,0.00
 010313,-0.00003812,-0.00002487,0.00001033,0.00002114,-0.00007439,0.000
 01124,-0.00004670,0.00003986,0.00006830,0.00003163,-0.00168709,-0.0041
 9618,0.00018716,-0.00136581,0.00044933,0.00037254,-0.00027149,-0.00006
 192,0.00050773,0.00011327,-0.00003132,-0.00002572,0.00009181,0.0001430
 9,-0.00002860,0.00010826,0.00012671,0.00005218,-0.00017436,0.00044047,
 -0.00030672,0.00938443,-0.08146382,-0.00423189,-0.00555461,0.00099348,
 0.00514135,0.02520271,0.00085009,-0.01886904,-0.00313618,0.57298752,-0
 .00917622,0.00203145,0.00844627,-0.00060556,0.00097868,-0.00025982,0.0
 0058527,0.00068639,-0.00013400,0.00004127,-0.00036110,0.00028262,-0.00
 009608,-0.00011531,0.00032268,-0.00000033,-0.00006285,-0.00007746,0.00
 008068,0.00002407,-0.00004699,-0.00001784,0.00006275,0.00000832,-0.001
 87278,-0.00264389,-0.00052545,-0.00119891,-0.00000019,0.00026959,-0.00
 024489,0.00015170,0.00029933,0.00000201,0.00007187,0.00032250,-0.00003
 822,0.00003550,-0.00012224,-0.00009849,-0.00016283,-0.00011146,0.00004
 481,0.00000495,0.00010080,0.05913104,-0.00324543,-0.12410995,0.0274840
 0,-0.00145851,-0.01872473,-0.00059336,0.00021873,0.00042855,0.04983835
 ,0.00419490,0.54392524,0.00155271,0.00005930,-0.00042188,-0.00159263,0
 .00025942,0.00010294,-0.00002629,-0.00138746,0.00078529,0.00034541,-0.
 00011109,-0.00001963,0.00033899,-0.00035038,-0.00001790,-0.00002500,-0
 .00003464,-0.00003004,-0.00007655,-0.00001162,-0.00004846,0.00017784,0
 .00014105,0.00007348,-0.00015214,0.00004431,-0.00004963,-0.00010404,-0
 .00011083,-0.00005686,0.00021582,-0.00002528,-0.00023600,0.00005681,0.
 00006017,-0.00004530,-0.00003260,-0.00008736,0.00001115,-0.00003991,-0
 .00002437,-0.00002672,0.00005662,-0.00021111,0.00008121,-0.01240484,0.
 02586093,-0.00151638,0.00101922,-0.00072182,-0.00037253,-0.00406381,-0
 .00044370,0.00389130,-0.10300398,0.10613529,-0.00388070,0.11079359,0.0
 0010121,0.00031088,-0.00049940,-0.00021569,-0.00080989,0.00102329,-0.0
 0175435,-0.00065857,0.00060039,-0.00027493,0.00009822,-0.00010247,0.00
 003979,0.00020698,-0.00004097,0.00002358,0.00006178,0.00003016,0.00003
 546,-0.00000608,-0.00000957,-0.00003822,-0.00004317,-0.00005825,-0.000
 01801,0.00021997,0.00006696,0.00013706,0.00001086,0.00000022,-0.000052
 84,-0.00006495,-0.00004327,0.00001098,-0.00001968,-0.00004688,0.000045
 91,0.00001632,0.00000493,-0.00000204,-0.00000187,0.00001742,-0.0000318
 8,0.00007813,-0.00000570,-0.00028230,0.00055744,-0.00008506,0.00042646
 ,0.00032725,-0.00069065,-0.00057125,0.00141137,-0.00025759,0.10703344,
 -0.25491370,0.00600195,-0.11689127,0.27840778,-0.00100093,0.00051975,0
 .00021410,0.00067487,-0.00018676,0.00017344,0.00047456,0.00084384,0.00
 010088,-0.00000830,-0.00002501,-0.00008830,-0.00025792,0.00016726,0.00
 010107,0.00001512,0.00003314,0.00000903,-0.00003891,-0.00003561,-0.000
 08243,-0.00004571,-0.00006756,-0.00007989,-0.00004677,-0.00008816,-0.0
 0010609,0.00001474,0.00005594,0.00003818,-0.00003771,-0.00000837,0.000
 10671,-0.00000892,-0.00004761,0.00000831,0.00001972,0.00003011,0.00001
 541,0.00005036,0.00004959,0.00003740,0.00001367,0.00009282,-0.00007975
 ,0.00852252,-0.01979612,0.00064010,-0.00077696,-0.00039155,0.00057052,
 0.00390152,0.00026556,-0.00175018,-0.00374862,0.00672179,-0.04979635,0
 .00054150,-0.00744004,0.04980145,-0.00567411,0.00090062,0.00361516,-0.
 00054584,0.00101762,-0.00014040,0.00023657,-0.00006423,0.00006089,0.00
 012824,-0.00025433,0.00016791,0.00003087,-0.00010236,0.00004980,-0.000
 00718,-0.00006499,-0.00001461,-0.00002122,0.00001432,-0.00003141,0.000
 02204,0.00005579,0.00001617,-0.00007228,-0.00185138,0.00014024,-0.0006
 1631,0.00009466,0.00014490,-0.00014101,0.00008398,0.00022884,0.0000224
 2,-0.00004548,0.00005468,-0.00004002,0.00004603,-0.00000792,0.00002750
 ,0.00000374,-0.00002137,0.00003540,0.00006930,-0.00003636,-0.01445035,
 -0.01873714,-0.01235375,0.00084027,-0.00017599,0.00060262,0.00008582,0
 .00055261,-0.00074359,-0.15647457,-0.11597284,-0.05288645,0.01121825,0
 .01048110,0.00554641,0.17075034,-0.00007939,0.00077800,0.00011042,0.00
 039639,0.00018676,-0.00016466,-0.00022360,0.00029416,-0.00022561,-0.00
 017737,0.00007100,0.00005621,-0.00010679,0.00011687,0.00001538,0.00001
 687,-0.00002318,0.00001310,0.00004342,0.00001385,0.00002241,-0.0000774
 5,-0.00003829,-0.00003212,0.00031888,-0.00023288,0.00006305,-0.0000256
 2,0.00003135,0.00001280,-0.00007297,0.00004292,0.00007504,0.00002222,0
 .00001503,0.00003115,-0.00003582,0.00000964,-0.00000499,0.00000198,-0.
 00001185,-0.00001303,0.00001127,0.00000144,-0.00000350,0.00249342,0.00
 004415,-0.00028103,-0.00026371,-0.00006102,0.00064124,-0.00015214,0.00
 058275,0.00032219,-0.11716569,-0.17352210,-0.05720708,-0.01959852,-0.0
 1989748,-0.00966410,0.12874674,0.18599342,0.00298759,-0.00086004,-0.00
 160301,0.00028525,-0.00008919,0.00006627,-0.00008090,-0.00012299,0.000
 00768,0.00007114,-0.00003000,0.00003408,-0.00001571,0.00003012,-0.0001
 2239,-0.00000035,0.00000936,0.00003735,0.00000324,0.00003646,0.0000495
 6,-0.00000133,-0.00001211,0.00001542,0.00073089,0.00092618,0.00038791,
 0.00039356,-0.00008102,-0.00009159,-0.00011353,0.00000813,0.00001138,-
 0.00002472,0.00000081,-0.00007745,-0.00000406,-0.00001924,0.00003734,0
 .00003372,0.00001469,0.00001915,-0.00001101,-0.00004120,0.00000895,0.0
 1175255,0.01504092,0.00680837,-0.00078059,0.00028897,0.00015192,-0.000
 65566,-0.00007635,0.00062253,-0.05430243,-0.05809493,-0.07628152,0.001
 31529,0.00138632,-0.00044052,0.05759685,0.06449520,0.07826000,0.002366
 40,0.00080289,-0.00039316,-0.00014582,-0.00031313,0.00011611,0.0000338
 8,0.00000885,-0.00000387,0.00001859,0.00014085,-0.00020793,0.00006616,
 0.00000343,-0.00009232,-0.00000447,0.00001501,-0.00000413,-0.00000938,
 -0.00003753,0.00000192,0.00000038,0.00000164,0.00001748,-0.00026319,0.
 00042272,0.00029384,0.00007097,-0.00000782,-0.00008019,0.00008444,-0.0
 0009768,-0.00029842,0.00002999,-0.00010135,-0.00006129,0.00002981,0.00
 001548,-0.00003324,-0.00009047,0.00000083,-0.00003335,-0.00000931,0.00
 004569,0.00004837,0.00607919,-0.00616659,0.02912938,-0.00452522,-0.000
 28060,0.00353378,0.00125084,-0.00002215,-0.00055240,-0.06533311,0.0144
 1113,-0.06649760,-0.00425344,0.00179779,-0.01380425,-0.00535484,0.0059
 2788,-0.01917975,0.06995859,0.00046772,0.00011332,0.00032147,0.0003463
 1,-0.00065198,0.00031690,-0.00013095,0.00023446,0.00003896,-0.00016847
 ,-0.00001042,-0.00010156,-0.00014230,0.00006795,0.00016618,0.00001655,
 0.00002063,-0.00003661,-0.00001145,-0.00006996,-0.00008332,-0.00002063
 ,-0.00004141,-0.00006893,-0.00026496,0.00009261,-0.00002531,0.00001247
 ,-0.00002300,-0.00000341,0.00006262,-0.00004456,-0.00011445,0.00003188
 ,0.00008546,0.00005749,-0.00001370,-0.00003757,-0.00001536,-0.00002763
 ,-0.00000223,-0.00002136,0.00000111,-0.00006938,-0.00001587,-0.0004672
 9,-0.00024151,-0.00103580,0.00026561,0.00099980,-0.00027970,-0.0003883
 7,0.00016765,-0.00066348,0.01434767,-0.06082765,0.05079426,0.00744899,
 -0.00529159,0.02897109,-0.00479780,0.00560544,-0.02281010,-0.01656736,
 0.05992394,-0.00071606,0.00006824,0.00229892,-0.00002177,-0.00001793,-
 0.00007113,0.00005754,-0.00009114,-0.00008603,-0.00006459,-0.00018830,
 0.00011365,0.00005251,-0.00001348,-0.00011188,-0.00000061,0.00002506,0
 .00001915,-0.00000147,0.00004060,0.00006414,0.00002845,0.00001446,0.00
 003736,-0.00006998,0.00004760,0.00020640,0.00006045,-0.00000245,0.0000
 7357,-0.00023986,0.00000700,0.00012151,0.00003404,0.00003497,-0.000046
 74,-0.00000375,-0.00003841,0.00004951,0.00006860,0.00004357,0.00006426
 ,0.00003262,-0.00003700,-0.00008208,-0.00528170,0.00332951,-0.02066911
 ,0.00401129,-0.00046225,-0.00118638,-0.00003419,-0.00051554,0.00056104
 ,-0.06394380,0.05126044,-0.28421592,-0.00008014,0.00014820,0.00060694,
 -0.00198859,0.00173793,-0.00790144,0.06810101,-0.05539108,0.31015428\\
 0.00002836,0.00003516,-0.00001695,-0.00001079,-0.00000369,-0.00000087,
 0.00000061,-0.00000489,0.00000251,0.00000993,-0.00000506,0.00000678,-0
 .00000252,0.00000095,-0.00000276,0.00000080,0.00000107,-0.00000102,-0.
 00000698,-0.00001925,-0.00000132,0.00001077,0.00000583,-0.00000032,-0.
 00000903,0.00000785,0.00000678,-0.00000454,0.00000082,-0.00000153,-0.0
 0000177,-0.00000400,0.00000262,0.00000380,-0.00000601,-0.00000161,0.00
 000107,-0.00000283,0.00000075,-0.00000593,0.00000524,-0.00000399,0.000
 00482,-0.00000465,0.00000137,0.00001636,0.00000614,0.00000452,-0.00000
 263,0.00000121,0.00000576,-0.00000076,0.00000102,0.00000367,-0.0000086
 0,-0.00000018,-0.00000198,-0.00001263,0.00000023,-0.00000152,-0.000002
 94,0.00000177,0.00000212,-0.00000739,-0.00001675,-0.00000299\\\@


 UNDER MOST GREENE GRASSE LY MOST GREATE SNAKES.
 -- PROVERBS AND REASONS OF THE YEAR 1585
           AS REPRINTED IN PAISLEY MAGAZINE 1828.
 Job cpu time:       0 days  0 hours 57 minutes 34.4 seconds.
 Elapsed time:       0 days  0 hours  1 minutes 48.1 seconds.
 File lengths (MBytes):  RWF=     66 Int=      0 D2E=      0 Chk=      4 Scr=      1
 Normal termination of Gaussian 16 at Wed Sep 13 09:31:20 2023.
