 Entering Gaussian System, Link 0=g16
 Input=/home/ubuntu/Downloads/Na2CO3-vol.gjf
 Output=/home/ubuntu/Downloads/Na2CO3-vol.log
 Initial command:
 /home/ubuntu/g16/l1.exe "/home/ubuntu/Scratch/Gau-5368.inp" -scrdir="/home/ubuntu/Scratch/"
 Entering Link 1 = /home/ubuntu/g16/l1.exe PID=      5372.
  
 Copyright (c) 1988-2017, Gaussian, Inc.  All Rights Reserved.
  
 This is part of the Gaussian(R) 16 program.  It is based on
 the Gaussian(R) 09 system (copyright 2009, Gaussian, Inc.),
 the Gaussian(R) 03 system (copyright 2003, Gaussian, Inc.),
 the Gaussian(R) 98 system (copyright 1998, Gaussian, Inc.),
 the Gaussian(R) 94 system (copyright 1995, Gaussian, Inc.),
 the Gaussian 92(TM) system (copyright 1992, Gaussian, Inc.),
 the Gaussian 90(TM) system (copyright 1990, Gaussian, Inc.),
 the Gaussian 88(TM) system (copyright 1988, Gaussian, Inc.),
 the Gaussian 86(TM) system (copyright 1986, Carnegie Mellon
 University), and the Gaussian 82(TM) system (copyright 1983,
 Carnegie Mellon University). Gaussian is a federally registered
 trademark of Gaussian, Inc.
  
 This software contains proprietary and confidential information,
 including trade secrets, belonging to Gaussian, Inc.
  
 This software is provided under written license and may be
 used, copied, transmitted, or stored only in accord with that
 written license.
  
 The following legend is applicable only to US Government
 contracts under FAR:
  
                    RESTRICTED RIGHTS LEGEND
  
 Use, reproduction and disclosure by the US Government is
 subject to restrictions as set forth in subparagraphs (a)
 and (c) of the Commercial Computer Software - Restricted
 Rights clause in FAR 52.227-19.
  
 Gaussian, Inc.
 340 Quinnipiac St., Bldg. 40, Wallingford CT 06492
  
  
 ---------------------------------------------------------------
 Warning -- This program may not be used in any manner that
 competes with the business of Gaussian, Inc. or will provide
 assistance to any competitor of Gaussian, Inc.  The licensee
 of this program is prohibited from giving any competitor of
 Gaussian, Inc. access to this program.  By using this program,
 the user acknowledges that Gaussian, Inc. is engaged in the
 business of creating and licensing software in the field of
 computational chemistry and represents and warrants to the
 licensee that it is not a competitor of Gaussian, Inc. and that
 it will not use this program in any manner prohibited above.
 ---------------------------------------------------------------
  

 Cite this work as:
 Gaussian 16, Revision B.01,
 M. J. Frisch, G. W. Trucks, H. B. Schlegel, G. E. Scuseria, 
 M. A. Robb, J. R. Cheeseman, G. Scalmani, V. Barone, 
 G. A. Petersson, H. Nakatsuji, X. Li, M. Caricato, A. V. Marenich, 
 J. Bloino, B. G. Janesko, R. Gomperts, B. Mennucci, H. P. Hratchian, 
 J. V. Ortiz, A. F. Izmaylov, J. L. Sonnenberg, D. Williams-Young, 
 F. Ding, F. Lipparini, F. Egidi, J. Goings, B. Peng, A. Petrone, 
 T. Henderson, D. Ranasinghe, V. G. Zakrzewski, J. Gao, N. Rega, 
 G. Zheng, W. Liang, M. Hada, M. Ehara, K. Toyota, R. Fukuda, 
 J. Hasegawa, M. Ishida, T. Nakajima, Y. Honda, O. Kitao, H. Nakai, 
 T. Vreven, K. Throssell, J. A. Montgomery, Jr., J. E. Peralta, 
 F. Ogliaro, M. J. Bearpark, J. J. Heyd, E. N. Brothers, K. N. Kudin, 
 V. N. Staroverov, T. A. Keith, R. Kobayashi, J. Normand, 
 K. Raghavachari, A. P. Rendell, J. C. Burant, S. S. Iyengar, 
 J. Tomasi, M. Cossi, J. M. Millam, M. Klene, C. Adamo, R. Cammi, 
 J. W. Ochterski, R. L. Martin, K. Morokuma, O. Farkas, 
 J. B. Foresman, and D. J. Fox, Gaussian, Inc., Wallingford CT, 2016.
 
 ******************************************
 Gaussian 16:  EM64L-G16RevB.01 20-Dec-2017
                14-Sep-2023 
 ******************************************
 %nprocshared=48
 Will use up to   48 processors via shared memory.
 %mem=62GB
 %chk=Na2CO3-vol.chk
 ----------------------------------------------------------------------
 # opt freq b3lyp/gen empiricaldispersion=gd3 pseudo=read scf=maxcycle=
 1000 volume
 ----------------------------------------------------------------------
 1/18=20,19=15,26=3,38=1/1,3;
 2/9=110,12=2,17=6,18=5,40=1/2;
 3/5=7,11=2,16=1,17=8,25=1,30=1,71=1,74=-5,124=31/1,2,3;
 4//1;
 5/5=2,7=1000,38=5/2;
 6/7=2,8=2,9=2,10=2,28=1,44=1/1,4;
 7//1,2,3,16;
 1/18=20,19=15,26=3/3(2);
 2/9=110/2;
 99//99;
 2/9=110/2;
 3/5=7,6=1,11=2,16=1,17=8,25=1,30=1,71=1,74=-5,82=7,124=31/1,2,3;
 4/5=5,16=3,69=1/1;
 5/5=2,7=1000,38=5/2;
 7//1,2,3,16;
 1/18=20,19=15,26=3/3(-5);
 2/9=110/2;
 6/7=2,8=2,9=2,10=2,19=2,28=1,44=1/1,4;
 99/9=1/99;
 -------------------
 Title Card Required
 -------------------
 Symbolic Z-matrix:
 Charge =  0 Multiplicity = 1
 C                     0.        0.       -0.57205 
 O                     0.       -1.13365  -1.16651 
 O                     0.        0.        0.79051 
 O                     0.        1.13365  -1.16651 
 Na                    0.        2.16443   0.71692 
 Na                    0.       -2.16443   0.71692 
 

 GradGradGradGradGradGradGradGradGradGradGradGradGradGradGradGradGradGrad
 Berny optimization.
 Initialization pass.
                           ----------------------------
                           !    Initial Parameters    !
                           ! (Angstroms and Degrees)  !
 --------------------------                            --------------------------
 ! Name  Definition              Value          Derivative Info.                !
 --------------------------------------------------------------------------------
 ! R1    R(1,2)                  1.2801         estimate D2E/DX2                !
 ! R2    R(1,3)                  1.3626         estimate D2E/DX2                !
 ! R3    R(1,4)                  1.2801         estimate D2E/DX2                !
 ! R4    R(1,5)                  2.5192         estimate D2E/DX2                !
 ! R5    R(1,6)                  2.5192         estimate D2E/DX2                !
 ! R6    R(2,6)                  2.147          estimate D2E/DX2                !
 ! R7    R(3,5)                  2.1657         estimate D2E/DX2                !
 ! R8    R(3,6)                  2.1657         estimate D2E/DX2                !
 ! R9    R(4,5)                  2.147          estimate D2E/DX2                !
 ! A1    A(2,1,3)              117.6714         estimate D2E/DX2                !
 ! A2    A(2,1,4)              124.6573         estimate D2E/DX2                !
 ! A3    A(3,1,4)              117.6714         estimate D2E/DX2                !
 ! A4    A(5,1,6)              118.4502         estimate D2E/DX2                !
 ! A5    A(3,5,4)               63.2557         estimate D2E/DX2                !
 ! A6    A(2,6,3)               63.2557         estimate D2E/DX2                !
 ! A7    L(2,1,5,3,-1)         176.8965         estimate D2E/DX2                !
 ! A8    L(4,1,6,3,-1)         176.8965         estimate D2E/DX2                !
 ! A9    L(5,3,6,1,-1)         176.1059         estimate D2E/DX2                !
 ! A10   L(2,1,5,3,-2)         180.0            estimate D2E/DX2                !
 ! A11   L(4,1,6,3,-2)         180.0            estimate D2E/DX2                !
 ! A12   L(5,3,6,1,-2)         180.0            estimate D2E/DX2                !
 ! D1    D(2,1,3,4)            180.0            estimate D2E/DX2                !
 ! D2    D(2,1,3,5)            180.0            estimate D2E/DX2                !
 ! D3    D(2,1,3,6)              0.0            estimate D2E/DX2                !
 ! D4    D(2,1,4,5)            180.0            estimate D2E/DX2                !
 ! D5    D(2,1,4,6)            180.0            estimate D2E/DX2                !
 ! D6    D(2,1,5,6)              0.0            estimate D2E/DX2                !
 ! D7    D(4,3,5,1)              0.0            estimate D2E/DX2                !
 ! D8    D(4,5,6,2)              0.0            estimate D2E/DX2                !
 --------------------------------------------------------------------------------
 Trust Radius=3.00D-01 FncErr=1.00D-07 GrdErr=1.00D-06 EigMax=2.50D+02 EigMin=1.00D-04
 Number of steps in this run=     39 maximum allowed number of steps=    100.
 GradGradGradGradGradGradGradGradGradGradGradGradGradGradGradGradGradGrad

                          Input orientation:                          
 ---------------------------------------------------------------------
 Center     Atomic      Atomic             Coordinates (Angstroms)
 Number     Number       Type             X           Y           Z
 ---------------------------------------------------------------------
      1          6           0        0.000000    0.000000   -0.572049
      2          8           0        0.000000   -1.133648   -1.166505
      3          8           0        0.000000    0.000000    0.790505
      4          8           0        0.000000    1.133648   -1.166505
      5         11           0        0.000000    2.164428    0.716924
      6         11           0        0.000000   -2.164428    0.716924
 ---------------------------------------------------------------------
                    Distance matrix (angstroms):
                    1          2          3          4          5
     1  C    0.000000
     2  O    1.280053   0.000000
     3  O    1.362554   2.261647   0.000000
     4  O    1.280053   2.267296   2.261647   0.000000
     5  Na   2.519167   3.797974   2.165678   2.147047   0.000000
     6  Na   2.519167   2.147047   2.165678   3.797974   4.328856
                    6
     6  Na   0.000000
 Stoichiometry    CNa2O3
 Framework group  C2V[C2(CO),SGV(Na2O2)]
 Deg. of freedom     5
 Full point group                 C2V     NOp   4
 Largest Abelian subgroup         C2V     NOp   4
 Largest concise Abelian subgroup C2      NOp   2
                         Standard orientation:                         
 ---------------------------------------------------------------------
 Center     Atomic      Atomic             Coordinates (Angstroms)
 Number     Number       Type             X           Y           Z
 ---------------------------------------------------------------------
      1          6           0        0.000000    0.000000   -0.572049
      2          8           0        0.000000    1.133648   -1.166505
      3          8           0        0.000000    0.000000    0.790505
      4          8           0        0.000000   -1.133648   -1.166505
      5         11           0        0.000000   -2.164428    0.716924
      6         11           0        0.000000    2.164428    0.716924
 ---------------------------------------------------------------------
 Rotational constants (GHZ):           6.2342391           1.9701767           1.4970661
 General basis read from cards:  (5D, 7F)
 ======================================================================================================
                                       Pseudopotential Parameters
 ======================================================================================================
  Center     Atomic      Valence      Angular      Power
  Number     Number     Electrons     Momentum     of R      Exponent        Coefficient   SO-Coeffient
 ======================================================================================================
    1          6
                                   No pseudopotential on this center.
    2          8
                                   No pseudopotential on this center.
    3          8
                                   No pseudopotential on this center.
    4          8
                                   No pseudopotential on this center.
    5         11
                                   No pseudopotential on this center.
    6         11
                                   No pseudopotential on this center.
 ======================================================================================================
 There are    44 symmetry adapted cartesian basis functions of A1  symmetry.
 There are    10 symmetry adapted cartesian basis functions of A2  symmetry.
 There are    16 symmetry adapted cartesian basis functions of B1  symmetry.
 There are    32 symmetry adapted cartesian basis functions of B2  symmetry.
 There are    41 symmetry adapted basis functions of A1  symmetry.
 There are    10 symmetry adapted basis functions of A2  symmetry.
 There are    16 symmetry adapted basis functions of B1  symmetry.
 There are    31 symmetry adapted basis functions of B2  symmetry.
    98 basis functions,   220 primitive gaussians,   102 cartesian basis functions
    26 alpha electrons       26 beta electrons
       nuclear repulsion energy       256.6402866253 Hartrees.
 NAtoms=    6 NActive=    6 NUniq=    4 SFac= 2.25D+00 NAtFMM=   60 NAOKFM=F Big=F
 Integral buffers will be    131072 words long.
 Raffenetti 2 integral format.
 Two-electron integral symmetry is turned on.
 Nuclear repulsion after empirical dispersion term =      256.6367340053 Hartrees.
 One-electron integrals computed using PRISM.
   4 Symmetry operations used in ECPInt.
 ECPInt:  NShTT=     406 NPrTT=    3378 LenC2=     400 LenP2D=    2409.
 LDataN:  DoStor=T MaxTD1= 4 Len=   56
 NBasis=    98 RedAO= T EigKep=  1.50D-03  NBF=    41    10    16    31
 NBsUse=    98 1.00D-06 EigRej= -1.00D+00 NBFU=    41    10    16    31
 ExpMin= 2.60D-02 ExpMax= 9.99D+03 ExpMxC= 1.50D+03 IAcc=3 IRadAn=         5 AccDes= 0.00D+00
 Harris functional with IExCor=  402 and IRadAn=       5 diagonalized for initial guess.
 HarFok:  IExCor=  402 AccDes= 0.00D+00 IRadAn=         5 IDoV= 1 UseB2=F ITyADJ=14
 ICtDFT=  3500011 ScaDFX=  1.000000  1.000000  1.000000  1.000000
 FoFCou: FMM=F IPFlag=           0 FMFlag=      100000 FMFlg1=           0
         NFxFlg=           0 DoJE=T BraDBF=F KetDBF=T FulRan=T
         wScrn=  0.000000 ICntrl=       500 IOpCl=  0 I1Cent=   200000004 NGrid=           0
         NMat0=    1 NMatS0=      1 NMatT0=    0 NMatD0=    1 NMtDS0=    0 NMtDT0=    0
 Petite list used in FoFCou.
 Initial guess orbital symmetries:
       Occupied  (B2) (A1) (A1) (B2) (A1) (A1) (B2) (A1) (A1) (B2)
                 (A1) (B2) (B1) (A2) (A1) (B2) (A1) (A1) (A1) (B2)
                 (B1) (B2) (A1) (B1) (A2) (B2)
       Virtual   (A1) (B1) (B2) (B1) (A1) (A1) (A2) (B2) (B2) (A1)
                 (A1) (B1) (A1) (B2) (B1) (B2) (A1) (A2) (A1) (B2)
                 (B1) (B2) (A1) (A2) (A1) (B2) (A1) (B1) (A1) (A1)
                 (A1) (B2) (B2) (B2) (A1) (B1) (B2) (A1) (B2) (B1)
                 (A2) (A1) (A1) (A1) (B2) (B1) (A1) (B2) (B1) (A2)
                 (B2) (A1) (A1) (B2) (A1) (A2) (B1) (A2) (B2) (A1)
                 (B2) (A1) (B2) (B1) (A1) (B1) (A2) (A1) (B2) (A1)
                 (B2) (A1)
 The electronic state of the initial guess is 1-A1.
 Keep R1 ints in memory in symmetry-blocked form, NReq=56255114.
 Requested convergence on RMS density matrix=1.00D-08 within1000 cycles.
 Requested convergence on MAX density matrix=1.00D-06.
 Requested convergence on             energy=1.00D-06.
 No special actions if energy rises.
 SCF Done:  E(RB3LYP) =  -588.515845364     A.U. after   12 cycles
            NFock= 12  Conv=0.50D-08     -V/T= 2.0060

 **********************************************************************

            Population analysis using the SCF Density.

 **********************************************************************

 Orbital symmetries:
       Occupied  (B2) (A1) (A1) (B2) (A1) (A1) (B2) (A1) (A1) (B1)
                 (A2) (B2) (A1) (B2) (A1) (B2) (A1) (A1) (A1) (B2)
                 (B1) (B2) (A1) (B1) (A2) (B2)
       Virtual   (A1) (B2) (B1) (A1) (A2) (B2) (A1) (B2) (A1) (B2)
                 (B1) (A1) (B1) (A1) (A2) (B1) (B2) (A1) (B2) (A1)
                 (B1) (B2) (A2) (A1) (B2) (A1) (B1) (A1) (A1) (B2)
                 (A1) (B2) (A1) (B2) (A1) (B1) (B2) (A1) (B2) (A1)
                 (B1) (A1) (A2) (A1) (B1) (B2) (A1) (B2) (B1) (A2)
                 (B2) (A1) (A1) (B2) (A1) (A2) (B1) (A2) (B2) (A1)
                 (B2) (A1) (B2) (B1) (A1) (B1) (A2) (A1) (B2) (A1)
                 (B2) (A1)
 The electronic state is 1-A1.
 Alpha  occ. eigenvalues --  -38.47305 -38.47275 -19.05780 -19.04436 -19.04430
 Alpha  occ. eigenvalues --  -10.25727  -2.20974  -2.20966  -1.14309  -1.14289
 Alpha  occ. eigenvalues --   -1.14287  -1.14169  -1.14052  -1.14030  -0.99727
 Alpha  occ. eigenvalues --   -0.88830  -0.87141  -0.44520  -0.38439  -0.37236
 Alpha  occ. eigenvalues --   -0.36628  -0.25752  -0.22237  -0.21872  -0.20912
 Alpha  occ. eigenvalues --   -0.17990
 Alpha virt. eigenvalues --   -0.04745  -0.03890   0.01134   0.01660   0.02781
 Alpha virt. eigenvalues --    0.03422   0.03591   0.05412   0.08224   0.10256
 Alpha virt. eigenvalues --    0.12348   0.12632   0.12878   0.13288   0.15429
 Alpha virt. eigenvalues --    0.16065   0.16073   0.16120   0.18831   0.21779
 Alpha virt. eigenvalues --    0.23756   0.25136   0.27868   0.28501   0.30416
 Alpha virt. eigenvalues --    0.33088   0.34544   0.35179   0.36847   0.38543
 Alpha virt. eigenvalues --    0.40411   0.46970   0.50172   0.56697   0.59238
 Alpha virt. eigenvalues --    0.79526   0.84359   0.92206   1.07511   1.21492
 Alpha virt. eigenvalues --    1.22329   1.25172   1.25523   1.32895   1.35967
 Alpha virt. eigenvalues --    1.36450   1.37784   1.41602   1.48193   1.50374
 Alpha virt. eigenvalues --    1.59689   1.75425   1.82046   1.84916   1.85240
 Alpha virt. eigenvalues --    1.87457   1.89621   1.89779   1.91664   1.91830
 Alpha virt. eigenvalues --    2.02720   2.04316   2.05881   2.22478   2.33125
 Alpha virt. eigenvalues --    2.64091   2.74074   2.86884   2.97623   3.07704
 Alpha virt. eigenvalues --    3.12164   3.18095
          Condensed to atoms (all electrons):
               1          2          3          4          5          6
     1  C    4.759212   0.201369   0.208380   0.201369  -0.054258  -0.054258
     2  O    0.201369   8.772745  -0.186819  -0.102434   0.012982   0.056391
     3  O    0.208380  -0.186819   9.211540  -0.186819   0.000565   0.000565
     4  O    0.201369  -0.102434  -0.186819   8.772745   0.056391   0.012982
     5  Na  -0.054258   0.012982   0.000565   0.056391  10.078243  -0.002769
     6  Na  -0.054258   0.056391   0.000565   0.012982  -0.002769  10.078243
 Mulliken charges:
               1
     1  C    0.738186
     2  O   -0.754234
     3  O   -1.047411
     4  O   -0.754234
     5  Na   0.908847
     6  Na   0.908847
 Sum of Mulliken charges =   0.00000
 Mulliken charges with hydrogens summed into heavy atoms:
               1
     1  C    0.738186
     2  O   -0.754234
     3  O   -1.047411
     4  O   -0.754234
     5  Na   0.908847
     6  Na   0.908847
 Electronic spatial extent (au):  <R**2>=            639.3034
 Charge=              0.0000 electrons
 Dipole moment (field-independent basis, Debye):
    X=              0.0000    Y=              0.0000    Z=              8.7609  Tot=              8.7609
 Quadrupole moment (field-independent basis, Debye-Ang):
   XX=            -32.0510   YY=             -1.7967   ZZ=            -39.9019
   XY=              0.0000   XZ=              0.0000   YZ=              0.0000
 Traceless Quadrupole moment (field-independent basis, Debye-Ang):
   XX=             -7.4678   YY=             22.7865   ZZ=            -15.3187
   XY=              0.0000   XZ=              0.0000   YZ=              0.0000
 Octapole moment (field-independent basis, Debye-Ang**2):
  XXX=              0.0000  YYY=              0.0000  ZZZ=             34.2843  XYY=              0.0000
  XXY=              0.0000  XXZ=              7.0537  XZZ=              0.0000  YZZ=              0.0000
  YYZ=             50.4429  XYZ=              0.0000
 Hexadecapole moment (field-independent basis, Debye-Ang**3):
 XXXX=            -31.3498 YYYY=           -140.7205 ZZZZ=           -213.7235 XXXY=              0.0000
 XXXZ=              0.0000 YYYX=              0.0000 YYYZ=              0.0000 ZZZX=              0.0000
 ZZZY=              0.0000 XXYY=            -60.1571 XXZZ=            -39.2439 YYZZ=            -78.3792
 XXYZ=              0.0000 YYXZ=              0.0000 ZZXY=              0.0000
 N-N= 2.566367340053D+02 E-N=-1.918357918593D+03  KE= 5.849978058626D+02
 Symmetry A1   KE= 3.223519441160D+02
 Symmetry A2   KE= 1.616396711560D+01
 Symmetry B1   KE= 1.928043634933D+01
 Symmetry B2   KE= 2.272014582816D+02
 Evaluate density.
 Using the total density.
 Monte-Carlo method of calculating molar volume:
 based on  0.001 e/bohr**3 density envelope.
 Number of points per bohr**3 =   20 CutOff= 1.00D-04
 Using the SCF density.
 There are       591 points.  Will hold       591 in memory.
 LenV=  8321426386 MDV=  8321499136.
 Box volume =25870.741 fraction occupied=0.024
 Integrated density= 3.1442747019421702D+01 error=-2.0557252980578298D+01
 Molar volume =  612.843 bohr**3/mol ( 54.689 cm**3/mol)
 Recommended a0 for SCRF calculation =  3.57 angstrom (  6.74 bohr)
   4 Symmetry operations used in ECPInt.
 ECPInt:  NShTT=     406 NPrTT=    3378 LenC2=     400 LenP2D=    2409.
 LDataN:  DoStor=T MaxTD1= 5 Len=  102
 Calling FoFJK, ICntrl=      2127 FMM=F ISym2X=1 I1Cent= 0 IOpClX= 0 NMat=1 NMatS=1 NMatT=0.
 ***** Axes restored to original set *****
 -------------------------------------------------------------------
 Center     Atomic                   Forces (Hartrees/Bohr)
 Number     Number              X              Y              Z
 -------------------------------------------------------------------
      1        6           0.000000000    0.000000000    0.000316511
      2        8           0.000000000   -0.000035332   -0.000083949
      3        8           0.000000000    0.000000000   -0.000316490
      4        8           0.000000000    0.000035332   -0.000083949
      5       11           0.000000000   -0.000046746    0.000083938
      6       11           0.000000000    0.000046746    0.000083938
 -------------------------------------------------------------------
 Cartesian Forces:  Max     0.000316511 RMS     0.000114358

 GradGradGradGradGradGradGradGradGradGradGradGradGradGradGradGradGradGrad
 Berny optimization.
 FormGI is forming the generalized inverse of G from B-inverse, IUseBI=4.
 Internal  Forces:  Max     0.000228103 RMS     0.000059040
 Search for a local minimum.
 Step number   1 out of a maximum of   39
 All quantities printed in internal units (Hartrees-Bohrs-Radians)
 Mixed Optimization -- En-DIIS/RFO-DIIS
 Second derivative matrix not updated -- first step.
 ITU=  0
     Eigenvalues ---    0.00255   0.01759   0.03259   0.08253   0.08294
     Eigenvalues ---    0.09629   0.10240   0.14384   0.14457   0.42833
     Eigenvalues ---    0.70398   0.70702
 RFO step:  Lambda=-4.18844166D-07 EMin= 2.54692539D-03
 Linear search not attempted -- first point.
 Iteration  1 RMS(Cart)=  0.00031276 RMS(Int)=  0.00000010
 Iteration  2 RMS(Cart)=  0.00000006 RMS(Int)=  0.00000003
 ClnCor:  largest displacement from symmetrization is 4.11D-13 for atom     3.
 Variable       Old X    -DE/DX   Delta X   Delta X   Delta X     New X
                                 (Linear)    (Quad)   (Total)
    R1        2.41895   0.00008   0.00000   0.00011   0.00011   2.41906
    R2        2.57485  -0.00023   0.00000  -0.00056  -0.00056   2.57429
    R3        2.41895   0.00008   0.00000   0.00011   0.00011   2.41906
    R4        4.76053  -0.00001   0.00000  -0.00001  -0.00001   4.76053
    R5        4.76053  -0.00001   0.00000  -0.00001  -0.00001   4.76053
    R6        4.05733   0.00005   0.00000   0.00057   0.00057   4.05791
    R7        4.09254  -0.00006   0.00000  -0.00067  -0.00067   4.09187
    R8        4.09254  -0.00006   0.00000  -0.00067  -0.00067   4.09187
    R9        4.05733   0.00005   0.00000   0.00057   0.00057   4.05791
    A1        2.05375   0.00001   0.00000  -0.00001  -0.00001   2.05374
    A2        2.17568  -0.00002   0.00000   0.00002   0.00002   2.17570
    A3        2.05375   0.00001   0.00000  -0.00001  -0.00001   2.05374
    A4        2.06735  -0.00003   0.00000  -0.00050  -0.00050   2.06685
    A5        1.10402  -0.00003   0.00000  -0.00010  -0.00010   1.10392
    A6        1.10402  -0.00003   0.00000  -0.00010  -0.00010   1.10392
    A7        3.08743  -0.00001   0.00000  -0.00026  -0.00026   3.08717
    A8        3.08743  -0.00001   0.00000  -0.00026  -0.00026   3.08717
    A9        3.07363   0.00014   0.00000   0.00076   0.00076   3.07439
   A10        3.14159   0.00000   0.00000   0.00000   0.00000   3.14159
   A11        3.14159   0.00000   0.00000   0.00000   0.00000   3.14159
   A12        3.14159   0.00000   0.00000   0.00000   0.00000   3.14159
    D1        3.14159   0.00000   0.00000   0.00000   0.00000   3.14159
    D2        3.14159   0.00000   0.00000   0.00000   0.00000   3.14159
    D3        0.00000   0.00000   0.00000   0.00000   0.00000   0.00000
    D4        3.14159   0.00000   0.00000   0.00000   0.00000   3.14159
    D5        3.14159   0.00000   0.00000   0.00000   0.00000   3.14159
    D6        0.00000   0.00000   0.00000   0.00000   0.00000   0.00000
    D7        0.00000   0.00000   0.00000   0.00000   0.00000   0.00000
    D8        0.00000   0.00000   0.00000   0.00000   0.00000   0.00000
         Item               Value     Threshold  Converged?
 Maximum Force            0.000228     0.000450     YES
 RMS     Force            0.000059     0.000300     YES
 Maximum Displacement     0.000798     0.001800     YES
 RMS     Displacement     0.000313     0.001200     YES
 Predicted change in Energy=-2.094353D-07
 Optimization completed.
    -- Stationary point found.
                           ----------------------------
                           !   Optimized Parameters   !
                           ! (Angstroms and Degrees)  !
 --------------------------                            --------------------------
 ! Name  Definition              Value          Derivative Info.                !
 --------------------------------------------------------------------------------
 ! R1    R(1,2)                  1.2801         -DE/DX =    0.0001              !
 ! R2    R(1,3)                  1.3626         -DE/DX =   -0.0002              !
 ! R3    R(1,4)                  1.2801         -DE/DX =    0.0001              !
 ! R4    R(1,5)                  2.5192         -DE/DX =    0.0                 !
 ! R5    R(1,6)                  2.5192         -DE/DX =    0.0                 !
 ! R6    R(2,6)                  2.147          -DE/DX =    0.0                 !
 ! R7    R(3,5)                  2.1657         -DE/DX =   -0.0001              !
 ! R8    R(3,6)                  2.1657         -DE/DX =   -0.0001              !
 ! R9    R(4,5)                  2.147          -DE/DX =    0.0                 !
 ! A1    A(2,1,3)              117.6714         -DE/DX =    0.0                 !
 ! A2    A(2,1,4)              124.6573         -DE/DX =    0.0                 !
 ! A3    A(3,1,4)              117.6714         -DE/DX =    0.0                 !
 ! A4    A(5,1,6)              118.4502         -DE/DX =    0.0                 !
 ! A5    A(3,5,4)               63.2557         -DE/DX =    0.0                 !
 ! A6    A(2,6,3)               63.2557         -DE/DX =    0.0                 !
 ! A7    L(2,1,5,3,-1)         176.8965         -DE/DX =    0.0                 !
 ! A8    L(4,1,6,3,-1)         176.8965         -DE/DX =    0.0                 !
 ! A9    L(5,3,6,1,-1)         176.1059         -DE/DX =    0.0001              !
 ! A10   L(2,1,5,3,-2)         180.0            -DE/DX =    0.0                 !
 ! A11   L(4,1,6,3,-2)         180.0            -DE/DX =    0.0                 !
 ! A12   L(5,3,6,1,-2)         180.0            -DE/DX =    0.0                 !
 ! D1    D(2,1,3,4)            180.0            -DE/DX =    0.0                 !
 ! D2    D(2,1,3,5)            180.0            -DE/DX =    0.0                 !
 ! D3    D(2,1,3,6)              0.0            -DE/DX =    0.0                 !
 ! D4    D(2,1,4,5)            180.0            -DE/DX =    0.0                 !
 ! D5    D(2,1,4,6)            180.0            -DE/DX =    0.0                 !
 ! D6    D(2,1,5,6)              0.0            -DE/DX =    0.0                 !
 ! D7    D(4,3,5,1)              0.0            -DE/DX =    0.0                 !
 ! D8    D(4,5,6,2)              0.0            -DE/DX =    0.0                 !
 --------------------------------------------------------------------------------
 GradGradGradGradGradGradGradGradGradGradGradGradGradGradGradGradGradGrad

                          Input orientation:                          
 ---------------------------------------------------------------------
 Center     Atomic      Atomic             Coordinates (Angstroms)
 Number     Number       Type             X           Y           Z
 ---------------------------------------------------------------------
      1          6           0        0.000000    0.000000   -0.572049
      2          8           0        0.000000   -1.133648   -1.166505
      3          8           0        0.000000    0.000000    0.790505
      4          8           0        0.000000    1.133648   -1.166505
      5         11           0        0.000000    2.164428    0.716924
      6         11           0        0.000000   -2.164428    0.716924
 ---------------------------------------------------------------------
                    Distance matrix (angstroms):
                    1          2          3          4          5
     1  C    0.000000
     2  O    1.280053   0.000000
     3  O    1.362554   2.261647   0.000000
     4  O    1.280053   2.267296   2.261647   0.000000
     5  Na   2.519167   3.797974   2.165678   2.147047   0.000000
     6  Na   2.519167   2.147047   2.165678   3.797974   4.328856
                    6
     6  Na   0.000000
 Stoichiometry    CNa2O3
 Framework group  C2V[C2(CO),SGV(Na2O2)]
 Deg. of freedom     5
 Full point group                 C2V     NOp   4
 Largest Abelian subgroup         C2V     NOp   4
 Largest concise Abelian subgroup C2      NOp   2
                         Standard orientation:                         
 ---------------------------------------------------------------------
 Center     Atomic      Atomic             Coordinates (Angstroms)
 Number     Number       Type             X           Y           Z
 ---------------------------------------------------------------------
      1          6           0        0.000000    0.000000   -0.572049
      2          8           0        0.000000    1.133648   -1.166505
      3          8           0        0.000000    0.000000    0.790505
      4          8           0        0.000000   -1.133648   -1.166505
      5         11           0        0.000000   -2.164428    0.716924
      6         11           0        0.000000    2.164428    0.716924
 ---------------------------------------------------------------------
 Rotational constants (GHZ):           6.2342391           1.9701767           1.4970661
 1\1\GINC-IP-172-31-36-226\FOpt\RB3LYP\Gen\C1Na2O3\UBUNTU\14-Sep-2023\0
 \\# opt freq b3lyp/gen empiricaldispersion=gd3 pseudo=read scf=maxcycl
 e=1000 volume\\Title Card Required\\0,1\C,0.,0.,-0.572049\O,0.,-1.1336
 48,-1.166505\O,0.,0.,0.790505\O,0.,1.133648,-1.166505\Na,0.,2.164428,0
 .716924\Na,0.,-2.164428,0.716924\\Version=EM64L-G16RevB.01\State=1-A1\
 HF=-588.5158454\RMSD=5.036e-09\RMSF=1.144e-04\Dipole=0.,0.,3.446816\Qu
 adrupole=-5.5521202,16.9411693,-11.389049,0.,0.,0.\PG=C02V [C2(C1O1),S
 GV(Na2O2)]\\@


 We find comfort among those who agree with us -- growth among those who don't.
 -- Frank A. Clark
 Job cpu time:       0 days  0 hours 51 minutes 42.2 seconds.
 Elapsed time:       0 days  0 hours  1 minutes 55.1 seconds.
 File lengths (MBytes):  RWF=     10 Int=      0 D2E=      0 Chk=      2 Scr=      1
 Normal termination of Gaussian 16 at Thu Sep 14 07:09:29 2023.
 Link1:  Proceeding to internal job step number  2.
 ------------------------------------------------------------------
 #N Geom=AllCheck Guess=TCheck SCRF=Check GenChk RB3LYP/ChkBas Freq
 ------------------------------------------------------------------
 1/10=4,29=7,30=1,38=1,40=1/1,3;
 2/12=2,40=1/2;
 3/5=7,6=2,11=2,14=-4,16=1,17=8,25=1,30=1,67=1,70=2,71=2,74=-5,82=7,116=1,124=31,140=1/1,2,3;
 4/5=101/1;
 5/5=2,7=1000,38=6,98=1/2;
 8/6=4,10=90,11=11/1;
 11/6=1,8=1,9=11,15=111,16=1/1,2,10;
 10/6=1/2;
 6/7=2,8=2,9=2,10=2,28=1/1;
 7/8=1,10=1,25=1/1,2,3,16;
 1/10=4,30=1/3;
 99//99;
 Structure from the checkpoint file:  "Na2CO3-vol.chk"
 -------------------
 Title Card Required
 -------------------
 Charge =  0 Multiplicity = 1
 Redundant internal coordinates found in file.  (old form).
 C,0,0.,0.,-0.572049
 O,0,0.,-1.133648,-1.166505
 O,0,0.,0.,0.790505
 O,0,0.,1.133648,-1.166505
 Na,0,0.,2.164428,0.716924
 Na,0,0.,-2.164428,0.716924
 Recover connectivity data from disk.

 GradGradGradGradGradGradGradGradGradGradGradGradGradGradGradGradGradGrad
 Berny optimization.
 Initialization pass.
                           ----------------------------
                           !    Initial Parameters    !
                           ! (Angstroms and Degrees)  !
 --------------------------                            --------------------------
 ! Name  Definition              Value          Derivative Info.                !
 --------------------------------------------------------------------------------
 ! R1    R(1,2)                  1.2801         calculate D2E/DX2 analytically  !
 ! R2    R(1,3)                  1.3626         calculate D2E/DX2 analytically  !
 ! R3    R(1,4)                  1.2801         calculate D2E/DX2 analytically  !
 ! R4    R(1,5)                  2.5192         calculate D2E/DX2 analytically  !
 ! R5    R(1,6)                  2.5192         calculate D2E/DX2 analytically  !
 ! R6    R(2,6)                  2.147          calculate D2E/DX2 analytically  !
 ! R7    R(3,5)                  2.1657         calculate D2E/DX2 analytically  !
 ! R8    R(3,6)                  2.1657         calculate D2E/DX2 analytically  !
 ! R9    R(4,5)                  2.147          calculate D2E/DX2 analytically  !
 ! A1    A(2,1,3)              117.6714         calculate D2E/DX2 analytically  !
 ! A2    A(2,1,4)              124.6573         calculate D2E/DX2 analytically  !
 ! A3    A(3,1,4)              117.6714         calculate D2E/DX2 analytically  !
 ! A4    A(5,1,6)              118.4502         calculate D2E/DX2 analytically  !
 ! A5    A(3,5,4)               63.2557         calculate D2E/DX2 analytically  !
 ! A6    A(2,6,3)               63.2557         calculate D2E/DX2 analytically  !
 ! A7    L(2,1,5,3,-1)         176.8965         calculate D2E/DX2 analytically  !
 ! A8    L(4,1,6,3,-1)         176.8965         calculate D2E/DX2 analytically  !
 ! A9    L(5,3,6,1,-1)         176.1059         calculate D2E/DX2 analytically  !
 ! A10   L(2,1,5,3,-2)         180.0            calculate D2E/DX2 analytically  !
 ! A11   L(4,1,6,3,-2)         180.0            calculate D2E/DX2 analytically  !
 ! A12   L(5,3,6,1,-2)         180.0            calculate D2E/DX2 analytically  !
 ! D1    D(2,1,3,4)            180.0            calculate D2E/DX2 analytically  !
 ! D2    D(2,1,3,5)            180.0            calculate D2E/DX2 analytically  !
 ! D3    D(2,1,3,6)              0.0            calculate D2E/DX2 analytically  !
 ! D4    D(2,1,4,5)            180.0            calculate D2E/DX2 analytically  !
 ! D5    D(2,1,4,6)            180.0            calculate D2E/DX2 analytically  !
 ! D6    D(2,1,5,6)              0.0            calculate D2E/DX2 analytically  !
 ! D7    D(4,3,5,1)              0.0            calculate D2E/DX2 analytically  !
 ! D8    D(4,5,6,2)              0.0            calculate D2E/DX2 analytically  !
 --------------------------------------------------------------------------------
 Trust Radius=3.00D-01 FncErr=1.00D-07 GrdErr=1.00D-07 EigMax=2.50D+02 EigMin=1.00D-04
 Number of steps in this run=      2 maximum allowed number of steps=      2.
 GradGradGradGradGradGradGradGradGradGradGradGradGradGradGradGradGradGrad

                          Input orientation:                          
 ---------------------------------------------------------------------
 Center     Atomic      Atomic             Coordinates (Angstroms)
 Number     Number       Type             X           Y           Z
 ---------------------------------------------------------------------
      1          6           0        0.000000    0.000000   -0.572049
      2          8           0        0.000000   -1.133648   -1.166505
      3          8           0        0.000000    0.000000    0.790505
      4          8           0        0.000000    1.133648   -1.166505
      5         11           0        0.000000    2.164428    0.716924
      6         11           0        0.000000   -2.164428    0.716924
 ---------------------------------------------------------------------
                    Distance matrix (angstroms):
                    1          2          3          4          5
     1  C    0.000000
     2  O    1.280053   0.000000
     3  O    1.362554   2.261647   0.000000
     4  O    1.280053   2.267296   2.261647   0.000000
     5  Na   2.519167   3.797974   2.165678   2.147047   0.000000
     6  Na   2.519167   2.147047   2.165678   3.797974   4.328856
                    6
     6  Na   0.000000
 Stoichiometry    CNa2O3
 Framework group  C2V[C2(CO),SGV(Na2O2)]
 Deg. of freedom     5
 Full point group                 C2V     NOp   4
 Largest Abelian subgroup         C2V     NOp   4
 Largest concise Abelian subgroup C2      NOp   2
                         Standard orientation:                         
 ---------------------------------------------------------------------
 Center     Atomic      Atomic             Coordinates (Angstroms)
 Number     Number       Type             X           Y           Z
 ---------------------------------------------------------------------
      1          6           0        0.000000    0.000000   -0.572049
      2          8           0        0.000000    1.133648   -1.166505
      3          8           0        0.000000    0.000000    0.790505
      4          8           0        0.000000   -1.133648   -1.166505
      5         11           0        0.000000   -2.164428    0.716924
      6         11           0        0.000000    2.164428    0.716924
 ---------------------------------------------------------------------
 Rotational constants (GHZ):           6.2342391           1.9701767           1.4970661
 Basis read from chk: "Na2CO3-vol.chk" (5D, 7F)
 Pseudo-potential data read from chk file.
 There are    44 symmetry adapted cartesian basis functions of A1  symmetry.
 There are    10 symmetry adapted cartesian basis functions of A2  symmetry.
 There are    16 symmetry adapted cartesian basis functions of B1  symmetry.
 There are    32 symmetry adapted cartesian basis functions of B2  symmetry.
 There are    41 symmetry adapted basis functions of A1  symmetry.
 There are    10 symmetry adapted basis functions of A2  symmetry.
 There are    16 symmetry adapted basis functions of B1  symmetry.
 There are    31 symmetry adapted basis functions of B2  symmetry.
    98 basis functions,   220 primitive gaussians,   102 cartesian basis functions
    26 alpha electrons       26 beta electrons
       nuclear repulsion energy       256.6402866253 Hartrees.
 NAtoms=    6 NActive=    6 NUniq=    4 SFac= 2.25D+00 NAtFMM=   60 NAOKFM=F Big=F
 Integral buffers will be    131072 words long.
 Raffenetti 2 integral format.
 Two-electron integral symmetry is turned on.
 Nuclear repulsion after empirical dispersion term =      256.6367340053 Hartrees.
 One-electron integrals computed using PRISM.
   4 Symmetry operations used in ECPInt.
 ECPInt:  NShTT=     406 NPrTT=    3378 LenC2=     400 LenP2D=    2409.
 LDataN:  DoStor=T MaxTD1= 4 Len=   56
 NBasis=    98 RedAO= T EigKep=  1.50D-03  NBF=    41    10    16    31
 NBsUse=    98 1.00D-06 EigRej= -1.00D+00 NBFU=    41    10    16    31
 Initial guess from the checkpoint file:  "Na2CO3-vol.chk"
 B after Tr=     0.000000    0.000000    0.000000
         Rot=    1.000000    0.000000    0.000000    0.000000 Ang=   0.00 deg.
 Initial guess orbital symmetries:
       Occupied  (B2) (A1) (A1) (B2) (A1) (A1) (B2) (A1) (A1) (B1)
                 (A2) (B2) (A1) (B2) (A1) (B2) (A1) (A1) (A1) (B2)
                 (B1) (B2) (A1) (B1) (A2) (B2)
       Virtual   (A1) (B2) (B1) (A1) (A2) (B2) (A1) (B2) (A1) (B2)
                 (B1) (A1) (B1) (A1) (A2) (B1) (B2) (A1) (B2) (A1)
                 (B1) (B2) (A2) (A1) (B2) (A1) (B1) (A1) (A1) (B2)
                 (A1) (B2) (A1) (B2) (A1) (B1) (B2) (A1) (B2) (A1)
                 (B1) (A1) (A2) (A1) (B1) (B2) (A1) (B2) (B1) (A2)
                 (B2) (A1) (A1) (B2) (A1) (A2) (B1) (A2) (B2) (A1)
                 (B2) (A1) (B2) (B1) (A1) (B1) (A2) (A1) (B2) (A1)
                 (B2) (A1)
 Keep R1 ints in memory in symmetry-blocked form, NReq=56255114.
 Requested convergence on RMS density matrix=1.00D-08 within1000 cycles.
 Requested convergence on MAX density matrix=1.00D-06.
 Requested convergence on             energy=1.00D-06.
 No special actions if energy rises.
 SCF Done:  E(RB3LYP) =  -588.515845364     A.U. after    1 cycles
            NFock=  1  Conv=0.13D-08     -V/T= 2.0060
 DoSCS=F DFT=T ScalE2(SS,OS)=  1.000000  1.000000
 Range of M.O.s used for correlation:     1    98
 NBasis=    98 NAE=    26 NBE=    26 NFC=     0 NFV=     0
 NROrb=     98 NOA=    26 NOB=    26 NVA=    72 NVB=    72

 **** Warning!!: The largest alpha MO coefficient is  0.10437038D+02

   4 Symmetry operations used in ECPInt.
 ECPInt:  NShTT=     406 NPrTT=    3378 LenC2=     400 LenP2D=    2409.
 LDataN:  DoStor=T MaxTD1= 5 Len=  102
 Symmetrizing basis deriv contribution to polar:
 IMax=3 JMax=2 DiffMx= 0.00D+00
 G2DrvN: will do     7 centers at a time, making    1 passes.
 Calling FoFCou, ICntrl=  3107 FMM=F I1Cent=   0 AccDes= 0.00D+00.
 End of G2Drv F.D. properties file   721 does not exist.
 End of G2Drv F.D. properties file   722 does not exist.
 End of G2Drv F.D. properties file   788 does not exist.
          IDoAtm=111111
          Differentiating once with respect to electric field.
                with respect to dipole field.
          Differentiating once with respect to nuclear coordinates.
 Keep R1 ints in memory in symmetry-blocked form, NReq=56092336.
          There are    15 degrees of freedom in the 1st order CPHF.  IDoFFX=4 NUNeed=    15.
     15 vectors produced by pass  0 Test12= 1.25D-14 6.67D-09 XBig12= 4.86D+01 3.33D+00.
 AX will form    15 AO Fock derivatives at one time.
     15 vectors produced by pass  1 Test12= 1.25D-14 6.67D-09 XBig12= 1.39D+01 1.29D+00.
     15 vectors produced by pass  2 Test12= 1.25D-14 6.67D-09 XBig12= 2.66D-01 1.33D-01.
     15 vectors produced by pass  3 Test12= 1.25D-14 6.67D-09 XBig12= 3.06D-03 1.72D-02.
     15 vectors produced by pass  4 Test12= 1.25D-14 6.67D-09 XBig12= 1.46D-05 9.86D-04.
     14 vectors produced by pass  5 Test12= 1.25D-14 6.67D-09 XBig12= 5.03D-08 5.75D-05.
      7 vectors produced by pass  6 Test12= 1.25D-14 6.67D-09 XBig12= 8.74D-11 2.08D-06.
      2 vectors produced by pass  7 Test12= 1.25D-14 6.67D-09 XBig12= 1.61D-13 9.26D-08.
 InvSVY:  IOpt=1 It=  1 EMax= 2.66D-15
 Solved reduced A of dimension    98 with    15 vectors.
 Isotropic polarizability for W=    0.000000       41.64 Bohr**3.
 End of Minotr F.D. properties file   721 does not exist.
 End of Minotr F.D. properties file   722 does not exist.
 End of Minotr F.D. properties file   788 does not exist.

 **********************************************************************

            Population analysis using the SCF Density.

 **********************************************************************

 Orbital symmetries:
       Occupied  (B2) (A1) (A1) (B2) (A1) (A1) (B2) (A1) (A1) (B1)
                 (A2) (B2) (A1) (B2) (A1) (B2) (A1) (A1) (A1) (B2)
                 (B1) (B2) (A1) (B1) (A2) (B2)
       Virtual   (A1) (B2) (B1) (A1) (A2) (B2) (A1) (B2) (A1) (B2)
                 (B1) (A1) (B1) (A1) (A2) (B1) (B2) (A1) (B2) (A1)
                 (B1) (B2) (A2) (A1) (B2) (A1) (B1) (A1) (A1) (B2)
                 (A1) (B2) (A1) (B2) (A1) (B1) (B2) (A1) (B2) (A1)
                 (B1) (A1) (A2) (A1) (B1) (B2) (A1) (B2) (B1) (A2)
                 (B2) (A1) (A1) (B2) (A1) (A2) (B1) (A2) (B2) (A1)
                 (B2) (A1) (B2) (B1) (A1) (B1) (A2) (A1) (B2) (A1)
                 (B2) (A1)
 The electronic state is 1-A1.
 Alpha  occ. eigenvalues --  -38.47305 -38.47275 -19.05780 -19.04436 -19.04430
 Alpha  occ. eigenvalues --  -10.25727  -2.20974  -2.20966  -1.14309  -1.14289
 Alpha  occ. eigenvalues --   -1.14287  -1.14169  -1.14052  -1.14030  -0.99727
 Alpha  occ. eigenvalues --   -0.88830  -0.87141  -0.44520  -0.38439  -0.37236
 Alpha  occ. eigenvalues --   -0.36628  -0.25752  -0.22237  -0.21872  -0.20912
 Alpha  occ. eigenvalues --   -0.17990
 Alpha virt. eigenvalues --   -0.04745  -0.03890   0.01134   0.01660   0.02781
 Alpha virt. eigenvalues --    0.03422   0.03591   0.05412   0.08224   0.10256
 Alpha virt. eigenvalues --    0.12348   0.12632   0.12878   0.13288   0.15429
 Alpha virt. eigenvalues --    0.16065   0.16073   0.16120   0.18831   0.21779
 Alpha virt. eigenvalues --    0.23756   0.25136   0.27868   0.28501   0.30416
 Alpha virt. eigenvalues --    0.33088   0.34544   0.35179   0.36847   0.38543
 Alpha virt. eigenvalues --    0.40411   0.46970   0.50172   0.56697   0.59238
 Alpha virt. eigenvalues --    0.79526   0.84359   0.92206   1.07511   1.21492
 Alpha virt. eigenvalues --    1.22329   1.25172   1.25523   1.32895   1.35967
 Alpha virt. eigenvalues --    1.36450   1.37784   1.41602   1.48193   1.50374
 Alpha virt. eigenvalues --    1.59689   1.75425   1.82046   1.84916   1.85240
 Alpha virt. eigenvalues --    1.87457   1.89621   1.89779   1.91664   1.91830
 Alpha virt. eigenvalues --    2.02720   2.04316   2.05881   2.22478   2.33125
 Alpha virt. eigenvalues --    2.64091   2.74074   2.86884   2.97623   3.07704
 Alpha virt. eigenvalues --    3.12164   3.18095
          Condensed to atoms (all electrons):
               1          2          3          4          5          6
     1  C    4.759212   0.201369   0.208380   0.201369  -0.054258  -0.054258
     2  O    0.201369   8.772745  -0.186819  -0.102434   0.012982   0.056391
     3  O    0.208380  -0.186819   9.211540  -0.186819   0.000565   0.000565
     4  O    0.201369  -0.102434  -0.186819   8.772745   0.056391   0.012982
     5  Na  -0.054258   0.012982   0.000565   0.056391  10.078243  -0.002769
     6  Na  -0.054258   0.056391   0.000565   0.012982  -0.002769  10.078243
 Mulliken charges:
               1
     1  C    0.738186
     2  O   -0.754234
     3  O   -1.047411
     4  O   -0.754234
     5  Na   0.908847
     6  Na   0.908847
 Sum of Mulliken charges =   0.00000
 Mulliken charges with hydrogens summed into heavy atoms:
               1
     1  C    0.738186
     2  O   -0.754234
     3  O   -1.047411
     4  O   -0.754234
     5  Na   0.908847
     6  Na   0.908847
 APT charges:
               1
     1  C    1.563394
     2  O   -1.049246
     3  O   -1.101918
     4  O   -1.049246
     5  Na   0.818508
     6  Na   0.818508
 Sum of APT charges =   0.00000
 APT charges with hydrogens summed into heavy atoms:
               1
     1  C    1.563394
     2  O   -1.049246
     3  O   -1.101918
     4  O   -1.049246
     5  Na   0.818508
     6  Na   0.818508
 Electronic spatial extent (au):  <R**2>=            639.3034
 Charge=              0.0000 electrons
 Dipole moment (field-independent basis, Debye):
    X=              0.0000    Y=              0.0000    Z=              8.7609  Tot=              8.7609
 Quadrupole moment (field-independent basis, Debye-Ang):
   XX=            -32.0510   YY=             -1.7968   ZZ=            -39.9019
   XY=              0.0000   XZ=              0.0000   YZ=              0.0000
 Traceless Quadrupole moment (field-independent basis, Debye-Ang):
   XX=             -7.4678   YY=             22.7865   ZZ=            -15.3187
   XY=              0.0000   XZ=              0.0000   YZ=              0.0000
 Octapole moment (field-independent basis, Debye-Ang**2):
  XXX=              0.0000  YYY=              0.0000  ZZZ=             34.2843  XYY=              0.0000
  XXY=              0.0000  XXZ=              7.0537  XZZ=              0.0000  YZZ=              0.0000
  YYZ=             50.4429  XYZ=              0.0000
 Hexadecapole moment (field-independent basis, Debye-Ang**3):
 XXXX=            -31.3498 YYYY=           -140.7206 ZZZZ=           -213.7235 XXXY=              0.0000
 XXXZ=              0.0000 YYYX=              0.0000 YYYZ=              0.0000 ZZZX=              0.0000
 ZZZY=              0.0000 XXYY=            -60.1571 XXZZ=            -39.2439 YYZZ=            -78.3792
 XXYZ=              0.0000 YYXZ=              0.0000 ZZXY=              0.0000
 N-N= 2.566367340053D+02 E-N=-1.918357915299D+03  KE= 5.849978045709D+02
 Symmetry A1   KE= 3.223519436758D+02
 Symmetry A2   KE= 1.616396693592D+01
 Symmetry B1   KE= 1.928043612680D+01
 Symmetry B2   KE= 2.272014578324D+02
  Exact polarizability:  28.009   0.000  54.105   0.000   0.000  42.818
 Approx polarizability:  34.227   0.000  65.059   0.000   0.000  53.149
   4 Symmetry operations used in ECPInt.
 ECPInt:  NShTT=     406 NPrTT=    3378 LenC2=     400 LenP2D=    2409.
 LDataN:  DoStor=T MaxTD1= 6 Len=  172
 Calling FoFJK, ICntrl=    100127 FMM=F ISym2X=1 I1Cent= 0 IOpClX= 0 NMat=1 NMatS=1 NMatT=0.
 Full mass-weighted force constant matrix:
 Low frequencies ---   -1.0203   -0.0013   -0.0007    0.0014    4.2847    8.4863
 Low frequencies ---  116.1235  123.0207  202.1965
 Diagonal vibrational polarizability:
      101.2995642      30.6336309      42.1367412
 Harmonic frequencies (cm**-1), IR intensities (KM/Mole), Raman scattering
 activities (A**4/AMU), depolarization ratios for plane and unpolarized
 incident light, reduced masses (AMU), force constants (mDyne/A),
 and normal coordinates:
                      1                      2                      3
                     A2                     B1                     A1
 Frequencies --    116.1234               123.0191               202.1965
 Red. masses --     16.8149                17.2119                20.4290
 Frc consts  --      0.1336                 0.1535                 0.4921
 IR Inten    --      0.0000                56.5327                27.6241
  Atom  AN      X      Y      Z        X      Y      Z        X      Y      Z
     1   6     0.00   0.00   0.00     0.26   0.00   0.00     0.00   0.00  -0.33
     2   8     0.66   0.00   0.00    -0.05   0.00   0.00     0.00   0.03  -0.24
     3   8     0.00   0.00   0.00     0.84   0.00   0.00     0.00   0.00  -0.28
     4   8    -0.66   0.00   0.00    -0.05   0.00   0.00     0.00  -0.03  -0.24
     5  11     0.24   0.00   0.00    -0.33   0.00   0.00     0.00   0.47   0.35
     6  11    -0.24   0.00   0.00    -0.33   0.00   0.00     0.00  -0.47   0.35
                      4                      5                      6
                     A1                     B2                     B2
 Frequencies --    341.7499               355.5128               371.0929
 Red. masses --     20.3932                17.8902                18.1432
 Frc consts  --      1.4033                 1.3322                 1.4721
 IR Inten    --     48.4170                 9.6532               100.5706
  Atom  AN      X      Y      Z        X      Y      Z        X      Y      Z
     1   6     0.00   0.00   0.31     0.00   0.06   0.00     0.00  -0.37   0.00
     2   8     0.00  -0.07   0.22     0.00   0.32   0.42     0.00  -0.27   0.28
     3   8     0.00   0.00   0.34     0.00  -0.41   0.00     0.00  -0.41   0.00
     4   8     0.00   0.07   0.22     0.00   0.32  -0.42     0.00  -0.27  -0.28
     5  11     0.00   0.47  -0.35     0.00  -0.09   0.36     0.00   0.43  -0.11
     6  11     0.00  -0.47  -0.35     0.00  -0.09  -0.36     0.00   0.43   0.11
                      7                      8                      9
                     A1                     B2                     B1
 Frequencies --    689.2782               729.1879               839.0098
 Red. masses --     15.8716                15.8647                12.6724
 Frc consts  --      4.4428                 4.9701                 5.2559
 IR Inten    --      0.2136                 6.7363                20.1753
  Atom  AN      X      Y      Z        X      Y      Z        X      Y      Z
     1   6     0.00   0.00   0.21     0.00  -0.24   0.00     0.91   0.00   0.00
     2   8     0.00  -0.42  -0.41     0.00  -0.16   0.43    -0.24   0.00   0.00
     3   8     0.00   0.00   0.50     0.00   0.71   0.00    -0.23   0.00   0.00
     4   8     0.00   0.42  -0.41     0.00  -0.16  -0.43    -0.24   0.00   0.00
     5  11     0.00  -0.03   0.06     0.00  -0.08   0.02     0.01   0.00   0.00
     6  11     0.00   0.03   0.06     0.00  -0.08  -0.02     0.01   0.00   0.00
                     10                     11                     12
                     A1                     A1                     B2
 Frequencies --    987.1414              1312.1384              1576.8051
 Red. masses --     15.4087                13.2669                12.8427
 Frc consts  --      8.8466                13.4580                18.8132
 IR Inten    --    120.8038               604.5150               793.0597
  Atom  AN      X      Y      Z        X      Y      Z        X      Y      Z
     1   6     0.00   0.00  -0.38     0.00   0.00   0.83     0.00   0.89   0.00
     2   8     0.00   0.45  -0.16     0.00   0.30  -0.24     0.00  -0.29   0.13
     3   8     0.00   0.00   0.63     0.00   0.00  -0.16     0.00  -0.07   0.00
     4   8     0.00  -0.45  -0.16     0.00  -0.30  -0.24     0.00  -0.29  -0.13
     5  11     0.00  -0.01  -0.01     0.00   0.01   0.01     0.00   0.00   0.01
     6  11     0.00   0.01  -0.01     0.00  -0.01   0.01     0.00   0.00  -0.01

 -------------------
 - Thermochemistry -
 -------------------
 Temperature   298.150 Kelvin.  Pressure   1.00000 Atm.
 Atom     1 has atomic number  6 and mass  12.00000
 Atom     2 has atomic number  8 and mass  15.99491
 Atom     3 has atomic number  8 and mass  15.99491
 Atom     4 has atomic number  8 and mass  15.99491
 Atom     5 has atomic number 11 and mass  22.98977
 Atom     6 has atomic number 11 and mass  22.98977
 Molecular mass:   105.96428 amu.
 Principal axes and moments of inertia in atomic units:
                           1         2         3
     Eigenvalues --   289.48861 916.030121205.51873
           X            0.00000   0.00000   1.00000
           Y            1.00000   0.00000   0.00000
           Z            0.00000   1.00000   0.00000
 This molecule is an asymmetric top.
 Rotational symmetry number  2.
 Rotational temperatures (Kelvin)      0.29920     0.09455     0.07185
 Rotational constants (GHZ):           6.23424     1.97018     1.49707
 Zero-point vibrational energy      45716.8 (Joules/Mol)
                                   10.92658 (Kcal/Mol)
 Warning -- explicit consideration of   6 degrees of freedom as
           vibrations may cause significant error
 Vibrational temperatures:    167.08   177.00   290.92   491.70   511.50
          (Kelvin)            533.92   991.72  1049.14  1207.15  1420.28
                             1887.87  2268.67
 
 Zero-point correction=                           0.017413 (Hartree/Particle)
 Thermal correction to Energy=                    0.023602
 Thermal correction to Enthalpy=                  0.024546
 Thermal correction to Gibbs Free Energy=        -0.012717
 Sum of electronic and zero-point Energies=           -588.498433
 Sum of electronic and thermal Energies=              -588.492244
 Sum of electronic and thermal Enthalpies=            -588.491299
 Sum of electronic and thermal Free Energies=         -588.528563
 
                     E (Thermal)             CV                S
                      KCal/Mol        Cal/Mol-Kelvin    Cal/Mol-Kelvin
 Total                   14.810             19.155             78.427
 Electronic               0.000              0.000              0.000
 Translational            0.889              2.981             39.891
 Rotational               0.889              2.981             25.883
 Vibrational             13.033             13.194             12.653
 Vibration     1          0.608              1.936              3.164
 Vibration     2          0.610              1.930              3.052
 Vibration     3          0.639              1.837              2.113
 Vibration     4          0.721              1.592              1.204
 Vibration     5          0.731              1.564              1.142
 Vibration     6          0.743              1.532              1.075
                       Q            Log10(Q)             Ln(Q)
 Total Bot       0.707167D+06          5.849522         13.469022
 Total V=0       0.722375D+14         13.858763         31.910981
 Vib (Bot)       0.162988D-06         -6.787844        -15.629589
 Vib (Bot)    1  0.176138D+01          0.245854          0.566100
 Vib (Bot)    2  0.166001D+01          0.220110          0.506822
 Vib (Bot)    3  0.985313D+00         -0.006426         -0.014796
 Vib (Bot)    4  0.542733D+00         -0.265413         -0.611137
 Vib (Bot)    5  0.517100D+00         -0.286425         -0.659519
 Vib (Bot)    6  0.490235D+00         -0.309595         -0.712870
 Vib (V=0)       0.166493D+02          1.221396          2.812369
 Vib (V=0)    1  0.233098D+01          0.367538          0.846287
 Vib (V=0)    2  0.223367D+01          0.349020          0.803648
 Vib (V=0)    3  0.160492D+01          0.205453          0.473072
 Vib (V=0)    4  0.123794D+01          0.092701          0.213451
 Vib (V=0)    5  0.121930D+01          0.086111          0.198277
 Vib (V=0)    6  0.120024D+01          0.079267          0.182518
 Electronic      0.100000D+01          0.000000          0.000000
 Translational   0.428739D+08          7.632193         17.573774
 Rotational      0.101198D+06          5.005173         11.524837
 ***** Axes restored to original set *****
 -------------------------------------------------------------------
 Center     Atomic                   Forces (Hartrees/Bohr)
 Number     Number              X              Y              Z
 -------------------------------------------------------------------
      1        6           0.000000000    0.000000000    0.000316469
      2        8           0.000000000   -0.000035314   -0.000083940
      3        8           0.000000000    0.000000000   -0.000316479
      4        8           0.000000000    0.000035314   -0.000083940
      5       11           0.000000000   -0.000046738    0.000083946
      6       11           0.000000000    0.000046738    0.000083946
 -------------------------------------------------------------------
 Cartesian Forces:  Max     0.000316479 RMS     0.000114348
 FormGI is forming the generalized inverse of G from B-inverse, IUseBI=4.

 GradGradGradGradGradGradGradGradGradGradGradGradGradGradGradGradGradGrad
 Berny optimization.
 Internal  Forces:  Max     0.000228092 RMS     0.000059036
 Search for a local minimum.
 Step number   1 out of a maximum of    2
 All quantities printed in internal units (Hartrees-Bohrs-Radians)
 Second derivative matrix not updated -- analytic derivatives used.
 ITU=  0
     Eigenvalues ---    0.00012   0.00018   0.03146   0.03189   0.03409
     Eigenvalues ---    0.04160   0.05497   0.13443   0.15020   0.25778
     Eigenvalues ---    0.45931   0.61775
 Angle between quadratic step and forces=  48.80 degrees.
 Linear search not attempted -- first point.
 Iteration  1 RMS(Cart)=  0.00078201 RMS(Int)=  0.00000060
 Iteration  2 RMS(Cart)=  0.00000037 RMS(Int)=  0.00000014
 ClnCor:  largest displacement from symmetrization is 3.14D-11 for atom     4.
 Variable       Old X    -DE/DX   Delta X   Delta X   Delta X     New X
                                 (Linear)    (Quad)   (Total)
    R1        2.41895   0.00008   0.00000   0.00017   0.00017   2.41912
    R2        2.57485  -0.00023   0.00000  -0.00077  -0.00077   2.57408
    R3        2.41895   0.00008   0.00000   0.00017   0.00017   2.41912
    R4        4.76053  -0.00001   0.00000   0.00004   0.00004   4.76058
    R5        4.76053  -0.00001   0.00000   0.00004   0.00004   4.76058
    R6        4.05733   0.00005   0.00000   0.00164   0.00164   4.05898
    R7        4.09254  -0.00006   0.00000  -0.00173  -0.00173   4.09081
    R8        4.09254  -0.00006   0.00000  -0.00173  -0.00173   4.09081
    R9        4.05733   0.00005   0.00000   0.00164   0.00164   4.05898
    A1        2.05375   0.00001   0.00000  -0.00001  -0.00001   2.05374
    A2        2.17568  -0.00002   0.00000   0.00002   0.00002   2.17570
    A3        2.05375   0.00001   0.00000  -0.00001  -0.00001   2.05374
    A4        2.06735  -0.00003   0.00000  -0.00135  -0.00135   2.06599
    A5        1.10402  -0.00003   0.00000  -0.00014  -0.00014   1.10388
    A6        1.10402  -0.00003   0.00000  -0.00014  -0.00014   1.10388
    A7        3.08743  -0.00001   0.00000  -0.00069  -0.00069   3.08674
    A8        3.08743  -0.00001   0.00000  -0.00069  -0.00069   3.08674
    A9        3.07363   0.00014   0.00000   0.00171   0.00171   3.07534
   A10        3.14159   0.00000   0.00000   0.00000   0.00000   3.14159
   A11        3.14159   0.00000   0.00000   0.00000   0.00000   3.14159
   A12        3.14159   0.00000   0.00000   0.00000   0.00000   3.14159
    D1        3.14159   0.00000   0.00000   0.00000   0.00000   3.14159
    D2        3.14159   0.00000   0.00000   0.00000   0.00000   3.14159
    D3        0.00000   0.00000   0.00000   0.00000   0.00000   0.00000
    D4        3.14159   0.00000   0.00000   0.00000   0.00000   3.14159
    D5        3.14159   0.00000   0.00000   0.00000   0.00000   3.14159
    D6        0.00000   0.00000   0.00000   0.00000   0.00000   0.00000
    D7        0.00000   0.00000   0.00000   0.00000   0.00000   0.00000
    D8        0.00000   0.00000   0.00000   0.00000   0.00000   0.00000
         Item               Value     Threshold  Converged?
 Maximum Force            0.000228     0.000450     YES
 RMS     Force            0.000059     0.000300     YES
 Maximum Displacement     0.002007     0.001800     NO 
 RMS     Displacement     0.000782     0.001200     YES
 Predicted change in Energy=-4.418517D-07
                           ----------------------------
                           ! Non-Optimized Parameters !
                           ! (Angstroms and Degrees)  !
 --------------------------                            --------------------------
 ! Name  Definition              Value          Derivative Info.                !
 --------------------------------------------------------------------------------
 ! R1    R(1,2)                  1.2801         -DE/DX =    0.0001              !
 ! R2    R(1,3)                  1.3621         -DE/DX =   -0.0002              !
 ! R3    R(1,4)                  1.2801         -DE/DX =    0.0001              !
 ! R4    R(1,5)                  2.5192         -DE/DX =    0.0                 !
 ! R5    R(1,6)                  2.5192         -DE/DX =    0.0                 !
 ! R6    R(2,6)                  2.1479         -DE/DX =    0.0                 !
 ! R7    R(3,5)                  2.1648         -DE/DX =   -0.0001              !
 ! R8    R(3,6)                  2.1648         -DE/DX =   -0.0001              !
 ! R9    R(4,5)                  2.1479         -DE/DX =    0.0                 !
 ! A1    A(2,1,3)              117.6707         -DE/DX =    0.0                 !
 ! A2    A(2,1,4)              124.6586         -DE/DX =    0.0                 !
 ! A3    A(3,1,4)              117.6707         -DE/DX =    0.0                 !
 ! A4    A(5,1,6)              118.3726         -DE/DX =    0.0                 !
 ! A5    A(3,5,4)               63.2478         -DE/DX =    0.0                 !
 ! A6    A(2,6,3)               63.2478         -DE/DX =    0.0                 !
 ! A7    L(2,1,5,3,-1)         176.857          -DE/DX =    0.0                 !
 ! A8    L(4,1,6,3,-1)         176.857          -DE/DX =    0.0                 !
 ! A9    L(5,3,6,1,-1)         176.2041         -DE/DX =    0.0001              !
 ! A10   L(2,1,5,3,-2)         180.0            -DE/DX =    0.0                 !
 ! A11   L(4,1,6,3,-2)         180.0            -DE/DX =    0.0                 !
 ! A12   L(5,3,6,1,-2)         180.0            -DE/DX =    0.0                 !
 ! D1    D(2,1,3,4)            180.0            -DE/DX =    0.0                 !
 ! D2    D(2,1,3,5)            180.0            -DE/DX =    0.0                 !
 ! D3    D(2,1,3,6)              0.0            -DE/DX =    0.0                 !
 ! D4    D(2,1,4,5)            180.0            -DE/DX =    0.0                 !
 ! D5    D(2,1,4,6)            180.0            -DE/DX =    0.0                 !
 ! D6    D(2,1,5,6)              0.0            -DE/DX =    0.0                 !
 ! D7    D(4,3,5,1)              0.0            -DE/DX =    0.0                 !
 ! D8    D(4,5,6,2)              0.0            -DE/DX =    0.0                 !
 --------------------------------------------------------------------------------
 GradGradGradGradGradGradGradGradGradGradGradGradGradGradGradGradGradGrad


 ----------------------------------------------------------------------

 Electric dipole moment (input orientation):
 (Debye = 10**-18 statcoulomb cm , SI units = C m)
                  (au)            (Debye)         (10**-30 SI)
   Tot        0.344682D+01      0.876093D+01      0.292233D+02
   x          0.000000D+00      0.000000D+00      0.000000D+00
   y          0.000000D+00      0.000000D+00      0.000000D+00
   z          0.344682D+01      0.876093D+01      0.292233D+02

 Dipole polarizability, Alpha (input orientation).
 (esu units = cm**3 , SI units = C**2 m**2 J**-1)
 Alpha(0;0):
               (au)            (10**-24 esu)      (10**-40 SI)
   iso        0.416442D+02      0.617103D+01      0.686619D+01
   aniso      0.226682D+02      0.335909D+01      0.373749D+01
   xx         0.280092D+02      0.415053D+01      0.461809D+01
   yx         0.000000D+00      0.000000D+00      0.000000D+00
   yy         0.541051D+02      0.801754D+01      0.892072D+01
   zx         0.000000D+00      0.000000D+00      0.000000D+00
   zy         0.000000D+00      0.000000D+00      0.000000D+00
   zz         0.428182D+02      0.634501D+01      0.705977D+01

 ----------------------------------------------------------------------

 Dipole orientation:
     6          0.00000000          0.00000000         -1.08101594
     8          0.00000000         -2.14228424         -2.20437497
     8          0.00000000          0.00000000          1.49383795
     8          0.00000000          2.14228424         -2.20437497
    11          0.00000000          4.09017614          1.35479001
    11          0.00000000         -4.09017614          1.35479001

 Electric dipole moment (dipole orientation):
 (Debye = 10**-18 statcoulomb cm , SI units = C m)
                  (au)            (Debye)         (10**-30 SI)
   Tot        0.344682D+01      0.876093D+01      0.292233D+02
   x          0.000000D+00      0.000000D+00      0.000000D+00
   y          0.000000D+00      0.000000D+00      0.000000D+00
   z          0.344682D+01      0.876093D+01      0.292233D+02

 Dipole polarizability, Alpha (dipole orientation).
 (esu units = cm**3 , SI units = C**2 m**2 J**-1)
 Alpha(0;0):
               (au)            (10**-24 esu)      (10**-40 SI)
   iso        0.416442D+02      0.617103D+01      0.686619D+01
   aniso      0.226682D+02      0.335909D+01      0.373749D+01
   xx         0.280092D+02      0.415053D+01      0.461809D+01
   yx         0.000000D+00      0.000000D+00      0.000000D+00
   yy         0.541051D+02      0.801754D+01      0.892072D+01
   zx         0.000000D+00      0.000000D+00      0.000000D+00
   zy         0.000000D+00      0.000000D+00      0.000000D+00
   zz         0.428182D+02      0.634501D+01      0.705977D+01

 ----------------------------------------------------------------------
 1\1\GINC-IP-172-31-36-226\Freq\RB3LYP\Gen\C1Na2O3\UBUNTU\14-Sep-2023\0
 \\#N Geom=AllCheck Guess=TCheck SCRF=Check GenChk RB3LYP/ChkBas Freq\\
 Title Card Required\\0,1\C,0.,0.,-0.572049\O,0.,-1.133648,-1.166505\O,
 0.,0.,0.790505\O,0.,1.133648,-1.166505\Na,0.,2.164428,0.716924\Na,0.,-
 2.164428,0.716924\\Version=EM64L-G16RevB.01\State=1-A1\HF=-588.5158454
 \RMSD=1.321e-09\RMSF=1.143e-04\ZeroPoint=0.0174126\Thermal=0.0236018\D
 ipole=0.,0.,3.4468157\DipoleDeriv=0.1010759,0.,0.,0.,2.3496967,0.,0.,0
 .,2.2394094,-0.531596,0.,0.,0.,-1.6697897,-0.43256,0.,-0.4686224,-0.94
 63531,-0.6539704,0.,0.,0.,-0.7828981,0.,0.,0.,-1.8688852,-0.531596,0.,
 0.,0.,-1.6697897,0.43256,0.,0.4686224,-0.9463531,0.8080433,0.,0.,0.,0.
 8863903,0.0451643,0.,0.0732584,0.761091,0.8080433,0.,0.,0.,0.8863903,-
 0.0451644,0.,-0.0732584,0.761091\Polar=28.009163,0.,54.1050748,0.,0.,4
 2.8182365\Quadrupole=-5.55212,16.9411687,-11.3890487,0.,0.,0.\PG=C02V 
 [C2(C1O1),SGV(Na2O2)]\NImag=0\\0.25219981,0.,0.84890712,0.,0.,0.545934
 71,-0.08789821,0.,0.,0.03406426,0.,-0.35071910,-0.13118770,0.,0.466500
 76,0.,-0.13374019,-0.17438524,0.,0.17209636,0.25038419,-0.08409725,0.,
 0.,0.02942128,0.,0.,0.03512072,0.,-0.11830057,0.,0.,0.00031052,-0.0630
 4561,0.,0.19801881,0.,0.,-0.20767920,0.,-0.05202275,-0.06603899,0.,0.,
 0.35777090,-0.08789821,0.,0.,0.02721679,0.,0.,0.02942128,0.,0.,0.03406
 426,0.,-0.35071909,0.13118770,0.,-0.10500634,0.00791184,0.,0.00031052,
 0.05202275,0.,0.46650076,0.,0.13374019,-0.17438524,0.,-0.00791184,0.02
 910939,0.,0.06304561,-0.06603899,0.,-0.17209636,0.25038419,0.00384693,
 0.,0.,0.00039669,0.,0.,-0.00493302,0.,0.,-0.00320080,0.,0.,0.00288957,
 0.,-0.01458418,-0.02041803,0.,0.00293448,0.00352256,0.,-0.04016964,0.0
 0439450,0.,-0.01402033,-0.01325504,0.,0.06797152,0.,-0.01959822,0.0052
 5748,0.,0.00380538,-0.00114461,0.,0.00523782,-0.00900686,0.,-0.0152205
 4,-0.03792474,0.,0.02576579,0.04197488,0.00384693,0.,0.,-0.00320080,0.
 ,0.,-0.00493302,0.,0.,0.00039669,0.,0.,0.00100062,0.,0.,0.00288957,0.,
 -0.01458418,0.02041803,0.,-0.01402033,0.01325504,0.,-0.04016964,-0.004
 39450,0.,0.00293448,-0.00352256,0.,-0.00213186,0.00000977,0.,0.0679715
 2,0.,0.01959822,0.00525748,0.,0.01522054,-0.03792474,0.,-0.00523781,-0
 .00900686,0.,-0.00380538,-0.00114461,0.,-0.00000977,0.00084384,0.,-0.0
 2576579,0.04197488\\0.,0.,-0.00031647,0.,0.00003531,0.00008394,0.,0.,0
 .00031648,0.,-0.00003531,0.00008394,0.,0.00004674,-0.00008395,0.,-0.00
 004674,-0.00008395\\\@


 TIME GOES, YOU SAY?  AH NO!
 ALAS, TIME STAYS, WE GO.
    -- A. DOBSON (1840-1921)
 Job cpu time:       0 days  0 hours 36 minutes  0.3 seconds.
 Elapsed time:       0 days  0 hours  1 minutes 18.1 seconds.
 File lengths (MBytes):  RWF=     11 Int=      0 D2E=      0 Chk=      2 Scr=      1
 Normal termination of Gaussian 16 at Thu Sep 14 07:10:58 2023.
