 Entering Gaussian System, Link 0=g16
 Input=/home/ubuntu/Downloads/NaOtBu-vol.gjf
 Output=/home/ubuntu/Downloads/NaOtBu-vol.log
 Initial command:
 /home/ubuntu/g16/l1.exe "/home/ubuntu/Scratch/Gau-12129.inp" -scrdir="/home/ubuntu/Scratch/"
 Entering Link 1 = /home/ubuntu/g16/l1.exe PID=     12133.
  
 Copyright (c) 1988-2017, Gaussian, Inc.  All Rights Reserved.
  
 This is part of the Gaussian(R) 16 program.  It is based on
 the Gaussian(R) 09 system (copyright 2009, Gaussian, Inc.),
 the Gaussian(R) 03 system (copyright 2003, Gaussian, Inc.),
 the Gaussian(R) 98 system (copyright 1998, Gaussian, Inc.),
 the Gaussian(R) 94 system (copyright 1995, Gaussian, Inc.),
 the Gaussian 92(TM) system (copyright 1992, Gaussian, Inc.),
 the Gaussian 90(TM) system (copyright 1990, Gaussian, Inc.),
 the Gaussian 88(TM) system (copyright 1988, Gaussian, Inc.),
 the Gaussian 86(TM) system (copyright 1986, Carnegie Mellon
 University), and the Gaussian 82(TM) system (copyright 1983,
 Carnegie Mellon University). Gaussian is a federally registered
 trademark of Gaussian, Inc.
  
 This software contains proprietary and confidential information,
 including trade secrets, belonging to Gaussian, Inc.
  
 This software is provided under written license and may be
 used, copied, transmitted, or stored only in accord with that
 written license.
  
 The following legend is applicable only to US Government
 contracts under FAR:
  
                    RESTRICTED RIGHTS LEGEND
  
 Use, reproduction and disclosure by the US Government is
 subject to restrictions as set forth in subparagraphs (a)
 and (c) of the Commercial Computer Software - Restricted
 Rights clause in FAR 52.227-19.
  
 Gaussian, Inc.
 340 Quinnipiac St., Bldg. 40, Wallingford CT 06492
  
  
 ---------------------------------------------------------------
 Warning -- This program may not be used in any manner that
 competes with the business of Gaussian, Inc. or will provide
 assistance to any competitor of Gaussian, Inc.  The licensee
 of this program is prohibited from giving any competitor of
 Gaussian, Inc. access to this program.  By using this program,
 the user acknowledges that Gaussian, Inc. is engaged in the
 business of creating and licensing software in the field of
 computational chemistry and represents and warrants to the
 licensee that it is not a competitor of Gaussian, Inc. and that
 it will not use this program in any manner prohibited above.
 ---------------------------------------------------------------
  

 Cite this work as:
 Gaussian 16, Revision B.01,
 M. J. Frisch, G. W. Trucks, H. B. Schlegel, G. E. Scuseria, 
 M. A. Robb, J. R. Cheeseman, G. Scalmani, V. Barone, 
 G. A. Petersson, H. Nakatsuji, X. Li, M. Caricato, A. V. Marenich, 
 J. Bloino, B. G. Janesko, R. Gomperts, B. Mennucci, H. P. Hratchian, 
 J. V. Ortiz, A. F. Izmaylov, J. L. Sonnenberg, D. Williams-Young, 
 F. Ding, F. Lipparini, F. Egidi, J. Goings, B. Peng, A. Petrone, 
 T. Henderson, D. Ranasinghe, V. G. Zakrzewski, J. Gao, N. Rega, 
 G. Zheng, W. Liang, M. Hada, M. Ehara, K. Toyota, R. Fukuda, 
 J. Hasegawa, M. Ishida, T. Nakajima, Y. Honda, O. Kitao, H. Nakai, 
 T. Vreven, K. Throssell, J. A. Montgomery, Jr., J. E. Peralta, 
 F. Ogliaro, M. J. Bearpark, J. J. Heyd, E. N. Brothers, K. N. Kudin, 
 V. N. Staroverov, T. A. Keith, R. Kobayashi, J. Normand, 
 K. Raghavachari, A. P. Rendell, J. C. Burant, S. S. Iyengar, 
 J. Tomasi, M. Cossi, J. M. Millam, M. Klene, C. Adamo, R. Cammi, 
 J. W. Ochterski, R. L. Martin, K. Morokuma, O. Farkas, 
 J. B. Foresman, and D. J. Fox, Gaussian, Inc., Wallingford CT, 2016.
 
 ******************************************
 Gaussian 16:  EM64L-G16RevB.01 20-Dec-2017
                14-Sep-2023 
 ******************************************
 %nprocshared=32
 Will use up to   32 processors via shared memory.
 %mem=62GB
 %chk=NaOtBu-vol.chk
 ----------------------------------------------------------------------
 # opt freq b3lyp/gen empiricaldispersion=gd3 pseudo=read scf=maxcycle=
 1000 volume
 ----------------------------------------------------------------------
 1/18=20,19=15,26=3,38=1/1,3;
 2/9=110,12=2,17=6,18=5,40=1/2;
 3/5=7,11=2,16=1,17=8,25=1,30=1,71=1,74=-5,124=31/1,2,3;
 4//1;
 5/5=2,7=1000,38=5/2;
 6/7=2,8=2,9=2,10=2,28=1,44=1/1,4;
 7//1,2,3,16;
 1/18=20,19=15,26=3/3(2);
 2/9=110/2;
 99//99;
 2/9=110/2;
 3/5=7,6=1,11=2,16=1,17=8,25=1,30=1,71=1,74=-5,82=7,124=31/1,2,3;
 4/5=5,16=3,69=1/1;
 5/5=2,7=1000,38=5/2;
 7//1,2,3,16;
 1/18=20,19=15,26=3/3(-5);
 2/9=110/2;
 6/7=2,8=2,9=2,10=2,19=2,28=1,44=1/1,4;
 99/9=1/99;
 -------------------
 Title Card Required
 -------------------
 Symbolic Z-matrix:
 Charge =  0 Multiplicity = 1
 C                    -0.62567   0.00013   0. 
 C                    -1.15411  -0.72791   1.25988 
 H                    -2.25252  -0.75688   1.30421 
 H                    -0.77808  -1.75912   1.27168 
 H                    -0.78265  -0.22066   2.15966 
 C                    -1.15411  -0.72791  -1.25988 
 H                    -2.25252  -0.75688  -1.30421 
 H                    -0.78265  -0.22066  -2.15966 
 H                    -0.77808  -1.75912  -1.27168 
 C                    -1.15411   1.45506   0. 
 H                    -0.77988   1.98078   0.888 
 H                    -0.77988   1.98078  -0.888 
 H                    -2.25255   1.50852   0. 
 O                     0.75665   0.0007    0. 
 Na                    2.71941   0.00013   0. 
 

 GradGradGradGradGradGradGradGradGradGradGradGradGradGradGradGradGradGrad
 Berny optimization.
 Initialization pass.
                           ----------------------------
                           !    Initial Parameters    !
                           ! (Angstroms and Degrees)  !
 --------------------------                            --------------------------
 ! Name  Definition              Value          Derivative Info.                !
 --------------------------------------------------------------------------------
 ! R1    R(1,2)                  1.5481         estimate D2E/DX2                !
 ! R2    R(1,6)                  1.5481         estimate D2E/DX2                !
 ! R3    R(1,10)                 1.5479         estimate D2E/DX2                !
 ! R4    R(1,14)                 1.3823         estimate D2E/DX2                !
 ! R5    R(2,3)                  1.0997         estimate D2E/DX2                !
 ! R6    R(2,4)                  1.0977         estimate D2E/DX2                !
 ! R7    R(2,5)                  1.0977         estimate D2E/DX2                !
 ! R8    R(6,7)                  1.0997         estimate D2E/DX2                !
 ! R9    R(6,8)                  1.0977         estimate D2E/DX2                !
 ! R10   R(6,9)                  1.0977         estimate D2E/DX2                !
 ! R11   R(10,11)                1.0977         estimate D2E/DX2                !
 ! R12   R(10,12)                1.0977         estimate D2E/DX2                !
 ! R13   R(10,13)                1.0997         estimate D2E/DX2                !
 ! R14   R(14,15)                1.9628         estimate D2E/DX2                !
 ! A1    A(2,1,6)              108.9435         estimate D2E/DX2                !
 ! A2    A(2,1,10)             108.9957         estimate D2E/DX2                !
 ! A3    A(2,1,14)             109.9708         estimate D2E/DX2                !
 ! A4    A(6,1,10)             108.9957         estimate D2E/DX2                !
 ! A5    A(6,1,14)             109.9708         estimate D2E/DX2                !
 ! A6    A(10,1,14)            109.9375         estimate D2E/DX2                !
 ! A7    A(1,2,3)              112.7151         estimate D2E/DX2                !
 ! A8    A(1,2,4)              109.4884         estimate D2E/DX2                !
 ! A9    A(1,2,5)              109.5281         estimate D2E/DX2                !
 ! A10   A(3,2,4)              108.4803         estimate D2E/DX2                !
 ! A11   A(3,2,5)              108.4902         estimate D2E/DX2                !
 ! A12   A(4,2,5)              108.0225         estimate D2E/DX2                !
 ! A13   A(1,6,7)              112.7151         estimate D2E/DX2                !
 ! A14   A(1,6,8)              109.5281         estimate D2E/DX2                !
 ! A15   A(1,6,9)              109.4884         estimate D2E/DX2                !
 ! A16   A(7,6,8)              108.4902         estimate D2E/DX2                !
 ! A17   A(7,6,9)              108.4803         estimate D2E/DX2                !
 ! A18   A(8,6,9)              108.0225         estimate D2E/DX2                !
 ! A19   A(1,10,11)            109.4977         estimate D2E/DX2                !
 ! A20   A(1,10,12)            109.4977         estimate D2E/DX2                !
 ! A21   A(1,10,13)            112.7475         estimate D2E/DX2                !
 ! A22   A(11,10,12)           107.9884         estimate D2E/DX2                !
 ! A23   A(11,10,13)           108.4954         estimate D2E/DX2                !
 ! A24   A(12,10,13)           108.4954         estimate D2E/DX2                !
 ! A25   L(1,14,15,4,-1)       179.9674         estimate D2E/DX2                !
 ! A26   L(1,14,15,4,-2)       179.9711         estimate D2E/DX2                !
 ! D1    D(6,1,2,3)            -59.2651         estimate D2E/DX2                !
 ! D2    D(6,1,2,4)             61.5761         estimate D2E/DX2                !
 ! D3    D(6,1,2,5)            179.8533         estimate D2E/DX2                !
 ! D4    D(10,1,2,3)            59.5582         estimate D2E/DX2                !
 ! D5    D(10,1,2,4)          -179.6006         estimate D2E/DX2                !
 ! D6    D(10,1,2,5)           -61.3234         estimate D2E/DX2                !
 ! D7    D(14,1,2,3)          -179.8576         estimate D2E/DX2                !
 ! D8    D(14,1,2,4)           -59.0164         estimate D2E/DX2                !
 ! D9    D(14,1,2,5)            59.2608         estimate D2E/DX2                !
 ! D10   D(2,1,6,7)             59.2651         estimate D2E/DX2                !
 ! D11   D(2,1,6,8)           -179.8533         estimate D2E/DX2                !
 ! D12   D(2,1,6,9)            -61.5761         estimate D2E/DX2                !
 ! D13   D(10,1,6,7)           -59.5582         estimate D2E/DX2                !
 ! D14   D(10,1,6,8)            61.3234         estimate D2E/DX2                !
 ! D15   D(10,1,6,9)           179.6006         estimate D2E/DX2                !
 ! D16   D(14,1,6,7)           179.8576         estimate D2E/DX2                !
 ! D17   D(14,1,6,8)           -59.2608         estimate D2E/DX2                !
 ! D18   D(14,1,6,9)            59.0164         estimate D2E/DX2                !
 ! D19   D(2,1,10,11)           61.493          estimate D2E/DX2                !
 ! D20   D(2,1,10,12)          179.7163         estimate D2E/DX2                !
 ! D21   D(2,1,10,13)          -59.3953         estimate D2E/DX2                !
 ! D22   D(6,1,10,11)         -179.7163         estimate D2E/DX2                !
 ! D23   D(6,1,10,12)          -61.493          estimate D2E/DX2                !
 ! D24   D(6,1,10,13)           59.3953         estimate D2E/DX2                !
 ! D25   D(14,1,10,11)         -59.1116         estimate D2E/DX2                !
 ! D26   D(14,1,10,12)          59.1116         estimate D2E/DX2                !
 ! D27   D(14,1,10,13)         180.0            estimate D2E/DX2                !
 --------------------------------------------------------------------------------
 Trust Radius=3.00D-01 FncErr=1.00D-07 GrdErr=1.00D-06 EigMax=2.50D+02 EigMin=1.00D-04
 Number of steps in this run=     77 maximum allowed number of steps=    100.
 GradGradGradGradGradGradGradGradGradGradGradGradGradGradGradGradGradGrad

                          Input orientation:                          
 ---------------------------------------------------------------------
 Center     Atomic      Atomic             Coordinates (Angstroms)
 Number     Number       Type             X           Y           Z
 ---------------------------------------------------------------------
      1          6           0       -0.625668    0.000127    0.000000
      2          6           0       -1.154105   -0.727910    1.259881
      3          1           0       -2.252522   -0.756884    1.304211
      4          1           0       -0.778078   -1.759120    1.271683
      5          1           0       -0.782647   -0.220655    2.159662
      6          6           0       -1.154105   -0.727910   -1.259881
      7          1           0       -2.252522   -0.756884   -1.304211
      8          1           0       -0.782647   -0.220655   -2.159662
      9          1           0       -0.778078   -1.759120   -1.271683
     10          6           0       -1.154105    1.455063    0.000000
     11          1           0       -0.779884    1.980777    0.887995
     12          1           0       -0.779884    1.980777   -0.887995
     13          1           0       -2.252546    1.508523    0.000000
     14          8           0        0.756652    0.000698    0.000000
     15         11           0        2.719408    0.000130    0.000000
 ---------------------------------------------------------------------
                    Distance matrix (angstroms):
                    1          2          3          4          5
     1  C    0.000000
     2  C    1.548090   0.000000
     3  H    2.218262   1.099693   0.000000
     4  H    2.176087   1.097693   1.783121   0.000000
     5  H    2.176586   1.097677   1.783219   1.776345   0.000000
     6  C    1.548090   2.519762   2.789611   2.759276   3.476861
     7  H    2.218262   2.789611   2.608422   3.132681   3.800854
     8  H    2.176586   3.476861   3.800854   3.760455   4.319324
     9  H    2.176087   2.759276   3.132681   2.543366   3.760455
    10  C    1.547929   2.520451   2.792883   3.477002   2.758650
    11  H    2.176073   2.759588   3.136349   3.759528   2.542331
    12  H    2.176073   3.477125   3.803842   4.318685   3.759591
    13  H    2.218556   2.792043   2.614007   3.803778   3.132858
    14  O    1.382320   2.401908   3.366010   2.658859   2.661311
    15  Na   3.345076   4.137807   5.195587   4.116375   4.120349
                    6          7          8          9         10
     6  C    0.000000
     7  H    1.099693   0.000000
     8  H    1.097677   1.783219   0.000000
     9  H    1.097693   1.783121   1.776345   0.000000
    10  C    2.520451   2.792883   2.758650   3.477002   0.000000
    11  H    3.477125   3.803842   3.759591   4.318685   1.097703
    12  H    2.759588   3.136349   2.542331   3.759528   1.097703
    13  H    2.792043   2.614007   3.132858   3.803778   1.099741
    14  O    2.401908   3.366010   2.661311   2.658859   2.401285
    15  Na   4.137807   5.195587   4.120349   4.116375   4.137745
                   11         12         13         14         15
    11  H    0.000000
    12  H    1.775990   0.000000
    13  H    1.783337   1.783337   0.000000
    14  O    2.658983   2.658983   3.365830   0.000000
    15  Na   4.117832   4.117832   5.195727   1.962756   0.000000
 Stoichiometry    C4H9NaO
 Framework group  CS[SG(C2HNaO),X(C2H8)]
 Deg. of freedom    22
 Full point group                 CS      NOp   2
 Largest Abelian subgroup         CS      NOp   2
 Largest concise Abelian subgroup CS      NOp   2
                         Standard orientation:                         
 ---------------------------------------------------------------------
 Center     Atomic      Atomic             Coordinates (Angstroms)
 Number     Number       Type             X           Y           Z
 ---------------------------------------------------------------------
      1          6           0       -0.625668    0.000127    0.000000
      2          6           0       -1.154105   -0.727910    1.259881
      3          1           0       -2.252522   -0.756884    1.304211
      4          1           0       -0.778078   -1.759120    1.271683
      5          1           0       -0.782647   -0.220655    2.159662
      6          6           0       -1.154105   -0.727910   -1.259881
      7          1           0       -2.252522   -0.756884   -1.304211
      8          1           0       -0.782647   -0.220655   -2.159662
      9          1           0       -0.778078   -1.759120   -1.271683
     10          6           0       -1.154105    1.455063    0.000000
     11          1           0       -0.779884    1.980777    0.887995
     12          1           0       -0.779884    1.980777   -0.887995
     13          1           0       -2.252546    1.508523    0.000000
     14          8           0        0.756652    0.000698    0.000000
     15         11           0        2.719408    0.000130    0.000000
 ---------------------------------------------------------------------
 Rotational constants (GHZ):           4.5289251           1.6593555           1.6591323
 General basis read from cards:  (5D, 7F)
 ======================================================================================================
                                       Pseudopotential Parameters
 ======================================================================================================
  Center     Atomic      Valence      Angular      Power
  Number     Number     Electrons     Momentum     of R      Exponent        Coefficient   SO-Coeffient
 ======================================================================================================
    1          6
                                   No pseudopotential on this center.
    2          6
                                   No pseudopotential on this center.
    3          1
                                   No pseudopotential on this center.
    4          1
                                   No pseudopotential on this center.
    5          1
                                   No pseudopotential on this center.
    6          6
                                   No pseudopotential on this center.
    7          1
                                   No pseudopotential on this center.
    8          1
                                   No pseudopotential on this center.
    9          1
                                   No pseudopotential on this center.
   10          6
                                   No pseudopotential on this center.
   11          1
                                   No pseudopotential on this center.
   12          1
                                   No pseudopotential on this center.
   13          1
                                   No pseudopotential on this center.
   14          8
                                   No pseudopotential on this center.
   15         11
                                   No pseudopotential on this center.
 ======================================================================================================
 There are    81 symmetry adapted cartesian basis functions of A'  symmetry.
 There are    45 symmetry adapted cartesian basis functions of A"  symmetry.
 There are    77 symmetry adapted basis functions of A'  symmetry.
 There are    44 symmetry adapted basis functions of A"  symmetry.
   121 basis functions,   242 primitive gaussians,   126 cartesian basis functions
    26 alpha electrons       26 beta electrons
       nuclear repulsion energy       259.5909307641 Hartrees.
 NAtoms=   15 NActive=   15 NUniq=   10 SFac= 2.25D+00 NAtFMM=   60 NAOKFM=F Big=F
 Integral buffers will be    131072 words long.
 Raffenetti 2 integral format.
 Two-electron integral symmetry is turned on.
 Nuclear repulsion after empirical dispersion term =      259.5791708548 Hartrees.
 One-electron integrals computed using PRISM.
   2 Symmetry operations used in ECPInt.
 ECPInt:  NShTT=    1128 NPrTT=    6478 LenC2=    1122 LenP2D=    4876.
 LDataN:  DoStor=T MaxTD1= 4 Len=   56
 NBasis=   121 RedAO= T EigKep=  5.06D-05  NBF=    77    44
 NBsUse=   121 1.00D-06 EigRej= -1.00D+00 NBFU=    77    44
 ExpMin= 2.60D-02 ExpMax= 9.99D+03 ExpMxC= 1.50D+03 IAcc=3 IRadAn=         5 AccDes= 0.00D+00
 Harris functional with IExCor=  402 and IRadAn=       5 diagonalized for initial guess.
 HarFok:  IExCor=  402 AccDes= 0.00D+00 IRadAn=         5 IDoV= 1 UseB2=F ITyADJ=14
 ICtDFT=  3500011 ScaDFX=  1.000000  1.000000  1.000000  1.000000
 FoFCou: FMM=F IPFlag=           0 FMFlag=      100000 FMFlg1=           0
         NFxFlg=           0 DoJE=T BraDBF=F KetDBF=T FulRan=T
         wScrn=  0.000000 ICntrl=       500 IOpCl=  0 I1Cent=   200000004 NGrid=           0
         NMat0=    1 NMatS0=      1 NMatT0=    0 NMatD0=    1 NMtDS0=    0 NMtDT0=    0
 Petite list used in FoFCou.
 Initial guess orbital symmetries:
       Occupied  (A') (A') (A') (A") (A') (A') (A') (A') (A') (A")
                 (A') (A') (A') (A") (A') (A') (A') (A") (A') (A")
                 (A') (A") (A') (A") (A') (A")
       Virtual   (A') (A') (A') (A") (A') (A') (A") (A') (A") (A')
                 (A') (A') (A") (A") (A') (A") (A') (A') (A") (A')
                 (A') (A") (A') (A") (A') (A') (A') (A") (A') (A")
                 (A") (A') (A') (A') (A") (A') (A') (A") (A') (A')
                 (A') (A") (A') (A') (A") (A') (A') (A") (A") (A')
                 (A') (A") (A') (A") (A') (A") (A") (A') (A') (A')
                 (A") (A') (A") (A') (A') (A') (A") (A') (A") (A')
                 (A") (A') (A") (A') (A") (A') (A') (A") (A') (A')
                 (A') (A") (A') (A') (A") (A') (A") (A') (A") (A')
                 (A") (A') (A') (A") (A')
 The electronic state of the initial guess is 1-A'.
 Requested convergence on RMS density matrix=1.00D-08 within1000 cycles.
 Requested convergence on MAX density matrix=1.00D-06.
 Requested convergence on             energy=1.00D-06.
 No special actions if energy rises.
 EnCoef did     2 forward-backward iterations
 EnCoef did     3 forward-backward iterations
 SCF Done:  E(RB3LYP) =  -395.400341241     A.U. after   15 cycles
            NFock= 15  Conv=0.64D-08     -V/T= 2.0064

 **********************************************************************

            Population analysis using the SCF Density.

 **********************************************************************

 Orbital symmetries:
       Occupied  (A') (A') (A') (A") (A') (A') (A') (A') (A") (A')
                 (A') (A') (A') (A") (A') (A') (A') (A") (A') (A")
                 (A") (A') (A') (A") (A') (A")
       Virtual   (A') (A') (A") (A') (A') (A') (A') (A") (A') (A")
                 (A') (A') (A") (A') (A') (A") (A") (A") (A') (A')
                 (A') (A") (A') (A') (A") (A') (A') (A") (A') (A")
                 (A") (A') (A') (A') (A") (A') (A') (A") (A') (A')
                 (A') (A") (A') (A') (A") (A') (A') (A") (A') (A")
                 (A') (A") (A') (A') (A") (A") (A") (A') (A') (A')
                 (A") (A') (A') (A") (A') (A') (A") (A') (A") (A')
                 (A') (A") (A") (A') (A") (A') (A') (A") (A') (A')
                 (A') (A") (A') (A') (A') (A") (A") (A") (A') (A')
                 (A") (A') (A') (A") (A')
 The electronic state is 1-A'.
 Alpha  occ. eigenvalues --  -38.50713 -19.02095 -10.17926 -10.12147 -10.12147
 Alpha  occ. eigenvalues --  -10.12143  -2.24056  -1.17306  -1.17306  -1.17092
 Alpha  occ. eigenvalues --   -0.88585  -0.71096  -0.63986  -0.63980  -0.48133
 Alpha  occ. eigenvalues --   -0.39713  -0.39512  -0.39508  -0.34983  -0.34970
 Alpha  occ. eigenvalues --   -0.32217  -0.30619  -0.29315  -0.29312  -0.17416
 Alpha  occ. eigenvalues --   -0.17416
 Alpha virt. eigenvalues --   -0.06728   0.00417   0.00418   0.01763   0.04815
 Alpha virt. eigenvalues --    0.05887   0.05900   0.05900   0.08814   0.08876
 Alpha virt. eigenvalues --    0.08877   0.10959   0.10963   0.11196   0.12821
 Alpha virt. eigenvalues --    0.12822   0.13073   0.14157   0.14163   0.15377
 Alpha virt. eigenvalues --    0.18257   0.18262   0.20478   0.24504   0.24519
 Alpha virt. eigenvalues --    0.25440   0.28914   0.29579   0.29587   0.31289
 Alpha virt. eigenvalues --    0.31577   0.31588   0.31918   0.36971   0.36971
 Alpha virt. eigenvalues --    0.38211   0.38796   0.38807   0.47382   0.49643
 Alpha virt. eigenvalues --    0.66138   0.66140   0.70309   0.73612   0.74112
 Alpha virt. eigenvalues --    0.74114   0.81915   0.81934   0.85437   0.86220
 Alpha virt. eigenvalues --    0.86255   0.89832   0.97691   1.01409   1.01428
 Alpha virt. eigenvalues --    1.04113   1.07099   1.07103   1.09549   1.18336
 Alpha virt. eigenvalues --    1.18727   1.18733   1.26991   1.32801   1.32815
 Alpha virt. eigenvalues --    1.48131   1.48171   1.51802   1.51819   1.56329
 Alpha virt. eigenvalues --    1.75022   1.77900   1.81521   1.81536   1.90993
 Alpha virt. eigenvalues --    1.91004   1.98142   2.02005   2.02019   2.06337
 Alpha virt. eigenvalues --    2.19471   2.19551   2.24970   2.30222   2.30485
 Alpha virt. eigenvalues --    2.30485   2.32951   2.33808   2.33840   2.50291
 Alpha virt. eigenvalues --    2.66998   2.67026   2.82302   2.82323   3.03490
          Condensed to atoms (all electrons):
               1          2          3          4          5          6
     1  C    6.136301   0.043252  -0.061764  -0.043038  -0.043440   0.043252
     2  C    0.043252   5.827905   0.372894   0.397408   0.397411  -0.172084
     3  H   -0.061764   0.372894   0.550934  -0.032300  -0.032275   0.002358
     4  H   -0.043038   0.397408  -0.032300   0.525782  -0.029150  -0.021125
     5  H   -0.043440   0.397411  -0.032275  -0.029150   0.525892   0.019192
     6  C    0.043252  -0.172084   0.002358  -0.021125   0.019192   5.827905
     7  H   -0.061764   0.002358  -0.000130   0.000326   0.000018   0.372894
     8  H   -0.043440   0.019192   0.000018  -0.000005  -0.000142   0.397411
     9  H   -0.043038  -0.021125   0.000326   0.002366  -0.000005   0.397408
    10  C    0.042685  -0.171920   0.002351   0.019124  -0.020955  -0.171920
    11  H   -0.043268  -0.021088   0.000326  -0.000005   0.002379   0.019150
    12  H   -0.043268   0.019150   0.000016  -0.000143  -0.000004  -0.021088
    13  H   -0.061717   0.002400  -0.000129   0.000017   0.000324   0.002400
    14  O    0.283577  -0.140007   0.015016  -0.008341  -0.008203  -0.140007
    15  Na  -0.027533  -0.001696   0.001361  -0.001138  -0.001136  -0.001696
               7          8          9         10         11         12
     1  C   -0.061764  -0.043440  -0.043038   0.042685  -0.043268  -0.043268
     2  C    0.002358   0.019192  -0.021125  -0.171920  -0.021088   0.019150
     3  H   -0.000130   0.000018   0.000326   0.002351   0.000326   0.000016
     4  H    0.000326  -0.000005   0.002366   0.019124  -0.000005  -0.000143
     5  H    0.000018  -0.000142  -0.000005  -0.020955   0.002379  -0.000004
     6  C    0.372894   0.397411   0.397408  -0.171920   0.019150  -0.021088
     7  H    0.550934  -0.032275  -0.032300   0.002351   0.000016   0.000326
     8  H   -0.032275   0.525892  -0.029150  -0.020955  -0.000004   0.002379
     9  H   -0.032300  -0.029150   0.525782   0.019124  -0.000143  -0.000005
    10  C    0.002351  -0.020955   0.019124   5.828592   0.397512   0.397512
    11  H    0.000016  -0.000004  -0.000143   0.397512   0.525839  -0.029184
    12  H    0.000326   0.002379  -0.000005   0.397512  -0.029184   0.525839
    13  H   -0.000129   0.000324   0.000017   0.372764  -0.032278  -0.032278
    14  O    0.015016  -0.008203  -0.008341  -0.140226  -0.008301  -0.008301
    15  Na   0.001361  -0.001136  -0.001138  -0.001664  -0.001139  -0.001139
              13         14         15
     1  C   -0.061717   0.283577  -0.027533
     2  C    0.002400  -0.140007  -0.001696
     3  H   -0.000129   0.015016   0.001361
     4  H    0.000017  -0.008341  -0.001138
     5  H    0.000324  -0.008203  -0.001136
     6  C    0.002400  -0.140007  -0.001696
     7  H   -0.000129   0.015016   0.001361
     8  H    0.000324  -0.008203  -0.001136
     9  H    0.000017  -0.008341  -0.001138
    10  C    0.372764  -0.140226  -0.001664
    11  H   -0.032278  -0.008301  -0.001139
    12  H   -0.032278  -0.008301  -0.001139
    13  H    0.550962   0.015027   0.001358
    14  O    0.015027   9.018616   0.028813
    15  Na   0.001358   0.028813  10.045045
 Mulliken charges:
               1
     1  C   -0.076795
     2  C   -0.554049
     3  H    0.180997
     4  H    0.190220
     5  H    0.190093
     6  C   -0.554049
     7  H    0.180997
     8  H    0.190093
     9  H    0.190220
    10  C   -0.554374
    11  H    0.190186
    12  H    0.190186
    13  H    0.180935
    14  O   -0.906137
    15  Na   0.961476
 Sum of Mulliken charges =   0.00000
 Mulliken charges with hydrogens summed into heavy atoms:
               1
     1  C   -0.076795
     2  C    0.007262
     6  C    0.007262
    10  C    0.006932
    14  O   -0.906137
    15  Na   0.961476
 Electronic spatial extent (au):  <R**2>=            800.7515
 Charge=              0.0000 electrons
 Dipole moment (field-independent basis, Debye):
    X=              8.1119    Y=             -0.0015    Z=              0.0000  Tot=              8.1119
 Quadrupole moment (field-independent basis, Debye-Ang):
   XX=            -11.8000   YY=            -41.8975   ZZ=            -41.8989
   XY=             -0.0005   XZ=              0.0000   YZ=              0.0000
 Traceless Quadrupole moment (field-independent basis, Debye-Ang):
   XX=             20.0655   YY=            -10.0321   ZZ=            -10.0334
   XY=             -0.0005   XZ=              0.0000   YZ=              0.0000
 Octapole moment (field-independent basis, Debye-Ang**2):
  XXX=            140.3009  YYY=             -2.9811  ZZZ=              0.0000  XYY=             19.0910
  XXY=              0.0008  XXZ=              0.0000  XZZ=             19.0872  YZZ=              2.9958
  YYZ=              0.0000  XYZ=              0.0000
 Hexadecapole moment (field-independent basis, Debye-Ang**3):
 XXXX=           -203.2904 YYYY=           -253.4172 ZZZZ=           -253.2561 XXXY=             -0.0022
 XXXZ=              0.0000 YYYX=              2.8829 YYYZ=              0.0000 ZZZX=              0.0000
 ZZZY=              0.0000 XXYY=           -125.4096 XXZZ=           -125.3993 YYZZ=            -84.4488
 XXYZ=              0.0000 YYXZ=              0.0000 ZZXY=             -2.9526
 N-N= 2.595791708548D+02 E-N=-1.453613542385D+03  KE= 3.928799889509D+02
 Symmetry A'   KE= 3.337757137230D+02
 Symmetry A"   KE= 5.910427522788D+01
 Evaluate density.
 Using the total density.
 Monte-Carlo method of calculating molar volume:
 based on  0.001 e/bohr**3 density envelope.
 Number of points per bohr**3 =   20 CutOff= 1.00D-04
 Using the SCF density.
 There are       543 points.  Will hold       543 in memory.
 LenV=  8321413164 MDV=  8321499136.
 Box volume =20082.443 fraction occupied=0.076
 Integrated density= 4.9795205155305752D+01 error=-2.2047948446942485D+00
 Molar volume = 1516.354 bohr**3/mol (135.318 cm**3/mol)
 Recommended a0 for SCRF calculation =  4.65 angstrom (  8.79 bohr)
   2 Symmetry operations used in ECPInt.
 ECPInt:  NShTT=    1128 NPrTT=    6478 LenC2=    1122 LenP2D=    4876.
 LDataN:  DoStor=T MaxTD1= 5 Len=  102
 Calling FoFJK, ICntrl=      2127 FMM=F ISym2X=1 I1Cent= 0 IOpClX= 0 NMat=1 NMatS=1 NMatT=0.
 ***** Axes restored to original set *****
 -------------------------------------------------------------------
 Center     Atomic                   Forces (Hartrees/Bohr)
 Number     Number              X              Y              Z
 -------------------------------------------------------------------
      1        6           0.000124281   -0.000047704    0.000000000
      2        6          -0.000024873    0.000019893   -0.000038605
      3        1          -0.000023437    0.000032484    0.000004747
      4        1          -0.000001817   -0.000000995    0.000008357
      5        1           0.000019489    0.000000904    0.000007526
      6        6          -0.000024873    0.000019893    0.000038605
      7        1          -0.000023437    0.000032484   -0.000004747
      8        1           0.000019489    0.000000904   -0.000007526
      9        1          -0.000001817   -0.000000995   -0.000008357
     10        6          -0.000050744    0.000041473    0.000000000
     11        1          -0.000032428   -0.000017599    0.000019120
     12        1          -0.000032428   -0.000017599   -0.000019120
     13        1           0.000007288   -0.000035660    0.000000000
     14        8           0.000170215   -0.000028907    0.000000000
     15       11          -0.000124907    0.000001425    0.000000000
 -------------------------------------------------------------------
 Cartesian Forces:  Max     0.000170215 RMS     0.000042556

 GradGradGradGradGradGradGradGradGradGradGradGradGradGradGradGradGradGrad
 Berny optimization.
 FormGI is forming the generalized inverse of G from B-inverse, IUseBI=4.
 Internal  Forces:  Max     0.000124907 RMS     0.000033132
 Search for a local minimum.
 Step number   1 out of a maximum of   77
 All quantities printed in internal units (Hartrees-Bohrs-Radians)
 Mixed Optimization -- En-DIIS/RFO-DIIS
 Second derivative matrix not updated -- first step.
 ITU=  0
     Eigenvalues ---    0.00230   0.00230   0.00230   0.03907   0.03907
     Eigenvalues ---    0.04914   0.05307   0.05311   0.05311   0.05697
     Eigenvalues ---    0.05697   0.05700   0.06432   0.06435   0.16000
     Eigenvalues ---    0.16000   0.16000   0.16000   0.16000   0.16000
     Eigenvalues ---    0.16000   0.16000   0.16000   0.16575   0.17383
     Eigenvalues ---    0.17396   0.27814   0.27814   0.27828   0.33711
     Eigenvalues ---    0.33716   0.33716   0.33937   0.33937   0.33939
     Eigenvalues ---    0.33939   0.33940   0.33940   0.48681
 RFO step:  Lambda=-1.39008354D-06 EMin= 2.30000000D-03
 Linear search not attempted -- first point.
 Iteration  1 RMS(Cart)=  0.00237662 RMS(Int)=  0.00000392
 Iteration  2 RMS(Cart)=  0.00000406 RMS(Int)=  0.00000011
 Iteration  3 RMS(Cart)=  0.00000000 RMS(Int)=  0.00000011
 ClnCor:  largest displacement from symmetrization is 4.60D-05 for atom    15.
 Variable       Old X    -DE/DX   Delta X   Delta X   Delta X     New X
                                 (Linear)    (Quad)   (Total)
    R1        2.92547  -0.00003   0.00000  -0.00010  -0.00010   2.92537
    R2        2.92547  -0.00003   0.00000  -0.00010  -0.00010   2.92537
    R3        2.92516   0.00001   0.00000   0.00003   0.00003   2.92520
    R4        2.61221   0.00005   0.00000   0.00009   0.00009   2.61230
    R5        2.07812   0.00002   0.00000   0.00007   0.00007   2.07819
    R6        2.07434   0.00000   0.00000   0.00000   0.00000   2.07434
    R7        2.07431   0.00001   0.00000   0.00004   0.00004   2.07435
    R8        2.07812   0.00002   0.00000   0.00007   0.00007   2.07819
    R9        2.07431   0.00001   0.00000   0.00004   0.00004   2.07435
   R10        2.07434   0.00000   0.00000   0.00000   0.00000   2.07434
   R11        2.07436   0.00000   0.00000  -0.00001  -0.00001   2.07435
   R12        2.07436   0.00000   0.00000  -0.00001  -0.00001   2.07435
   R13        2.07821  -0.00001   0.00000  -0.00003  -0.00003   2.07818
   R14        3.70907  -0.00012   0.00000  -0.00075  -0.00075   3.70832
    A1        1.90142   0.00007   0.00000   0.00004   0.00004   1.90146
    A2        1.90233  -0.00007   0.00000  -0.00072  -0.00073   1.90161
    A3        1.91935  -0.00001   0.00000   0.00030   0.00030   1.91966
    A4        1.90233  -0.00007   0.00000  -0.00072  -0.00073   1.90161
    A5        1.91935  -0.00001   0.00000   0.00030   0.00030   1.91966
    A6        1.91877   0.00008   0.00000   0.00078   0.00078   1.91955
    A7        1.96725  -0.00002   0.00000  -0.00010  -0.00010   1.96714
    A8        1.91093   0.00002   0.00000   0.00018   0.00017   1.91111
    A9        1.91163  -0.00001   0.00000  -0.00013  -0.00013   1.91149
   A10        1.89334   0.00001   0.00000   0.00018   0.00018   1.89352
   A11        1.89351   0.00001   0.00000  -0.00005  -0.00005   1.89346
   A12        1.88535  -0.00001   0.00000  -0.00007  -0.00007   1.88528
   A13        1.96725  -0.00002   0.00000  -0.00010  -0.00010   1.96714
   A14        1.91163  -0.00001   0.00000  -0.00013  -0.00013   1.91149
   A15        1.91093   0.00002   0.00000   0.00018   0.00017   1.91111
   A16        1.89351   0.00001   0.00000  -0.00005  -0.00005   1.89346
   A17        1.89334   0.00001   0.00000   0.00018   0.00018   1.89352
   A18        1.88535  -0.00001   0.00000  -0.00007  -0.00007   1.88528
   A19        1.91109   0.00001   0.00000   0.00014   0.00014   1.91123
   A20        1.91109   0.00001   0.00000   0.00014   0.00014   1.91123
   A21        1.96782  -0.00006   0.00000  -0.00055  -0.00055   1.96726
   A22        1.88475   0.00003   0.00000   0.00050   0.00051   1.88526
   A23        1.89360   0.00001   0.00000  -0.00009  -0.00009   1.89351
   A24        1.89360   0.00001   0.00000  -0.00009  -0.00009   1.89351
   A25        3.14102   0.00000   0.00000   0.00010   0.00009   3.14111
   A26        3.14109   0.00000   0.00000   0.00006   0.00008   3.14117
    D1       -1.03437   0.00002   0.00000  -0.00359  -0.00358  -1.03796
    D2        1.07471   0.00003   0.00000  -0.00330  -0.00330   1.07141
    D3        3.13903   0.00003   0.00000  -0.00336  -0.00336   3.13568
    D4        1.03949  -0.00006   0.00000  -0.00486  -0.00486   1.03463
    D5       -3.13462  -0.00005   0.00000  -0.00457  -0.00457  -3.13920
    D6       -1.07030  -0.00005   0.00000  -0.00463  -0.00463  -1.07492
    D7       -3.13911  -0.00001   0.00000  -0.00417  -0.00417   3.13991
    D8       -1.03003   0.00000   0.00000  -0.00389  -0.00389  -1.03392
    D9        1.03430   0.00000   0.00000  -0.00394  -0.00394   1.03035
   D10        1.03437  -0.00002   0.00000   0.00359   0.00358   1.03796
   D11       -3.13903  -0.00003   0.00000   0.00336   0.00336  -3.13568
   D12       -1.07471  -0.00003   0.00000   0.00330   0.00330  -1.07141
   D13       -1.03949   0.00006   0.00000   0.00486   0.00486  -1.03463
   D14        1.07030   0.00005   0.00000   0.00463   0.00463   1.07492
   D15        3.13462   0.00005   0.00000   0.00457   0.00457   3.13920
   D16        3.13911   0.00001   0.00000   0.00417   0.00417  -3.13991
   D17       -1.03430   0.00000   0.00000   0.00394   0.00394  -1.03035
   D18        1.03003   0.00000   0.00000   0.00389   0.00389   1.03392
   D19        1.07326  -0.00002   0.00000   0.00001   0.00001   1.07326
   D20        3.13664   0.00002   0.00000   0.00078   0.00079   3.13743
   D21       -1.03664   0.00000   0.00000   0.00040   0.00040  -1.03625
   D22       -3.13664  -0.00002   0.00000  -0.00078  -0.00079  -3.13743
   D23       -1.07326   0.00002   0.00000  -0.00001  -0.00001  -1.07326
   D24        1.03664   0.00000   0.00000  -0.00040  -0.00040   1.03625
   D25       -1.03169  -0.00002   0.00000  -0.00039  -0.00039  -1.03208
   D26        1.03169   0.00002   0.00000   0.00039   0.00039   1.03208
   D27        3.14159   0.00000   0.00000   0.00000   0.00000   3.14159
         Item               Value     Threshold  Converged?
 Maximum Force            0.000125     0.000450     YES
 RMS     Force            0.000033     0.000300     YES
 Maximum Displacement     0.007094     0.001800     NO 
 RMS     Displacement     0.002376     0.001200     NO 
 Predicted change in Energy=-6.949028D-07
 GradGradGradGradGradGradGradGradGradGradGradGradGradGradGradGradGradGrad

                          Input orientation:                          
 ---------------------------------------------------------------------
 Center     Atomic      Atomic             Coordinates (Angstroms)
 Number     Number       Type             X           Y           Z
 ---------------------------------------------------------------------
      1          6           0       -0.624963    0.000065    0.000000
      2          6           0       -1.153620   -0.727743    1.259857
      3          1           0       -2.252090   -0.753130    1.305921
      4          1           0       -0.780796   -1.760133    1.270093
      5          1           0       -0.779096   -0.222546    2.159549
      6          6           0       -1.153620   -0.727743   -1.259857
      7          1           0       -2.252090   -0.753130   -1.305921
      8          1           0       -0.779096   -0.222546   -2.159549
      9          1           0       -0.780796   -1.760133   -1.270093
     10          6           0       -1.154948    1.454457    0.000000
     11          1           0       -0.781684    1.980571    0.888155
     12          1           0       -0.781684    1.980571   -0.888155
     13          1           0       -2.253459    1.506145    0.000000
     14          8           0        0.757406    0.001027    0.000000
     15         11           0        2.719763    0.001226    0.000000
 ---------------------------------------------------------------------
                    Distance matrix (angstroms):
                    1          2          3          4          5
     1  C    0.000000
     2  C    1.548038   0.000000
     3  H    2.218169   1.099729   0.000000
     4  H    2.176171   1.097693   1.783268   0.000000
     5  H    2.176457   1.097697   1.783231   1.776319   0.000000
     6  C    1.548038   2.519713   2.791146   2.757802   3.476756
     7  H    2.218169   2.791146   2.611841   3.132827   3.802724
     8  H    2.176457   3.476756   3.802724   3.758540   4.319098
     9  H    2.176171   2.757802   3.132827   2.540186   3.758540
    10  C    1.547947   2.519770   2.789729   3.476595   2.759938
    11  H    2.176186   2.758889   3.132051   3.760153   2.543654
    12  H    2.176186   3.476673   3.801208   4.318669   3.760616
    13  H    2.218170   2.790545   2.609551   3.801374   3.134609
    14  O    1.382369   2.402159   3.366192   2.660994   2.659789
    15  Na   3.344727   4.137842   5.195557   4.119398   4.117735
                    6          7          8          9         10
     6  C    0.000000
     7  H    1.099729   0.000000
     8  H    1.097697   1.783231   0.000000
     9  H    1.097693   1.783268   1.776319   0.000000
    10  C    2.519770   2.789729   2.759938   3.476595   0.000000
    11  H    3.476673   3.801208   3.760616   4.318669   1.097698
    12  H    2.758889   3.132051   2.543654   3.760153   1.097698
    13  H    2.790545   2.609551   3.134609   3.801374   1.099727
    14  O    2.402159   3.366192   2.659789   2.660994   2.401990
    15  Na   4.137842   5.195557   4.117735   4.119398   4.138268
                   11         12         13         14         15
    11  H    0.000000
    12  H    1.776309   0.000000
    13  H    1.783261   1.783261   0.000000
    14  O    2.660115   2.660115   3.366109   0.000000
    15  Na   4.119073   4.119073   5.195933   1.962357   0.000000
 Stoichiometry    C4H9NaO
 Framework group  CS[SG(C2HNaO),X(C2H8)]
 Deg. of freedom    22
 Full point group                 CS      NOp   2
 Largest Abelian subgroup         CS      NOp   2
 Largest concise Abelian subgroup CS      NOp   2
                         Standard orientation:                         
 ---------------------------------------------------------------------
 Center     Atomic      Atomic             Coordinates (Angstroms)
 Number     Number       Type             X           Y           Z
 ---------------------------------------------------------------------
      1          6           0       -0.625212    0.000223    0.000000
      2          6           0       -1.154312   -0.727264    1.259857
      3          1           0       -2.252797   -0.751982    1.305921
      4          1           0       -0.782116   -1.759880    1.270093
      5          1           0       -0.779480   -0.222294    2.159549
      6          6           0       -1.154312   -0.727264   -1.259857
      7          1           0       -2.252797   -0.751982   -1.305921
      8          1           0       -0.779480   -0.222294   -2.159549
      9          1           0       -0.782116   -1.759880   -1.270093
     10          6           0       -1.154312    1.454937    0.000000
     11          1           0       -0.780728    1.980824    0.888155
     12          1           0       -0.780728    1.980824   -0.888155
     13          1           0       -2.252792    1.507293    0.000000
     14          8           0        0.757157    0.000344    0.000000
     15         11           0        2.719514   -0.000651    0.000000
 ---------------------------------------------------------------------
 Rotational constants (GHZ):           4.5305255           1.6591235           1.6591039
 Basis read from rwf:  (5D, 7F)
 Pseudo-potential data read from rwf file.
 There are    81 symmetry adapted cartesian basis functions of A'  symmetry.
 There are    45 symmetry adapted cartesian basis functions of A"  symmetry.
 There are    77 symmetry adapted basis functions of A'  symmetry.
 There are    44 symmetry adapted basis functions of A"  symmetry.
   121 basis functions,   242 primitive gaussians,   126 cartesian basis functions
    26 alpha electrons       26 beta electrons
       nuclear repulsion energy       259.5958423478 Hartrees.
 NAtoms=   15 NActive=   15 NUniq=   10 SFac= 2.25D+00 NAtFMM=   60 NAOKFM=F Big=F
 Integral buffers will be    131072 words long.
 Raffenetti 2 integral format.
 Two-electron integral symmetry is turned on.
 Nuclear repulsion after empirical dispersion term =      259.5840826105 Hartrees.
 One-electron integrals computed using PRISM.
   2 Symmetry operations used in ECPInt.
 ECPInt:  NShTT=    1128 NPrTT=    6478 LenC2=    1122 LenP2D=    4876.
 LDataN:  DoStor=T MaxTD1= 4 Len=   56
 NBasis=   121 RedAO= T EigKep=  5.05D-05  NBF=    77    44
 NBsUse=   121 1.00D-06 EigRej= -1.00D+00 NBFU=    77    44
 Initial guess from the checkpoint file:  "NaOtBu-vol.chk"
 B after Tr=     0.000000    0.000000    0.000000
         Rot=    1.000000    0.000000    0.000000    0.000176 Ang=   0.02 deg.
 Initial guess orbital symmetries:
       Occupied  (A') (A') (A') (A") (A') (A') (A') (A') (A") (A')
                 (A') (A') (A') (A") (A') (A') (A') (A") (A') (A")
                 (A") (A') (A') (A") (A') (A")
       Virtual   (A') (A') (A") (A') (A') (A') (A') (A") (A') (A")
                 (A') (A') (A") (A') (A') (A") (A") (A") (A') (A')
                 (A') (A") (A') (A') (A") (A') (A') (A") (A') (A")
                 (A") (A') (A') (A') (A") (A') (A') (A") (A') (A')
                 (A') (A") (A') (A') (A") (A') (A') (A") (A') (A")
                 (A') (A") (A') (A') (A") (A") (A") (A') (A') (A')
                 (A") (A') (A') (A") (A') (A') (A") (A') (A") (A')
                 (A') (A") (A") (A') (A") (A') (A') (A") (A') (A')
                 (A') (A") (A') (A') (A') (A") (A") (A") (A') (A')
                 (A") (A') (A') (A") (A')
 Requested convergence on RMS density matrix=1.00D-08 within1000 cycles.
 Requested convergence on MAX density matrix=1.00D-06.
 Requested convergence on             energy=1.00D-06.
 No special actions if energy rises.
 SCF Done:  E(RB3LYP) =  -395.400341716     A.U. after    8 cycles
            NFock=  8  Conv=0.28D-08     -V/T= 2.0064
   2 Symmetry operations used in ECPInt.
 ECPInt:  NShTT=    1128 NPrTT=    6478 LenC2=    1122 LenP2D=    4876.
 LDataN:  DoStor=T MaxTD1= 5 Len=  102
 Calling FoFJK, ICntrl=      2127 FMM=F ISym2X=1 I1Cent= 0 IOpClX= 0 NMat=1 NMatS=1 NMatT=0.
 ***** Axes restored to original set *****
 -------------------------------------------------------------------
 Center     Atomic                   Forces (Hartrees/Bohr)
 Number     Number              X              Y              Z
 -------------------------------------------------------------------
      1        6           0.000040649    0.000012033    0.000000000
      2        6           0.000007929   -0.000017540   -0.000005158
      3        1           0.000007303   -0.000009793   -0.000011248
      4        1          -0.000003644   -0.000011390    0.000032678
      5        1           0.000001437    0.000013494   -0.000010778
      6        6           0.000007929   -0.000017540    0.000005158
      7        1           0.000007303   -0.000009793    0.000011248
      8        1           0.000001437    0.000013494    0.000010778
      9        1          -0.000003644   -0.000011390   -0.000032678
     10        6           0.000012077    0.000056778    0.000000000
     11        1          -0.000006648    0.000011555   -0.000001094
     12        1          -0.000006648    0.000011555    0.000001094
     13        1           0.000011874   -0.000013326    0.000000000
     14        8          -0.000037687   -0.000028776    0.000000000
     15       11          -0.000039667    0.000000637    0.000000000
 -------------------------------------------------------------------
 Cartesian Forces:  Max     0.000056778 RMS     0.000017659

 GradGradGradGradGradGradGradGradGradGradGradGradGradGradGradGradGradGrad
 Berny optimization.
 Using GEDIIS/GDIIS optimizer.
 FormGI is forming the generalized inverse of G from B-inverse, IUseBI=4.
 Internal  Forces:  Max     0.000077373 RMS     0.000018986
 Search for a local minimum.
 Step number   2 out of a maximum of   77
 All quantities printed in internal units (Hartrees-Bohrs-Radians)
 Mixed Optimization -- En-DIIS/RFO-DIIS
 Swapping is turned off.
 Update second derivatives using D2CorX and points    1    2
 DE= -4.76D-07 DEPred=-6.95D-07 R= 6.84D-01
 Trust test= 6.84D-01 RLast= 1.74D-02 DXMaxT set to 3.00D-01
 ITU=  0  0
     Eigenvalues ---    0.00230   0.00230   0.00353   0.03904   0.03907
     Eigenvalues ---    0.04554   0.05311   0.05311   0.05330   0.05589
     Eigenvalues ---    0.05697   0.05702   0.06429   0.06437   0.14607
     Eigenvalues ---    0.16000   0.16000   0.16000   0.16000   0.16000
     Eigenvalues ---    0.16000   0.16000   0.16091   0.16589   0.17322
     Eigenvalues ---    0.17380   0.27753   0.27814   0.28126   0.33692
     Eigenvalues ---    0.33716   0.33755   0.33930   0.33937   0.33938
     Eigenvalues ---    0.33939   0.33940   0.33972   0.49396
 En-DIIS/RFO-DIIS/Sim-DIIS IScMMF=       -3 using points:     2    1
 RFO step:  Lambda=-2.98992063D-07.
 DidBck=T Rises=F RFO-DIIS coefs:    0.60903    0.39097
 Iteration  1 RMS(Cart)=  0.00092922 RMS(Int)=  0.00000066
 Iteration  2 RMS(Cart)=  0.00000067 RMS(Int)=  0.00000004
 ClnCor:  largest displacement from symmetrization is 2.44D-05 for atom    15.
 Variable       Old X    -DE/DX   Delta X   Delta X   Delta X     New X
                                 (Linear)    (Quad)   (Total)
    R1        2.92537   0.00001   0.00004  -0.00002   0.00002   2.92539
    R2        2.92537   0.00001   0.00004  -0.00002   0.00002   2.92539
    R3        2.92520   0.00006  -0.00001   0.00018   0.00017   2.92536
    R4        2.61230  -0.00008  -0.00004  -0.00007  -0.00011   2.61219
    R5        2.07819  -0.00001  -0.00003   0.00002  -0.00001   2.07818
    R6        2.07434   0.00001   0.00000   0.00002   0.00002   2.07436
    R7        2.07435   0.00000  -0.00002   0.00002   0.00000   2.07435
    R8        2.07819  -0.00001  -0.00003   0.00002  -0.00001   2.07818
    R9        2.07435   0.00000  -0.00002   0.00002   0.00000   2.07435
   R10        2.07434   0.00001   0.00000   0.00002   0.00002   2.07436
   R11        2.07435   0.00000   0.00000   0.00000   0.00000   2.07435
   R12        2.07435   0.00000   0.00000   0.00000   0.00000   2.07435
   R13        2.07818  -0.00001   0.00001  -0.00004  -0.00003   2.07815
   R14        3.70832  -0.00004   0.00029  -0.00058  -0.00029   3.70803
    A1        1.90146   0.00001  -0.00002   0.00010   0.00009   1.90155
    A2        1.90161   0.00000   0.00028  -0.00035  -0.00007   1.90154
    A3        1.91966  -0.00001  -0.00012   0.00008  -0.00004   1.91962
    A4        1.90161   0.00000   0.00028  -0.00035  -0.00007   1.90154
    A5        1.91966  -0.00001  -0.00012   0.00008  -0.00004   1.91962
    A6        1.91955   0.00001  -0.00030   0.00043   0.00013   1.91968
    A7        1.96714  -0.00001   0.00004  -0.00011  -0.00007   1.96707
    A8        1.91111   0.00005  -0.00007   0.00037   0.00030   1.91141
    A9        1.91149  -0.00003   0.00005  -0.00024  -0.00018   1.91131
   A10        1.89352  -0.00002  -0.00007   0.00006  -0.00001   1.89351
   A11        1.89346   0.00001   0.00002  -0.00002   0.00000   1.89346
   A12        1.88528  -0.00001   0.00003  -0.00007  -0.00004   1.88524
   A13        1.96714  -0.00001   0.00004  -0.00011  -0.00007   1.96707
   A14        1.91149  -0.00003   0.00005  -0.00024  -0.00018   1.91131
   A15        1.91111   0.00005  -0.00007   0.00037   0.00030   1.91141
   A16        1.89346   0.00001   0.00002  -0.00002   0.00000   1.89346
   A17        1.89352  -0.00002  -0.00007   0.00006  -0.00001   1.89351
   A18        1.88528  -0.00001   0.00003  -0.00007  -0.00004   1.88524
   A19        1.91123   0.00002  -0.00005   0.00018   0.00013   1.91136
   A20        1.91123   0.00002  -0.00005   0.00018   0.00013   1.91136
   A21        1.96726  -0.00003   0.00022  -0.00045  -0.00023   1.96703
   A22        1.88526  -0.00001  -0.00020   0.00026   0.00006   1.88532
   A23        1.89351   0.00000   0.00004  -0.00007  -0.00004   1.89347
   A24        1.89351   0.00000   0.00004  -0.00007  -0.00004   1.89347
   A25        3.14111   0.00000  -0.00003   0.00008   0.00004   3.14115
   A26        3.14117   0.00000  -0.00003   0.00005   0.00003   3.14120
    D1       -1.03796   0.00000   0.00140   0.00016   0.00156  -1.03639
    D2        1.07141   0.00000   0.00129   0.00043   0.00172   1.07312
    D3        3.13568   0.00001   0.00131   0.00042   0.00174   3.13741
    D4        1.03463   0.00000   0.00190  -0.00041   0.00149   1.03612
    D5       -3.13920   0.00001   0.00179  -0.00015   0.00164  -3.13755
    D6       -1.07492   0.00001   0.00181  -0.00015   0.00166  -1.07326
    D7        3.13991   0.00000   0.00163  -0.00005   0.00158   3.14149
    D8       -1.03392   0.00001   0.00152   0.00022   0.00173  -1.03218
    D9        1.03035   0.00001   0.00154   0.00021   0.00175   1.03211
   D10        1.03796   0.00000  -0.00140  -0.00016  -0.00156   1.03639
   D11       -3.13568  -0.00001  -0.00131  -0.00042  -0.00174  -3.13741
   D12       -1.07141   0.00000  -0.00129  -0.00043  -0.00172  -1.07312
   D13       -1.03463   0.00000  -0.00190   0.00041  -0.00149  -1.03612
   D14        1.07492  -0.00001  -0.00181   0.00015  -0.00166   1.07326
   D15        3.13920  -0.00001  -0.00179   0.00015  -0.00164   3.13755
   D16       -3.13991   0.00000  -0.00163   0.00005  -0.00158  -3.14149
   D17       -1.03035  -0.00001  -0.00154  -0.00021  -0.00175  -1.03211
   D18        1.03392  -0.00001  -0.00152  -0.00022  -0.00173   1.03218
   D19        1.07326  -0.00001   0.00000  -0.00012  -0.00012   1.07314
   D20        3.13743   0.00000  -0.00031   0.00041   0.00010   3.13753
   D21       -1.03625  -0.00001  -0.00016   0.00014  -0.00001  -1.03626
   D22       -3.13743   0.00000   0.00031  -0.00041  -0.00010  -3.13753
   D23       -1.07326   0.00001   0.00000   0.00012   0.00012  -1.07314
   D24        1.03625   0.00001   0.00016  -0.00014   0.00001   1.03626
   D25       -1.03208   0.00000   0.00015  -0.00026  -0.00011  -1.03220
   D26        1.03208   0.00000  -0.00015   0.00026   0.00011   1.03220
   D27        3.14159   0.00000   0.00000   0.00000   0.00000   3.14159
         Item               Value     Threshold  Converged?
 Maximum Force            0.000077     0.000450     YES
 RMS     Force            0.000019     0.000300     YES
 Maximum Displacement     0.002406     0.001800     NO 
 RMS     Displacement     0.000930     0.001200     YES
 Predicted change in Energy=-1.494926D-07
 GradGradGradGradGradGradGradGradGradGradGradGradGradGradGradGradGradGrad

                          Input orientation:                          
 ---------------------------------------------------------------------
 Center     Atomic      Atomic             Coordinates (Angstroms)
 Number     Number       Type             X           Y           Z
 ---------------------------------------------------------------------
      1          6           0       -0.624881   -0.000042    0.000000
      2          6           0       -1.153687   -0.727684    1.259904
      3          1           0       -2.252163   -0.754136    1.305133
      4          1           0       -0.779837   -1.759702    1.271359
      5          1           0       -0.780369   -0.221350    2.159459
      6          6           0       -1.153687   -0.727684   -1.259904
      7          1           0       -2.252163   -0.754136   -1.305133
      8          1           0       -0.780369   -0.221350   -2.159459
      9          1           0       -0.779837   -1.759702   -1.271359
     10          6           0       -1.154683    1.454509    0.000000
     11          1           0       -0.781504    1.980653    0.888176
     12          1           0       -0.781504    1.980653   -0.888176
     13          1           0       -2.253182    1.506105    0.000000
     14          8           0        0.757431    0.000537    0.000000
     15         11           0        2.719636    0.000286    0.000000
 ---------------------------------------------------------------------
                    Distance matrix (angstroms):
                    1          2          3          4          5
     1  C    0.000000
     2  C    1.548049   0.000000
     3  H    2.218125   1.099725   0.000000
     4  H    2.176411   1.097705   1.783268   0.000000
     5  H    2.176331   1.097698   1.783231   1.776302   0.000000
     6  C    1.548049   2.519807   2.790477   2.759006   3.476749
     7  H    2.218125   2.790477   2.610266   3.133244   3.801768
     8  H    2.176331   3.476749   3.801768   3.759926   4.318918
     9  H    2.176411   2.759006   3.133244   2.542718   3.759926
    10  C    1.548034   2.519787   2.790331   3.476783   2.758963
    11  H    2.176359   2.758947   3.133011   3.759931   2.542632
    12  H    2.176359   3.476759   3.801646   4.319010   3.759907
    13  H    2.218072   2.790351   2.609993   3.801657   3.133136
    14  O    1.382312   2.402090   3.366090   2.660449   2.660325
    15  Na   3.344517   4.137624   5.195316   4.118279   4.118546
                    6          7          8          9         10
     6  C    0.000000
     7  H    1.099725   0.000000
     8  H    1.097698   1.783231   0.000000
     9  H    1.097705   1.783268   1.776302   0.000000
    10  C    2.519787   2.790331   2.758963   3.476783   0.000000
    11  H    3.476759   3.801646   3.759907   4.319010   1.097700
    12  H    2.758947   3.133011   2.542632   3.759931   1.097700
    13  H    2.790351   2.609993   3.133136   3.801657   1.099710
    14  O    2.402090   3.366090   2.660325   2.660449   2.402128
    15  Na   4.137624   5.195316   4.118546   4.118279   4.138250
                   11         12         13         14         15
    11  H    0.000000
    12  H    1.776352   0.000000
    13  H    1.783224   1.783224   0.000000
    14  O    2.660458   2.660458   3.366085   0.000000
    15  Na   4.119307   4.119307   5.195807   1.962205   0.000000
 Stoichiometry    C4H9NaO
 Framework group  CS[SG(C2HNaO),X(C2H8)]
 Deg. of freedom    22
 Full point group                 CS      NOp   2
 Largest Abelian subgroup         CS      NOp   2
 Largest concise Abelian subgroup CS      NOp   2
                         Standard orientation:                         
 ---------------------------------------------------------------------
 Center     Atomic      Atomic             Coordinates (Angstroms)
 Number     Number       Type             X           Y           Z
 ---------------------------------------------------------------------
      1          6           0       -0.625129    0.000261    0.000000
      2          6           0       -1.154267   -0.727139    1.259904
      3          1           0       -2.252755   -0.753090    1.305133
      4          1           0       -0.780888   -1.759328    1.271359
      5          1           0       -0.780718   -0.220976    2.159459
      6          6           0       -1.154267   -0.727139   -1.259904
      7          1           0       -2.252755   -0.753090   -1.305133
      8          1           0       -0.780718   -0.220976   -2.159459
      9          1           0       -0.780888   -1.759328   -1.271359
     10          6           0       -1.154267    1.455054    0.000000
     11          1           0       -0.780848    1.981027    0.888176
     12          1           0       -0.780848    1.981027   -0.888176
     13          1           0       -2.252742    1.507151    0.000000
     14          8           0        0.757183    0.000209    0.000000
     15         11           0        2.719388   -0.000937    0.000000
 ---------------------------------------------------------------------
 Rotational constants (GHZ):           4.5303767           1.6592189           1.6592097
 Basis read from rwf:  (5D, 7F)
 Pseudo-potential data read from rwf file.
 There are    81 symmetry adapted cartesian basis functions of A'  symmetry.
 There are    45 symmetry adapted cartesian basis functions of A"  symmetry.
 There are    77 symmetry adapted basis functions of A'  symmetry.
 There are    44 symmetry adapted basis functions of A"  symmetry.
   121 basis functions,   242 primitive gaussians,   126 cartesian basis functions
    26 alpha electrons       26 beta electrons
       nuclear repulsion energy       259.5981933833 Hartrees.
 NAtoms=   15 NActive=   15 NUniq=   10 SFac= 2.25D+00 NAtFMM=   60 NAOKFM=F Big=F
 Integral buffers will be    131072 words long.
 Raffenetti 2 integral format.
 Two-electron integral symmetry is turned on.
 Nuclear repulsion after empirical dispersion term =      259.5864337163 Hartrees.
 One-electron integrals computed using PRISM.
   2 Symmetry operations used in ECPInt.
 ECPInt:  NShTT=    1128 NPrTT=    6478 LenC2=    1122 LenP2D=    4876.
 LDataN:  DoStor=T MaxTD1= 4 Len=   56
 NBasis=   121 RedAO= T EigKep=  5.05D-05  NBF=    77    44
 NBsUse=   121 1.00D-06 EigRej= -1.00D+00 NBFU=    77    44
 Initial guess from the checkpoint file:  "NaOtBu-vol.chk"
 B after Tr=     0.000000    0.000000    0.000000
         Rot=    1.000000    0.000000    0.000000    0.000017 Ang=   0.00 deg.
 Initial guess orbital symmetries:
       Occupied  (A') (A') (A') (A") (A') (A') (A') (A") (A') (A')
                 (A') (A') (A') (A") (A') (A') (A') (A") (A") (A')
                 (A") (A') (A') (A") (A") (A')
       Virtual   (A') (A") (A') (A') (A') (A') (A") (A') (A') (A')
                 (A") (A") (A') (A') (A') (A") (A") (A') (A") (A')
                 (A") (A') (A') (A") (A') (A') (A') (A') (A") (A")
                 (A') (A") (A') (A') (A") (A') (A") (A') (A') (A')
                 (A') (A") (A') (A') (A") (A') (A') (A") (A') (A')
                 (A") (A") (A') (A") (A') (A") (A') (A") (A') (A')
                 (A") (A') (A') (A') (A") (A') (A") (A") (A') (A')
                 (A') (A") (A') (A") (A") (A') (A') (A') (A") (A')
                 (A") (A') (A') (A') (A') (A") (A") (A') (A") (A')
                 (A") (A') (A") (A') (A')
 Requested convergence on RMS density matrix=1.00D-08 within1000 cycles.
 Requested convergence on MAX density matrix=1.00D-06.
 Requested convergence on             energy=1.00D-06.
 No special actions if energy rises.
 SCF Done:  E(RB3LYP) =  -395.400341858     A.U. after    7 cycles
            NFock=  7  Conv=0.82D-08     -V/T= 2.0064
   2 Symmetry operations used in ECPInt.
 ECPInt:  NShTT=    1128 NPrTT=    6478 LenC2=    1122 LenP2D=    4876.
 LDataN:  DoStor=T MaxTD1= 5 Len=  102
 Calling FoFJK, ICntrl=      2127 FMM=F ISym2X=1 I1Cent= 0 IOpClX= 0 NMat=1 NMatS=1 NMatT=0.
 ***** Axes restored to original set *****
 -------------------------------------------------------------------
 Center     Atomic                   Forces (Hartrees/Bohr)
 Number     Number              X              Y              Z
 -------------------------------------------------------------------
      1        6           0.000026827   -0.000021465    0.000000000
      2        6          -0.000000324    0.000003913    0.000008513
      3        1           0.000004645   -0.000003243    0.000000689
      4        1          -0.000002513    0.000001813   -0.000002473
      5        1           0.000000956   -0.000002146    0.000005119
      6        6          -0.000000324    0.000003913   -0.000008513
      7        1           0.000004645   -0.000003243   -0.000000689
      8        1           0.000000956   -0.000002146   -0.000005119
      9        1          -0.000002513    0.000001813    0.000002473
     10        6           0.000004532    0.000012448    0.000000000
     11        1           0.000000910    0.000002465   -0.000004445
     12        1           0.000000910    0.000002465    0.000004445
     13        1          -0.000001399   -0.000001587    0.000000000
     14        8          -0.000029889    0.000003617    0.000000000
     15       11          -0.000007421    0.000001386    0.000000000
 -------------------------------------------------------------------
 Cartesian Forces:  Max     0.000029889 RMS     0.000007764

 GradGradGradGradGradGradGradGradGradGradGradGradGradGradGradGradGradGrad
 Berny optimization.
 Using GEDIIS/GDIIS optimizer.
 FormGI is forming the generalized inverse of G from B-inverse, IUseBI=4.
 Internal  Forces:  Max     0.000037307 RMS     0.000005866
 Search for a local minimum.
 Step number   3 out of a maximum of   77
 All quantities printed in internal units (Hartrees-Bohrs-Radians)
 Mixed Optimization -- En-DIIS/RFO-DIIS
 Swapping is turned off.
 Update second derivatives using D2CorX and points    1    2    3
 DE= -1.42D-07 DEPred=-1.49D-07 R= 9.51D-01
 Trust test= 9.51D-01 RLast= 7.07D-03 DXMaxT set to 3.00D-01
 ITU=  0  0  0
     Eigenvalues ---    0.00230   0.00230   0.00377   0.03884   0.03907
     Eigenvalues ---    0.04936   0.05312   0.05312   0.05392   0.05541
     Eigenvalues ---    0.05697   0.05701   0.06429   0.06493   0.13682
     Eigenvalues ---    0.16000   0.16000   0.16000   0.16000   0.16000
     Eigenvalues ---    0.16000   0.16032   0.16144   0.16918   0.17338
     Eigenvalues ---    0.17380   0.27500   0.27814   0.27890   0.33707
     Eigenvalues ---    0.33716   0.33744   0.33922   0.33937   0.33938
     Eigenvalues ---    0.33939   0.33940   0.34045   0.48212
 En-DIIS/RFO-DIIS/Sim-DIIS IScMMF=       -3 using points:     3    2    1
 RFO step:  Lambda=-7.49897419D-09.
 DidBck=F Rises=F RFO-DIIS coefs:    0.86340    0.11191    0.02469
 Iteration  1 RMS(Cart)=  0.00011023 RMS(Int)=  0.00000001
 Iteration  2 RMS(Cart)=  0.00000001 RMS(Int)=  0.00000000
 ClnCor:  largest displacement from symmetrization is 4.36D-05 for atom    15.
 Variable       Old X    -DE/DX   Delta X   Delta X   Delta X     New X
                                 (Linear)    (Quad)   (Total)
    R1        2.92539   0.00001   0.00000   0.00003   0.00003   2.92542
    R2        2.92539   0.00001   0.00000   0.00003   0.00003   2.92542
    R3        2.92536   0.00001  -0.00002   0.00007   0.00005   2.92541
    R4        2.61219  -0.00004   0.00001  -0.00009  -0.00008   2.61212
    R5        2.07818   0.00000   0.00000  -0.00001  -0.00001   2.07817
    R6        2.07436   0.00000   0.00000   0.00000  -0.00001   2.07436
    R7        2.07435   0.00000   0.00000   0.00001   0.00001   2.07436
    R8        2.07818   0.00000   0.00000  -0.00001  -0.00001   2.07817
    R9        2.07435   0.00000   0.00000   0.00001   0.00001   2.07436
   R10        2.07436   0.00000   0.00000   0.00000  -0.00001   2.07436
   R11        2.07435   0.00000   0.00000  -0.00001   0.00000   2.07435
   R12        2.07435   0.00000   0.00000  -0.00001   0.00000   2.07435
   R13        2.07815   0.00000   0.00001   0.00000   0.00000   2.07815
   R14        3.70803  -0.00001   0.00006  -0.00011  -0.00005   3.70798
    A1        1.90155   0.00000  -0.00001   0.00007   0.00006   1.90161
    A2        1.90154   0.00000   0.00003   0.00000   0.00003   1.90156
    A3        1.91962   0.00000   0.00000  -0.00002  -0.00002   1.91960
    A4        1.90154   0.00000   0.00003   0.00000   0.00003   1.90156
    A5        1.91962   0.00000   0.00000  -0.00002  -0.00002   1.91960
    A6        1.91968   0.00000  -0.00004  -0.00003  -0.00007   1.91961
    A7        1.96707   0.00000   0.00001   0.00000   0.00001   1.96709
    A8        1.91141   0.00000  -0.00005   0.00002  -0.00002   1.91139
    A9        1.91131   0.00001   0.00003   0.00001   0.00004   1.91135
   A10        1.89351   0.00000   0.00000  -0.00003  -0.00003   1.89348
   A11        1.89346   0.00000   0.00000   0.00001   0.00001   1.89347
   A12        1.88524   0.00000   0.00001  -0.00002  -0.00001   1.88523
   A13        1.96707   0.00000   0.00001   0.00000   0.00001   1.96709
   A14        1.91131   0.00001   0.00003   0.00001   0.00004   1.91135
   A15        1.91141   0.00000  -0.00005   0.00002  -0.00002   1.91139
   A16        1.89346   0.00000   0.00000   0.00001   0.00001   1.89347
   A17        1.89351   0.00000   0.00000  -0.00003  -0.00003   1.89348
   A18        1.88524   0.00000   0.00001  -0.00002  -0.00001   1.88523
   A19        1.91136   0.00000  -0.00002   0.00004   0.00002   1.91138
   A20        1.91136   0.00000  -0.00002   0.00004   0.00002   1.91138
   A21        1.96703   0.00000   0.00005  -0.00007  -0.00002   1.96701
   A22        1.88532  -0.00001  -0.00002  -0.00002  -0.00004   1.88528
   A23        1.89347   0.00000   0.00001   0.00000   0.00000   1.89347
   A24        1.89347   0.00000   0.00001   0.00000   0.00000   1.89347
   A25        3.14115   0.00000  -0.00001   0.00010   0.00008   3.14123
   A26        3.14120   0.00000  -0.00001   0.00006   0.00007   3.14127
    D1       -1.03639   0.00000  -0.00013   0.00000  -0.00012  -1.03651
    D2        1.07312   0.00000  -0.00015  -0.00002  -0.00017   1.07295
    D3        3.13741   0.00000  -0.00015  -0.00002  -0.00017   3.13724
    D4        1.03612   0.00000  -0.00008   0.00004  -0.00004   1.03608
    D5       -3.13755   0.00000  -0.00011   0.00002  -0.00009  -3.13765
    D6       -1.07326   0.00000  -0.00011   0.00002  -0.00009  -1.07335
    D7        3.14149   0.00000  -0.00011  -0.00001  -0.00012   3.14137
    D8       -1.03218   0.00000  -0.00014  -0.00003  -0.00017  -1.03235
    D9        1.03211   0.00000  -0.00014  -0.00003  -0.00017   1.03194
   D10        1.03639   0.00000   0.00013   0.00000   0.00012   1.03651
   D11       -3.13741   0.00000   0.00015   0.00002   0.00017  -3.13724
   D12       -1.07312   0.00000   0.00015   0.00002   0.00017  -1.07295
   D13       -1.03612   0.00000   0.00008  -0.00004   0.00004  -1.03608
   D14        1.07326   0.00000   0.00011  -0.00002   0.00009   1.07335
   D15        3.13755   0.00000   0.00011  -0.00002   0.00009   3.13765
   D16       -3.14149   0.00000   0.00011   0.00001   0.00012  -3.14137
   D17       -1.03211   0.00000   0.00014   0.00003   0.00017  -1.03194
   D18        1.03218   0.00000   0.00014   0.00003   0.00017   1.03235
   D19        1.07314   0.00000   0.00002  -0.00006  -0.00004   1.07310
   D20        3.13753   0.00000  -0.00003  -0.00003  -0.00006   3.13747
   D21       -1.03626   0.00000  -0.00001  -0.00004  -0.00005  -1.03631
   D22       -3.13753   0.00000   0.00003   0.00003   0.00006  -3.13747
   D23       -1.07314   0.00000  -0.00002   0.00006   0.00004  -1.07310
   D24        1.03626   0.00000   0.00001   0.00004   0.00005   1.03631
   D25       -1.03220   0.00000   0.00003  -0.00001   0.00001  -1.03219
   D26        1.03220   0.00000  -0.00003   0.00001  -0.00001   1.03219
   D27        3.14159   0.00000   0.00000   0.00000   0.00000   3.14159
         Item               Value     Threshold  Converged?
 Maximum Force            0.000037     0.000450     YES
 RMS     Force            0.000006     0.000300     YES
 Maximum Displacement     0.000421     0.001800     YES
 RMS     Displacement     0.000109     0.001200     YES
 Predicted change in Energy=-5.688997D-09
 Optimization completed.
    -- Stationary point found.
                           ----------------------------
                           !   Optimized Parameters   !
                           ! (Angstroms and Degrees)  !
 --------------------------                            --------------------------
 ! Name  Definition              Value          Derivative Info.                !
 --------------------------------------------------------------------------------
 ! R1    R(1,2)                  1.548          -DE/DX =    0.0                 !
 ! R2    R(1,6)                  1.548          -DE/DX =    0.0                 !
 ! R3    R(1,10)                 1.548          -DE/DX =    0.0                 !
 ! R4    R(1,14)                 1.3823         -DE/DX =    0.0                 !
 ! R5    R(2,3)                  1.0997         -DE/DX =    0.0                 !
 ! R6    R(2,4)                  1.0977         -DE/DX =    0.0                 !
 ! R7    R(2,5)                  1.0977         -DE/DX =    0.0                 !
 ! R8    R(6,7)                  1.0997         -DE/DX =    0.0                 !
 ! R9    R(6,8)                  1.0977         -DE/DX =    0.0                 !
 ! R10   R(6,9)                  1.0977         -DE/DX =    0.0                 !
 ! R11   R(10,11)                1.0977         -DE/DX =    0.0                 !
 ! R12   R(10,12)                1.0977         -DE/DX =    0.0                 !
 ! R13   R(10,13)                1.0997         -DE/DX =    0.0                 !
 ! R14   R(14,15)                1.9622         -DE/DX =    0.0                 !
 ! A1    A(2,1,6)              108.9507         -DE/DX =    0.0                 !
 ! A2    A(2,1,10)             108.9501         -DE/DX =    0.0                 !
 ! A3    A(2,1,14)             109.9861         -DE/DX =    0.0                 !
 ! A4    A(6,1,10)             108.9501         -DE/DX =    0.0                 !
 ! A5    A(6,1,14)             109.9861         -DE/DX =    0.0                 !
 ! A6    A(10,1,14)            109.9895         -DE/DX =    0.0                 !
 ! A7    A(1,2,3)              112.705          -DE/DX =    0.0                 !
 ! A8    A(1,2,4)              109.5157         -DE/DX =    0.0                 !
 ! A9    A(1,2,5)              109.5099         -DE/DX =    0.0                 !
 ! A10   A(3,2,4)              108.4903         -DE/DX =    0.0                 !
 ! A11   A(3,2,5)              108.4874         -DE/DX =    0.0                 !
 ! A12   A(4,2,5)              108.0163         -DE/DX =    0.0                 !
 ! A13   A(1,6,7)              112.705          -DE/DX =    0.0                 !
 ! A14   A(1,6,8)              109.5099         -DE/DX =    0.0                 !
 ! A15   A(1,6,9)              109.5157         -DE/DX =    0.0                 !
 ! A16   A(7,6,8)              108.4874         -DE/DX =    0.0                 !
 ! A17   A(7,6,9)              108.4903         -DE/DX =    0.0                 !
 ! A18   A(8,6,9)              108.0163         -DE/DX =    0.0                 !
 ! A19   A(1,10,11)            109.5129         -DE/DX =    0.0                 !
 ! A20   A(1,10,12)            109.5129         -DE/DX =    0.0                 !
 ! A21   A(1,10,13)            112.7027         -DE/DX =    0.0                 !
 ! A22   A(11,10,12)           108.0209         -DE/DX =    0.0                 !
 ! A23   A(11,10,13)           108.4877         -DE/DX =    0.0                 !
 ! A24   A(12,10,13)           108.4877         -DE/DX =    0.0                 !
 ! A25   L(1,14,15,4,-1)       179.9746         -DE/DX =    0.0                 !
 ! A26   L(1,14,15,4,-2)       179.9775         -DE/DX =    0.0                 !
 ! D1    D(6,1,2,3)            -59.3808         -DE/DX =    0.0                 !
 ! D2    D(6,1,2,4)             61.4854         -DE/DX =    0.0                 !
 ! D3    D(6,1,2,5)            179.7606         -DE/DX =    0.0                 !
 ! D4    D(10,1,2,3)            59.3651         -DE/DX =    0.0                 !
 ! D5    D(10,1,2,4)          -179.7686         -DE/DX =    0.0                 !
 ! D6    D(10,1,2,5)           -61.4935         -DE/DX =    0.0                 !
 ! D7    D(14,1,2,3)           179.9941         -DE/DX =    0.0                 !
 ! D8    D(14,1,2,4)           -59.1397         -DE/DX =    0.0                 !
 ! D9    D(14,1,2,5)            59.1355         -DE/DX =    0.0                 !
 ! D10   D(2,1,6,7)             59.3808         -DE/DX =    0.0                 !
 ! D11   D(2,1,6,8)           -179.7606         -DE/DX =    0.0                 !
 ! D12   D(2,1,6,9)            -61.4854         -DE/DX =    0.0                 !
 ! D13   D(10,1,6,7)           -59.3651         -DE/DX =    0.0                 !
 ! D14   D(10,1,6,8)            61.4935         -DE/DX =    0.0                 !
 ! D15   D(10,1,6,9)           179.7686         -DE/DX =    0.0                 !
 ! D16   D(14,1,6,7)          -179.9941         -DE/DX =    0.0                 !
 ! D17   D(14,1,6,8)           -59.1355         -DE/DX =    0.0                 !
 ! D18   D(14,1,6,9)            59.1397         -DE/DX =    0.0                 !
 ! D19   D(2,1,10,11)           61.4864         -DE/DX =    0.0                 !
 ! D20   D(2,1,10,12)          179.7673         -DE/DX =    0.0                 !
 ! D21   D(2,1,10,13)          -59.3732         -DE/DX =    0.0                 !
 ! D22   D(6,1,10,11)         -179.7673         -DE/DX =    0.0                 !
 ! D23   D(6,1,10,12)          -61.4864         -DE/DX =    0.0                 !
 ! D24   D(6,1,10,13)           59.3732         -DE/DX =    0.0                 !
 ! D25   D(14,1,10,11)         -59.1404         -DE/DX =    0.0                 !
 ! D26   D(14,1,10,12)          59.1404         -DE/DX =    0.0                 !
 ! D27   D(14,1,10,13)         180.0            -DE/DX =    0.0                 !
 --------------------------------------------------------------------------------
 GradGradGradGradGradGradGradGradGradGradGradGradGradGradGradGradGradGrad

                          Input orientation:                          
 ---------------------------------------------------------------------
 Center     Atomic      Atomic             Coordinates (Angstroms)
 Number     Number       Type             X           Y           Z
 ---------------------------------------------------------------------
      1          6           0       -0.624881   -0.000042    0.000000
      2          6           0       -1.153687   -0.727684    1.259904
      3          1           0       -2.252163   -0.754136    1.305133
      4          1           0       -0.779837   -1.759702    1.271359
      5          1           0       -0.780369   -0.221350    2.159459
      6          6           0       -1.153687   -0.727684   -1.259904
      7          1           0       -2.252163   -0.754136   -1.305133
      8          1           0       -0.780369   -0.221350   -2.159459
      9          1           0       -0.779837   -1.759702   -1.271359
     10          6           0       -1.154683    1.454509    0.000000
     11          1           0       -0.781504    1.980653    0.888176
     12          1           0       -0.781504    1.980653   -0.888176
     13          1           0       -2.253182    1.506105    0.000000
     14          8           0        0.757431    0.000537    0.000000
     15         11           0        2.719636    0.000286    0.000000
 ---------------------------------------------------------------------
                    Distance matrix (angstroms):
[...]
 ! D13   D(10,1,6,7)           -59.3633         -DE/DX =    0.0                 !
 ! D14   D(10,1,6,8)            61.4989         -DE/DX =    0.0                 !
 ! D15   D(10,1,6,9)           179.7735         -DE/DX =    0.0                 !
 ! D16   D(14,1,6,7)          -179.9899         -DE/DX =    0.0                 !
 ! D17   D(14,1,6,8)           -59.1276         -DE/DX =    0.0                 !
 ! D18   D(14,1,6,9)            59.147          -DE/DX =    0.0                 !
 ! D19   D(2,1,10,11)           61.4861         -DE/DX =    0.0                 !
 ! D20   D(2,1,10,12)          179.7644         -DE/DX =    0.0                 !
 ! D21   D(2,1,10,13)          -59.3748         -DE/DX =    0.0                 !
 ! D22   D(6,1,10,11)         -179.7644         -DE/DX =    0.0                 !
 ! D23   D(6,1,10,12)          -61.4861         -DE/DX =    0.0                 !
 ! D24   D(6,1,10,13)           59.3748         -DE/DX =    0.0                 !
 ! D25   D(14,1,10,11)         -59.1392         -DE/DX =    0.0                 !
 ! D26   D(14,1,10,12)          59.1392         -DE/DX =    0.0                 !
 ! D27   D(14,1,10,13)         180.0            -DE/DX =    0.0                 !
 --------------------------------------------------------------------------------
 GradGradGradGradGradGradGradGradGradGradGradGradGradGradGradGradGradGrad


 ----------------------------------------------------------------------

 Electric dipole moment (input orientation):
 (Debye = 10**-18 statcoulomb cm , SI units = C m)
                  (au)            (Debye)         (10**-30 SI)
   Tot        0.319073D+01      0.811002D+01      0.270521D+02
   x          0.319073D+01      0.811002D+01      0.270521D+02
   y         -0.183063D-03     -0.465299D-03     -0.155207D-02
   z          0.000000D+00      0.000000D+00      0.000000D+00

 Dipole polarizability, Alpha (input orientation).
 (esu units = cm**3 , SI units = C**2 m**2 J**-1)
 Alpha(0;0):
               (au)            (10**-24 esu)      (10**-40 SI)
   iso        0.718185D+02      0.106424D+02      0.118413D+02
   aniso      0.737557D+01      0.109295D+01      0.121607D+01
   xx         0.767355D+02      0.113710D+02      0.126520D+02
   yx        -0.118981D-01     -0.176312D-02     -0.196173D-02
   yy         0.693602D+02      0.102781D+02      0.114360D+02
   zx         0.000000D+00      0.000000D+00      0.000000D+00
   zy         0.000000D+00      0.000000D+00      0.000000D+00
   zz         0.693597D+02      0.102780D+02      0.114359D+02

 ----------------------------------------------------------------------

 Dipole orientation:
     6         -0.00000001         -0.00014764         -1.18085378
     6         -2.38095182         -1.37511128         -2.18007347
     1         -2.46642592         -1.42521379         -4.25588892
     1         -2.40271097         -3.32530120         -1.47348745
     1         -4.08081047         -0.41814114         -1.47465939
     6          2.38079402         -1.37538447         -2.18007347
     1          2.46626237         -1.42549680         -4.25588892
     1          4.08076246         -0.41860939         -1.47465939
     1          2.40232939         -3.32557689         -1.47348745
     6          0.00015769          2.74849909         -2.18219251
     1         -1.67819492          3.74290244         -1.47704373
     1          1.67862439          3.74270985         -1.47704373
     1          0.00016328          2.84588155         -4.25806023
     8          0.00000006          0.00109682          1.43133753
    11          0.00000005          0.00083586          5.13936771

 Electric dipole moment (dipole orientation):
 (Debye = 10**-18 statcoulomb cm , SI units = C m)
                  (au)            (Debye)         (10**-30 SI)
   Tot        0.319073D+01      0.811002D+01      0.270521D+02
   x          0.000000D+00      0.000000D+00      0.000000D+00
   y          0.000000D+00      0.000000D+00      0.000000D+00
   z          0.319073D+01      0.811002D+01      0.270521D+02

 Dipole polarizability, Alpha (dipole orientation).
 (esu units = cm**3 , SI units = C**2 m**2 J**-1)
 Alpha(0;0):
               (au)            (10**-24 esu)      (10**-40 SI)
   iso        0.718185D+02      0.106424D+02      0.118413D+02
   aniso      0.737557D+01      0.109295D+01      0.121607D+01
   xx         0.693597D+02      0.102780D+02      0.114359D+02
   yx         0.000000D+00      0.000000D+00      0.000000D+00
   yy         0.693602D+02      0.102781D+02      0.114360D+02
   zx         0.000000D+00      0.000000D+00      0.000000D+00
   zy        -0.114749D-01     -0.170041D-02     -0.189196D-02
   zz         0.767355D+02      0.113710D+02      0.126520D+02

 ----------------------------------------------------------------------
 1\1\GINC-IP-172-31-36-226\Freq\RB3LYP\Gen\C4H9Na1O1\UBUNTU\14-Sep-2023
 \0\\#N Geom=AllCheck Guess=TCheck SCRF=Check GenChk RB3LYP/ChkBas Freq
 \\Title Card Required\\0,1\C,-0.6248809155,-0.0000422738,0.\C,-1.15368
 69485,-0.7276836463,1.2599036935\H,-2.2521627001,-0.7541363274,1.30513
 31177\H,-0.7798369399,-1.759701823,1.2713589308\H,-0.7803688417,-0.221
 3498848,2.1594592018\C,-1.1536869485,-0.7276836463,-1.2599036935\H,-2.
 2521627001,-0.7541363274,-1.3051331177\H,-0.7803688417,-0.2213498848,-
 2.1594592018\H,-0.7798369399,-1.759701823,-1.2713589308\C,-1.154683098
 4,1.4545093371,0.\H,-0.7815042464,1.9806525604,0.8881761403\H,-0.78150
 42464,1.9806525604,-0.8881761403\H,-2.2531820323,1.5061049364,0.\O,0.7
 574312328,0.0005369537,0.\Na,2.7196362896,0.0002862813,0.\\Version=EM6
 4L-G16RevB.01\State=1-A'\HF=-395.4003419\RMSD=4.162e-09\RMSF=7.761e-06
 \ZeroPoint=0.1242724\Thermal=0.1324347\Dipole=3.1907291,-0.0001831,0.\
 DipoleDeriv=1.1591036,0.0001879,0.,0.0005515,0.3297729,-0.0000002,0.,0
 .,0.3299648,0.0642827,-0.0496811,0.0860638,-0.0604477,0.0357932,0.0914
 398,0.1047035,0.0914335,-0.0697572,-0.254295,-0.0471341,0.0814743,-0.0
 076597,0.0488878,0.0211466,0.0130905,0.0211095,0.0245423,0.0218453,0.1
 046529,-0.0100574,0.0550354,-0.197296,0.0479209,0.0153642,-0.0176337,0
 .0401033,0.0219561,-0.0435758,-0.0955403,-0.040768,-0.0061863,-0.12807
 97,-0.0399081,-0.0624708,-0.1510868,0.0642827,-0.0496811,-0.0860638,-0
 .0604477,0.0357932,-0.0914398,-0.1047035,-0.0914335,-0.0697573,-0.2542
 95,-0.0471341,-0.0814743,-0.0076597,0.0488878,-0.0211466,-0.0130905,-0
 .0211095,0.0245423,0.0219561,-0.0435758,0.0955403,-0.040768,-0.0061864
 ,0.1280797,0.0399081,0.0624708,-0.1510868,0.0218453,0.1046528,0.010057
 4,0.0550354,-0.197296,-0.0479209,-0.0153641,0.0176337,0.0401033,0.0640
 134,0.0995593,0.,0.1210419,-0.1223366,0.,0.,0.,0.0885542,0.0219832,-0.
 0609401,-0.0854666,-0.0141721,-0.0323977,-0.0776304,-0.0552059,-0.1432
 058,-0.1248613,0.0219832,-0.0609401,0.0854666,-0.0141721,-0.0323977,0.
 0776304,0.0552059,0.1432058,-0.1248613,-0.2543574,0.0939581,0.,0.01496
 04,0.0123662,0.,0.,0.,0.061099,-1.6672654,-0.0005085,0.,-0.0005847,-0.
 6781177,0.,0.,0.,-0.6781878,0.9469611,0.0001597,0.,0.0000552,0.7607131
 ,0.,0.,0.,0.7606893\Polar=76.7355215,-0.0118981,69.3602381,0.,0.,69.35
 97148\Quadrupole=14.9167787,-7.4583426,-7.4584362,0.0011839,0.,0.\PG=C
 S [SG(C2H1Na1O1),X(C2H8)]\NImag=0\\0.47670100,-0.00001070,0.46662702,0
 .,0.,0.46663175,-0.06659178,-0.00796409,0.01379426,0.55580566,-0.00883
 451,-0.09368929,0.03468357,-0.02054479,0.54271552,0.01529509,0.0347117
 4,-0.13380365,0.03558054,0.05140769,0.48340041,-0.00995375,0.00300698,
 -0.00522853,-0.29905088,-0.00498112,0.00849543,0.32903460,-0.01270235,
 0.00012606,-0.00368842,-0.00434438,-0.04983560,0.00057409,0.00504406,0
 .04845632,0.02199199,-0.00368869,0.00440570,0.00738624,0.00057056,-0.0
 5049612,-0.00856936,-0.00103379,0.04963918,0.00148398,-0.00941428,0.00
 067693,-0.07860040,0.08443223,-0.00124058,-0.01005173,0.03105982,0.000
 15731,0.08126447,0.00827002,-0.01739074,-0.00130655,0.08353032,-0.2744
 6591,-0.00120044,-0.00058666,0.00247680,-0.00003928,-0.09305927,0.2995
 7267,-0.00958606,0.02642289,-0.00148826,-0.00032588,-0.00192529,-0.046
 05931,0.00010641,-0.00077893,-0.00108460,-0.00028377,-0.00042258,0.050
 49377,0.00148278,0.00412007,0.00849229,-0.07851546,-0.04109816,-0.0736
 5124,-0.01004040,-0.01567250,-0.02682682,0.00399589,0.00526306,0.01034
 738,0.08117478,0.00416276,0.00541100,0.01326941,-0.04144257,-0.1045778
 1,-0.10010853,0.00019546,-0.00056023,0.00095478,-0.01157716,-0.0138106
 6,-0.02508636,0.04673034,0.11246560,-0.01194097,-0.01446696,-0.0242968
 0,-0.07241313,-0.09937369,-0.21605247,0.00055536,0.00170414,0.00193190
 ,0.00061757,0.00035109,0.00047798,0.08035704,0.10769533,0.23772479,-0.
 06659178,-0.00796409,-0.01379426,0.00630782,0.00417875,0.00585368,-0.0
 0038675,0.00032551,0.00023712,-0.00014137,0.00004387,-0.00060078,-0.00
 056459,-0.00068806,0.00335111,0.55580566,-0.00883451,-0.09368929,-0.03
 468357,0.00417875,0.00614749,0.01096168,0.00017816,0.00009050,-0.00034
 364,0.00015439,0.00025678,0.00148226,-0.00037813,-0.00085318,0.0044521
 0,-0.02054479,0.54271552,-0.01529509,-0.03471174,-0.13380365,-0.005853
 68,-0.01096168,-0.03316811,-0.00050203,-0.00050217,0.00001403,-0.00050
 505,-0.00109575,0.00105717,0.00130761,0.00202875,-0.00393659,-0.035580
 54,-0.05140769,0.48340041,-0.00995375,0.00300698,0.00522853,-0.0003867
 5,0.00017816,0.00050203,0.00110636,0.00008879,-0.00024649,-0.00003111,
 -0.00014082,0.00000534,0.00032458,-0.00003697,-0.00009899,-0.29905088,
 -0.00498112,-0.00849543,0.32903460,-0.01270235,0.00012606,0.00368842,0
 .00032551,0.00009050,0.00050217,0.00008879,0.00030622,-0.00004988,0.00
 012870,-0.00000715,-0.00002983,0.00000854,-0.00016341,0.00015959,-0.00
 434438,-0.04983560,-0.00057409,0.00504406,0.04845632,-0.02199199,0.003
 68869,0.00440570,-0.00023712,0.00034364,0.00001403,0.00024649,0.000049
 88,-0.00107532,0.00001389,-0.00000282,-0.00006731,0.00025819,-0.000022
 06,0.00048427,-0.00738624,-0.00057056,-0.05049612,0.00856936,0.0010337
 9,0.04963918,0.00148278,0.00412007,-0.00849229,-0.00056459,-0.00037813
 ,-0.00130761,0.00032458,0.00000854,-0.00025819,-0.00005086,-0.00021264
 ,0.00009953,0.00059865,0.00002317,-0.00043579,-0.07851546,-0.04109816,
 0.07365124,-0.01004040,-0.01567250,0.02682682,0.08117478,0.00416276,0.
 00541100,-0.01326941,-0.00068806,-0.00085318,-0.00202875,-0.00003697,-
 0.00016341,0.00002206,-0.00018772,0.00029638,-0.00030723,0.00002317,0.
 00071015,-0.00074571,-0.04144257,-0.10457781,0.10010853,0.00019546,-0.
 00056023,-0.00095478,0.04673034,0.11246560,0.01194097,0.01446696,-0.02
 429680,-0.00335111,-0.00445210,-0.00393659,0.00009899,-0.00015959,0.00
 048427,-0.00013051,-0.00002459,0.00040194,0.00043579,0.00074571,-0.002
 13972,0.07241313,0.09937369,-0.21605247,-0.00055536,-0.00170414,0.0019
 3190,-0.08035704,-0.10769533,0.23772479,0.00148398,-0.00941428,-0.0006
 7693,-0.00014137,0.00015439,0.00050505,-0.00003111,0.00012870,-0.00001
 389,0.00022299,-0.00004606,0.00023695,-0.00005086,-0.00018772,0.000130
 51,-0.07860040,0.08443223,0.00124058,-0.01005173,0.03105982,-0.0001573
 1,0.00399589,-0.01157716,-0.00061757,0.08126447,0.00827002,-0.01739074
 ,0.00130655,0.00004387,0.00025678,0.00109575,-0.00014082,-0.00000715,0
 .00000282,-0.00004606,0.00099048,-0.00054642,-0.00021264,0.00029638,0.
 00002459,0.08353032,-0.27446591,0.00120044,-0.00058666,0.00247680,0.00
 003928,0.00526306,-0.01381066,-0.00035109,-0.09305927,0.29957267,0.009
 58606,-0.02642288,-0.00148826,0.00060078,-0.00148226,0.00105717,-0.000
 00534,0.00002983,-0.00006731,-0.00023695,0.00054642,-0.00079080,-0.000
 09953,0.00030723,0.00040194,0.00032588,0.00192529,-0.04605931,-0.00010
 641,0.00077893,-0.00108460,-0.01034738,0.02508636,0.00047798,0.0002837
 7,0.00042258,0.05049377,-0.06663480,0.01601368,0.,0.00631165,-0.007154
 29,-0.00069375,-0.00038708,-0.00036696,-0.00016286,-0.00056380,-0.0025
 5951,0.00227144,-0.00014110,0.00049718,-0.00033517,0.00631165,-0.00715
 429,0.00069375,-0.00038708,-0.00036696,0.00016286,-0.00014110,0.000497
 18,0.00033517,-0.00056380,-0.00255951,-0.00227144,0.55577248,0.0177123
 6,-0.15379068,0.,0.00300014,-0.02337169,0.00606900,0.00034949,-0.00033
 141,-0.00025848,-0.00094365,-0.00036218,0.00174490,0.00036102,0.001027
 89,-0.00153977,0.00300014,-0.02337169,-0.00606900,0.00034949,-0.000331
 41,0.00025848,0.00036102,0.00102789,0.00153977,-0.00094365,-0.00036218
 ,-0.00174490,0.04114513,0.45378633,0.,0.00000002,-0.07363888,-0.006563
 19,0.02801689,-0.00368735,-0.00040825,-0.00010173,0.00043800,0.0009796
 0,0.00416676,-0.00442912,-0.00038534,0.00103577,0.00028861,0.00656319,
 -0.02801690,-0.00368734,0.00040825,0.00010173,0.00043800,0.00038534,-0
 .00103577,0.00028861,-0.00097960,-0.00416676,-0.00442912,0.,0.,0.57242
 127,0.00148778,0.00530515,0.00783832,-0.00013943,-0.00051481,0.0001216
 7,-0.00003010,-0.00005236,-0.00011774,-0.00005107,-0.00001924,0.000227
 63,0.00022481,-0.00018136,0.00014926,-0.00056764,0.00132488,0.00032564
 ,0.00032488,0.00021949,0.00013632,-0.00005108,0.00002010,-0.00023386,0
 .00059882,0.00036716,0.00023919,-0.07848970,-0.04323923,-0.07239146,0.
 08114470,-0.01241665,-0.01636034,-0.02701373,-0.00054227,0.00069330,-0
 .00172977,0.00007677,-0.00003771,0.00004908,0.00019190,0.00051965,0.00
 017869,0.00022436,-0.00034024,0.00131517,0.00324947,-0.00596866,0.0014
 9615,-0.00006720,0.00026298,0.00040578,0.00020673,0.00023191,-0.000012
 79,-0.00038827,-0.00142690,-0.00197916,-0.04199543,-0.10186150,-0.0978
 3239,0.04622621,0.11318647,-0.00236632,0.00070257,-0.00254322,0.000262
 88,0.00083703,0.00062445,0.00011860,0.00002049,-0.00003692,0.00013455,
 -0.00010403,0.00017908,-0.00008532,0.00022872,0.00054326,0.00108059,-0
 .00092644,0.00118211,-0.00008171,0.00022420,0.00005807,-0.00009727,0.0
 0026985,0.00046647,-0.00019772,-0.00048837,-0.00000227,-0.07207069,-0.
 09854572,-0.21878561,0.08061916,0.10814116,0.23700320,0.00148778,0.005
 30515,-0.00783832,-0.00056764,0.00132488,-0.00032564,0.00032488,0.0002
 1949,-0.00013632,0.00059882,0.00036716,-0.00023919,-0.00005108,0.00002
 010,0.00023386,-0.00013943,-0.00051481,-0.00012167,-0.00003010,-0.0000
 5236,0.00011774,0.00022481,-0.00018136,-0.00014926,-0.00005107,-0.0000
 1924,-0.00022763,-0.07848970,-0.04323923,0.07239146,0.00398348,0.00632
 467,-0.00971328,0.08114470,-0.01241665,-0.01636034,0.02701373,0.003249
 47,-0.00596866,-0.00149615,-0.00006720,0.00026298,-0.00040578,-0.00038
 827,-0.00142690,0.00197916,0.00020673,0.00023191,0.00001279,-0.0005422
 7,0.00069330,0.00172977,0.00007677,-0.00003771,-0.00004908,0.00022436,
 -0.00034024,-0.00131517,0.00019190,0.00051965,-0.00017869,-0.04199543,
 -0.10186150,0.09783239,0.00632467,0.00762533,-0.01272579,0.04622621,0.
 11318647,0.00236632,-0.00070257,-0.00254322,-0.00108059,0.00092644,0.0
 0118211,0.00008171,-0.00022420,0.00005807,0.00019772,0.00048837,-0.000
 00227,0.00009727,-0.00026985,0.00046647,-0.00026288,-0.00083703,0.0006
 2445,-0.00011860,-0.00002049,-0.00003692,0.00008532,-0.00022872,0.0005
 4326,-0.00013455,0.00010403,0.00017908,0.07207068,0.09854572,-0.218785
 61,0.00971328,0.01272579,-0.02094386,-0.08061916,-0.10814116,0.2370032
 0,-0.00996447,-0.00603840,0.,-0.00038545,-0.00052799,0.00010055,0.0011
 1050,0.00017075,-0.00020545,0.00032521,0.00010406,-0.00001691,-0.00003
 217,0.00006748,0.00012415,-0.00038545,-0.00052799,-0.00010055,0.001110
 50,0.00017075,0.00020545,-0.00003217,0.00006748,-0.00012415,0.00032521
 ,0.00010406,0.00001691,-0.29909094,0.00967713,0.,-0.01003519,0.0003756
 8,0.00045143,-0.01003519,0.00037568,-0.00045143,0.32906586,0.02541297,
 0.00652265,0.,0.00003927,0.00040715,0.00016081,-0.00026126,-0.00072373
 ,0.00064569,-0.00022804,0.00038225,-0.00033732,-0.00007738,-0.00006623
 ,0.00003053,0.00003927,0.00040715,-0.00016080,-0.00026126,-0.00072373,
 -0.00064569,-0.00007738,-0.00006623,-0.00003053,-0.00022804,0.00038225
 ,0.00033732,0.00838162,-0.05081915,0.,-0.01540106,0.00015291,0.0013679
 4,-0.01540106,0.00015291,-0.00136794,-0.00974941,0.05022777,0.,0.,-0.0
 0199769,-0.00040067,0.00031985,-0.00029295,0.00004943,0.00053661,-0.00
 002972,0.00012188,-0.00015523,-0.00006104,-0.00010582,0.00000638,-0.00
 000907,0.00040067,-0.00031985,-0.00029295,-0.00004943,-0.00053661,-0.0
 0002972,0.00010582,-0.00000638,-0.00000907,-0.00012188,0.00015523,-0.0
 0006104,0.,0.,-0.04951430,-0.02698722,0.00208892,0.00123001,0.02698722
 ,-0.00208892,0.00123001,0.,0.,0.04783236,-0.25031243,-0.00008149,0.,-0
 .04411865,-0.00658182,0.01136502,-0.00255749,-0.00397259,0.00687772,0.
 00172428,-0.00081885,-0.00236878,0.00171882,0.00245947,-0.00047505,-0.
 04411865,-0.00658182,-0.01136502,-0.00255749,-0.00397259,-0.00687772,0
 .00171882,0.00245947,0.00047505,0.00172428,-0.00081885,0.00236878,-0.0
 4414152,0.01310323,0.,0.00172482,-0.00164302,0.00189175,0.00172482,-0.
 00164302,-0.00189175,-0.00256406,0.00794157,0.,0.48884992,-0.00007382,
 -0.07534001,0.,-0.01850891,0.00206293,0.00107618,-0.00284552,0.0000669
 1,0.00346276,-0.00006607,0.00335335,-0.00235051,0.00050574,0.00019072,
 0.00048072,-0.01850891,0.00206293,-0.00107618,-0.00284552,0.00006691,-
 0.00346276,0.00050574,0.00019072,-0.00048072,-0.00006607,0.00335335,0.
 00235051,0.03695554,0.00024088,0.,-0.00044004,0.00338933,0.00132563,-0
 .00044004,0.00338933,-0.00132563,0.00569036,-0.00591660,0.,0.00014019,
 0.06287003,0.,0.,-0.07533029,0.03202635,0.00108490,0.00083571,0.004926
 31,0.00346199,-0.00392585,-0.00054019,-0.00134567,0.00126332,-0.000208
 59,-0.00051762,0.00442858,-0.03202635,-0.00108490,0.00083571,-0.004926
 31,-0.00346199,-0.00392585,0.00020859,0.00051762,0.00442858,0.00054019
 ,0.00134567,0.00126332,0.,0.,0.00269294,0.00032900,0.00232749,0.001233
 63,-0.00032900,-0.00232749,0.00123363,0.,0.,0.00206694,0.,0.,0.0628778
 1,-0.00560731,0.00000924,0.,0.00063726,0.00034721,-0.00060025,0.000588
 37,0.00006547,-0.00011327,-0.00012529,-0.00013545,0.00012670,-0.000124
 65,-0.00004214,0.00018026,0.00063726,0.00034721,0.00060025,0.00058837,
 0.00006547,0.00011327,-0.00012465,-0.00004214,-0.00018026,-0.00012529,
 -0.00013545,-0.00012670,0.00063483,-0.00069339,0.,-0.00012507,0.000177
 07,0.00005335,-0.00012507,0.00017707,-0.00005335,0.00058780,-0.0001298
 1,0.,-0.10881545,-0.00000266,0.,0.11149892,0.00000065,-0.00021238,0.,-
 0.00033228,0.00038847,0.00000454,-0.00002016,-0.00012654,0.00011179,-0
 .00005653,-0.00038481,-0.00002342,-0.00000421,0.00003812,-0.00009991,-
 0.00033228,0.00038847,-0.00000454,-0.00002016,-0.00012654,-0.00011179,
 -0.00000421,0.00003812,0.00009991,-0.00005653,-0.00038481,0.00002342,0
 .00066206,0.00038040,0.,0.00006045,-0.00006649,-0.00032723,0.00006045,
 -0.00006649,0.00032723,0.00004034,-0.00031936,0.,0.00001014,0.00001923
 ,0.,-0.00000771,0.00043461,0.,0.,-0.00021243,0.00057431,0.00000444,0.0
 0038265,0.00003478,0.00011178,-0.00025531,0.00003758,0.00014430,0.0001
 0944,0.00006709,-0.00026766,-0.00031315,-0.00057432,-0.00000444,0.0003
 8265,-0.00003478,-0.00011178,-0.00025531,-0.00006709,0.00026766,-0.000
 31315,-0.00003758,-0.00014430,0.00010944,0.,0.,0.00038991,0.00003082,-
 0.00016038,-0.00020841,-0.00003082,0.00016038,-0.00020841,0.,0.,-0.000
 06178,0.,0.,0.00002184,0.,0.,0.00043202\\-0.00002681,0.00002144,0.,0.0
 0000032,-0.00000392,-0.00000850,-0.00000465,0.00000325,-0.00000069,0.0
 0000251,-0.00000181,0.00000247,-0.00000095,0.00000215,-0.00000512,0.00
 000032,-0.00000392,0.00000850,-0.00000465,0.00000325,0.00000069,-0.000
 00095,0.00000215,0.00000512,0.00000251,-0.00000181,-0.00000247,-0.0000
 0455,-0.00001243,0.,-0.00000091,-0.00000247,0.00000445,-0.00000091,-0.
 00000247,-0.00000445,0.00000140,0.00000158,0.,0.00002990,-0.00000361,0
 .,0.00000741,-0.00000139,0.\\\@


 ... IT CAN BE VERY DIFFICULT, IN THESE COMPLEX TIMES,
 TO UNDERSTAND JUST HOW SCIENTISTS DO WHAT THEY DO.

                     DON MOSER IN THE FEBRUARY 1979 SMITHSONIAN
 Job cpu time:       0 days  0 hours 13 minutes 55.5 seconds.
 Elapsed time:       0 days  0 hours  0 minutes 26.2 seconds.
 File lengths (MBytes):  RWF=     25 Int=      0 D2E=      0 Chk=      2 Scr=      1
 Normal termination of Gaussian 16 at Thu Sep 14 07:25:50 2023.
