 Entering Gaussian System, Link 0=g16
 Input=/home/ubuntu/Downloads/Na2O-vol.gjf
 Output=/home/ubuntu/Downloads/Na2O-vol.log
 Initial command:
 /home/ubuntu/g16/l1.exe "/home/ubuntu/Scratch/Gau-7306.inp" -scrdir="/home/ubuntu/Scratch/"
 Entering Link 1 = /home/ubuntu/g16/l1.exe PID=      7310.
  
 Copyright (c) 1988-2017, Gaussian, Inc.  All Rights Reserved.
  
 This is part of the Gaussian(R) 16 program.  It is based on
 the Gaussian(R) 09 system (copyright 2009, Gaussian, Inc.),
 the Gaussian(R) 03 system (copyright 2003, Gaussian, Inc.),
 the Gaussian(R) 98 system (copyright 1998, Gaussian, Inc.),
 the Gaussian(R) 94 system (copyright 1995, Gaussian, Inc.),
 the Gaussian 92(TM) system (copyright 1992, Gaussian, Inc.),
 the Gaussian 90(TM) system (copyright 1990, Gaussian, Inc.),
 the Gaussian 88(TM) system (copyright 1988, Gaussian, Inc.),
 the Gaussian 86(TM) system (copyright 1986, Carnegie Mellon
 University), and the Gaussian 82(TM) system (copyright 1983,
 Carnegie Mellon University). Gaussian is a federally registered
 trademark of Gaussian, Inc.
  
 This software contains proprietary and confidential information,
 including trade secrets, belonging to Gaussian, Inc.
  
 This software is provided under written license and may be
 used, copied, transmitted, or stored only in accord with that
 written license.
  
 The following legend is applicable only to US Government
 contracts under FAR:
  
                    RESTRICTED RIGHTS LEGEND
  
 Use, reproduction and disclosure by the US Government is
 subject to restrictions as set forth in subparagraphs (a)
 and (c) of the Commercial Computer Software - Restricted
 Rights clause in FAR 52.227-19.
  
 Gaussian, Inc.
 340 Quinnipiac St., Bldg. 40, Wallingford CT 06492
  
  
 ---------------------------------------------------------------
 Warning -- This program may not be used in any manner that
 competes with the business of Gaussian, Inc. or will provide
 assistance to any competitor of Gaussian, Inc.  The licensee
 of this program is prohibited from giving any competitor of
 Gaussian, Inc. access to this program.  By using this program,
 the user acknowledges that Gaussian, Inc. is engaged in the
 business of creating and licensing software in the field of
 computational chemistry and represents and warrants to the
 licensee that it is not a competitor of Gaussian, Inc. and that
 it will not use this program in any manner prohibited above.
 ---------------------------------------------------------------
  

 Cite this work as:
 Gaussian 16, Revision B.01,
 M. J. Frisch, G. W. Trucks, H. B. Schlegel, G. E. Scuseria, 
 M. A. Robb, J. R. Cheeseman, G. Scalmani, V. Barone, 
 G. A. Petersson, H. Nakatsuji, X. Li, M. Caricato, A. V. Marenich, 
 J. Bloino, B. G. Janesko, R. Gomperts, B. Mennucci, H. P. Hratchian, 
 J. V. Ortiz, A. F. Izmaylov, J. L. Sonnenberg, D. Williams-Young, 
 F. Ding, F. Lipparini, F. Egidi, J. Goings, B. Peng, A. Petrone, 
 T. Henderson, D. Ranasinghe, V. G. Zakrzewski, J. Gao, N. Rega, 
 G. Zheng, W. Liang, M. Hada, M. Ehara, K. Toyota, R. Fukuda, 
 J. Hasegawa, M. Ishida, T. Nakajima, Y. Honda, O. Kitao, H. Nakai, 
 T. Vreven, K. Throssell, J. A. Montgomery, Jr., J. E. Peralta, 
 F. Ogliaro, M. J. Bearpark, J. J. Heyd, E. N. Brothers, K. N. Kudin, 
 V. N. Staroverov, T. A. Keith, R. Kobayashi, J. Normand, 
 K. Raghavachari, A. P. Rendell, J. C. Burant, S. S. Iyengar, 
 J. Tomasi, M. Cossi, J. M. Millam, M. Klene, C. Adamo, R. Cammi, 
 J. W. Ochterski, R. L. Martin, K. Morokuma, O. Farkas, 
 J. B. Foresman, and D. J. Fox, Gaussian, Inc., Wallingford CT, 2016.
 
 ******************************************
 Gaussian 16:  EM64L-G16RevB.01 20-Dec-2017
                14-Sep-2023 
 ******************************************
 %chk=Na2O-vol.chk
 ----------------------------------------------------------------------
 # opt freq b3lyp/gen empiricaldispersion=gd3 pseudo=read scf=maxcycle=
 1000 volume
 ----------------------------------------------------------------------
 1/18=20,19=15,26=3,38=1/1,3;
 2/9=110,12=2,17=6,18=5,40=1/2;
 3/5=7,11=2,16=1,17=8,25=1,30=1,71=1,74=-5,124=31/1,2,3;
 4//1;
 5/5=2,7=1000,38=5/2;
 6/7=2,8=2,9=2,10=2,28=1,44=1/1,4;
 7//1,2,3,16;
 1/18=20,19=15,26=3/3(2);
 2/9=110/2;
 99//99;
 2/9=110/2;
 3/5=7,6=1,11=2,16=1,17=8,25=1,30=1,71=1,74=-5,82=7,124=31/1,2,3;
 4/5=5,16=3,69=1/1;
 5/5=2,7=1000,38=5/2;
 7//1,2,3,16;
 1/18=20,19=15,26=3/3(-5);
 2/9=110/2;
 6/7=2,8=2,9=2,10=2,19=2,28=1,44=1/1,4;
 99/9=1/99;
 -------------------
 Title Card Required
 -------------------
 Symbolic Z-matrix:
 Charge =  0 Multiplicity = 1
 O                     0.        0.       -0.00068 
 Na                    0.        1.99706   0.00025 
 Na                    0.       -1.99706   0.00025 
 

 GradGradGradGradGradGradGradGradGradGradGradGradGradGradGradGradGradGrad
 Berny optimization.
 Initialization pass.
                           ----------------------------
                           !    Initial Parameters    !
                           ! (Angstroms and Degrees)  !
 --------------------------                            --------------------------
 ! Name  Definition              Value          Derivative Info.                !
 --------------------------------------------------------------------------------
 ! R1    R(1,2)                  1.9971         estimate D2E/DX2                !
 ! R2    R(1,3)                  1.9971         estimate D2E/DX2                !
 ! A1    L(2,1,3,-1,-1)        180.0534         estimate D2E/DX2                !
 ! A2    L(2,1,3,-3,-2)        180.0            estimate D2E/DX2                !
 --------------------------------------------------------------------------------
 Trust Radius=3.00D-01 FncErr=1.00D-07 GrdErr=1.00D-06 EigMax=2.50D+02 EigMin=1.00D-04
 Number of steps in this run=     20 maximum allowed number of steps=    100.
 GradGradGradGradGradGradGradGradGradGradGradGradGradGradGradGradGradGrad

                          Input orientation:                          
 ---------------------------------------------------------------------
 Center     Atomic      Atomic             Coordinates (Angstroms)
 Number     Number       Type             X           Y           Z
 ---------------------------------------------------------------------
      1          8           0        0.000000    0.000000   -0.000683
      2         11           0        0.000000    1.997058    0.000248
      3         11           0        0.000000   -1.997058    0.000248
 ---------------------------------------------------------------------
                    Distance matrix (angstroms):
                    1          2          3
     1  O    0.000000
     2  Na   1.997058   0.000000
     3  Na   1.997058   3.994116   0.000000
 This structure is nearly, but not quite of a higher symmetry.
 Consider Symm=Loose if the higher symmetry is desired.
 Stoichiometry    Na2O
 Framework group  C2V[C2(O),SGV(Na2)]
 Deg. of freedom     2
 Full point group                 C2V     NOp   4
 Largest Abelian subgroup         C2V     NOp   4
 Largest concise Abelian subgroup C2      NOp   2
                         Standard orientation:                         
 ---------------------------------------------------------------------
 Center     Atomic      Atomic             Coordinates (Angstroms)
 Number     Number       Type             X           Y           Z
 ---------------------------------------------------------------------
      1          8           0        0.000000    0.000000    0.000683
      2         11           0        0.000000    1.997058   -0.000248
      3         11           0        0.000000   -1.997058   -0.000248
 ---------------------------------------------------------------------
 Rotational constants (GHZ):    49134212.9786408           2.7559493           2.7559492
 General basis read from cards:  (5D, 7F)
 ======================================================================================================
                                       Pseudopotential Parameters
 ======================================================================================================
  Center     Atomic      Valence      Angular      Power
  Number     Number     Electrons     Momentum     of R      Exponent        Coefficient   SO-Coeffient
 ======================================================================================================
    1          8
                                   No pseudopotential on this center.
    2         11
                                   No pseudopotential on this center.
    3         11
                                   No pseudopotential on this center.
 ======================================================================================================
 There are    20 symmetry adapted cartesian basis functions of A1  symmetry.
 There are     4 symmetry adapted cartesian basis functions of A2  symmetry.
 There are     7 symmetry adapted cartesian basis functions of B1  symmetry.
 There are    14 symmetry adapted cartesian basis functions of B2  symmetry.
 There are    19 symmetry adapted basis functions of A1  symmetry.
 There are     4 symmetry adapted basis functions of A2  symmetry.
 There are     7 symmetry adapted basis functions of B1  symmetry.
 There are    14 symmetry adapted basis functions of B2  symmetry.
    44 basis functions,   124 primitive gaussians,    45 cartesian basis functions
    15 alpha electrons       15 beta electrons
       nuclear repulsion energy        62.6673838527 Hartrees.
 NAtoms=    3 NActive=    3 NUniq=    2 SFac= 2.25D+00 NAtFMM=   60 NAOKFM=F Big=F
 Integral buffers will be    131072 words long.
 Raffenetti 2 integral format.
 Two-electron integral symmetry is turned on.
 Nuclear repulsion after empirical dispersion term =       62.6657877959 Hartrees.
 One-electron integrals computed using PRISM.
   4 Symmetry operations used in ECPInt.
 ECPInt:  NShTT=      91 NPrTT=    1074 LenC2=      91 LenP2D=     824.
 LDataN:  DoStor=T MaxTD1= 4 Len=   56
 NBasis=    44 RedAO= T EigKep=  5.38D-03  NBF=    19     4     7    14
 NBsUse=    44 1.00D-06 EigRej= -1.00D+00 NBFU=    19     4     7    14
 ExpMin= 2.60D-02 ExpMax= 9.99D+03 ExpMxC= 1.50D+03 IAcc=3 IRadAn=         5 AccDes= 0.00D+00
 Harris functional with IExCor=  402 and IRadAn=       5 diagonalized for initial guess.
 HarFok:  IExCor=  402 AccDes= 0.00D+00 IRadAn=         5 IDoV= 1 UseB2=F ITyADJ=14
 ICtDFT=  3500011 ScaDFX=  1.000000  1.000000  1.000000  1.000000
 FoFCou: FMM=F IPFlag=           0 FMFlag=      100000 FMFlg1=           0
         NFxFlg=           0 DoJE=T BraDBF=F KetDBF=T FulRan=T
         wScrn=  0.000000 ICntrl=       500 IOpCl=  0 I1Cent=   200000004 NGrid=           0
         NMat0=    1 NMatS0=      1 NMatT0=    0 NMatD0=    1 NMtDS0=    0 NMtDT0=    0
 Petite list used in FoFCou.
 Initial guess orbital symmetries:
       Occupied  (B2) (A1) (A1) (B2) (A1) (A1) (B2) (B1) (A1) (A2)
                 (B2) (A1) (B2) (A1) (B1)
       Virtual   (A1) (B2) (A1) (B1) (A1) (A2) (B2) (B2) (A1) (B2)
                 (A1) (B1) (A2) (B2) (A1) (A1) (B1) (B2) (A1) (B2)
                 (B1) (A1) (A1) (B2) (A2) (B2) (A1) (B1) (A1)
 The electronic state of the initial guess is 1-A1.
 Keep R1 ints in memory in symmetry-blocked form, NReq=1362744.
 Requested convergence on RMS density matrix=1.00D-08 within1000 cycles.
 Requested convergence on MAX density matrix=1.00D-06.
 Requested convergence on             energy=1.00D-06.
 No special actions if energy rises.
 SCF Done:  E(RB3LYP) =  -399.799241095     A.U. after   12 cycles
            NFock= 12  Conv=0.58D-08     -V/T= 2.0055

 **********************************************************************

            Population analysis using the SCF Density.

 **********************************************************************

 Orbital symmetries:
       Occupied  (B2) (A1) (A1) (B2) (A1) (A1) (B1) (B2) (A2) (A1)
                 (B2) (A1) (B2) (A1) (B1)
       Virtual   (A1) (B2) (A1) (B1) (A2) (B2) (A1) (B2) (A1) (B2)
                 (A2) (B2) (A1) (B1) (A1) (B2) (B1) (A1) (A1) (B2)
                 (B1) (A1) (B2) (A1) (A2) (B2) (A1) (A1) (B1)
 The electronic state is 1-A1.
 Alpha  occ. eigenvalues --  -38.43074 -38.43029 -18.95790  -2.16965  -2.16953
 Alpha  occ. eigenvalues --   -1.10202  -1.10202  -1.10199  -1.10199  -1.09899
 Alpha  occ. eigenvalues --   -1.09796  -0.68276  -0.13962  -0.11756  -0.11756
 Alpha virt. eigenvalues --   -0.04507  -0.03140   0.02379   0.02379   0.02996
 Alpha virt. eigenvalues --    0.02996   0.04289   0.06031   0.09157   0.11509
 Alpha virt. eigenvalues --    0.17043   0.17043   0.17129   0.17129   0.24904
 Alpha virt. eigenvalues --    0.28845   0.29066   0.29066   0.48545   1.03106
 Alpha virt. eigenvalues --    1.32267   1.32267   1.63499   1.71639   1.98179
 Alpha virt. eigenvalues --    1.98179   1.98569   1.99618   1.99618
          Condensed to atoms (all electrons):
               1          2          3
     1  O    9.303541   0.106509   0.106509
     2  Na   0.106509  10.136953  -0.001742
     3  Na   0.106509  -0.001742  10.136953
 Mulliken charges:
               1
     1  O   -1.516559
     2  Na   0.758280
     3  Na   0.758280
 Sum of Mulliken charges =   0.00000
 Mulliken charges with hydrogens summed into heavy atoms:
               1
     1  O   -1.516559
     2  Na   0.758280
     3  Na   0.758280
 Electronic spatial extent (au):  <R**2>=            334.7739
 Charge=              0.0000 electrons
 Dipole moment (field-independent basis, Debye):
    X=              0.0000    Y=              0.0000    Z=             -0.0052  Tot=              0.0052
 Quadrupole moment (field-independent basis, Debye-Ang):
   XX=            -20.4148   YY=             11.9868   ZZ=            -20.4148
   XY=              0.0000   XZ=              0.0000   YZ=              0.0000
 Traceless Quadrupole moment (field-independent basis, Debye-Ang):
   XX=            -10.8005   YY=             21.6011   ZZ=            -10.8005
   XY=              0.0000   XZ=              0.0000   YZ=              0.0000
 Octapole moment (field-independent basis, Debye-Ang**2):
  XXX=              0.0000  YYY=              0.0000  ZZZ=             -0.0084  XYY=              0.0000
  XXY=              0.0000  XXZ=             -0.0028  XZZ=              0.0000  YZZ=              0.0000
  YYZ=             -0.0075  XYZ=              0.0000
 Hexadecapole moment (field-independent basis, Debye-Ang**3):
 XXXX=            -40.6029 YYYY=           -111.3456 ZZZZ=            -40.6029 XXXY=              0.0000
 XXXZ=              0.0000 YYYX=              0.0000 YYYZ=              0.0000 ZZZX=              0.0000
 ZZZY=              0.0000 XXYY=            -47.2116 XXZZ=            -13.5343 YYZZ=            -47.2116
 XXYZ=              0.0000 YYXZ=              0.0000 ZZXY=              0.0000
 N-N= 6.266578779592D+01 E-N=-1.085224602271D+03  KE= 3.976148978749D+02
 Symmetry A1   KE= 2.173037050077D+02
 Symmetry A2   KE= 1.167492732201D+01
 Symmetry B1   KE= 1.537538337074D+01
 Symmetry B2   KE= 1.532608821745D+02
 Evaluate density.
 Using the total density.
 Monte-Carlo method of calculating molar volume:
 based on  0.001 e/bohr**3 density envelope.
 Number of points per bohr**3 =   20 CutOff= 1.00D-04
 Using the SCF density.
 There are       587 points.  Will hold       587 in memory.
 LenV=   104826812 MDV=   104857600.
 Box volume =25406.689 fraction occupied=0.015
 Integrated density= 2.7412351798418847D+01 error=-2.5876482015811533D+00
 Molar volume =  389.540 bohr**3/mol ( 34.762 cm**3/mol)
 Recommended a0 for SCRF calculation =  3.14 angstrom (  5.93 bohr)
   4 Symmetry operations used in ECPInt.
 ECPInt:  NShTT=      91 NPrTT=    1074 LenC2=      91 LenP2D=     824.
 LDataN:  DoStor=T MaxTD1= 5 Len=  102
 Calling FoFJK, ICntrl=      2127 FMM=F ISym2X=1 I1Cent= 0 IOpClX= 0 NMat=1 NMatS=1 NMatT=0.
 ***** Axes restored to original set *****
 -------------------------------------------------------------------
 Center     Atomic                   Forces (Hartrees/Bohr)
 Number     Number              X              Y              Z
 -------------------------------------------------------------------
      1        8           0.000000000    0.000000000    0.000003280
      2       11           0.000000000   -0.000222140   -0.000001640
      3       11           0.000000000    0.000222140   -0.000001640
 -------------------------------------------------------------------
 Cartesian Forces:  Max     0.000222140 RMS     0.000104726

 GradGradGradGradGradGradGradGradGradGradGradGradGradGradGradGradGradGrad
 Berny optimization.
 FormGI is forming the generalized inverse of G from B-inverse, IUseBI=4.
 Internal  Forces:  Max     0.000222143 RMS     0.000157079
 Search for a local minimum.
 Step number   1 out of a maximum of   20
 All quantities printed in internal units (Hartrees-Bohrs-Radians)
 Mixed Optimization -- En-DIIS/RFO-DIIS
 Second derivative matrix not updated -- first step.
 The second derivative matrix:
                          R1        R2        A1        A2
           R1           0.15185
           R2           0.00000   0.15185
           A1           0.00000   0.00000   0.03454
           A2           0.00000   0.00000   0.00000   0.03454
 ITU=  0
     Eigenvalues ---    0.03454   0.15185   0.15185
 RFO step:  Lambda=-6.49964257D-07 EMin= 3.45358016D-02
 Linear search not attempted -- first point.
 Iteration  1 RMS(Cart)=  0.00103445 RMS(Int)=  0.00000000
 Iteration  2 RMS(Cart)=  0.00000000 RMS(Int)=  0.00000001
 ClnCor:  largest displacement from symmetrization is 4.00D-15 for atom     3.
 Variable       Old X    -DE/DX   Delta X   Delta X   Delta X     New X
                                 (Linear)    (Quad)   (Total)
    R1        3.77389  -0.00022   0.00000  -0.00146  -0.00146   3.77243
    R2        3.77389  -0.00022   0.00000  -0.00146  -0.00146   3.77243
    A1        3.14253   0.00000   0.00000   0.00000   0.00000   3.14252
    A2        3.14159   0.00000   0.00000   0.00000   0.00000   3.14159
         Item               Value     Threshold  Converged?
 Maximum Force            0.000222     0.000450     YES
 RMS     Force            0.000157     0.000300     YES
 Maximum Displacement     0.001463     0.001800     YES
 RMS     Displacement     0.001034     0.001200     YES
 Predicted change in Energy=-3.249821D-07
 Optimization completed.
    -- Stationary point found.
                           ----------------------------
                           !   Optimized Parameters   !
                           ! (Angstroms and Degrees)  !
 --------------------------                            --------------------------
 ! Name  Definition              Value          Derivative Info.                !
 --------------------------------------------------------------------------------
 ! R1    R(1,2)                  1.9971         -DE/DX =   -0.0002              !
 ! R2    R(1,3)                  1.9971         -DE/DX =   -0.0002              !
 ! A1    L(2,1,3,-1,-1)        180.0534         -DE/DX =    0.0                 !
 ! A2    L(2,1,3,-3,-2)        180.0            -DE/DX =    0.0                 !
 --------------------------------------------------------------------------------
 GradGradGradGradGradGradGradGradGradGradGradGradGradGradGradGradGradGrad

                          Input orientation:                          
 ---------------------------------------------------------------------
 Center     Atomic      Atomic             Coordinates (Angstroms)
 Number     Number       Type             X           Y           Z
 ---------------------------------------------------------------------
      1          8           0        0.000000    0.000000   -0.000683
      2         11           0        0.000000    1.997058    0.000248
      3         11           0        0.000000   -1.997058    0.000248
 ---------------------------------------------------------------------
                    Distance matrix (angstroms):
                    1          2          3
     1  O    0.000000
     2  Na   1.997058   0.000000
     3  Na   1.997058   3.994116   0.000000
 Stoichiometry    Na2O
 Framework group  C2V[C2(O),SGV(Na2)]
 Deg. of freedom     2
 Full point group                 C2V     NOp   4
 Largest Abelian subgroup         C2V     NOp   4
 Largest concise Abelian subgroup C2      NOp   2
                         Standard orientation:                         
 ---------------------------------------------------------------------
 Center     Atomic      Atomic             Coordinates (Angstroms)
 Number     Number       Type             X           Y           Z
 ---------------------------------------------------------------------
      1          8           0        0.000000    0.000000    0.000683
      2         11           0        0.000000    1.997058   -0.000248
      3         11           0        0.000000   -1.997058   -0.000248
 ---------------------------------------------------------------------
 Rotational constants (GHZ):    49134212.9786408           2.7559493           2.7559492
 1\1\GINC-IP-172-31-36-226\FOpt\RB3LYP\Gen\Na2O1\UBUNTU\14-Sep-2023\0\\
 # opt freq b3lyp/gen empiricaldispersion=gd3 pseudo=read scf=maxcycle=
 1000 volume\\Title Card Required\\0,1\O,0.,0.,-0.000683\Na,0.,1.997058
 ,0.000248\Na,0.,-1.997058,0.000248\\Version=EM64L-G16RevB.01\State=1-A
 1\HF=-399.7992411\RMSD=5.787e-09\RMSF=1.047e-04\Dipole=0.,0.,0.0020562
 \Quadrupole=-8.0299375,16.0598765,-8.029939,0.,0.,0.\PG=C02V [C2(O1),S
 GV(Na2)]\\@


 UNDER MOST GREENE GRASSE LY MOST GREATE SNAKES.
 -- PROVERBS AND REASONS OF THE YEAR 1585
           AS REPRINTED IN PAISLEY MAGAZINE 1828.
 Job cpu time:       0 days  0 hours  0 minutes  1.6 seconds.
 Elapsed time:       0 days  0 hours  0 minutes  1.6 seconds.
 File lengths (MBytes):  RWF=      6 Int=      0 D2E=      0 Chk=      1 Scr=      1
 Normal termination of Gaussian 16 at Thu Sep 14 07:14:38 2023.
 Link1:  Proceeding to internal job step number  2.
 ------------------------------------------------------------------
 #N Geom=AllCheck Guess=TCheck SCRF=Check GenChk RB3LYP/ChkBas Freq
 ------------------------------------------------------------------
 1/10=4,29=7,30=1,38=1,40=1/1,3;
 2/12=2,40=1/2;
 3/5=7,6=2,11=2,14=-4,16=1,17=8,25=1,30=1,67=1,70=2,71=2,74=-5,82=7,116=1,124=31,140=1/1,2,3;
 4/5=101/1;
 5/5=2,7=1000,38=6,98=1/2;
 8/6=4,10=90,11=11/1;
 11/6=1,8=1,9=11,15=111,16=1/1,2,10;
 10/6=1/2;
 6/7=2,8=2,9=2,10=2,28=1/1;
 7/8=1,10=1,25=1/1,2,3,16;
 1/10=4,30=1/3;
 99//99;
 Structure from the checkpoint file:  "Na2O-vol.chk"
 -------------------
 Title Card Required
 -------------------
 Charge =  0 Multiplicity = 1
 Redundant internal coordinates found in file.  (old form).
 O,0,0.,0.,-0.000683
 Na,0,0.,1.997058,0.000248
 Na,0,0.,-1.997058,0.000248
 Recover connectivity data from disk.

 GradGradGradGradGradGradGradGradGradGradGradGradGradGradGradGradGradGrad
 Berny optimization.
 Initialization pass.
                           ----------------------------
                           !    Initial Parameters    !
                           ! (Angstroms and Degrees)  !
 --------------------------                            --------------------------
 ! Name  Definition              Value          Derivative Info.                !
 --------------------------------------------------------------------------------
 ! R1    R(1,2)                  1.9971         calculate D2E/DX2 analytically  !
 ! R2    R(1,3)                  1.9971         calculate D2E/DX2 analytically  !
 ! A1    L(2,1,3,-1,-1)        180.0534         calculate D2E/DX2 analytically  !
 ! A2    L(2,1,3,-3,-2)        180.0            calculate D2E/DX2 analytically  !
 --------------------------------------------------------------------------------
 Trust Radius=3.00D-01 FncErr=1.00D-07 GrdErr=1.00D-07 EigMax=2.50D+02 EigMin=1.00D-04
 Number of steps in this run=      2 maximum allowed number of steps=      2.
 GradGradGradGradGradGradGradGradGradGradGradGradGradGradGradGradGradGrad

                          Input orientation:                          
 ---------------------------------------------------------------------
 Center     Atomic      Atomic             Coordinates (Angstroms)
 Number     Number       Type             X           Y           Z
 ---------------------------------------------------------------------
      1          8           0        0.000000    0.000000   -0.000683
      2         11           0        0.000000    1.997058    0.000248
      3         11           0        0.000000   -1.997058    0.000248
 ---------------------------------------------------------------------
                    Distance matrix (angstroms):
                    1          2          3
     1  O    0.000000
     2  Na   1.997058   0.000000
     3  Na   1.997058   3.994116   0.000000
 Stoichiometry    Na2O
 Framework group  C2V[C2(O),SGV(Na2)]
 Deg. of freedom     2
 Full point group                 C2V     NOp   4
 Largest Abelian subgroup         C2V     NOp   4
 Largest concise Abelian subgroup C2      NOp   2
                         Standard orientation:                         
 ---------------------------------------------------------------------
 Center     Atomic      Atomic             Coordinates (Angstroms)
 Number     Number       Type             X           Y           Z
 ---------------------------------------------------------------------
      1          8           0        0.000000    0.000000    0.000683
      2         11           0        0.000000    1.997058   -0.000248
      3         11           0        0.000000   -1.997058   -0.000248
 ---------------------------------------------------------------------
 Rotational constants (GHZ):    49134212.9786408           2.7559493           2.7559492
 Basis read from chk: "Na2O-vol.chk" (5D, 7F)
 Pseudo-potential data read from chk file.
 There are    20 symmetry adapted cartesian basis functions of A1  symmetry.
 There are     4 symmetry adapted cartesian basis functions of A2  symmetry.
 There are     7 symmetry adapted cartesian basis functions of B1  symmetry.
 There are    14 symmetry adapted cartesian basis functions of B2  symmetry.
 There are    19 symmetry adapted basis functions of A1  symmetry.
 There are     4 symmetry adapted basis functions of A2  symmetry.
 There are     7 symmetry adapted basis functions of B1  symmetry.
 There are    14 symmetry adapted basis functions of B2  symmetry.
    44 basis functions,   124 primitive gaussians,    45 cartesian basis functions
    15 alpha electrons       15 beta electrons
       nuclear repulsion energy        62.6673838527 Hartrees.
 NAtoms=    3 NActive=    3 NUniq=    2 SFac= 2.25D+00 NAtFMM=   60 NAOKFM=F Big=F
 Integral buffers will be    131072 words long.
 Raffenetti 2 integral format.
 Two-electron integral symmetry is turned on.
 Nuclear repulsion after empirical dispersion term =       62.6657877959 Hartrees.
 One-electron integrals computed using PRISM.
   4 Symmetry operations used in ECPInt.
 ECPInt:  NShTT=      91 NPrTT=    1074 LenC2=      91 LenP2D=     824.
 LDataN:  DoStor=T MaxTD1= 4 Len=   56
 NBasis=    44 RedAO= T EigKep=  5.38D-03  NBF=    19     4     7    14
 NBsUse=    44 1.00D-06 EigRej= -1.00D+00 NBFU=    19     4     7    14
 Initial guess from the checkpoint file:  "Na2O-vol.chk"
 B after Tr=     0.000000    0.000000    0.000000
         Rot=    1.000000    0.000000    0.000000    0.000000 Ang=   0.00 deg.
 Initial guess orbital symmetries:
       Occupied  (B2) (A1) (A1) (B2) (A1) (A1) (B1) (B2) (A2) (A1)
                 (B2) (A1) (B2) (A1) (B1)
       Virtual   (A1) (B2) (A1) (B1) (A2) (B2) (A1) (B2) (A1) (B2)
                 (A2) (B2) (A1) (B1) (A1) (B2) (B1) (A1) (A1) (B2)
                 (B1) (A1) (B2) (A1) (A2) (B2) (A1) (A1) (B1)
 Keep R1 ints in memory in symmetry-blocked form, NReq=1362744.
 Requested convergence on RMS density matrix=1.00D-08 within1000 cycles.
 Requested convergence on MAX density matrix=1.00D-06.
 Requested convergence on             energy=1.00D-06.
 No special actions if energy rises.
 SCF Done:  E(RB3LYP) =  -399.799241095     A.U. after    1 cycles
            NFock=  1  Conv=0.85D-09     -V/T= 2.0055
 DoSCS=F DFT=T ScalE2(SS,OS)=  1.000000  1.000000
 Range of M.O.s used for correlation:     1    44
 NBasis=    44 NAE=    15 NBE=    15 NFC=     0 NFV=     0
 NROrb=     44 NOA=    15 NOB=    15 NVA=    29 NVB=    29

 **** Warning!!: The smallest alpha delta epsilon is  0.72480684D-01

   4 Symmetry operations used in ECPInt.
 ECPInt:  NShTT=      91 NPrTT=    1074 LenC2=      91 LenP2D=     824.
 LDataN:  DoStor=T MaxTD1= 5 Len=  102
 Symmetrizing basis deriv contribution to polar:
 IMax=3 JMax=2 DiffMx= 0.00D+00
 G2DrvN: will do     4 centers at a time, making    1 passes.
 Calling FoFCou, ICntrl=  3107 FMM=F I1Cent=   0 AccDes= 0.00D+00.
 End of G2Drv F.D. properties file   721 does not exist.
 End of G2Drv F.D. properties file   722 does not exist.
 End of G2Drv F.D. properties file   788 does not exist.
          IDoAtm=111
          Differentiating once with respect to electric field.
                with respect to dipole field.
          Differentiating once with respect to nuclear coordinates.
 Keep R1 ints in memory in symmetry-blocked form, NReq=1362184.
          There are     9 degrees of freedom in the 1st order CPHF.  IDoFFX=4 NUNeed=     9.
      9 vectors produced by pass  0 Test12= 4.83D-15 1.11D-08 XBig12= 3.94D+02 1.81D+01.
 AX will form     9 AO Fock derivatives at one time.
      9 vectors produced by pass  1 Test12= 4.83D-15 1.11D-08 XBig12= 6.10D+00 1.17D+00.
      9 vectors produced by pass  2 Test12= 4.83D-15 1.11D-08 XBig12= 4.28D-02 9.29D-02.
      9 vectors produced by pass  3 Test12= 4.83D-15 1.11D-08 XBig12= 9.61D-04 1.54D-02.
      9 vectors produced by pass  4 Test12= 4.83D-15 1.11D-08 XBig12= 4.07D-06 8.60D-04.
      9 vectors produced by pass  5 Test12= 4.83D-15 1.11D-08 XBig12= 1.95D-09 1.87D-05.
      4 vectors produced by pass  6 Test12= 4.83D-15 1.11D-08 XBig12= 6.92D-12 1.10D-06.
      2 vectors produced by pass  7 Test12= 4.83D-15 1.11D-08 XBig12= 1.56D-14 4.34D-08.
 InvSVY:  IOpt=1 It=  1 EMax= 4.04D-16
 Solved reduced A of dimension    60 with     9 vectors.
 Isotropic polarizability for W=    0.000000       99.78 Bohr**3.
 End of Minotr F.D. properties file   721 does not exist.
 End of Minotr F.D. properties file   722 does not exist.
 End of Minotr F.D. properties file   788 does not exist.

 **********************************************************************

            Population analysis using the SCF Density.

 **********************************************************************

 Orbital symmetries:
       Occupied  (B2) (A1) (A1) (B2) (A1) (A1) (B1) (B2) (A2) (A1)
                 (B2) (A1) (B2) (A1) (B1)
       Virtual   (A1) (B2) (A1) (B1) (A2) (B2) (A1) (B2) (A1) (B2)
                 (A2) (B2) (A1) (B1) (A1) (B2) (B1) (A1) (A1) (B2)
                 (B1) (A1) (B2) (A1) (A2) (B2) (A1) (A1) (B1)
 The electronic state is 1-A1.
 Alpha  occ. eigenvalues --  -38.43074 -38.43029 -18.95790  -2.16965  -2.16953
 Alpha  occ. eigenvalues --   -1.10202  -1.10202  -1.10199  -1.10199  -1.09899
 Alpha  occ. eigenvalues --   -1.09796  -0.68276  -0.13962  -0.11756  -0.11756
 Alpha virt. eigenvalues --   -0.04507  -0.03140   0.02379   0.02379   0.02996
 Alpha virt. eigenvalues --    0.02996   0.04289   0.06031   0.09157   0.11509
 Alpha virt. eigenvalues --    0.17043   0.17043   0.17129   0.17129   0.24904
 Alpha virt. eigenvalues --    0.28845   0.29066   0.29066   0.48545   1.03106
 Alpha virt. eigenvalues --    1.32267   1.32267   1.63499   1.71639   1.98179
 Alpha virt. eigenvalues --    1.98179   1.98569   1.99618   1.99618
          Condensed to atoms (all electrons):
               1          2          3
     1  O    9.303541   0.106509   0.106509
     2  Na   0.106509  10.136953  -0.001742
     3  Na   0.106509  -0.001742  10.136953
 Mulliken charges:
               1
     1  O   -1.516559
     2  Na   0.758280
     3  Na   0.758280
 Sum of Mulliken charges =   0.00000
 Mulliken charges with hydrogens summed into heavy atoms:
               1
     1  O   -1.516559
     2  Na   0.758280
     3  Na   0.758280
 APT charges:
               1
     1  O   -1.106912
     2  Na   0.553456
     3  Na   0.553456
 Sum of APT charges =   0.00000
 APT charges with hydrogens summed into heavy atoms:
               1
     1  O   -1.106912
     2  Na   0.553456
     3  Na   0.553456
 Electronic spatial extent (au):  <R**2>=            334.7739
 Charge=              0.0000 electrons
 Dipole moment (field-independent basis, Debye):
    X=              0.0000    Y=              0.0000    Z=             -0.0052  Tot=              0.0052
 Quadrupole moment (field-independent basis, Debye-Ang):
   XX=            -20.4148   YY=             11.9868   ZZ=            -20.4148
   XY=              0.0000   XZ=              0.0000   YZ=              0.0000
 Traceless Quadrupole moment (field-independent basis, Debye-Ang):
   XX=            -10.8005   YY=             21.6011   ZZ=            -10.8005
   XY=              0.0000   XZ=              0.0000   YZ=              0.0000
 Octapole moment (field-independent basis, Debye-Ang**2):
  XXX=              0.0000  YYY=              0.0000  ZZZ=             -0.0084  XYY=              0.0000
  XXY=              0.0000  XXZ=             -0.0028  XZZ=              0.0000  YZZ=              0.0000
  YYZ=             -0.0075  XYZ=              0.0000
 Hexadecapole moment (field-independent basis, Debye-Ang**3):
 XXXX=            -40.6029 YYYY=           -111.3456 ZZZZ=            -40.6029 XXXY=              0.0000
 XXXZ=              0.0000 YYYX=              0.0000 YYYZ=              0.0000 ZZZX=              0.0000
 ZZZY=              0.0000 XXYY=            -47.2116 XXZZ=            -13.5343 YYZZ=            -47.2116
 XXYZ=              0.0000 YYXZ=              0.0000 ZZXY=              0.0000
 N-N= 6.266578779592D+01 E-N=-1.085224601317D+03  KE= 3.976148975731D+02
 Symmetry A1   KE= 2.173037048959D+02
 Symmetry A2   KE= 1.167492732193D+01
 Symmetry B1   KE= 1.537538329739D+01
 Symmetry B2   KE= 1.532608820579D+02
  Exact polarizability:  65.146   0.000 169.037   0.000   0.000  65.146
 Approx polarizability:  53.339   0.000 171.826   0.000   0.000  53.339
   4 Symmetry operations used in ECPInt.
 ECPInt:  NShTT=      91 NPrTT=    1074 LenC2=      91 LenP2D=     824.
 LDataN:  DoStor=T MaxTD1= 6 Len=  172
 Calling FoFJK, ICntrl=    100127 FMM=F ISym2X=1 I1Cent= 0 IOpClX= 0 NMat=1 NMatS=1 NMatT=0.
 Full mass-weighted force constant matrix:
 Low frequencies ---   -3.9204   -3.9188   -0.0039   -0.0035   -0.0029   64.4306
 Low frequencies ---   64.4310  351.9770  676.2848
 Diagonal vibrational polarizability:
        0.0000000       4.6737866     727.4089480
 Harmonic frequencies (cm**-1), IR intensities (KM/Mole), Raman scattering
 activities (A**4/AMU), depolarization ratios for plane and unpolarized
 incident light, reduced masses (AMU), force constants (mDyne/A),
 and normal coordinates:
                      1                      2                      3
                     A1                     A1                     B2
 Frequencies --     64.4310               351.9770               676.2848
 Red. masses --     17.3580                22.9898                17.3580
 Frc consts  --      0.0425                 1.6781                 4.6774
 IR Inten    --    112.2108                 0.0000                79.4319
  Atom  AN      X      Y      Z        X      Y      Z        X      Y      Z
     1   8     0.00   0.00   0.90     0.00   0.00   0.00     0.00   0.90   0.00
     2  11     0.00   0.00  -0.31     0.00   0.71   0.00     0.00  -0.31   0.00
     3  11     0.00   0.00  -0.31     0.00  -0.71   0.00     0.00  -0.31   0.00

 -------------------
 - Thermochemistry -
 -------------------
 Temperature   298.150 Kelvin.  Pressure   1.00000 Atm.
 Atom     1 has atomic number  8 and mass  15.99491
 Atom     2 has atomic number 11 and mass  22.98977
 Atom     3 has atomic number 11 and mass  22.98977
 Molecular mass:    61.97445 amu.
 Principal axes and moments of inertia in atomic units:
                           1         2         3
     Eigenvalues --     0.00004 654.85283 654.85286
           X            0.00000   0.00000   1.00000
           Y            1.00000   0.00000   0.00000
           Z            0.00000   1.00000   0.00000
 This molecule is an asymmetric top.
 Rotational symmetry number  2.
 Rotational temperatures (Kelvin) ************     0.13226     0.13226
 Rotational constants (GHZ):      ************     2.75595     2.75595
 Zero-point vibrational energy       6535.8 (Joules/Mol)
                                    1.56208 (Kcal/Mol)
 Warning -- explicit consideration of   2 degrees of freedom as
           vibrations may cause significant error
 Vibrational temperatures:     92.70   506.42   973.02
          (Kelvin)
 
 Zero-point correction=                           0.002489 (Hartree/Particle)
 Thermal correction to Energy=                    0.006609
 Thermal correction to Enthalpy=                  0.007553
 Thermal correction to Gibbs Free Energy=        -0.017756
 Sum of electronic and zero-point Energies=           -399.796752
 Sum of electronic and thermal Energies=              -399.792633
 Sum of electronic and thermal Enthalpies=            -399.791688
 Sum of electronic and thermal Free Energies=         -399.816997
 
                     E (Thermal)             CV                S
                      KCal/Mol        Cal/Mol-Kelvin    Cal/Mol-Kelvin
 Total                    4.147             10.379             53.266
 Electronic               0.000              0.000              0.000
 Translational            0.889              2.981             38.292
 Rotational               0.889              2.981              9.165
 Vibrational              2.369              4.418              5.809
 Vibration     1          0.597              1.971              4.317
 Vibration     2          0.729              1.571              1.157
                       Q            Log10(Q)             Ln(Q)
 Total Bot       0.146906D+09          8.167040         18.805304
 Total V=0       0.205142D+10          9.312054         21.441798
 Vib (Bot)       0.341030D+00         -0.467208         -1.075786
 Vib (Bot)    1  0.320331D+01          0.505599          1.164184
 Vib (Bot)    2  0.523506D+00         -0.281078         -0.647206
 Vib (V=0)       0.476219D+01          0.677807          1.560708
 Vib (V=0)    1  0.374210D+01          0.573115          1.319646
 Vib (V=0)    2  0.122392D+01          0.087753          0.202058
 Electronic      0.100000D+01          0.000000          0.000000
 Translational   0.191767D+08          7.282773         16.769204
 Rotational      0.224634D+02          1.351475          3.111886
 ***** Axes restored to original set *****
 -------------------------------------------------------------------
 Center     Atomic                   Forces (Hartrees/Bohr)
 Number     Number              X              Y              Z
 -------------------------------------------------------------------
      1        8           0.000000000    0.000000000    0.000003280
      2       11           0.000000000   -0.000222134   -0.000001640
      3       11           0.000000000    0.000222134   -0.000001640
 -------------------------------------------------------------------
 Cartesian Forces:  Max     0.000222134 RMS     0.000104724
 FormGI is forming the generalized inverse of G from B-inverse, IUseBI=4.

 GradGradGradGradGradGradGradGradGradGradGradGradGradGradGradGradGradGrad
 Berny optimization.
 Internal  Forces:  Max     0.000222137 RMS     0.000157075
 Search for a local minimum.
 Step number   1 out of a maximum of    2
 All quantities printed in internal units (Hartrees-Bohrs-Radians)
 Second derivative matrix not updated -- analytic derivatives used.
 The second derivative matrix:
                          R1        R2        A1        A2
           R1           0.10524
           R2           0.00254   0.10524
           A1           0.00005   0.00005   0.00000
           A2           0.00000   0.00000   0.00000   0.00622
 ITU=  0
     Eigenvalues ---    0.00622   0.10270   0.10778
 Angle between quadratic step and forces=   0.00 degrees.
 Linear search not attempted -- first point.
 Iteration  1 RMS(Cart)=  0.00145731 RMS(Int)=  0.00000000
 Iteration  2 RMS(Cart)=  0.00000000 RMS(Int)=  0.00000000
 ClnCor:  largest displacement from symmetrization is 4.91D-15 for atom     1.
 Variable       Old X    -DE/DX   Delta X   Delta X   Delta X     New X
                                 (Linear)    (Quad)   (Total)
    R1        3.77389  -0.00022   0.00000  -0.00206  -0.00206   3.77183
    R2        3.77389  -0.00022   0.00000  -0.00206  -0.00206   3.77183
    A1        3.14253   0.00000   0.00000   0.00000   0.00000   3.14252
    A2        3.14159   0.00000   0.00000   0.00000   0.00000   3.14159
         Item               Value     Threshold  Converged?
 Maximum Force            0.000222     0.000450     YES
 RMS     Force            0.000157     0.000300     YES
 Maximum Displacement     0.002061     0.001800     NO 
 RMS     Displacement     0.001457     0.001200     NO 
 Predicted change in Energy=-4.578144D-07
                           ----------------------------
                           ! Non-Optimized Parameters !
                           ! (Angstroms and Degrees)  !
 --------------------------                            --------------------------
 ! Name  Definition              Value          Derivative Info.                !
 --------------------------------------------------------------------------------
 ! R1    R(1,2)                  1.996          -DE/DX =   -0.0002              !
 ! R2    R(1,3)                  1.996          -DE/DX =   -0.0002              !
 ! A1    L(2,1,3,-1,-1)        180.0533         -DE/DX =    0.0                 !
 ! A2    L(2,1,3,-3,-2)        180.0            -DE/DX =    0.0                 !
 --------------------------------------------------------------------------------
 GradGradGradGradGradGradGradGradGradGradGradGradGradGradGradGradGradGrad


 ----------------------------------------------------------------------

 Electric dipole moment (input orientation):
 (Debye = 10**-18 statcoulomb cm , SI units = C m)
                  (au)            (Debye)         (10**-30 SI)
   Tot        0.205626D-02      0.522648D-02      0.174337D-01
   x          0.000000D+00      0.000000D+00      0.000000D+00
   y          0.000000D+00      0.000000D+00      0.000000D+00
   z          0.205626D-02      0.522648D-02      0.174337D-01

 Dipole polarizability, Alpha (input orientation).
 (esu units = cm**3 , SI units = C**2 m**2 J**-1)
 Alpha(0;0):
               (au)            (10**-24 esu)      (10**-40 SI)
   iso        0.997765D+02      0.147853D+02      0.164509D+02
   aniso      0.103890D+03      0.153949D+02      0.171292D+02
   xx         0.651464D+02      0.965370D+01      0.107412D+02
   yx         0.000000D+00      0.000000D+00      0.000000D+00
   yy         0.169037D+03      0.250486D+02      0.278704D+02
   zx         0.000000D+00      0.000000D+00      0.000000D+00
   zy         0.000000D+00      0.000000D+00      0.000000D+00
   zz         0.651464D+02      0.965370D+01      0.107412D+02

 ----------------------------------------------------------------------

 Dipole orientation:
     8          0.00000000          0.00000000         -0.00129068
    11          0.00000000          3.77389267          0.00046865
    11          0.00000000         -3.77389267          0.00046865

 Electric dipole moment (dipole orientation):
 (Debye = 10**-18 statcoulomb cm , SI units = C m)
                  (au)            (Debye)         (10**-30 SI)
   Tot        0.205626D-02      0.522648D-02      0.174337D-01
   x          0.000000D+00      0.000000D+00      0.000000D+00
   y          0.000000D+00      0.000000D+00      0.000000D+00
   z          0.205626D-02      0.522648D-02      0.174337D-01

 Dipole polarizability, Alpha (dipole orientation).
 (esu units = cm**3 , SI units = C**2 m**2 J**-1)
 Alpha(0;0):
               (au)            (10**-24 esu)      (10**-40 SI)
   iso        0.997765D+02      0.147853D+02      0.164509D+02
   aniso      0.103890D+03      0.153949D+02      0.171292D+02
   xx         0.651464D+02      0.965370D+01      0.107412D+02
   yx         0.000000D+00      0.000000D+00      0.000000D+00
   yy         0.169037D+03      0.250486D+02      0.278704D+02
   zx         0.000000D+00      0.000000D+00      0.000000D+00
   zy         0.000000D+00      0.000000D+00      0.000000D+00
   zz         0.651464D+02      0.965370D+01      0.107412D+02

 ----------------------------------------------------------------------
 1\1\GINC-IP-172-31-36-226\Freq\RB3LYP\Gen\Na2O1\UBUNTU\14-Sep-2023\0\\
 #N Geom=AllCheck Guess=TCheck SCRF=Check GenChk RB3LYP/ChkBas Freq\\Ti
 tle Card Required\\0,1\O,0.,0.,-0.000683\Na,0.,1.997058,0.000248\Na,0.
 ,-1.997058,0.000248\\Version=EM64L-G16RevB.01\State=1-A1\HF=-399.79924
 11\RMSD=8.496e-10\RMSF=1.047e-04\ZeroPoint=0.0024893\Thermal=0.0066086
 \Dipole=0.,0.,0.0020563\DipoleDeriv=-1.1687154,0.,0.,0.,-0.9833063,0.,
 0.,0.,-1.1687151,0.5843577,0.,0.,0.,0.4916531,-0.0003909,0.,-0.0000437
 ,0.5843576,0.5843577,0.,0.,0.,0.4916531,0.0003909,0.,0.0000437,0.58435
 76\Polar=65.1464165,0.,169.0365565,0.,0.,65.1464244\Quadrupole=-8.0299
 371,16.0598758,-8.0299387,0.,0.,0.\PG=C02V [C2(O1),SGV(Na2)]\NImag=0\\
 0.00186427,0.,0.20539248,0.,0.,0.00186433,-0.00093214,0.,0.,0.00045938
 ,0.,-0.10269624,-0.00004331,0.,0.10524011,0.,-0.00004716,-0.00093217,0
 .,0.00004524,0.00045941,-0.00093214,0.,0.,0.00047275,0.,0.,0.00045938,
 0.,-0.10269624,0.00004331,0.,-0.00254387,0.00000192,0.,0.10524011,0.,0
 .00004716,-0.00093217,0.,-0.00000192,0.00047275,0.,-0.00004524,0.00045
 941\\0.,0.,-0.00000328,0.,0.00022213,0.00000164,0.,-0.00022213,0.00000
 164\\\@


 LAWS OF PROGRAMMING DEFINITION:  A WORKING PROGRAM
                                  IS ONE THAT HAS
                                  ONLY UNOBSERVED
                                  BUGS.
 Job cpu time:       0 days  0 hours  0 minutes  4.5 seconds.
 Elapsed time:       0 days  0 hours  0 minutes  4.4 seconds.
 File lengths (MBytes):  RWF=      6 Int=      0 D2E=      0 Chk=      1 Scr=      1
 Normal termination of Gaussian 16 at Thu Sep 14 07:14:43 2023.
