 Entering Gaussian System, Link 0=/home/ubuntu/g16/g16
 Input=/home/ubuntu/ML substrates/MOLECULE_25.gjf
 Output=/home/ubuntu/ML substrates/MOLECULE_25.log
 Initial command:
 /home/ubuntu/g16/l1.exe "/home/ubuntu/Scratch/Gau-18484.inp" -scrdir="/home/ubuntu/Scratch/"
 Entering Link 1 = /home/ubuntu/g16/l1.exe PID=     18486.
  
 Copyright (c) 1988-2017, Gaussian, Inc.  All Rights Reserved.
  
 This is part of the Gaussian(R) 16 program.  It is based on
 the Gaussian(R) 09 system (copyright 2009, Gaussian, Inc.),
 the Gaussian(R) 03 system (copyright 2003, Gaussian, Inc.),
 the Gaussian(R) 98 system (copyright 1998, Gaussian, Inc.),
 the Gaussian(R) 94 system (copyright 1995, Gaussian, Inc.),
 the Gaussian 92(TM) system (copyright 1992, Gaussian, Inc.),
 the Gaussian 90(TM) system (copyright 1990, Gaussian, Inc.),
 the Gaussian 88(TM) system (copyright 1988, Gaussian, Inc.),
 the Gaussian 86(TM) system (copyright 1986, Carnegie Mellon
 University), and the Gaussian 82(TM) system (copyright 1983,
 Carnegie Mellon University). Gaussian is a federally registered
 trademark of Gaussian, Inc.
  
 This software contains proprietary and confidential information,
 including trade secrets, belonging to Gaussian, Inc.
  
 This software is provided under written license and may be
 used, copied, transmitted, or stored only in accord with that
 written license.
  
 The following legend is applicable only to US Government
 contracts under FAR:
  
                    RESTRICTED RIGHTS LEGEND
  
 Use, reproduction and disclosure by the US Government is
 subject to restrictions as set forth in subparagraphs (a)
 and (c) of the Commercial Computer Software - Restricted
 Rights clause in FAR 52.227-19.
  
 Gaussian, Inc.
 340 Quinnipiac St., Bldg. 40, Wallingford CT 06492
  
  
 ---------------------------------------------------------------
 Warning -- This program may not be used in any manner that
 competes with the business of Gaussian, Inc. or will provide
 assistance to any competitor of Gaussian, Inc.  The licensee
 of this program is prohibited from giving any competitor of
 Gaussian, Inc. access to this program.  By using this program,
 the user acknowledges that Gaussian, Inc. is engaged in the
 business of creating and licensing software in the field of
 computational chemistry and represents and warrants to the
 licensee that it is not a competitor of Gaussian, Inc. and that
 it will not use this program in any manner prohibited above.
 ---------------------------------------------------------------
  

 Cite this work as:
 Gaussian 16, Revision B.01,
 M. J. Frisch, G. W. Trucks, H. B. Schlegel, G. E. Scuseria, 
 M. A. Robb, J. R. Cheeseman, G. Scalmani, V. Barone, 
 G. A. Petersson, H. Nakatsuji, X. Li, M. Caricato, A. V. Marenich, 
 J. Bloino, B. G. Janesko, R. Gomperts, B. Mennucci, H. P. Hratchian, 
 J. V. Ortiz, A. F. Izmaylov, J. L. Sonnenberg, D. Williams-Young, 
 F. Ding, F. Lipparini, F. Egidi, J. Goings, B. Peng, A. Petrone, 
 T. Henderson, D. Ranasinghe, V. G. Zakrzewski, J. Gao, N. Rega, 
 G. Zheng, W. Liang, M. Hada, M. Ehara, K. Toyota, R. Fukuda, 
 J. Hasegawa, M. Ishida, T. Nakajima, Y. Honda, O. Kitao, H. Nakai, 
 T. Vreven, K. Throssell, J. A. Montgomery, Jr., J. E. Peralta, 
 F. Ogliaro, M. J. Bearpark, J. J. Heyd, E. N. Brothers, K. N. Kudin, 
 V. N. Staroverov, T. A. Keith, R. Kobayashi, J. Normand, 
 K. Raghavachari, A. P. Rendell, J. C. Burant, S. S. Iyengar, 
 J. Tomasi, M. Cossi, J. M. Millam, M. Klene, C. Adamo, R. Cammi, 
 J. W. Ochterski, R. L. Martin, K. Morokuma, O. Farkas, 
 J. B. Foresman, and D. J. Fox, Gaussian, Inc., Wallingford CT, 2016.
 
 ******************************************
 Gaussian 16:  EM64L-G16RevB.01 20-Dec-2017
                15-Sep-2023 
 ******************************************
 %nprocshared=30
 Will use up to   30 processors via shared memory.
 %mem=30GB
 %chk=MOLECULE_25.chk
 ----------------------------------------------------------------
 # opt freq b3lyp/6-31+g(d) nosymm empiricaldispersion=gd3 volume
 ----------------------------------------------------------------
 1/18=20,19=15,26=3,38=1/1,3;
 2/9=110,12=2,15=1,17=6,18=5,40=1/2;
 3/5=1,6=6,7=11,11=2,25=1,30=1,71=1,74=-5,124=31/1,2,3;
 4//1;
 5/5=2,38=5/2;
 6/7=2,8=2,9=2,10=2,28=1,44=1/1,4;
 7/30=1/1,2,3,16;
 1/18=20,19=15,26=3/3(2);
 2/9=110,15=1/2;
 99//99;
 2/9=110,15=1/2;
 3/5=1,6=6,7=11,11=2,25=1,30=1,71=1,74=-5,124=31/1,2,3;
 4/5=5,16=3,69=1/1;
 5/5=2,38=5/2;
 7/30=1/1,2,3,16;
 1/18=20,19=15,26=3/3(-5);
 2/9=110,15=1/2;
 6/7=2,8=2,9=2,10=2,19=2,28=1,44=1/1,4;
 99/9=1/99;
 -----------
 molecule_25
 -----------
 Symbolic Z-matrix:
 Charge =  0 Multiplicity = 1
 C                     1.44605  -1.37019   0.69587 
 C                     1.59519  -0.05054   0.38773 
 C                     0.85046   1.03355   1.17631 
 C                    -0.59261   1.27762   0.66722 
 C                    -0.66784   1.72715  -0.80356 
 H                    -1.18361   0.35746   0.78856 
 B                     2.47233   0.491    -0.77621 
 O                     2.95005  -0.3227   -1.80832 
 H                     3.48786   0.06864  -2.51814 
 O                     2.74927   1.8625   -0.77987 
 H                     3.27135   2.25186  -1.50141 
 H                     0.81083   0.78308   2.24347 
 C                    -2.10399   2.03999  -1.25194 
 H                    -2.7512    1.16112  -1.13492 
 H                    -2.53503   2.85108  -0.65087 
 H                    -2.14104   2.34598  -2.3044 
 C                     2.14452  -2.51227  -0.01301 
 H                     2.84466  -2.17828  -0.77508 
 H                     2.67589  -3.13779   0.71923 
 H                     1.40225  -3.16532  -0.49558 
 H                    -0.02714   2.60856  -0.94344 
 H                    -0.24948   0.93672  -1.44266 
 H                    -1.06808   2.04283   1.30004 
 H                     1.40554   1.97361   1.10075 
 C                     0.55223  -1.8722    1.81488 
 H                     0.00449  -1.08778   2.33739 
 H                    -0.1831   -2.58367   1.41303 
 H                     1.14544  -2.42708   2.55591 
 

 GradGradGradGradGradGradGradGradGradGradGradGradGradGradGradGradGradGrad
 Berny optimization.
 Initialization pass.
                           ----------------------------
                           !    Initial Parameters    !
                           ! (Angstroms and Degrees)  !
 --------------------------                            --------------------------
 ! Name  Definition              Value          Derivative Info.                !
 --------------------------------------------------------------------------------
 ! R1    R(1,2)                  1.3633         estimate D2E/DX2                !
 ! R2    R(1,17)                 1.5148         estimate D2E/DX2                !
 ! R3    R(1,25)                 1.5176         estimate D2E/DX2                !
 ! R4    R(2,3)                  1.5335         estimate D2E/DX2                !
 ! R5    R(2,7)                  1.5548         estimate D2E/DX2                !
 ! R6    R(3,4)                  1.5496         estimate D2E/DX2                !
 ! R7    R(3,12)                 1.0969         estimate D2E/DX2                !
 ! R8    R(3,24)                 1.0943         estimate D2E/DX2                !
 ! R9    R(4,5)                  1.5398         estimate D2E/DX2                !
 ! R10   R(4,6)                  1.1003         estimate D2E/DX2                !
 ! R11   R(4,23)                 1.1009         estimate D2E/DX2                !
 ! R12   R(5,13)                 1.5367         estimate D2E/DX2                !
 ! R13   R(5,21)                 1.0986         estimate D2E/DX2                !
 ! R14   R(5,22)                 1.0992         estimate D2E/DX2                !
 ! R15   R(7,8)                  1.3984         estimate D2E/DX2                !
 ! R16   R(7,10)                 1.3992         estimate D2E/DX2                !
 ! R17   R(8,9)                  0.9727         estimate D2E/DX2                !
 ! R18   R(10,11)                0.972          estimate D2E/DX2                !
 ! R19   R(13,14)                1.0977         estimate D2E/DX2                !
 ! R20   R(13,15)                1.0977         estimate D2E/DX2                !
 ! R21   R(13,16)                1.0967         estimate D2E/DX2                !
 ! R22   R(17,18)                1.0874         estimate D2E/DX2                !
 ! R23   R(17,19)                1.0999         estimate D2E/DX2                !
 ! R24   R(17,20)                1.1001         estimate D2E/DX2                !
 ! R25   R(25,26)                1.0901         estimate D2E/DX2                !
 ! R26   R(25,27)                1.0993         estimate D2E/DX2                !
 ! R27   R(25,28)                1.0995         estimate D2E/DX2                !
 ! A1    A(2,1,17)             124.9995         estimate D2E/DX2                !
 ! A2    A(2,1,25)             123.4548         estimate D2E/DX2                !
 ! A3    A(17,1,25)            111.5444         estimate D2E/DX2                !
 ! A4    A(1,2,3)              120.9921         estimate D2E/DX2                !
 ! A5    A(1,2,7)              124.6152         estimate D2E/DX2                !
 ! A6    A(3,2,7)              114.3744         estimate D2E/DX2                !
 ! A7    A(2,3,4)              113.2448         estimate D2E/DX2                !
 ! A8    A(2,3,12)             110.8801         estimate D2E/DX2                !
 ! A9    A(2,3,24)             108.992          estimate D2E/DX2                !
 ! A10   A(4,3,12)             108.7813         estimate D2E/DX2                !
 ! A11   A(4,3,24)             108.3231         estimate D2E/DX2                !
 ! A12   A(12,3,24)            106.3595         estimate D2E/DX2                !
 ! A13   A(3,4,5)              113.9097         estimate D2E/DX2                !
 ! A14   A(3,4,6)              109.405          estimate D2E/DX2                !
 ! A15   A(3,4,23)             108.8338         estimate D2E/DX2                !
 ! A16   A(5,4,6)              108.8588         estimate D2E/DX2                !
 ! A17   A(5,4,23)             108.9674         estimate D2E/DX2                !
 ! A18   A(6,4,23)             106.6121         estimate D2E/DX2                !
 ! A19   A(4,5,13)             112.5691         estimate D2E/DX2                !
 ! A20   A(4,5,21)             109.1078         estimate D2E/DX2                !
 ! A21   A(4,5,22)             109.0771         estimate D2E/DX2                !
 ! A22   A(13,5,21)            110.1542         estimate D2E/DX2                !
 ! A23   A(13,5,22)            109.4176         estimate D2E/DX2                !
 ! A24   A(21,5,22)            106.3157         estimate D2E/DX2                !
 ! A25   A(2,7,8)              122.8587         estimate D2E/DX2                !
 ! A26   A(2,7,10)             117.0673         estimate D2E/DX2                !
 ! A27   A(8,7,10)             120.0535         estimate D2E/DX2                !
 ! A28   A(7,8,9)              119.561          estimate D2E/DX2                !
 ! A29   A(7,10,11)            120.0603         estimate D2E/DX2                !
 ! A30   A(5,13,14)            110.9109         estimate D2E/DX2                !
 ! A31   A(5,13,15)            110.9552         estimate D2E/DX2                !
 ! A32   A(5,13,16)            111.6165         estimate D2E/DX2                !
 ! A33   A(14,13,15)           107.5599         estimate D2E/DX2                !
 ! A34   A(14,13,16)           107.805          estimate D2E/DX2                !
 ! A35   A(15,13,16)           107.8223         estimate D2E/DX2                !
 ! A36   A(1,17,18)            113.1569         estimate D2E/DX2                !
 ! A37   A(1,17,19)            109.876          estimate D2E/DX2                !
 ! A38   A(1,17,20)            109.9804         estimate D2E/DX2                !
 ! A39   A(18,17,19)           109.2789         estimate D2E/DX2                !
 ! A40   A(18,17,20)           108.0188         estimate D2E/DX2                !
 ! A41   A(19,17,20)           106.2835         estimate D2E/DX2                !
 ! A42   A(1,25,26)            114.2885         estimate D2E/DX2                !
 ! A43   A(1,25,27)            109.7868         estimate D2E/DX2                !
 ! A44   A(1,25,28)            110.2503         estimate D2E/DX2                !
 ! A45   A(26,25,27)           107.7488         estimate D2E/DX2                !
 ! A46   A(26,25,28)           108.131          estimate D2E/DX2                !
 ! A47   A(27,25,28)           106.299          estimate D2E/DX2                !
 ! D1    D(17,1,2,3)          -179.4556         estimate D2E/DX2                !
 ! D2    D(17,1,2,7)             2.1867         estimate D2E/DX2                !
 ! D3    D(25,1,2,3)             0.1065         estimate D2E/DX2                !
 ! D4    D(25,1,2,7)          -178.2513         estimate D2E/DX2                !
 ! D5    D(2,1,17,18)            3.5825         estimate D2E/DX2                !
 ! D6    D(2,1,17,19)          126.0263         estimate D2E/DX2                !
 ! D7    D(2,1,17,20)         -117.3141         estimate D2E/DX2                !
 ! D8    D(25,1,17,18)        -176.0246         estimate D2E/DX2                !
 ! D9    D(25,1,17,19)         -53.5809         estimate D2E/DX2                !
 ! D10   D(25,1,17,20)          63.0787         estimate D2E/DX2                !
 ! D11   D(2,1,25,26)            2.0643         estimate D2E/DX2                !
 ! D12   D(2,1,25,27)          123.2481         estimate D2E/DX2                !
 ! D13   D(2,1,25,28)         -119.9675         estimate D2E/DX2                !
 ! D14   D(17,1,25,26)        -178.3213         estimate D2E/DX2                !
 ! D15   D(17,1,25,27)         -57.1376         estimate D2E/DX2                !
 ! D16   D(17,1,25,28)          59.6468         estimate D2E/DX2                !
 ! D17   D(1,2,3,4)            -84.2893         estimate D2E/DX2                !
 ! D18   D(1,2,3,12)            38.318          estimate D2E/DX2                !
 ! D19   D(1,2,3,24)           155.0684         estimate D2E/DX2                !
 ! D20   D(7,2,3,4)             94.2269         estimate D2E/DX2                !
 ! D21   D(7,2,3,12)          -143.1658         estimate D2E/DX2                !
 ! D22   D(7,2,3,24)           -26.4154         estimate D2E/DX2                !
 ! D23   D(1,2,7,8)             15.1607         estimate D2E/DX2                !
 ! D24   D(1,2,7,10)          -166.4882         estimate D2E/DX2                !
 ! D25   D(3,2,7,8)           -163.2937         estimate D2E/DX2                !
 ! D26   D(3,2,7,10)            15.0574         estimate D2E/DX2                !
 ! D27   D(2,3,4,5)            -59.918          estimate D2E/DX2                !
 ! D28   D(2,3,4,6)             62.1579         estimate D2E/DX2                !
 ! D29   D(2,3,4,23)           178.2877         estimate D2E/DX2                !
 ! D30   D(12,3,4,5)           176.3173         estimate D2E/DX2                !
 ! D31   D(12,3,4,6)           -61.6068         estimate D2E/DX2                !
 ! D32   D(12,3,4,23)           54.523          estimate D2E/DX2                !
 ! D33   D(24,3,4,5)            61.1026         estimate D2E/DX2                !
 ! D34   D(24,3,4,6)          -176.8215         estimate D2E/DX2                !
 ! D35   D(24,3,4,23)          -60.6917         estimate D2E/DX2                !
 ! D36   D(3,4,5,13)          -176.6199         estimate D2E/DX2                !
 ! D37   D(3,4,5,21)           -54.0135         estimate D2E/DX2                !
 ! D38   D(3,4,5,22)            61.7333         estimate D2E/DX2                !
 ! D39   D(6,4,5,13)            61.0035         estimate D2E/DX2                !
 ! D40   D(6,4,5,21)          -176.39           estimate D2E/DX2                !
 ! D41   D(6,4,5,22)           -60.6432         estimate D2E/DX2                !
 ! D42   D(23,4,5,13)          -54.8996         estimate D2E/DX2                !
 ! D43   D(23,4,5,21)           67.7069         estimate D2E/DX2                !
 ! D44   D(23,4,5,22)         -176.5463         estimate D2E/DX2                !
 ! D45   D(4,5,13,14)          -59.0412         estimate D2E/DX2                !
 ! D46   D(4,5,13,15)           60.4424         estimate D2E/DX2                !
 ! D47   D(4,5,13,16)         -179.2733         estimate D2E/DX2                !
 ! D48   D(21,5,13,14)         178.9425         estimate D2E/DX2                !
 ! D49   D(21,5,13,15)         -61.5739         estimate D2E/DX2                !
 ! D50   D(21,5,13,16)          58.7104         estimate D2E/DX2                !
 ! D51   D(22,5,13,14)          62.4119         estimate D2E/DX2                !
 ! D52   D(22,5,13,15)        -178.1045         estimate D2E/DX2                !
 ! D53   D(22,5,13,16)         -57.8202         estimate D2E/DX2                !
 ! D54   D(2,7,8,9)            179.3707         estimate D2E/DX2                !
 ! D55   D(10,7,8,9)             1.0671         estimate D2E/DX2                !
 ! D56   D(2,7,10,11)         -178.1834         estimate D2E/DX2                !
 ! D57   D(8,7,10,11)            0.2164         estimate D2E/DX2                !
 --------------------------------------------------------------------------------
 Trust Radius=3.00D-01 FncErr=1.00D-07 GrdErr=1.00D-06 EigMax=2.50D+02 EigMin=1.00D-04
 Number of steps in this run=    141 maximum allowed number of steps=    168.
 GradGradGradGradGradGradGradGradGradGradGradGradGradGradGradGradGradGrad

                          Input orientation:                          
 ---------------------------------------------------------------------
 Center     Atomic      Atomic             Coordinates (Angstroms)
 Number     Number       Type             X           Y           Z
 ---------------------------------------------------------------------
      1          6           0        1.446051   -1.370187    0.695867
      2          6           0        1.595194   -0.050541    0.387729
      3          6           0        0.850458    1.033547    1.176308
      4          6           0       -0.592613    1.277624    0.667216
      5          6           0       -0.667842    1.727145   -0.803560
      6          1           0       -1.183612    0.357461    0.788560
      7          5           0        2.472326    0.491002   -0.776209
      8          8           0        2.950048   -0.322699   -1.808319
      9          1           0        3.487857    0.068638   -2.518139
     10          8           0        2.749271    1.862496   -0.779871
     11          1           0        3.271351    2.251862   -1.501407
     12          1           0        0.810830    0.783079    2.243465
     13          6           0       -2.103994    2.039989   -1.251935
     14          1           0       -2.751197    1.161121   -1.134916
     15          1           0       -2.535026    2.851075   -0.650874
     16          1           0       -2.141042    2.345978   -2.304400
     17          6           0        2.144522   -2.512272   -0.013008
     18          1           0        2.844664   -2.178278   -0.775079
     19          1           0        2.675890   -3.137790    0.719229
     20          1           0        1.402245   -3.165315   -0.495578
     21          1           0       -0.027141    2.608560   -0.943440
     22          1           0       -0.249478    0.936717   -1.442660
     23          1           0       -1.068078    2.042828    1.300035
     24          1           0        1.405535    1.973612    1.100746
     25          6           0        0.552225   -1.872195    1.814881
     26          1           0        0.004491   -1.087776    2.337390
     27          1           0       -0.183100   -2.583665    1.413029
     28          1           0        1.145439   -2.427077    2.555910
 ---------------------------------------------------------------------
                    Distance matrix (angstroms):
                    1          2          3          4          5
     1  C    0.000000
     2  C    1.363326   0.000000
     3  C    2.522596   1.533537   0.000000
     4  C    3.341837   2.574614   1.549581   0.000000
     5  C    4.038600   3.114590   2.589631   1.539776   0.000000
     6  H    3.147775   2.837057   2.178275   1.100320   2.162614
     7  B    2.585396   1.554793   2.595599   3.477945   3.374826
     8  O    3.103254   2.594673   3.893030   4.608661   4.277912
     9  H    4.070507   3.469935   4.640675   5.315860   4.791687
    10  O    3.785026   2.520892   2.849436   3.688404   3.419875
    11  H    4.612914   3.417513   3.809878   4.536770   4.034794
    12  H    2.726742   2.180345   1.096872   2.167669   3.515977
    13  C    5.293964   4.554427   3.954501   2.559026   1.536699
    14  H    5.232225   4.762110   4.281349   2.814380   2.184158
    15  H    5.956655   5.153328   4.254821   2.825965   2.184699
    16  H    5.973167   5.191370   4.773560   3.517032   2.192212
    17  C    1.514835   2.553913   3.957513   4.724185   5.148497
    18  H    2.184677   2.727739   4.254479   5.083143   5.252698
    19  H    2.153479   3.287690   4.576153   5.493787   6.096476
    20  H    2.154981   3.243344   4.553033   5.007120   5.321304
    21  H    4.548412   3.387447   2.782836   2.164570   1.098616
    22  H    3.573503   2.779895   2.842222   2.164610   1.099206
    23  H    4.281885   3.508207   2.171344   1.100938   2.164476
    24  H    3.368466   2.154428   1.094323   2.159848   2.825955
    25  C    1.517606   2.538301   2.989992   3.542478   4.615197
    26  H    2.202827   2.721648   2.561988   2.956540   4.270993
    27  H    2.154294   3.260412   3.769417   3.953921   4.871481
    28  H    2.160357   3.248263   3.737142   4.506972   5.641949
                    6          7          8          9         10
     6  H    0.000000
     7  B    3.978972   0.000000
     8  O    4.928848   1.398420   0.000000
     9  H    5.730646   2.060101   0.972742   0.000000
    10  O    4.493626   1.399181   2.423447   2.604805   0.000000
    11  H    5.355315   2.065183   2.612622   2.418075   0.972002
    12  H    2.505134   3.458946   4.713380   5.509063   3.750101
    13  C    2.800290   4.854728   5.606710   6.062862   4.879398
    14  H    2.608247   5.278534   5.929535   6.483257   5.556360
    15  H    3.180629   5.537078   6.441937   6.892297   5.377520
    16  H    3.799641   5.201872   5.769500   6.075892   5.145202
    17  C    4.467030   3.116021   2.943848   3.839444   4.482454
    18  H    5.010184   2.695124   2.126468   2.915577   4.041903
    19  H    5.207431   3.930128   3.793204   4.628285   5.220684
    20  H    4.554736   3.820011   3.492771   4.347296   5.212886
    21  H    3.066708   3.280145   4.266609   4.613685   2.879554
    22  H    2.487265   2.837435   3.457861   3.984707   3.207624
    23  H    1.765054   4.387871   5.603831   6.263579   4.350940
    24  H    3.068075   2.618995   4.015124   4.589261   2.314021
    25  C    3.006299   3.998154   4.612816   5.582099   5.050511
    26  H    2.428821   4.275190   5.142816   6.086649   5.094628
    27  H    3.168787   4.614935   5.030474   5.997059   5.759857
    28  H    4.037531   4.623725   5.170253   6.120579   5.665699
                   11         12         13         14         15
    11  H    0.000000
    12  H    4.715459   0.000000
    13  C    5.385300   4.721636   0.000000
    14  H    6.131486   4.923861   1.097713   0.000000
    15  H    5.898854   4.883499   1.097690   1.771150   0.000000
    16  H    5.472445   5.642630   1.096670   1.773096   1.773272
    17  C    5.116840   4.210670   6.348851   6.222585   7.146365
    18  H    4.509518   4.692305   6.519999   6.526464   7.365520
    19  H    5.859535   4.601626   7.317252   7.167410   8.055888
    20  H    5.818166   4.841688   6.321470   6.031408   7.191882
    21  H    3.364314   3.767086   2.175261   3.090667   2.536512
    22  H    3.758895   3.838668   2.166291   2.530546   3.084708
    23  H    5.169373   2.450984   2.754211   3.088573   2.571234
    24  H    3.214015   1.754095   4.225672   4.789232   4.400697
    25  C    5.949728   2.702044   5.636137   5.367952   6.157950
    26  H    6.046645   2.039388   5.206907   4.970741   5.558185
    27  H    6.618874   3.607282   5.671864   5.206781   6.271176
    28  H    6.547808   3.242636   6.709186   6.456093   7.189449
                   16         17         18         19         20
    16  H    0.000000
    17  C    6.871618   0.000000
    18  H    6.903983   1.087430   0.000000
    19  H    7.900435   1.099907   1.783845   0.000000
    20  H    6.797137   1.100143   1.770010   1.760308   0.000000
    21  H    2.527793   5.639570   5.584750   6.564403   5.965011
    22  H    2.511300   4.435162   4.441010   5.461973   4.522369
    23  H    3.772944   5.726589   6.118283   6.418211   6.037506
    24  H    4.930708   4.680780   4.777866   5.280700   5.381155
    25  C    6.481909   2.507247   3.472298   2.704096   2.780812
    26  H    6.159561   3.483288   4.352383   3.735957   3.780951
    27  H    6.477206   2.730660   3.757594   2.993700   2.548414
    28  H    7.563440   2.757674   3.747633   2.494151   3.150004
                   21         22         23         24         25
    21  H    0.000000
    22  H    1.758895   0.000000
    23  H    2.537082   3.068544   0.000000
    24  H    2.575736   3.206733   2.482593   0.000000
    25  C    5.293502   4.375419   4.268238   4.003543   0.000000
    26  H    4.942443   4.295562   3.468024   3.586685   1.090111
    27  H    5.704075   4.533482   4.711729   4.836327   1.099262
    28  H    6.243239   5.408278   5.143630   4.642329   1.099509
                   26         27         28
    26  H    0.000000
    27  H    1.768422   0.000000
    28  H    1.772919   1.759464   0.000000
 Symmetry turned off by external request.
 Stoichiometry    C8H17BO2
 Framework group  C1[X(C8H17BO2)]
 Deg. of freedom    78
 Full point group                 C1      NOp   1
 Rotational constants (GHZ):           1.1402896           0.7627344           0.5685296
 Standard basis: 6-31+G(d) (6D, 7F)
   243 basis functions,   420 primitive gaussians,   243 cartesian basis functions
    43 alpha electrons       43 beta electrons
       nuclear repulsion energy       630.2952923739 Hartrees.
 NAtoms=   28 NActive=   28 NUniq=   28 SFac= 1.00D+00 NAtFMM=   60 NAOKFM=F Big=F
 Integral buffers will be    131072 words long.
 Raffenetti 2 integral format.
 Two-electron integral symmetry is turned off.
 Nuclear repulsion after empirical dispersion term =      630.2700270940 Hartrees.
 One-electron integrals computed using PRISM.
 NBasis=   243 RedAO= T EigKep=  4.77D-06  NBF=   243
 NBsUse=   243 1.00D-06 EigRej= -1.00D+00 NBFU=   243
 ExpMin= 3.15D-02 ExpMax= 5.48D+03 ExpMxC= 8.25D+02 IAcc=3 IRadAn=         5 AccDes= 0.00D+00
 Harris functional with IExCor=  402 and IRadAn=       5 diagonalized for initial guess.
 HarFok:  IExCor=  402 AccDes= 0.00D+00 IRadAn=         5 IDoV= 1 UseB2=F ITyADJ=14
 ICtDFT=  3500011 ScaDFX=  1.000000  1.000000  1.000000  1.000000
 FoFCou: FMM=F IPFlag=           0 FMFlag=      100000 FMFlg1=           0
         NFxFlg=           0 DoJE=T BraDBF=F KetDBF=T FulRan=T
         wScrn=  0.000000 ICntrl=       500 IOpCl=  0 I1Cent=   200000004 NGrid=           0
         NMat0=    1 NMatS0=      1 NMatT0=    0 NMatD0=    1 NMtDS0=    0 NMtDT0=    0
 Symmetry not used in FoFCou.
 Requested convergence on RMS density matrix=1.00D-08 within 128 cycles.
 Requested convergence on MAX density matrix=1.00D-06.
 Requested convergence on             energy=1.00D-06.
 No special actions if energy rises.
 SCF Done:  E(RB3LYP) =  -490.530885553     A.U. after   14 cycles
            NFock= 14  Conv=0.33D-08     -V/T= 2.0101

 **********************************************************************

            Population analysis using the SCF Density.

 **********************************************************************

 Alpha  occ. eigenvalues --  -19.16991 -19.16813 -10.20201 -10.17877 -10.17404
 Alpha  occ. eigenvalues --  -10.17301 -10.17045 -10.17021 -10.16871 -10.16297
 Alpha  occ. eigenvalues --   -6.79577  -1.03737  -1.00338  -0.81174  -0.78006
 Alpha  occ. eigenvalues --   -0.72883  -0.68625  -0.66938  -0.61300  -0.58451
 Alpha  occ. eigenvalues --   -0.56862  -0.54634  -0.49123  -0.46260  -0.45135
 Alpha  occ. eigenvalues --   -0.43158  -0.43063  -0.41591  -0.41109  -0.39775
 Alpha  occ. eigenvalues --   -0.38667  -0.38180  -0.37867  -0.36468  -0.35896
 Alpha  occ. eigenvalues --   -0.34510  -0.33342  -0.33276  -0.32376  -0.32164
 Alpha  occ. eigenvalues --   -0.31018  -0.29527  -0.23331
 Alpha virt. eigenvalues --   -0.02587  -0.01862   0.00994   0.01517   0.02034
 Alpha virt. eigenvalues --    0.03322   0.03493   0.04367   0.04955   0.05096
 Alpha virt. eigenvalues --    0.06278   0.06855   0.07248   0.08265   0.08347
 Alpha virt. eigenvalues --    0.09269   0.09617   0.10031   0.10572   0.11473
 Alpha virt. eigenvalues --    0.11795   0.12157   0.12629   0.13415   0.13840
 Alpha virt. eigenvalues --    0.14050   0.14367   0.15478   0.15864   0.16527
 Alpha virt. eigenvalues --    0.17178   0.17654   0.18508   0.18944   0.19245
 Alpha virt. eigenvalues --    0.20293   0.20676   0.21367   0.21570   0.22121
 Alpha virt. eigenvalues --    0.22572   0.22878   0.23831   0.24153   0.24590
 Alpha virt. eigenvalues --    0.24962   0.26279   0.26669   0.27239   0.27574
 Alpha virt. eigenvalues --    0.27733   0.28323   0.29620   0.30331   0.31059
 Alpha virt. eigenvalues --    0.31484   0.32305   0.33380   0.33596   0.34312
 Alpha virt. eigenvalues --    0.34954   0.35450   0.36922   0.38121   0.38772
 Alpha virt. eigenvalues --    0.40103   0.40435   0.42932   0.43125   0.45087
 Alpha virt. eigenvalues --    0.46061   0.50068   0.54326   0.63522   0.64931
 Alpha virt. eigenvalues --    0.66805   0.67416   0.68871   0.69196   0.70111
 Alpha virt. eigenvalues --    0.70643   0.71279   0.71637   0.73650   0.74301
 Alpha virt. eigenvalues --    0.74628   0.75094   0.77646   0.78256   0.79619
 Alpha virt. eigenvalues --    0.80221   0.83146   0.87331   0.88918   0.89944
 Alpha virt. eigenvalues --    0.90436   0.94538   0.95665   0.96861   0.98190
 Alpha virt. eigenvalues --    0.99228   1.00136   1.00802   1.02909   1.03759
 Alpha virt. eigenvalues --    1.05208   1.06594   1.07242   1.09167   1.10717
 Alpha virt. eigenvalues --    1.11785   1.12691   1.13284   1.15720   1.16098
 Alpha virt. eigenvalues --    1.17357   1.17888   1.18478   1.19741   1.20654
 Alpha virt. eigenvalues --    1.22995   1.26879   1.28185   1.29741   1.30641
 Alpha virt. eigenvalues --    1.31728   1.35076   1.38818   1.40513   1.42634
 Alpha virt. eigenvalues --    1.46525   1.48744   1.50759   1.54841   1.56247
 Alpha virt. eigenvalues --    1.58078   1.60984   1.62894   1.71079   1.72507
 Alpha virt. eigenvalues --    1.73248   1.76343   1.77143   1.79049   1.79683
 Alpha virt. eigenvalues --    1.82352   1.83682   1.86493   1.89855   1.90446
 Alpha virt. eigenvalues --    1.92763   1.94579   1.95187   1.96057   2.02034
 Alpha virt. eigenvalues --    2.03646   2.06113   2.07744   2.09186   2.10505
 Alpha virt. eigenvalues --    2.14873   2.18482   2.19428   2.25176   2.26241
 Alpha virt. eigenvalues --    2.28986   2.29831   2.33378   2.33397   2.35203
 Alpha virt. eigenvalues --    2.36964   2.39628   2.41565   2.42774   2.46250
 Alpha virt. eigenvalues --    2.49235   2.49954   2.54978   2.56888   2.62557
 Alpha virt. eigenvalues --    2.65362   2.73278   2.74081   2.74982   2.82893
 Alpha virt. eigenvalues --    2.85628   2.93755   3.01480   3.12787   3.70805
 Alpha virt. eigenvalues --    4.17328   4.21970   4.27178   4.34226   4.38086
 Alpha virt. eigenvalues --    4.39693   4.48672   4.50204   4.63519   4.66655
          Condensed to atoms (all electrons):
               1          2          3          4          5          6
     1  C   18.374441  -9.907644  -2.475401   0.856994  -0.174038   0.007332
     2  C   -9.907644  16.858982  -0.170936  -0.724468  -0.090076  -0.022950
     3  C   -2.475401  -0.170936   9.656086  -0.574792   0.382460  -0.040366
     4  C    0.856994  -0.724468  -0.574792   6.744016  -0.487392   0.441265
     5  C   -0.174038  -0.090076   0.382460  -0.487392   7.298046  -0.047510
     6  H    0.007332  -0.022950  -0.040366   0.441265  -0.047510   0.549198
     7  B    0.038799   0.488788  -0.071988   0.020117  -0.047204  -0.000362
     8  O    0.084539  -0.100986  -0.036350  -0.007029   0.005331   0.000107
     9  H    0.055705  -0.031648  -0.014795   0.001115  -0.001320   0.000000
    10  O   -0.477136   0.308383   0.142506  -0.037673  -0.008311  -0.000106
    11  H    0.000437   0.007220   0.000232  -0.001290  -0.003469   0.000001
    12  H    0.136755  -0.105819   0.319926  -0.064190   0.014712  -0.004195
    13  C    0.107102   0.114621  -0.371649   0.146319  -1.149938  -0.024898
    14  H    0.000063   0.003311  -0.013613   0.007111  -0.140329   0.003074
    15  H    0.001237  -0.000337  -0.001763  -0.013553  -0.103712  -0.000178
    16  H    0.000255   0.003200  -0.006086   0.026239  -0.144280  -0.000041
    17  C    0.210446  -1.084812   0.150280   0.052354   0.024563   0.006569
    18  H   -0.099781  -0.062672   0.000023  -0.000249  -0.000670  -0.000002
    19  H   -0.098296   0.081030  -0.003985   0.001808  -0.000843   0.000001
    20  H   -0.187354   0.102457   0.014849  -0.002715   0.002809   0.000009
    21  H    0.012713  -0.012960  -0.034427  -0.035600   0.364990   0.005037
    22  H    0.006844   0.004792  -0.022383  -0.086264   0.383798  -0.004805
    23  H    0.005698   0.019663  -0.091543   0.411277  -0.047803  -0.036951
    24  H   -0.045292  -0.096928   0.514568  -0.071569  -0.005591   0.004722
    25  C   -0.742194   0.639324  -0.744431  -0.066680  -0.017599  -0.028119
    26  H   -0.042736  -0.070839  -0.058386   0.021308  -0.004468   0.000680
    27  H   -0.128325   0.056731   0.032722  -0.012662   0.006286  -0.000217
    28  H   -0.148315   0.105022  -0.014183  -0.000841  -0.001411   0.000060
               7          8          9         10         11         12
     1  C    0.038799   0.084539   0.055705  -0.477136   0.000437   0.136755
     2  C    0.488788  -0.100986  -0.031648   0.308383   0.007220  -0.105819
     3  C   -0.071988  -0.036350  -0.014795   0.142506   0.000232   0.319926
     4  C    0.020117  -0.007029   0.001115  -0.037673  -0.001290  -0.064190
     5  C   -0.047204   0.005331  -0.001320  -0.008311  -0.003469   0.014712
     6  H   -0.000362   0.000107   0.000000  -0.000106   0.000001  -0.004195
     7  B    3.286418   0.187886   0.009405   0.259406   0.007701  -0.004685
     8  O    0.187886   8.735633   0.155980  -0.182871  -0.005764  -0.000671
     9  H    0.009405   0.155980   0.334946  -0.006244   0.003924   0.000003
    10  O    0.259406  -0.182871  -0.006244   8.692325   0.162729  -0.002537
    11  H    0.007701  -0.005764   0.003924   0.162729   0.338950  -0.000002
    12  H   -0.004685  -0.000671   0.000003  -0.002537  -0.000002   0.567120
    13  C   -0.041930  -0.001408  -0.000037  -0.042273  -0.001798   0.002430
    14  H   -0.000583  -0.000002   0.000000  -0.000028   0.000000   0.000002
    15  H    0.000484  -0.000003   0.000000  -0.000035   0.000000  -0.000004
    16  H   -0.001738  -0.000003   0.000000  -0.000091   0.000000   0.000002
    17  C   -0.089631   0.042069  -0.016815  -0.007072  -0.005585   0.000861
    18  H   -0.002186  -0.019835   0.000987  -0.000193   0.000017   0.000003
    19  H    0.009002   0.001108  -0.000005   0.000123   0.000000   0.000014
    20  H   -0.010606  -0.001487  -0.000032   0.000024   0.000000  -0.000013
    21  H   -0.003671   0.000224   0.000003  -0.005586   0.000092   0.000006
    22  H   -0.004293   0.000168  -0.000010   0.001298   0.000053  -0.000083
    23  H    0.001448   0.000071   0.000000   0.000386  -0.000001  -0.002398
    24  H   -0.005125   0.001054  -0.000011   0.003224   0.000056  -0.035365
    25  C   -0.003225  -0.027429   0.005542  -0.003690   0.002234  -0.012707
    26  H   -0.000193   0.000130   0.000000  -0.000169   0.000000   0.003935
    27  H   -0.003844  -0.000213   0.000000   0.000072   0.000000  -0.000127
    28  H    0.004757   0.000032   0.000000   0.000082   0.000000   0.000155
              13         14         15         16         17         18
     1  C    0.107102   0.000063   0.001237   0.000255   0.210446  -0.099781
     2  C    0.114621   0.003311  -0.000337   0.003200  -1.084812  -0.062672
     3  C   -0.371649  -0.013613  -0.001763  -0.006086   0.150280   0.000023
     4  C    0.146319   0.007111  -0.013553   0.026239   0.052354  -0.000249
     5  C   -1.149938  -0.140329  -0.103712  -0.144280   0.024563  -0.000670
     6  H   -0.024898   0.003074  -0.000178  -0.000041   0.006569  -0.000002
     7  B   -0.041930  -0.000583   0.000484  -0.001738  -0.089631  -0.002186
     8  O   -0.001408  -0.000002  -0.000003  -0.000003   0.042069  -0.019835
     9  H   -0.000037   0.000000   0.000000   0.000000  -0.016815   0.000987
    10  O   -0.042273  -0.000028  -0.000035  -0.000091  -0.007072  -0.000193
    11  H   -0.001798   0.000000   0.000000   0.000000  -0.005585   0.000017
    12  H    0.002430   0.000002  -0.000004   0.000002   0.000861   0.000003
    13  C    6.782580   0.485744   0.458690   0.471189  -0.020764  -0.000142
    14  H    0.485744   0.520139  -0.033014  -0.029410  -0.000062   0.000000
    15  H    0.458690  -0.033014   0.520208  -0.029391   0.000015   0.000000
    16  H    0.471189  -0.029410  -0.029391   0.522085  -0.000047   0.000000
    17  C   -0.020764  -0.000062   0.000015  -0.000047   7.683323   0.517335
    18  H   -0.000142   0.000000   0.000000   0.000000   0.517335   0.457499
    19  H    0.000094   0.000000   0.000000   0.000000   0.360407  -0.025754
    20  H   -0.000357   0.000000   0.000000   0.000000   0.473895  -0.023925
    21  H    0.014259   0.004255  -0.004689  -0.002853   0.000507   0.000000
    22  H    0.010009  -0.004817   0.004377  -0.003245   0.000822   0.000004
    23  H   -0.007355  -0.000378   0.003422   0.000018  -0.000301   0.000000
    24  H   -0.000462   0.000002   0.000003  -0.000001  -0.006356  -0.000006
    25  C    0.029075  -0.000040   0.000232   0.000200  -1.249281   0.005058
    26  H    0.000714   0.000001   0.000000   0.000000  -0.004227  -0.000137
    27  H   -0.001019   0.000000   0.000000   0.000000   0.000579   0.000077
    28  H    0.000132   0.000000   0.000000   0.000000  -0.063727  -0.000015
              19         20         21         22         23         24
     1  C   -0.098296  -0.187354   0.012713   0.006844   0.005698  -0.045292
     2  C    0.081030   0.102457  -0.012960   0.004792   0.019663  -0.096928
     3  C   -0.003985   0.014849  -0.034427  -0.022383  -0.091543   0.514568
     4  C    0.001808  -0.002715  -0.035600  -0.086264   0.411277  -0.071569
     5  C   -0.000843   0.002809   0.364990   0.383798  -0.047803  -0.005591
     6  H    0.000001   0.000009   0.005037  -0.004805  -0.036951   0.004722
     7  B    0.009002  -0.010606  -0.003671  -0.004293   0.001448  -0.005125
     8  O    0.001108  -0.001487   0.000224   0.000168   0.000071   0.001054
     9  H   -0.000005  -0.000032   0.000003  -0.000010   0.000000  -0.000011
    10  O    0.000123   0.000024  -0.005586   0.001298   0.000386   0.003224
    11  H    0.000000   0.000000   0.000092   0.000053  -0.000001   0.000056
    12  H    0.000014  -0.000013   0.000006  -0.000083  -0.002398  -0.035365
    13  C    0.000094  -0.000357   0.014259   0.010009  -0.007355  -0.000462
    14  H    0.000000   0.000000   0.004255  -0.004817  -0.000378   0.000002
    15  H    0.000000   0.000000  -0.004689   0.004377   0.003422   0.000003
    16  H    0.000000   0.000000  -0.002853  -0.003245   0.000018  -0.000001
    17  C    0.360407   0.473895   0.000507   0.000822  -0.000301  -0.006356
    18  H   -0.025754  -0.023925   0.000000   0.000004   0.000000  -0.000006
    19  H    0.530947  -0.035962   0.000000   0.000000   0.000000   0.000005
    20  H   -0.035962   0.519974   0.000000  -0.000012   0.000000   0.000000
    21  H    0.000000   0.000000   0.529628  -0.038106  -0.004489   0.003330
    22  H    0.000000  -0.000012  -0.038106   0.539098   0.005291  -0.000022
    23  H    0.000000   0.000000  -0.004489   0.005291   0.557801  -0.003309
    24  H    0.000005   0.000000   0.003330  -0.000022  -0.003309   0.509419
    25  C   -0.024069  -0.062954  -0.001531   0.005250   0.002453   0.004931
    26  H    0.000063  -0.000017   0.000001   0.000005   0.000069   0.000042
    27  H   -0.000579   0.002472   0.000000  -0.000005  -0.000008  -0.000016
    28  H    0.003199  -0.000392   0.000000   0.000000   0.000002   0.000013
              25         26         27         28
     1  C   -0.742194  -0.042736  -0.128325  -0.148315
     2  C    0.639324  -0.070839   0.056731   0.105022
     3  C   -0.744431  -0.058386   0.032722  -0.014183
     4  C   -0.066680   0.021308  -0.012662  -0.000841
     5  C   -0.017599  -0.004468   0.006286  -0.001411
     6  H   -0.028119   0.000680  -0.000217   0.000060
     7  B   -0.003225  -0.000193  -0.003844   0.004757
     8  O   -0.027429   0.000130  -0.000213   0.000032
     9  H    0.005542   0.000000   0.000000   0.000000
    10  O   -0.003690  -0.000169   0.000072   0.000082
    11  H    0.002234   0.000000   0.000000   0.000000
    12  H   -0.012707   0.003935  -0.000127   0.000155
    13  C    0.029075   0.000714  -0.001019   0.000132
    14  H   -0.000040   0.000001   0.000000   0.000000
    15  H    0.000232   0.000000   0.000000   0.000000
    16  H    0.000200   0.000000   0.000000   0.000000
    17  C   -1.249281  -0.004227   0.000579  -0.063727
    18  H    0.005058  -0.000137   0.000077  -0.000015
    19  H   -0.024069   0.000063  -0.000579   0.003199
    20  H   -0.062954  -0.000017   0.002472  -0.000392
    21  H   -0.001531   0.000001   0.000000   0.000000
    22  H    0.005250   0.000005  -0.000005   0.000000
    23  H    0.002453   0.000069  -0.000008   0.000002
    24  H    0.004931   0.000042  -0.000016   0.000013
    25  C    7.770771   0.495501   0.384814   0.449532
    26  H    0.495501   0.508318  -0.028220  -0.027067
    27  H    0.384814  -0.028220   0.509036  -0.033271
    28  H    0.449532  -0.027067  -0.033271   0.512742
 Mulliken charges:
               1
     1  C    0.627151
     2  C   -0.310451
     3  C   -0.466574
     4  C   -0.542955
     5  C   -0.007031
     6  H    0.192644
     7  B    0.977049
     8  O   -0.830283
     9  H    0.503308
    10  O   -0.796545
    11  H    0.494261
    12  H    0.186872
    13  C   -0.958930
    14  H    0.198573
    15  H    0.198009
    16  H    0.193998
    17  C   -0.975347
    18  H    0.254564
    19  H    0.201692
    20  H    0.209337
    21  H    0.208866
    22  H    0.202237
    23  H    0.186937
    24  H    0.228684
    25  C   -0.810969
    26  H    0.205692
    27  H    0.215716
    28  H    0.213494
 Sum of Mulliken charges =   0.00000
 Mulliken charges with hydrogens summed into heavy atoms:
               1
     1  C    0.627151
     2  C   -0.310451
     3  C   -0.051018
     4  C   -0.163375
     5  C    0.404072
     7  B    0.977049
     8  O   -0.326975
    10  O   -0.302283
    13  C   -0.368349
    17  C   -0.309754
    25  C   -0.176068
 Electronic spatial extent (au):  <R**2>=           2566.2230
 Charge=              0.0000 electrons
 Dipole moment (field-independent basis, Debye):
    X=              1.2448    Y=              0.3627    Z=             -1.4799  Tot=              1.9676
 Quadrupole moment (field-independent basis, Debye-Ang):
   XX=            -64.4540   YY=            -69.8982   ZZ=            -64.9070
   XY=              4.5893   XZ=             -9.0834   YZ=             -5.5791
 Traceless Quadrupole moment (field-independent basis, Debye-Ang):
   XX=              1.9657   YY=             -3.4784   ZZ=              1.5127
   XY=              4.5893   XZ=             -9.0834   YZ=             -5.5791
 Octapole moment (field-independent basis, Debye-Ang**2):
  XXX=           -153.9161  YYY=            -43.2189  ZZZ=             -7.7535  XYY=            -59.8637
  XXY=              2.5714  XXZ=            -34.4717  XZZ=            -38.1451  YZZ=             -4.0570
  YYZ=             -0.6902  XYZ=            -20.7599
 Hexadecapole moment (field-independent basis, Debye-Ang**3):
 XXXX=          -1428.2961 YYYY=          -1223.9938 ZZZZ=           -615.9001 XXXY=            288.9297
 XXXZ=           -112.1174 YYYX=            220.1162 YYYZ=            145.8046 ZZZX=            -26.1078
 ZZZY=            138.1106 XXYY=           -448.0190 XXZZ=           -273.6246 YYZZ=           -301.9732
 XXYZ=             -9.2265 YYXZ=             -7.3229 ZZXY=            103.1028
 N-N= 6.302700270940D+02 E-N=-2.401098277136D+03  KE= 4.856389845801D+02
 Evaluate density.
 Using the total density.
 Monte-Carlo method of calculating molar volume:
 based on  0.001 e/bohr**3 density envelope.
 Number of points per bohr**3 =   20 CutOff= 1.00D-04
 Using the SCF density.
 There are       417 points.  Will hold       417 in memory.
 LenV=  4026369549 MDV=  4026531840.
 Box volume = 9101.183 fraction occupied=0.185
 Integrated density= 7.8871883316137868D+01 error=-7.1281166838621317D+00
 Molar volume = 1680.554 bohr**3/mol (149.971 cm**3/mol)
 Recommended a0 for SCRF calculation =  4.80 angstrom (  9.06 bohr)
 Calling FoFJK, ICntrl=      2127 FMM=F ISym2X=0 I1Cent= 0 IOpClX= 0 NMat=1 NMatS=1 NMatT=0.
 -------------------------------------------------------------------
 Center     Atomic                   Forces (Hartrees/Bohr)
 Number     Number              X              Y              Z
 -------------------------------------------------------------------
      1        6           0.000231903    0.001836555   -0.000155442
      2        6          -0.003214078   -0.003296770    0.004329750
      3        6          -0.002113882   -0.001333807   -0.001139551
      4        6           0.002028105    0.000405507   -0.001629550
      5        6          -0.001706531   -0.000521876    0.001918487
      6        1           0.000142956    0.000273630   -0.000015833
      7        5           0.013761288    0.009073882   -0.018282070
      8        8          -0.002432341    0.001859215    0.003517992
      9        1          -0.003785064    0.002315187    0.007022932
     10        8          -0.001397925   -0.004335221    0.001316195
     11        1          -0.002806842   -0.007260532    0.002286064
     12        1           0.000181444    0.000513386   -0.000268505
     13        6           0.002157660   -0.000552953    0.000890488
     14        1          -0.000184379   -0.000076607   -0.000104692
     15        1          -0.000171825    0.000134758   -0.000025786
     16        1           0.000004565    0.000066166   -0.000221241
     17        6          -0.000919931    0.001072236    0.000719257
     18        1           0.000503459   -0.001103117    0.000321668
     19        1          -0.000044728    0.000144681   -0.000066023
     20        1          -0.000128457    0.000001814    0.000149014
     21        1          -0.000420480    0.000009151   -0.000073905
     22        1          -0.000409373    0.000473740   -0.000118376
     23        1           0.000295079   -0.000232098   -0.000003473
     24        1          -0.000402543    0.000109942    0.000796569
     25        6           0.000975137    0.000582092   -0.001270216
     26        1          -0.000318240   -0.000000950    0.000246419
     27        1           0.000109555   -0.000055063   -0.000048709
     28        1           0.000065467   -0.000102947   -0.000091462
 -------------------------------------------------------------------
 Cartesian Forces:  Max     0.018282070 RMS     0.003208822

 GradGradGradGradGradGradGradGradGradGradGradGradGradGradGradGradGradGrad
 Berny optimization.
 FormGI is forming the generalized inverse of G from B-inverse, IUseBI=4.
 Internal  Forces:  Max     0.012332755 RMS     0.002267278
 Search for a local minimum.
 Step number   1 out of a maximum of  141
 All quantities printed in internal units (Hartrees-Bohrs-Radians)
 Mixed Optimization -- RFO/linear search
 Second derivative matrix not updated -- first step.
 ITU=  0
     Eigenvalues ---    0.00230   0.00240   0.00280   0.00322   0.00533
     Eigenvalues ---    0.00570   0.00570   0.01118   0.01152   0.01406
     Eigenvalues ---    0.02232   0.02242   0.02574   0.03319   0.03444
     Eigenvalues ---    0.03863   0.04718   0.04752   0.05326   0.05390
     Eigenvalues ---    0.05482   0.06685   0.06847   0.07311   0.07373
     Eigenvalues ---    0.08282   0.08475   0.09316   0.12178   0.12321
     Eigenvalues ---    0.12866   0.16000   0.16000   0.16000   0.16000
     Eigenvalues ---    0.16000   0.16000   0.16000   0.16000   0.16000
     Eigenvalues ---    0.16000   0.16000   0.21894   0.21938   0.21945
     Eigenvalues ---    0.24991   0.24995   0.24995   0.24997   0.24999
     Eigenvalues ---    0.25000   0.27248   0.27687   0.28539   0.28813
     Eigenvalues ---    0.29099   0.30598   0.30870   0.33579   0.33647
     Eigenvalues ---    0.33666   0.33692   0.33736   0.33764   0.33770
     Eigenvalues ---    0.33836   0.33936   0.33939   0.34030   0.34053
     Eigenvalues ---    0.34318   0.34800   0.35111   0.45757   0.45883
     Eigenvalues ---    0.52281   0.52821   0.52970
 RFO step:  Lambda=-2.61930313D-03 EMin= 2.30000000D-03
 Linear search not attempted -- first point.
 Iteration  1 RMS(Cart)=  0.06527162 RMS(Int)=  0.00108848
 Iteration  2 RMS(Cart)=  0.00163944 RMS(Int)=  0.00001885
 Iteration  3 RMS(Cart)=  0.00000169 RMS(Int)=  0.00001878
 Iteration  4 RMS(Cart)=  0.00000000 RMS(Int)=  0.00001878
 Variable       Old X    -DE/DX   Delta X   Delta X   Delta X     New X
                                 (Linear)    (Quad)   (Total)
    R1        2.57631  -0.00240   0.00000  -0.00456  -0.00456   2.57175
    R2        2.86262  -0.00088   0.00000  -0.00284  -0.00284   2.85978
    R3        2.86786  -0.00149   0.00000  -0.00482  -0.00482   2.86304
    R4        2.89796  -0.00022   0.00000  -0.00076  -0.00076   2.89721
    R5        2.93813   0.00556   0.00000   0.02020   0.02020   2.95834
    R6        2.92828  -0.00182   0.00000  -0.00652  -0.00652   2.92176
    R7        2.07279  -0.00038   0.00000  -0.00112  -0.00112   2.07167
    R8        2.06797  -0.00016   0.00000  -0.00048  -0.00048   2.06749
    R9        2.90976  -0.00227   0.00000  -0.00787  -0.00787   2.90189
   R10        2.07930  -0.00031   0.00000  -0.00091  -0.00091   2.07840
   R11        2.08047  -0.00029   0.00000  -0.00086  -0.00086   2.07961
   R12        2.90394  -0.00193   0.00000  -0.00665  -0.00665   2.89729
   R13        2.07608  -0.00023   0.00000  -0.00067  -0.00067   2.07541
   R14        2.07720  -0.00043   0.00000  -0.00126  -0.00126   2.07594
   R15        2.64263  -0.01233   0.00000  -0.02673  -0.02673   2.61591
   R16        2.64407  -0.01221   0.00000  -0.02653  -0.02653   2.61754
   R17        1.83822  -0.00629   0.00000  -0.01184  -0.01184   1.82637
   R18        1.83682  -0.00611   0.00000  -0.01148  -0.01148   1.82533
   R19        2.07438   0.00016   0.00000   0.00046   0.00046   2.07484
   R20        2.07433   0.00015   0.00000   0.00045   0.00045   2.07478
   R21        2.07241   0.00023   0.00000   0.00067   0.00067   2.07308
   R22        2.05494  -0.00024   0.00000  -0.00068  -0.00068   2.05427
   R23        2.07852  -0.00015   0.00000  -0.00044  -0.00044   2.07809
   R24        2.07897   0.00002   0.00000   0.00006   0.00006   2.07903
   R25        2.06001   0.00028   0.00000   0.00079   0.00079   2.06080
   R26        2.07730  -0.00002   0.00000  -0.00006  -0.00006   2.07725
   R27        2.07777   0.00003   0.00000   0.00008   0.00008   2.07785
    A1        2.18165   0.00298   0.00000   0.01181   0.01180   2.19346
    A2        2.15469  -0.00094   0.00000  -0.00374  -0.00375   2.15095
    A3        1.94682  -0.00204   0.00000  -0.00809  -0.00809   1.93873
    A4        2.11171  -0.00302   0.00000  -0.01186  -0.01189   2.09982
    A5        2.17495   0.00127   0.00000   0.00514   0.00512   2.18006
    A6        1.99621   0.00175   0.00000   0.00703   0.00701   2.00322
    A7        1.97650   0.00144   0.00000   0.00830   0.00825   1.98475
    A8        1.93522  -0.00059   0.00000  -0.00612  -0.00609   1.92913
    A9        1.90227   0.00021   0.00000   0.00909   0.00903   1.91129
   A10        1.89859  -0.00063   0.00000  -0.00739  -0.00738   1.89121
   A11        1.89059  -0.00036   0.00000   0.00261   0.00251   1.89310
   A12        1.85632  -0.00016   0.00000  -0.00724  -0.00722   1.84910
   A13        1.98810   0.00214   0.00000   0.01059   0.01059   1.99869
   A14        1.90948  -0.00065   0.00000  -0.00137  -0.00140   1.90807
   A15        1.89951  -0.00077   0.00000  -0.00506  -0.00505   1.89446
   A16        1.89994  -0.00051   0.00000   0.00033   0.00031   1.90026
   A17        1.90184  -0.00064   0.00000  -0.00354  -0.00352   1.89832
   A18        1.86073   0.00033   0.00000  -0.00173  -0.00174   1.85899
   A19        1.96470  -0.00001   0.00000  -0.00019  -0.00019   1.96451
   A20        1.90429   0.00009   0.00000   0.00094   0.00094   1.90523
   A21        1.90375   0.00036   0.00000   0.00426   0.00426   1.90802
   A22        1.92255  -0.00016   0.00000  -0.00275  -0.00275   1.91980
   A23        1.90970  -0.00032   0.00000  -0.00292  -0.00292   1.90677
   A24        1.85556   0.00004   0.00000   0.00079   0.00078   1.85634
   A25        2.14429   0.00008   0.00000   0.00035   0.00035   2.14464
   A26        2.04321  -0.00042   0.00000  -0.00163  -0.00163   2.04158
   A27        2.09533   0.00033   0.00000   0.00135   0.00135   2.09668
   A28        2.08673  -0.00998   0.00000  -0.06137  -0.06137   2.02536
   A29        2.09545  -0.00980   0.00000  -0.06024  -0.06024   2.03520
   A30        1.93576   0.00018   0.00000   0.00127   0.00127   1.93703
   A31        1.93653   0.00020   0.00000   0.00147   0.00147   1.93800
   A32        1.94807  -0.00011   0.00000  -0.00107  -0.00107   1.94701
   A33        1.87727  -0.00012   0.00000  -0.00003  -0.00004   1.87724
   A34        1.88155  -0.00008   0.00000  -0.00092  -0.00092   1.88064
   A35        1.88185  -0.00008   0.00000  -0.00081  -0.00081   1.88105
   A36        1.97496   0.00173   0.00000   0.01174   0.01174   1.98670
   A37        1.91770  -0.00050   0.00000  -0.00447  -0.00447   1.91323
   A38        1.91952  -0.00041   0.00000  -0.00219  -0.00221   1.91731
   A39        1.90728  -0.00073   0.00000  -0.00501  -0.00500   1.90228
   A40        1.88528  -0.00024   0.00000   0.00114   0.00112   1.88640
   A41        1.85500   0.00004   0.00000  -0.00198  -0.00200   1.85300
   A42        1.99471   0.00051   0.00000   0.00376   0.00376   1.99847
   A43        1.91614  -0.00022   0.00000  -0.00179  -0.00179   1.91435
   A44        1.92423  -0.00020   0.00000  -0.00136  -0.00136   1.92287
   A45        1.88057  -0.00009   0.00000  -0.00024  -0.00024   1.88033
   A46        1.88724  -0.00003   0.00000   0.00062   0.00061   1.88786
   A47        1.85527  -0.00001   0.00000  -0.00128  -0.00128   1.85399
    D1       -3.13209   0.00052   0.00000   0.02250   0.02249  -3.10961
    D2        0.03816   0.00030   0.00000   0.00828   0.00830   0.04647
    D3        0.00186   0.00045   0.00000   0.01842   0.01839   0.02025
    D4       -3.11107   0.00024   0.00000   0.00420   0.00421  -3.10686
    D5        0.06253   0.00031   0.00000   0.01540   0.01540   0.07793
    D6        2.19957   0.00022   0.00000   0.01385   0.01383   2.21341
    D7       -2.04752  -0.00027   0.00000   0.00752   0.00752  -2.04000
    D8       -3.07221   0.00037   0.00000   0.01905   0.01907  -3.05314
    D9       -0.93516   0.00028   0.00000   0.01750   0.01750  -0.91766
   D10        1.10093  -0.00021   0.00000   0.01118   0.01118   1.11211
   D11        0.03603   0.00007   0.00000   0.00463   0.00462   0.04065
   D12        2.15108   0.00015   0.00000   0.00559   0.00558   2.15666
   D13       -2.09383  -0.00011   0.00000   0.00217   0.00216  -2.09167
   D14       -3.11229   0.00003   0.00000   0.00112   0.00113  -3.11116
   D15       -0.99724   0.00011   0.00000   0.00208   0.00209  -0.99515
   D16        1.04103  -0.00015   0.00000  -0.00135  -0.00133   1.03970
   D17       -1.47113   0.00041   0.00000   0.03853   0.03858  -1.43254
   D18        0.66878   0.00018   0.00000   0.03027   0.03030   0.69908
   D19        2.70645  -0.00023   0.00000   0.02340   0.02338   2.72983
   D20        1.64457   0.00060   0.00000   0.05139   0.05140   1.69597
   D21       -2.49871   0.00038   0.00000   0.04313   0.04312  -2.45560
   D22       -0.46104  -0.00003   0.00000   0.03625   0.03619  -0.42484
   D23        0.26460   0.00041   0.00000   0.04996   0.05001   0.31462
   D24       -2.90577   0.00046   0.00000   0.05263   0.05268  -2.85309
   D25       -2.85001   0.00028   0.00000   0.03686   0.03681  -2.81321
   D26        0.26280   0.00033   0.00000   0.03953   0.03947   0.30228
   D27       -1.04577  -0.00062   0.00000  -0.03788  -0.03790  -1.08367
   D28        1.08486  -0.00027   0.00000  -0.03113  -0.03115   1.05371
   D29        3.11171  -0.00068   0.00000  -0.03679  -0.03680   3.07491
   D30        3.07732  -0.00039   0.00000  -0.03025  -0.03024   3.04707
   D31       -1.07524  -0.00004   0.00000  -0.02350  -0.02349  -1.09873
   D32        0.95161  -0.00045   0.00000  -0.02915  -0.02914   0.92246
   D33        1.06644   0.00033   0.00000  -0.01920  -0.01920   1.04724
   D34       -3.08612   0.00067   0.00000  -0.01245  -0.01245  -3.09856
   D35       -1.05927   0.00027   0.00000  -0.01811  -0.01810  -1.07737
   D36       -3.08260   0.00004   0.00000  -0.00602  -0.00601  -3.08861
   D37       -0.94271  -0.00011   0.00000  -0.00899  -0.00899  -0.95170
   D38        1.07745   0.00019   0.00000  -0.00517  -0.00517   1.07228
   D39        1.06471  -0.00021   0.00000  -0.01175  -0.01175   1.05296
   D40       -3.07859  -0.00036   0.00000  -0.01472  -0.01473  -3.09332
   D41       -1.05842  -0.00006   0.00000  -0.01090  -0.01091  -1.06933
   D42       -0.95818   0.00003   0.00000  -0.00794  -0.00794  -0.96612
   D43        1.18171  -0.00012   0.00000  -0.01091  -0.01091   1.17080
   D44       -3.08131   0.00018   0.00000  -0.00709  -0.00709  -3.08841
   D45       -1.03046  -0.00014   0.00000  -0.00366  -0.00366  -1.03412
   D46        1.05492  -0.00004   0.00000  -0.00190  -0.00190   1.05302
   D47       -3.12891  -0.00008   0.00000  -0.00264  -0.00264  -3.13155
   D48        3.12314  -0.00013   0.00000  -0.00276  -0.00276   3.12038
   D49       -1.07467  -0.00003   0.00000  -0.00100  -0.00100  -1.07566
   D50        1.02469  -0.00007   0.00000  -0.00174  -0.00174   1.02295
   D51        1.08929   0.00009   0.00000  -0.00042  -0.00042   1.08887
   D52       -3.10851   0.00019   0.00000   0.00134   0.00134  -3.10717
   D53       -1.00915   0.00015   0.00000   0.00060   0.00060  -1.00856
   D54        3.13061   0.00013   0.00000   0.00597   0.00597   3.13658
   D55        0.01862   0.00010   0.00000   0.00327   0.00327   0.02189
   D56       -3.10989  -0.00006   0.00000  -0.00274  -0.00274  -3.11263
   D57        0.00378  -0.00001   0.00000  -0.00016  -0.00016   0.00361
         Item               Value     Threshold  Converged?
 Maximum Force            0.012333     0.000450     NO 
 RMS     Force            0.002267     0.000300     NO 
 Maximum Displacement     0.266736     0.001800     NO 
 RMS     Displacement     0.065111     0.001200     NO 
 Predicted change in Energy=-1.359683D-03
 GradGradGradGradGradGradGradGradGradGradGradGradGradGradGradGradGradGrad

                          Input orientation:                          
 ---------------------------------------------------------------------
 Center     Atomic      Atomic             Coordinates (Angstroms)
 Number     Number       Type             X           Y           Z
 ---------------------------------------------------------------------
      1          6           0        1.447817   -1.357135    0.673943
      2          6           0        1.617163   -0.044501    0.357081
      3          6           0        0.869125    1.042623    1.137532
      4          6           0       -0.583596    1.264895    0.657200
      5          6           0       -0.707975    1.740703   -0.797533
      6          1           0       -1.153120    0.331557    0.776238
      7          5           0        2.533392    0.487965   -0.795198
      8          8           0        2.980257   -0.313863   -1.831348
      9          1           0        3.537652    0.118164   -2.492211
     10          8           0        2.867483    1.831807   -0.762132
     11          1           0        3.412501    2.160119   -1.488890
     12          1           0        0.846201    0.801496    2.206717
     13          6           0       -2.160205    2.017825   -1.203588
     14          1           0       -2.777955    1.116807   -1.093743
     15          1           0       -2.602667    2.801465   -0.574637
     16          1           0       -2.231006    2.346668   -2.247768
     17          6           0        2.151681   -2.522495    0.013125
     18          1           0        2.896082   -2.226527   -0.721717
     19          1           0        2.633999   -3.145635    0.780169
     20          1           0        1.415312   -3.168414   -0.487807
     21          1           0       -0.100645    2.645519   -0.934044
     22          1           0       -0.283828    0.979493   -1.466449
     23          1           0       -1.059796    2.007906    1.314644
     24          1           0        1.410317    1.989840    1.054570
     25          6           0        0.516796   -1.833419    1.770182
     26          1           0       -0.043070   -1.039044    2.264927
     27          1           0       -0.209530   -2.546549    1.355207
     28          1           0        1.082888   -2.382331    2.536501
 ---------------------------------------------------------------------
                    Distance matrix (angstroms):
                    1          2          3          4          5
     1  C    0.000000
     2  C    1.360914   0.000000
     3  C    2.511700   1.533135   0.000000
     4  C    3.316920   2.578358   1.546131   0.000000
     5  C    4.050837   3.150612   2.592110   1.535614   0.000000
     6  H    3.102744   2.826939   2.173851   1.099840   2.158843
     7  B    2.596389   1.565484   2.610148   3.525435   3.475028
     8  O    3.116612   2.592258   3.887310   4.624543   4.346617
     9  H    4.070435   3.439942   4.598988   5.312106   4.850765
    10  O    3.774534   2.517234   2.867921   3.774366   3.576794
    11  H    4.572626   3.389867   3.823042   4.623410   4.199073
    12  H    2.714963   2.175143   1.096278   2.158718   3.510426
    13  C    5.285196   4.577924   3.950785   2.552475   1.533182
    14  H    5.205983   4.771855   4.276130   2.811218   2.182156
    15  H    5.937956   5.174417   4.251869   2.820482   2.182832
    16  H    5.982332   5.226025   4.771960   3.510418   2.188606
    17  C    1.513331   2.558216   3.952127   4.716026   5.197082
    18  H    2.191160   2.749668   4.272319   5.118555   5.360401
    19  H    2.148731   3.290895   4.558947   5.460844   6.126519
    20  H    2.152081   3.242439   4.546744   4.996088   5.357584
    21  H    4.583077   3.442976   2.793055   2.161347   1.098261
    22  H    3.611053   2.826234   2.848509   2.163608   1.098541
    23  H    4.245246   3.506481   2.164226   1.100483   2.157884
    24  H    3.368757   2.160514   1.094071   2.158503   2.824804
    25  C    1.515054   2.531381   2.965805   3.471187   4.568104
    26  H    2.203442   2.717603   2.537018   2.860960   4.189004
    27  H    2.150728   3.254737   3.754070   3.892846   4.823202
    28  H    2.157156   3.240489   3.705823   4.428454   5.596640
                    6          7          8          9         10
     6  H    0.000000
     7  B    4.010517   0.000000
     8  O    4.929593   1.384277   0.000000
     9  H    5.721157   2.006277   0.966476   0.000000
    10  O    4.558792   1.385143   2.399966   2.525643   0.000000
    11  H    5.414734   2.012497   2.534699   2.278574   0.965925
    12  H    2.502878   3.457804   4.701509   5.458093   3.736468
    13  C    2.788804   4.953495   5.679367   6.142869   5.050459
    14  H    2.598756   5.356770   5.978954   6.545219   5.700190
    15  H    3.166464   5.637378   6.515645   6.969987   5.558591
    16  H    3.790399   5.316411   5.865927   6.188974   5.335427
    17  C    4.432795   3.140376   2.994441   3.894959   4.480328
    18  H    5.018337   2.739601   2.212838   3.007297   4.058636
    19  H    5.141318   3.961685   3.867667   4.709293   5.216141
    20  H    4.521553   3.835844   3.521735   4.395857   5.214045
    21  H    3.063853   3.407708   4.365210   4.696021   3.082445
    22  H    2.491011   2.937500   3.529897   4.049418   3.339651
    23  H    1.763161   4.435386   5.622269   6.260974   4.446069
    24  H    3.065711   2.634117   4.012517   4.539646   2.334249
    25  C    2.909238   4.004579   4.620467   5.576938   5.037085
    26  H    2.308020   4.281854   5.142555   6.065564   5.086865
    27  H    3.083677   4.621270   5.031279   5.995390   5.755097
    28  H    3.932359   4.630634   5.191982   6.129134   5.641340
                   11         12         13         14         15
    11  H    0.000000
    12  H    4.699922   0.000000
    13  C    5.581819   4.706178   0.000000
    14  H    6.290183   4.911921   1.097959   0.000000
    15  H    6.117960   4.861121   1.097927   1.771516   0.000000
    16  H    5.697356   5.630204   1.097025   1.772988   1.773229
    17  C    5.076672   4.191067   6.378657   6.226636   7.161972
    18  H    4.483070   4.684726   6.619121   6.596286   7.452421
    19  H    5.822862   4.561918   7.319904   7.139272   8.039040
    20  H    5.777906   4.831617   6.339853   6.026090   7.196606
    21  H    3.589661   3.763153   2.169895   3.087144   2.532510
    22  H    3.880365   3.847181   2.160560   2.525556   3.080897
    23  H    5.280570   2.425705   2.748179   3.089734   2.565067
    24  H    3.241440   1.748666   4.224771   4.787386   4.406483
    25  C    5.912276   2.691067   5.553532   5.268898   6.058991
    26  H    6.022189   2.044939   5.085008   4.838177   5.418872
    27  H    6.584887   3.612346   5.584449   5.100426   6.168684
    28  H    6.501133   3.209600   6.623238   6.350492   7.080553
                   16         17         18         19         20
    16  H    0.000000
    17  C    6.930248   0.000000
    18  H    7.037754   1.087071   0.000000
    19  H    7.937384   1.099677   1.780198   0.000000
    20  H    6.841727   1.100174   1.770465   1.758829   0.000000
    21  H    2.520639   5.716509   5.723836   6.629802   6.024871
    22  H    2.504222   4.514949   4.576573   5.529709   4.588022
    23  H    3.765272   5.703689   6.142162   6.363078   6.014089
    24  H    4.928691   4.689926   4.810453   5.286379   5.383915
    25  C    6.416188   2.496983   3.467722   2.680408   2.772735
    26  H    6.050994   3.476805   4.355316   3.716037   3.773412
    27  H    6.404013   2.716079   3.749781   2.962302   2.534468
    28  H    7.498970   2.743973   3.732014   2.464402   3.142430
                   21         22         23         24         25
    21  H    0.000000
    22  H    1.758595   0.000000
    23  H    2.526484   3.065002   0.000000
    24  H    2.582152   3.201011   2.483832   0.000000
    25  C    5.268298   4.362253   4.177192   3.990963   0.000000
    26  H    4.879830   4.249191   3.349727   3.570915   1.090529
    27  H    5.675395   4.516663   4.633320   4.826294   1.099231
    28  H    6.222918   5.403090   5.035693   4.628089   1.099549
                   26         27         28
    26  H    0.000000
    27  H    1.768579   0.000000
    28  H    1.773684   1.758626   0.000000
 Symmetry turned off by external request.
 Stoichiometry    C8H17BO2
 Framework group  C1[X(C8H17BO2)]
 Deg. of freedom    78
 Full point group                 C1      NOp   1
 Rotational constants (GHZ):           1.1291993           0.7583970           0.5626997
 Standard basis: 6-31+G(d) (6D, 7F)
   243 basis functions,   420 primitive gaussians,   243 cartesian basis functions
    43 alpha electrons       43 beta electrons
       nuclear repulsion energy       629.5456898839 Hartrees.
 NAtoms=   28 NActive=   28 NUniq=   28 SFac= 1.00D+00 NAtFMM=   60 NAOKFM=F Big=F
 Integral buffers will be    131072 words long.
 Raffenetti 2 integral format.
 Two-electron integral symmetry is turned off.
 Nuclear repulsion after empirical dispersion term =      629.5205902502 Hartrees.
 One-electron integrals computed using PRISM.
 NBasis=   243 RedAO= T EigKep=  4.75D-06  NBF=   243
 NBsUse=   243 1.00D-06 EigRej= -1.00D+00 NBFU=   243
 Initial guess from the checkpoint file:  "MOLECULE_25.chk"
 B after Tr=     0.019364    0.003761   -0.009635
         Rot=    0.999999   -0.000472   -0.000121    0.000990 Ang=  -0.13 deg.
 ExpMin= 3.15D-02 ExpMax= 5.48D+03 ExpMxC= 8.25D+02 IAcc=3 IRadAn=         5 AccDes= 0.00D+00
 Harris functional with IExCor=  402 and IRadAn=       5 diagonalized for initial guess.
 HarFok:  IExCor=  402 AccDes= 0.00D+00 IRadAn=         5 IDoV= 1 UseB2=F ITyADJ=14
 ICtDFT=  3500011 ScaDFX=  1.000000  1.000000  1.000000  1.000000
 FoFCou: FMM=F IPFlag=           0 FMFlag=      100000 FMFlg1=           0
         NFxFlg=           0 DoJE=T BraDBF=F KetDBF=T FulRan=T
         wScrn=  0.000000 ICntrl=       500 IOpCl=  0 I1Cent=   200000004 NGrid=           0
         NMat0=    1 NMatS0=      1 NMatT0=    0 NMatD0=    1 NMtDS0=    0 NMtDT0=    0
 Symmetry not used in FoFCou.
 Requested convergence on RMS density matrix=1.00D-08 within 128 cycles.
 Requested convergence on MAX density matrix=1.00D-06.
 Requested convergence on             energy=1.00D-06.
 No special actions if energy rises.
 SCF Done:  E(RB3LYP) =  -490.532079225     A.U. after   12 cycles
            NFock= 12  Conv=0.71D-08     -V/T= 2.0099
 Calling FoFJK, ICntrl=      2127 FMM=F ISym2X=0 I1Cent= 0 IOpClX= 0 NMat=1 NMatS=1 NMatT=0.
 -------------------------------------------------------------------
 Center     Atomic                   Forces (Hartrees/Bohr)
 Number     Number              X              Y              Z
 -------------------------------------------------------------------
      1        6           0.000331746    0.001282274   -0.000289559
      2        6          -0.000697896   -0.000732833    0.000862814
      3        6          -0.001514582   -0.000895893   -0.000831117
      4        6           0.000646704    0.000516155   -0.000374282
      5        6           0.000121177   -0.000871069    0.000797596
      6        1          -0.000190312    0.000428019   -0.000285708
      7        5           0.002844866    0.001167286   -0.002636254
      8        8          -0.002213445   -0.003372008    0.001628114
      9        1           0.000580454    0.000980540   -0.000175217
     10        8          -0.001733223    0.000665321    0.002574838
     11        1           0.000535750   -0.000313235   -0.001112535
     12        1           0.000461915    0.000350082    0.000380655
     13        6           0.000333312    0.000096888   -0.000023067
     14        1          -0.000061917    0.000021908   -0.000041612
     15        1          -0.000145386    0.000015563   -0.000040314
     16        1          -0.000110916    0.000029514   -0.000033314
     17        6          -0.000978454    0.000701767   -0.000064499
     18        1           0.000713125    0.000399382   -0.000660104
     19        1           0.000240748    0.000033104   -0.000153382
     20        1           0.000233071   -0.000042588   -0.000259782
     21        1           0.000129916    0.000481960   -0.000141043
     22        1           0.000439557   -0.000107879   -0.000076798
     23        1          -0.000147081    0.000038213    0.000231097
     24        1           0.000111493    0.000224111   -0.000195936
     25        6           0.000192931   -0.000238473    0.000426981
     26        1           0.000122037   -0.000695507    0.000210682
     27        1          -0.000116959   -0.000075023    0.000077310
     28        1          -0.000128633   -0.000087579    0.000204436
 -------------------------------------------------------------------
 Cartesian Forces:  Max     0.003372008 RMS     0.000867819

 GradGradGradGradGradGradGradGradGradGradGradGradGradGradGradGradGradGrad
 Berny optimization.
 Using GEDIIS/GDIIS optimizer.
 FormGI is forming the generalized inverse of G from B-inverse, IUseBI=4.
 Internal  Forces:  Max     0.005015577 RMS     0.001013301
 Search for a local minimum.
 Step number   2 out of a maximum of  141
 All quantities printed in internal units (Hartrees-Bohrs-Radians)
 Mixed Optimization -- RFO/linear search
 Update second derivatives using D2CorX and points    1    2
 DE= -1.19D-03 DEPred=-1.36D-03 R= 8.78D-01
 TightC=F SS=  1.41D+00  RLast= 1.95D-01 DXNew= 5.0454D-01 5.8444D-01
 Trust test= 8.78D-01 RLast= 1.95D-01 DXMaxT set to 5.05D-01
 ITU=  1  0
 Use linear search instead of GDIIS.
     Eigenvalues ---    0.00230   0.00239   0.00280   0.00350   0.00533
     Eigenvalues ---    0.00569   0.00593   0.01122   0.01157   0.01408
     Eigenvalues ---    0.02232   0.02240   0.02631   0.03264   0.03445
     Eigenvalues ---    0.03922   0.04712   0.04755   0.05291   0.05394
     Eigenvalues ---    0.05467   0.06659   0.06764   0.07320   0.07419
     Eigenvalues ---    0.08275   0.08581   0.09400   0.11880   0.12186
     Eigenvalues ---    0.12424   0.13089   0.16000   0.16000   0.16000
     Eigenvalues ---    0.16000   0.16000   0.16000   0.16000   0.16000
     Eigenvalues ---    0.16000   0.16061   0.21892   0.21926   0.22095
     Eigenvalues ---    0.24610   0.24997   0.24997   0.24998   0.24999
     Eigenvalues ---    0.26461   0.27639   0.28434   0.28744   0.29098
     Eigenvalues ---    0.30209   0.30851   0.31836   0.33590   0.33642
     Eigenvalues ---    0.33666   0.33692   0.33736   0.33764   0.33787
     Eigenvalues ---    0.33871   0.33937   0.33939   0.34050   0.34062
     Eigenvalues ---    0.34328   0.34822   0.35185   0.45811   0.46695
     Eigenvalues ---    0.52085   0.52889   0.54573
 RFO step:  Lambda=-8.85346221D-04 EMin= 2.29787114D-03
 Quartic linear search produced a step of -0.08539.
 Iteration  1 RMS(Cart)=  0.11689544 RMS(Int)=  0.00200128
 Iteration  2 RMS(Cart)=  0.00387910 RMS(Int)=  0.00001784
 Iteration  3 RMS(Cart)=  0.00000317 RMS(Int)=  0.00001770
 Iteration  4 RMS(Cart)=  0.00000000 RMS(Int)=  0.00001770
 Variable       Old X    -DE/DX   Delta X   Delta X   Delta X     New X
                                 (Linear)    (Quad)   (Total)
    R1        2.57175  -0.00143   0.00039  -0.00454  -0.00415   2.56760
    R2        2.85978  -0.00025   0.00024  -0.00201  -0.00176   2.85802
    R3        2.86304   0.00097   0.00041   0.00073   0.00114   2.86418
    R4        2.89721  -0.00013   0.00006  -0.00074  -0.00067   2.89654
    R5        2.95834  -0.00049  -0.00173   0.00740   0.00567   2.96401
    R6        2.92176  -0.00087   0.00056  -0.00578  -0.00522   2.91654
    R7        2.07167   0.00028   0.00010   0.00026   0.00036   2.07202
    R8        2.06749   0.00026   0.00004   0.00049   0.00053   2.06803
    R9        2.90189  -0.00058   0.00067  -0.00538  -0.00471   2.89718
   R10        2.07840  -0.00030   0.00008  -0.00121  -0.00113   2.07726
   R11        2.07961   0.00023   0.00007   0.00024   0.00031   2.07992
   R12        2.89729   0.00005   0.00057  -0.00282  -0.00225   2.89505
   R13        2.07541   0.00049   0.00006   0.00102   0.00107   2.07649
   R14        2.07594   0.00029   0.00011   0.00023   0.00033   2.07627
   R15        2.61591  -0.00023   0.00228  -0.01244  -0.01016   2.60574
   R16        2.61754   0.00009   0.00227  -0.01172  -0.00946   2.60809
   R17        1.82637   0.00089   0.00101  -0.00376  -0.00275   1.82362
   R18        1.82533   0.00103   0.00098  -0.00336  -0.00238   1.82295
   R19        2.07484   0.00001  -0.00004   0.00024   0.00020   2.07504
   R20        2.07478   0.00005  -0.00004   0.00033   0.00029   2.07507
   R21        2.07308   0.00005  -0.00006   0.00043   0.00037   2.07345
   R22        2.05427   0.00104   0.00006   0.00242   0.00247   2.05674
   R23        2.07809  -0.00002   0.00004  -0.00025  -0.00021   2.07787
   R24        2.07903  -0.00001  -0.00001  -0.00001  -0.00001   2.07902
   R25        2.06080  -0.00047  -0.00007  -0.00089  -0.00096   2.05984
   R26        2.07725   0.00010   0.00000   0.00024   0.00024   2.07749
   R27        2.07785   0.00012  -0.00001   0.00036   0.00035   2.07820
    A1        2.19346  -0.00454  -0.00101  -0.01134  -0.01236   2.18110
    A2        2.15095   0.00389   0.00032   0.01254   0.01286   2.16380
    A3        1.93873   0.00065   0.00069  -0.00124  -0.00055   1.93818
    A4        2.09982   0.00453   0.00102   0.01117   0.01217   2.11199
    A5        2.18006  -0.00502  -0.00044  -0.01612  -0.01657   2.16349
    A6        2.00322   0.00049  -0.00060   0.00487   0.00426   2.00748
    A7        1.98475  -0.00035  -0.00070   0.00261   0.00185   1.98660
    A8        1.92913   0.00010   0.00052   0.00453   0.00498   1.93411
    A9        1.91129   0.00003  -0.00077  -0.00311  -0.00389   1.90740
   A10        1.89121   0.00101   0.00063   0.00984   0.01043   1.90164
   A11        1.89310  -0.00061  -0.00021  -0.00944  -0.00964   1.88346
   A12        1.84910  -0.00018   0.00062  -0.00515  -0.00449   1.84461
   A13        1.99869  -0.00195  -0.00090  -0.00389  -0.00480   1.99389
   A14        1.90807   0.00084   0.00012   0.00309   0.00321   1.91128
   A15        1.89446   0.00058   0.00043   0.00091   0.00134   1.89580
   A16        1.90026   0.00030  -0.00003  -0.00089  -0.00091   1.89934
   A17        1.89832   0.00067   0.00030   0.00144   0.00175   1.90007
   A18        1.85899  -0.00036   0.00015  -0.00045  -0.00030   1.85869
   A19        1.96451   0.00036   0.00002   0.00180   0.00181   1.96632
   A20        1.90523  -0.00002  -0.00008   0.00027   0.00019   1.90542
   A21        1.90802  -0.00022  -0.00036   0.00113   0.00076   1.90878
   A22        1.91980  -0.00022   0.00024  -0.00275  -0.00251   1.91729
   A23        1.90677   0.00008   0.00025   0.00030   0.00055   1.90732
   A24        1.85634   0.00000  -0.00007  -0.00088  -0.00094   1.85540
   A25        2.14464  -0.00356  -0.00003  -0.01292  -0.01296   2.13168
   A26        2.04158  -0.00004   0.00014  -0.00093  -0.00080   2.04077
   A27        2.09668   0.00359  -0.00012   0.01366   0.01354   2.11021
   A28        2.02536  -0.00130   0.00524  -0.03494  -0.02970   1.99566
   A29        2.03520  -0.00136   0.00514  -0.03473  -0.02958   2.00562
   A30        1.93703   0.00004  -0.00011   0.00077   0.00066   1.93769
   A31        1.93800   0.00017  -0.00013   0.00171   0.00158   1.93958
   A32        1.94701   0.00010   0.00009   0.00010   0.00019   1.94720
   A33        1.87724  -0.00011   0.00000  -0.00060  -0.00060   1.87664
   A34        1.88064  -0.00010   0.00008  -0.00110  -0.00103   1.87961
   A35        1.88105  -0.00013   0.00007  -0.00101  -0.00094   1.88010
   A36        1.98670  -0.00039  -0.00100   0.00223   0.00123   1.98793
   A37        1.91323   0.00026   0.00038  -0.00028   0.00010   1.91333
   A38        1.91731   0.00046   0.00019   0.00217   0.00236   1.91967
[...]
 7,0.00019647,-0.00044252,0.00017448,-0.00603135,-0.00879767,0.00036658
 ,-0.00228276,0.00082289,0.00008527,0.00053633,0.00049416,0.00021818,0.
 00022641,-0.00045828,0.00001673,-0.00003166,-0.00002694,0.00005897,-0.
 00000938,0.00000823,0.00000913,0.00002008,-0.00001770,-0.00000064,-0.0
 0000181,0.00000906,-0.00001243,-0.00993706,-0.01963120,0.05687345,-0.0
 0005818,0.00006946,-0.00013329,-0.00087353,0.00037963,-0.00040201,0.00
 017689,-0.00043310,-0.00020646,0.00038105,-0.00113872,-0.00013744,-0.0
 8821871,0.06600724,0.06112241,-0.00015214,0.00022714,0.00036657,-0.001
 57506,0.00078400,-0.00069991,-0.00002214,-0.00009375,-0.00001504,0.000
 02366,0.00003791,0.00002347,0.00007125,-0.00011273,0.00003627,-0.00001
 886,-0.00003478,-0.00002546,0.00007270,0.00002840,0.00017735,-0.014818
 73,0.02307008,0.01896159,0.00086798,-0.00060187,0.00064310,-0.00604005
 ,0.00116600,-0.00216094,0.00113604,-0.00000562,-0.00031850,-0.00001365
 ,-0.00005469,-0.00002642,0.00000282,0.00000601,-0.00000097,0.00000330,
 -0.00000826,-0.00000702,0.00002031,-0.00005365,-0.00000367,0.00774382,
 -0.01224224,-0.01167203,0.10072459,0.00008710,0.00029259,0.00020082,0.
 00083392,-0.00078373,0.00060612,0.00012446,0.00010465,-0.00070587,-0.0
 0518189,0.00820740,0.00748921,0.06674462,-0.16870520,-0.10549614,-0.00
 019636,0.00094641,-0.00048038,-0.00027163,0.00080979,-0.00082796,0.000
 37861,-0.00032168,0.00034086,-0.00028617,0.00008895,0.00001564,0.00063
 309,-0.00015256,0.00057383,-0.00024676,-0.00009472,-0.00004982,-0.0002
 6176,0.00002894,-0.00019323,0.00249543,-0.00415345,-0.00312909,0.00012
 302,0.00085897,0.00035037,0.00102990,0.00127065,0.00101108,0.00017386,
 -0.00032899,0.00039305,0.00005735,0.00002456,0.00004556,-0.00002300,0.
 00002097,-0.00000229,0.00000075,-0.00001705,0.00000985,-0.00001596,-0.
 00000055,-0.00001386,0.01106319,-0.01939310,-0.01691924,-0.07722169,0.
 18082277,0.00022543,0.00088106,0.00015289,-0.00028281,-0.00053426,0.00
 041984,0.00044791,-0.00062349,0.00034211,0.01265997,-0.02268598,-0.021
 78723,0.06167619,-0.10484262,-0.14140372,0.00027491,0.00034583,0.00114
 830,-0.00187180,0.00016564,-0.00023868,0.00035764,-0.00011991,-0.00001
 644,-0.00003259,0.00001193,0.00006849,0.00044488,0.00037781,0.00015155
 ,-0.00004719,-0.00006102,0.00002140,0.00001238,0.00019921,0.00027513,-
 0.00515498,0.00797116,0.00655611,0.00075840,-0.00011185,0.00009526,-0.
 00258776,0.00065752,0.00025629,0.00054799,0.00014211,0.00069200,-0.000
 03391,0.00001504,0.00006156,-0.00000298,0.00000890,-0.00000589,0.00005
 102,-0.00004067,0.00001614,-0.00001454,0.00000288,-0.00003307,-0.00163
 946,0.00162491,0.00161692,-0.06526991,0.11389526,0.15760251,-0.0008632
 2,-0.00013890,0.00071534,-0.00457484,-0.00048366,-0.00334079,-0.015680
 30,0.02232030,0.01791497,-0.09464453,0.07014869,0.06509408,-0.00023404
 ,-0.00008273,-0.00011900,0.00804198,-0.01128332,-0.01093995,0.00038469
 ,0.00105224,-0.00063825,-0.00015290,-0.00006240,0.00047688,-0.00000499
 ,-0.00000304,0.00005125,-0.00009440,-0.00052901,0.00004617,-0.00003800
 ,0.00004830,0.00001615,0.00116753,0.00024390,-0.00031462,0.00060528,-0
 .00065625,-0.00106206,0.00001969,-0.00008620,0.00000757,0.00027378,0.0
 0016030,-0.00004278,-0.00000477,-0.00012518,0.00007294,0.00071073,0.00
 028878,0.00032701,-0.00000733,-0.00002957,-0.00002816,-0.00005152,0.00
 002453,-0.00003885,-0.00009443,0.00030615,0.00012295,-0.00025106,0.000
 11230,0.00029273,0.00054869,0.00003877,-0.00035915,0.10444871,0.000232
 50,0.00054287,0.00002398,0.00157056,0.00072656,0.00060199,0.00112002,-
 0.00343313,-0.00279948,0.07034281,-0.16302304,-0.09997240,-0.00452071,
 0.00744957,0.00799442,0.01229730,-0.01904916,-0.01685740,-0.00016584,-
 0.00054588,0.00069557,0.00007769,-0.00001372,-0.00033309,0.00000962,0.
 00000954,0.00000655,0.00011512,0.00032416,-0.00011487,0.00000599,-0.00
 002120,-0.00001543,0.00027011,-0.00024746,0.00049052,-0.00044765,0.000
 55553,0.00010070,0.00009802,-0.00011096,-0.00006086,-0.00019391,0.0001
 1771,-0.00028102,-0.00034356,0.00013328,-0.00002127,-0.00022304,-0.000
 02360,-0.00009673,0.00002185,0.00000426,0.00000311,0.00004571,-0.00002
 403,0.00001272,-0.00000376,-0.00008233,-0.00005111,-0.00016000,0.00091
 127,-0.00060908,0.00023647,0.00058638,0.00285097,-0.08076308,0.1745943
 6,-0.00008856,0.00022195,0.00006670,-0.00202157,-0.00032225,0.00022006
 ,-0.00629241,0.00839304,0.00615409,0.06469878,-0.09967185,-0.13581274,
 0.01307001,-0.02217100,-0.02230970,-0.00158195,0.00126457,0.00124329,-
 0.00043950,0.00052311,-0.00049106,0.00012971,-0.00009695,0.00029160,-0
 .00008013,0.00001754,0.00004691,0.00019189,-0.00005019,0.00016280,-0.0
 0009052,-0.00003685,-0.00001460,0.00031764,0.00027645,0.00082124,0.001
 17302,-0.00117101,0.00077913,-0.00010563,0.00002292,-0.00002914,-0.001
 20777,0.00085122,0.00000896,0.00002141,0.00037343,0.00053457,0.0001234
 3,0.00005870,0.00006790,-0.00000194,-0.00000030,-0.00001983,0.00000862
 ,-0.00000361,0.00000904,-0.00000004,0.00008337,0.00001632,0.00028997,0
 .00035908,0.00107678,-0.00028095,0.00289536,-0.00595970,-0.06854091,0.
 10828049,0.15311499,-0.00128735,0.00183218,0.00188877,0.00838290,0.015
 58048,-0.00056982,-0.11281125,-0.11548667,0.00742225,-0.01993545,-0.02
 746895,0.00100058,0.00101363,-0.00099968,0.00104353,-0.00561133,0.0015
 5911,-0.00230272,0.00063927,0.00096616,0.00102009,0.00005956,-0.000234
 35,-0.00020608,-0.00002288,0.00004104,-0.00000881,-0.00203225,0.000317
 03,0.00226593,-0.00019003,-0.00009393,0.00000317,-0.00025700,-0.000166
 38,0.00064843,0.00001491,0.00023397,0.00017369,0.00029022,0.00010197,0
 .00011444,-0.00004173,-0.00001526,0.00002617,0.00009984,0.00009415,-0.
 00002022,-0.00054214,0.00057064,-0.00087599,-0.00000163,-0.00000123,-0
 .00000200,-0.00017121,0.00030295,0.00013730,0.00005753,-0.00007196,0.0
 0000188,0.00023522,0.00079177,-0.00089119,0.00000921,0.00010860,-0.000
 03185,0.00064226,0.00022071,0.00073520,0.13142183,0.00178162,-0.001797
 95,-0.00325551,-0.00895015,-0.02028946,0.00110277,-0.11337004,-0.24079
 962,0.01272706,0.00272276,0.00504040,-0.00007641,0.00037149,0.00062282
 ,-0.00016226,0.00153726,0.00116491,0.00094660,-0.00076477,-0.00305403,
 0.00013847,0.00001852,0.00061304,0.00010930,0.00009898,-0.00002737,-0.
 00012909,-0.00109329,0.00124600,0.00189662,-0.00024160,0.00049516,0.00
 036058,-0.00369766,-0.00648870,0.00163189,0.00016088,0.00026248,-0.000
 11303,0.00006039,-0.00010270,0.00007891,-0.00000653,-0.00002277,0.0000
 0401,-0.00006519,-0.00001314,-0.00003417,0.00041565,-0.00059922,0.0011
 2820,0.00003468,-0.00001943,-0.00001534,0.00020746,-0.00038787,-0.0002
 1481,-0.00006607,-0.00001623,-0.00002690,-0.00015083,0.00012857,-0.000
 47420,0.00000666,-0.00000179,0.00007587,-0.00064376,0.00066666,-0.0000
 9599,0.12155613,0.26341791,0.00190876,-0.00180099,-0.00265398,-0.00894
 662,-0.01526064,0.00066702,0.01004322,0.01647300,-0.05234539,-0.008069
 81,-0.01046337,0.00039327,-0.00043053,-0.00148004,0.00054763,-0.002573
 99,0.00033551,-0.00030918,0.00007459,-0.00310739,-0.00054208,-0.000100
 48,0.00062834,0.00047813,0.00006617,-0.00007691,-0.00003640,0.00154711
 ,0.00036228,-0.00200168,-0.00001575,0.00035214,0.00006189,0.01704658,0
 .02795918,-0.00178032,-0.00005299,0.00015416,0.00002263,0.00016628,0.0
 0010331,-0.00001190,0.00003437,-0.00003563,-0.00000872,0.00004719,0.00
 003372,-0.00000535,0.00048887,-0.00044479,0.00116390,0.00002132,-0.000
 03219,0.00002934,0.00027445,-0.00040520,-0.00013557,-0.00006839,0.0000
 5073,-0.00001447,-0.00008627,0.00047028,-0.00029597,-0.00002311,0.0000
 1344,-0.00005466,0.00069156,0.00025507,0.00010515,-0.01188532,-0.01490
 266,0.05656646,-0.12003173,-0.01731880,0.05408128,0.00833154,-0.007266
 73,0.00705220,-0.00541125,-0.00081949,-0.00435411,-0.00051894,0.000637
 35,0.00068596,0.00018704,0.00008936,0.00023783,0.00000915,0.00032840,-
 0.00023995,0.00642296,0.00063662,0.00569376,-0.00035638,-0.00020946,-0
 .00044968,-0.00025132,0.00011606,0.00001401,-0.00023580,0.00060506,-0.
 00109845,-0.00037768,0.00043420,-0.00044857,0.00062079,-0.00066960,0.0
 0104299,-0.00001222,-0.00000373,-0.00001213,0.00000440,-0.00000531,0.0
 0000293,0.00001649,-0.00001075,-0.00000922,0.00000919,-0.00000762,0.00
 000142,-0.01340588,-0.00127097,0.01884948,-0.00070775,0.00230557,0.001
 99003,0.00036180,-0.00095280,0.00078294,0.00006724,-0.00036189,-0.0003
 1271,-0.00002618,0.00001867,-0.00002682,0.00002587,-0.00010373,0.00004
 141,-0.00037403,0.00014271,-0.00008729,0.00006652,-0.00020275,0.000745
 46,0.53165301,-0.01697328,-0.09574833,0.02294449,-0.01849277,-0.013706
 62,0.02786581,-0.00310777,-0.00025720,0.00108127,-0.00018103,0.0000286
 0,-0.00043139,0.00007489,0.00015640,0.00026782,0.00064062,-0.00007217,
 0.00039235,0.00343032,-0.00248729,-0.00243961,-0.00094528,0.00104179,0
 .00116633,-0.00010412,0.00002534,-0.00000002,-0.00107880,-0.00112273,0
 .00111217,-0.00026696,-0.00021230,0.00003519,-0.00074451,-0.00215298,0
 .00002060,0.00002810,-0.00000231,-0.00011812,0.00001809,0.00001448,0.0
 0002451,0.00004333,-0.00003752,0.00000928,-0.00002069,0.00000722,-0.00
 002216,0.01600492,0.00796774,-0.01806257,0.00282129,-0.00411113,-0.003
 28726,0.00022153,0.00076234,-0.00078833,-0.00001280,-0.00035133,-0.000
 54939,-0.00000089,0.00011001,-0.00010835,-0.00000366,-0.00009624,-0.00
 018891,0.00006651,0.00006450,0.00000153,0.00022651,0.00003750,0.000523
 93,-0.04331164,0.56287621,0.05164864,0.02299604,-0.14194096,0.01104744
 ,0.00860724,-0.00136318,-0.00362754,-0.00134341,-0.00251616,-0.0013695
 2,-0.00001515,0.00011339,0.00037082,0.00041395,0.00034515,0.00044142,0
 .00080119,0.00006745,0.00585056,0.00006974,0.00503089,-0.00082277,0.00
 031965,-0.00007242,-0.00029791,0.00006706,0.00000645,-0.00039026,0.000
 36722,-0.00077034,-0.00044944,0.00023151,-0.00025065,-0.00015969,-0.00
 019260,0.00016569,0.00005390,-0.00004960,-0.00004717,-0.00000046,-0.00
 000552,0.00002433,0.00003754,-0.00001693,0.00001144,-0.00000354,0.0000
 0748,-0.00001584,0.01692221,0.00169204,-0.01472232,0.00093337,-0.00200
 734,-0.00000282,-0.00008842,0.00107366,0.00024154,-0.00010125,0.001137
 08,0.00000225,-0.00004102,0.00008894,-0.00021429,0.00001203,-0.0001214
 7,-0.00013490,-0.00010705,0.00008359,-0.00005738,0.00053480,-0.0006775
 2,-0.00029372,0.00659114,0.04208257,0.50302998,-0.00965396,0.01452211,
 0.00398876,-0.00021393,0.00008749,0.00031394,0.00034711,0.00005710,0.0
 0102655,0.00043113,0.00035704,-0.00034364,-0.00020940,0.00006352,0.000
 03027,-0.00016283,0.00051782,-0.00046022,0.00031817,0.00062421,-0.0002
 5740,0.00004460,-0.00014276,0.00001011,-0.00002685,0.00000388,-0.00003
 129,-0.00002537,-0.00034683,-0.00006278,0.00003261,0.00000861,-0.00000
 989,0.00012688,-0.00143486,-0.00106491,0.00003261,0.00000521,-0.000076
 20,-0.00001077,-0.00000985,0.00000110,0.00001189,-0.00000258,0.0000065
 9,-0.00003231,0.00000949,-0.00001850,-0.00173053,-0.00208214,0.0028186
 4,-0.00005658,0.00096705,0.00076358,0.00030970,-0.00058781,-0.00013396
 ,0.00010990,0.00020689,0.00034702,-0.00001340,-0.00001587,0.00000032,0
 .00001163,-0.00003305,-0.00005302,0.00002691,0.00002944,0.00003648,-0.
 00007083,0.00021340,-0.00061578,-0.14883012,0.11383468,0.06431498,0.15
 702658,-0.00733519,0.01107032,0.00302123,0.00037885,-0.00011258,-0.000
 19572,-0.00112286,-0.00286066,0.00071494,0.00028543,-0.00051767,0.0003
 6544,-0.00013672,0.00000009,0.00005675,0.00024874,-0.00067178,0.000599
 59,0.00010526,0.00004776,0.00009137,0.00004920,0.00004309,-0.00013287,
 -0.00000217,0.00001154,-0.00000464,0.00004151,0.00009677,-0.00007980,0
 .00001710,0.00000283,-0.00001326,-0.00138906,-0.00334626,0.00095407,0.
 00003575,0.00005281,-0.00004753,-0.00001694,-0.00001833,-0.00000968,-0
 .00000810,0.00000750,0.00000436,-0.00002972,-0.00000307,-0.00001023,-0
 .00090730,-0.00019015,0.00146993,-0.00034621,0.00051962,0.00040650,-0.
 00031359,0.00004655,-0.00007602,-0.00003403,0.00004091,0.00027047,0.00
 002831,-0.00000368,0.00002833,0.00001886,0.00000288,-0.00000900,-0.000
 06405,-0.00010003,-0.00001025,-0.00002944,0.00013073,0.00005902,0.1165
 1804,-0.18312079,-0.07413522,-0.12628462,0.20321257,0.01217131,-0.0194
 3330,-0.00875832,-0.00027208,-0.00046072,-0.00004626,0.00009661,-0.000
 01855,0.00019703,0.00034883,0.00118779,0.00005601,-0.00016134,-0.00034
 914,-0.00023629,-0.00098313,0.00029416,-0.00063919,-0.00023269,-0.0006
 6498,-0.00000765,-0.00009543,0.00023210,0.00001215,0.00003788,-0.00000
 821,0.00002771,-0.00003516,0.00028298,0.00007253,0.00000305,-0.0000331
 5,0.00003909,-0.00007770,0.00004242,0.00095810,-0.00004136,0.00003297,
 0.00006264,-0.00001397,0.00000075,-0.00002993,-0.00000970,-0.00000340,
 -0.00001737,0.00002408,-0.00002824,0.00004011,0.00367796,0.00329457,-0
 .00327041,0.00090349,-0.00137395,-0.00047920,-0.00006196,-0.00011493,0
 .00037678,-0.00026663,0.00026654,0.00032264,0.00001149,-0.00009222,0.0
 0018114,0.00001672,0.00005613,0.00007313,-0.00012318,-0.00019322,-0.00
 001563,-0.00015984,-0.00010022,0.00017284,0.06313399,-0.07168091,-0.08
 930147,-0.07075418,0.07860652,0.09399976,-0.01052505,-0.01484463,-0.00
 599625,-0.00188897,-0.00001301,0.00338467,-0.00022464,0.00096755,-0.00
 005467,0.00007424,-0.00003387,0.00005633,-0.00001853,0.00004747,0.0000
 4964,0.00001642,-0.00002264,0.00008312,0.00200611,0.00015458,-0.000755
 53,-0.00042883,0.00038234,0.00055092,-0.00009139,0.00001396,-0.0000340
 2,-0.00032743,-0.00041650,0.00018888,-0.00005268,-0.00000256,-0.000017
 34,-0.00009317,-0.00015159,-0.00057635,-0.00000740,-0.00001990,-0.0000
 3245,0.00000749,0.00000731,-0.00000506,0.00002522,-0.00000683,0.000001
 03,0.00000052,-0.00000818,0.00001532,0.00071879,-0.00019590,-0.0001150
 4,0.00038227,0.00011375,0.00000555,-0.00040303,0.00003664,-0.00023103,
 -0.00025918,0.00033908,0.00094799,-0.00000166,-0.00000950,-0.00000193,
 0.00000568,-0.00004778,-0.00008654,0.00005139,-0.00006529,0.00000936,0
 .00000337,0.00004365,-0.00031300,-0.12953172,-0.10768983,-0.04811467,0
 .01318279,0.01506526,0.00701621,0.13910306,-0.00731214,-0.01148884,-0.
 00115119,-0.00105380,0.00054907,0.00101211,-0.00075784,-0.00016375,-0.
 00004370,-0.00056549,-0.00028728,-0.00007879,0.00015472,0.00003040,-0.
 00001560,0.00006863,0.00015228,-0.00010811,0.00084183,-0.00027220,-0.0
 0008670,-0.00015551,0.00018125,0.00023739,-0.00006895,-0.00002766,0.00
 000691,-0.00021636,-0.00014751,0.00019656,-0.00009920,0.00000566,0.000
 00696,0.00016435,0.00045959,0.00037073,-0.00005405,-0.00006494,0.00003
 582,0.00004602,0.00002271,0.00000344,0.00001337,0.00001064,-0.00000047
 ,0.00003121,0.00000015,0.00001920,0.00122331,0.00034049,-0.00111245,0.
 00030041,0.00001706,0.00037121,-0.00000968,0.00010613,0.00010903,0.000
 06816,0.00068269,0.00027505,-0.00000100,0.00004888,-0.00002042,-0.0000
 4188,-0.00002213,0.00000500,0.00009874,0.00002578,-0.00000094,0.000120
 69,-0.00019436,0.00031318,-0.10768803,-0.19046839,-0.06928520,-0.01346
 375,-0.01645048,-0.00781141,0.12096790,0.20721113,0.01637187,0.0205916
 0,0.00838241,0.00130952,0.00090943,-0.00378418,0.00081357,-0.00035412,
 0.00012786,0.00007069,-0.00008912,-0.00005772,0.00000937,-0.00004027,-
 0.00008022,-0.00011118,0.00003391,-0.00002134,-0.00186141,0.00018319,-
 0.00046146,0.00027625,-0.00015565,-0.00023884,0.00007845,-0.00002749,0
 .00001333,0.00026879,0.00021053,-0.00002271,0.00013788,-0.00000987,0.0
 0003985,-0.00005981,0.00013350,0.00045799,-0.00000625,0.00000960,0.000
 02807,-0.00001358,0.00000235,0.00000096,-0.00001107,-0.00000334,-0.000
 00510,0.00000797,-0.00000265,0.00000708,0.00007065,0.00035785,0.000464
 16,-0.00038033,0.00029848,0.00012549,-0.00021100,-0.00012253,-0.000040
 53,0.00036995,-0.00028658,-0.00056993,0.00000426,-0.00002012,0.0000119
 2,0.00000343,0.00004568,0.00003482,0.00000018,-0.00003341,-0.00000397,
 -0.00003713,0.00003800,0.00019827,-0.04737008,-0.06758040,-0.07414767,
 -0.00717637,-0.00768499,-0.00481291,0.05145506,0.07281635,0.08342967,0
 .01324230,-0.00727476,0.01600433,-0.00241233,-0.00075890,0.00111680,0.
 00058320,0.00032793,0.00090454,-0.00026393,-0.00053105,-0.00034248,0.0
 0008287,0.00012179,0.00003749,0.00025896,0.00022323,0.00004706,-0.0009
 4830,-0.00009207,-0.00143620,0.00003862,0.00004989,0.00017132,0.000021
 77,-0.00000767,-0.00001696,-0.00002839,-0.00028150,0.00030180,0.000069
 06,-0.00010145,0.00008561,0.00001346,0.00010691,-0.00028304,0.00000776
 ,-0.00003683,-0.00001894,0.00001790,0.00000410,0.00001417,0.00000408,0
 .00000770,0.00001205,-0.00000557,0.00001348,-0.00001572,0.00023115,-0.
 00035145,-0.00004585,0.00008410,-0.00015812,-0.00022690,-0.00026424,0.
 00027607,0.00031934,-0.00010813,-0.00011467,-0.00004063,-0.00000318,0.
 00004740,-0.00007106,-0.00003443,-0.00000289,-0.00002963,0.00014872,0.
 00005022,0.00001363,0.00003880,0.00002314,0.00002615,-0.12770501,0.055
 52324,-0.10318533,-0.01097565,0.00522767,-0.01415325,-0.01172367,0.007
 38836,-0.01400970,0.13963010,0.00468237,-0.00831580,0.01192455,-0.0018
 1610,0.00118384,0.00128302,0.00041174,0.00009187,0.00022982,0.00019955
 ,0.00030645,-0.00002565,-0.00017461,-0.00010970,-0.00006547,-0.0002037
 2,-0.00014607,-0.00006367,-0.00048221,-0.00005123,-0.00104483,-0.00005
 874,0.00004925,0.00020186,0.00004161,-0.00002161,0.00000734,-0.0001778
 1,-0.00027662,0.00025012,0.00004836,-0.00007762,0.00010265,0.00008587,
 -0.00025662,0.00001464,-0.00002934,0.00000152,-0.00000021,0.00000693,0
 .00000833,-0.00001016,0.00000682,-0.00000056,-0.00000714,0.00000653,-0
 .00000785,0.00001789,0.00002873,-0.00049155,-0.00107987,-0.00007352,-0
 .00010311,-0.00003934,0.00031783,0.00039158,-0.00037603,0.00018539,0.0
 0023548,-0.00018400,0.00002391,-0.00004304,0.00007266,0.00000876,0.000
 00525,-0.00001339,0.00004166,-0.00003788,0.00000845,-0.00005623,-0.000
 01154,-0.00007749,0.05837129,-0.07914479,0.06781100,0.01289620,-0.0078
 9049,0.01806961,-0.01461147,0.00974363,-0.01921991,-0.05967978,0.08496
 891,-0.01173330,0.01114296,-0.01840700,0.00303811,-0.00131374,-0.00185
 645,-0.00084022,-0.00001163,-0.00085989,0.00028468,0.00018051,0.000410
 58,-0.00004046,-0.00010137,0.00000157,-0.00016704,-0.00011448,-0.00007
 854,0.00036993,0.00000274,0.00226014,0.00018510,-0.00025383,-0.0005208
 0,-0.00002256,0.00001747,0.00002167,0.00026702,0.00052035,-0.00050356,
 -0.00008006,0.00009468,-0.00010233,-0.00008979,0.00010084,0.00002708,0
 .00001116,0.00001641,-0.00000603,-0.00000916,-0.00001140,-0.00000183,-
 0.00001315,0.00000655,0.00000363,-0.00001249,0.00000522,-0.00002235,-0
 .00040669,0.00108714,0.00007932,0.00034984,-0.00009404,0.00051451,0.00
 090039,-0.00109891,-0.00020186,-0.00006621,0.00012274,0.00022342,0.000
 00182,-0.00001459,0.00003722,0.00002019,-0.00000290,0.00004982,-0.0001
 7502,0.00003972,-0.00000577,-0.00002525,0.00003978,0.00008285,-0.10653
 782,0.06772956,-0.18318728,0.00739980,-0.00423934,0.01102295,-0.007430
 19,0.00393601,-0.00907528,0.11482140,-0.07778643,0.20009421\\0.0000029
 6,-0.00000630,0.00000222,0.00000087,0.00001099,-0.00000214,-0.00000367
 ,0.00000182,-0.00000225,0.00000581,-0.00000182,0.00000106,-0.00000209,
 -0.00000079,0.00000289,-0.00000226,-0.00000104,0.00000027,-0.00000423,
 -0.00001152,0.00000075,-0.00000703,-0.00000408,-0.00000235,0.00000965,
 0.00000420,-0.00000153,0.00000202,0.00000525,0.00000911,0.00000052,0.0
 0000260,-0.00000843,0.00000081,0.00000205,-0.00000030,0.00000368,-0.00
 000036,0.00000010,0.00000051,0.00000110,-0.00000006,-0.00000138,0.0000
 0091,0.00000008,0.00000055,0.00000110,-0.00000037,-0.00000167,0.000000
 45,0.,-0.00000245,0.00000051,0.00000091,0.00000028,-0.00000205,0.00000
 120,0.,-0.00000036,0.00000142,0.00000060,0.00000093,-0.00000110,0.0000
 0113,0.00000016,-0.00000053,0.00000075,-0.00000083,0.00000037,-0.00000
 085,0.00000207,0.00000181,-0.00000385,-0.00000453,-0.00000156,0.000000
 13,-0.00000199,-0.00000090,-0.00000068,-0.00000007,-0.00000016,-0.0000
 0012,0.00000159,-0.00000049\\\@


 BLACK HOLES SUCK.
 Job cpu time:       0 days  1 hours 27 minutes 35.7 seconds.
 Elapsed time:       0 days  0 hours  2 minutes 55.3 seconds.
 File lengths (MBytes):  RWF=    178 Int=      0 D2E=      0 Chk=      6 Scr=      1
 Normal termination of Gaussian 16 at Fri Sep 15 03:53:53 2023.
