 Entering Gaussian System, Link 0=/home/ubuntu/g16/g16
 Input=/home/ubuntu/Downloads/molecule37vol.gjf
 Output=/home/ubuntu/Downloads/molecule37vol.log
 Initial command:
 /home/ubuntu/g16/l1.exe "/home/ubuntu/Scratch/Gau-80100.inp" -scrdir="/home/ubuntu/Scratch/"
 Entering Link 1 = /home/ubuntu/g16/l1.exe PID=     80102.
  
 Copyright (c) 1988-2017, Gaussian, Inc.  All Rights Reserved.
  
 This is part of the Gaussian(R) 16 program.  It is based on
 the Gaussian(R) 09 system (copyright 2009, Gaussian, Inc.),
 the Gaussian(R) 03 system (copyright 2003, Gaussian, Inc.),
 the Gaussian(R) 98 system (copyright 1998, Gaussian, Inc.),
 the Gaussian(R) 94 system (copyright 1995, Gaussian, Inc.),
 the Gaussian 92(TM) system (copyright 1992, Gaussian, Inc.),
 the Gaussian 90(TM) system (copyright 1990, Gaussian, Inc.),
 the Gaussian 88(TM) system (copyright 1988, Gaussian, Inc.),
 the Gaussian 86(TM) system (copyright 1986, Carnegie Mellon
 University), and the Gaussian 82(TM) system (copyright 1983,
 Carnegie Mellon University). Gaussian is a federally registered
 trademark of Gaussian, Inc.
  
 This software contains proprietary and confidential information,
 including trade secrets, belonging to Gaussian, Inc.
  
 This software is provided under written license and may be
 used, copied, transmitted, or stored only in accord with that
 written license.
  
 The following legend is applicable only to US Government
 contracts under FAR:
  
                    RESTRICTED RIGHTS LEGEND
  
 Use, reproduction and disclosure by the US Government is
 subject to restrictions as set forth in subparagraphs (a)
 and (c) of the Commercial Computer Software - Restricted
 Rights clause in FAR 52.227-19.
  
 Gaussian, Inc.
 340 Quinnipiac St., Bldg. 40, Wallingford CT 06492
  
  
 ---------------------------------------------------------------
 Warning -- This program may not be used in any manner that
 competes with the business of Gaussian, Inc. or will provide
 assistance to any competitor of Gaussian, Inc.  The licensee
 of this program is prohibited from giving any competitor of
 Gaussian, Inc. access to this program.  By using this program,
 the user acknowledges that Gaussian, Inc. is engaged in the
 business of creating and licensing software in the field of
 computational chemistry and represents and warrants to the
 licensee that it is not a competitor of Gaussian, Inc. and that
 it will not use this program in any manner prohibited above.
 ---------------------------------------------------------------
  

 Cite this work as:
 Gaussian 16, Revision B.01,
 M. J. Frisch, G. W. Trucks, H. B. Schlegel, G. E. Scuseria, 
 M. A. Robb, J. R. Cheeseman, G. Scalmani, V. Barone, 
 G. A. Petersson, H. Nakatsuji, X. Li, M. Caricato, A. V. Marenich, 
 J. Bloino, B. G. Janesko, R. Gomperts, B. Mennucci, H. P. Hratchian, 
 J. V. Ortiz, A. F. Izmaylov, J. L. Sonnenberg, D. Williams-Young, 
 F. Ding, F. Lipparini, F. Egidi, J. Goings, B. Peng, A. Petrone, 
 T. Henderson, D. Ranasinghe, V. G. Zakrzewski, J. Gao, N. Rega, 
 G. Zheng, W. Liang, M. Hada, M. Ehara, K. Toyota, R. Fukuda, 
 J. Hasegawa, M. Ishida, T. Nakajima, Y. Honda, O. Kitao, H. Nakai, 
 T. Vreven, K. Throssell, J. A. Montgomery, Jr., J. E. Peralta, 
 F. Ogliaro, M. J. Bearpark, J. J. Heyd, E. N. Brothers, K. N. Kudin, 
 V. N. Staroverov, T. A. Keith, R. Kobayashi, J. Normand, 
 K. Raghavachari, A. P. Rendell, J. C. Burant, S. S. Iyengar, 
 J. Tomasi, M. Cossi, J. M. Millam, M. Klene, C. Adamo, R. Cammi, 
 J. W. Ochterski, R. L. Martin, K. Morokuma, O. Farkas, 
 J. B. Foresman, and D. J. Fox, Gaussian, Inc., Wallingford CT, 2016.
 
 ******************************************
 Gaussian 16:  EM64L-G16RevB.01 20-Dec-2017
                19-Sep-2023 
 ******************************************
 %nprocshared=32
 Will use up to   32 processors via shared memory.
 %mem=60GB
 %chk=molecule37vol.chk
 ----------------------------------------------------------------------
 # opt freq b3lyp/6-31+g(d) empiricaldispersion=gd3 scf=maxcycle=1000 v
 olume
 ----------------------------------------------------------------------
 1/18=20,19=15,26=3,38=1/1,3;
 2/9=110,12=2,17=6,18=5,40=1/2;
 3/5=1,6=6,7=11,11=2,25=1,30=1,71=1,74=-5,124=31/1,2,3;
 4//1;
 5/5=2,7=1000,38=5/2;
 6/7=2,8=2,9=2,10=2,28=1,44=1/1,4;
 7//1,2,3,16;
 1/18=20,19=15,26=3/3(2);
 2/9=110/2;
 99//99;
 2/9=110/2;
 3/5=1,6=6,7=11,11=2,25=1,30=1,71=1,74=-5,124=31/1,2,3;
 4/5=5,16=3,69=1/1;
 5/5=2,7=1000,38=5/2;
 7//1,2,3,16;
 1/18=20,19=15,26=3/3(-5);
 2/9=110/2;
 6/7=2,8=2,9=2,10=2,19=2,28=1,44=1/1,4;
 99/9=1/99;
 -------------------
 Title Card Required
 -------------------
 Symbolic Z-matrix:
 Charge =  0 Multiplicity = 1
 C                     0.15844   1.7967    0.00024 
 C                     1.32224   1.02571   0.00062 
 C                     1.21348  -0.37031   0.00006 
 C                    -0.04193  -0.9818   -0.00091 
 C                    -1.21031  -0.2098   -0.00116 
 C                    -1.0997    1.18858  -0.00075 
 H                     0.23656   2.88106   0.00037 
 H                     2.30177   1.50079   0.00117 
 H                    -0.09142  -2.06775  -0.00163 
 O                     2.31033  -1.19773   0.00015 
 H                     3.12295  -0.66873   0.0003 
 H                    -1.99776   1.80118  -0.00135 
 C                    -2.56101  -0.8898    0.0009 
 H                    -2.6731   -1.55126  -0.86735 
 H                    -2.69114  -1.50831   0.89803 
 H                    -3.37769  -0.16081  -0.02472 
 

 GradGradGradGradGradGradGradGradGradGradGradGradGradGradGradGradGradGrad
 Berny optimization.
 Initialization pass.
                           ----------------------------
                           !    Initial Parameters    !
                           ! (Angstroms and Degrees)  !
 --------------------------                            --------------------------
 ! Name  Definition              Value          Derivative Info.                !
 --------------------------------------------------------------------------------
 ! R1    R(1,2)                  1.396          estimate D2E/DX2                !
 ! R2    R(1,6)                  1.3974         estimate D2E/DX2                !
 ! R3    R(1,7)                  1.0872         estimate D2E/DX2                !
 ! R4    R(2,3)                  1.4003         estimate D2E/DX2                !
 ! R5    R(2,8)                  1.0887         estimate D2E/DX2                !
 ! R6    R(3,4)                  1.3964         estimate D2E/DX2                !
 ! R7    R(3,10)                 1.3739         estimate D2E/DX2                !
 ! R8    R(4,5)                  1.4004         estimate D2E/DX2                !
 ! R9    R(4,9)                  1.0871         estimate D2E/DX2                !
 ! R10   R(5,6)                  1.4027         estimate D2E/DX2                !
 ! R11   R(5,13)                 1.5122         estimate D2E/DX2                !
 ! R12   R(6,12)                 1.0871         estimate D2E/DX2                !
 ! R13   R(10,11)                0.9696         estimate D2E/DX2                !
 ! R14   R(13,14)                1.0972         estimate D2E/DX2                !
 ! R15   R(13,15)                1.0974         estimate D2E/DX2                !
 ! R16   R(13,16)                1.095          estimate D2E/DX2                !
 ! A1    A(2,1,6)              120.6796         estimate D2E/DX2                !
 ! A2    A(2,1,7)              119.4031         estimate D2E/DX2                !
 ! A3    A(6,1,7)              119.9173         estimate D2E/DX2                !
 ! A4    A(1,2,3)              119.069          estimate D2E/DX2                !
 ! A5    A(1,2,8)              120.6024         estimate D2E/DX2                !
 ! A6    A(3,2,8)              120.3287         estimate D2E/DX2                !
 ! A7    A(2,3,4)              120.4243         estimate D2E/DX2                !
 ! A8    A(2,3,10)             122.5747         estimate D2E/DX2                !
 ! A9    A(4,3,10)             117.0011         estimate D2E/DX2                !
 ! A10   A(3,4,5)              120.576          estimate D2E/DX2                !
 ! A11   A(3,4,9)              118.5788         estimate D2E/DX2                !
 ! A12   A(5,4,9)              120.8452         estimate D2E/DX2                !
 ! A13   A(4,5,6)              118.9318         estimate D2E/DX2                !
 ! A14   A(4,5,13)             119.8229         estimate D2E/DX2                !
 ! A15   A(6,5,13)             121.2452         estimate D2E/DX2                !
 ! A16   A(1,6,5)              120.3193         estimate D2E/DX2                !
 ! A17   A(1,6,12)             119.9038         estimate D2E/DX2                !
 ! A18   A(5,6,12)             119.7769         estimate D2E/DX2                !
 ! A19   A(3,10,11)            109.9075         estimate D2E/DX2                !
 ! A20   A(5,13,14)            111.1772         estimate D2E/DX2                !
 ! A21   A(5,13,15)            111.1287         estimate D2E/DX2                !
 ! A22   A(5,13,16)            111.5164         estimate D2E/DX2                !
 ! A23   A(14,13,15)           107.1577         estimate D2E/DX2                !
 ! A24   A(14,13,16)           107.856          estimate D2E/DX2                !
 ! A25   A(15,13,16)           107.8118         estimate D2E/DX2                !
 ! D1    D(6,1,2,3)             -0.0025         estimate D2E/DX2                !
 ! D2    D(6,1,2,8)            179.9869         estimate D2E/DX2                !
 ! D3    D(7,1,2,3)           -179.9821         estimate D2E/DX2                !
 ! D4    D(7,1,2,8)              0.0074         estimate D2E/DX2                !
 ! D5    D(2,1,6,5)              0.0096         estimate D2E/DX2                !
 ! D6    D(2,1,6,12)          -179.9806         estimate D2E/DX2                !
 ! D7    D(7,1,6,5)            179.989          estimate D2E/DX2                !
 ! D8    D(7,1,6,12)            -0.0012         estimate D2E/DX2                !
 ! D9    D(1,2,3,4)              0.002          estimate D2E/DX2                !
 ! D10   D(1,2,3,10)           179.9884         estimate D2E/DX2                !
 ! D11   D(8,2,3,4)           -179.9874         estimate D2E/DX2                !
 ! D12   D(8,2,3,10)            -0.001          estimate D2E/DX2                !
 ! D13   D(2,3,4,5)             -0.0086         estimate D2E/DX2                !
 ! D14   D(2,3,4,9)            179.9817         estimate D2E/DX2                !
 ! D15   D(10,3,4,5)          -179.9957         estimate D2E/DX2                !
 ! D16   D(10,3,4,9)            -0.0054         estimate D2E/DX2                !
 ! D17   D(2,3,10,11)           -0.0218         estimate D2E/DX2                !
 ! D18   D(4,3,10,11)          179.9651         estimate D2E/DX2                !
 ! D19   D(3,4,5,6)              0.0153         estimate D2E/DX2                !
 ! D20   D(3,4,5,13)          -179.8643         estimate D2E/DX2                !
 ! D21   D(9,4,5,6)           -179.9747         estimate D2E/DX2                !
 ! D22   D(9,4,5,13)             0.1456         estimate D2E/DX2                !
 ! D23   D(4,5,6,1)             -0.0158         estimate D2E/DX2                !
 ! D24   D(4,5,6,12)           179.9744         estimate D2E/DX2                !
 ! D25   D(13,5,6,1)           179.8621         estimate D2E/DX2                !
 ! D26   D(13,5,6,12)           -0.1477         estimate D2E/DX2                !
 ! D27   D(4,5,13,14)          -58.1737         estimate D2E/DX2                !
 ! D28   D(4,5,13,15)           61.0935         estimate D2E/DX2                !
 ! D29   D(4,5,13,16)         -178.5848         estimate D2E/DX2                !
 ! D30   D(6,5,13,14)          121.9495         estimate D2E/DX2                !
 ! D31   D(6,5,13,15)         -118.7833         estimate D2E/DX2                !
 ! D32   D(6,5,13,16)            1.5384         estimate D2E/DX2                !
 --------------------------------------------------------------------------------
 Trust Radius=3.00D-01 FncErr=1.00D-07 GrdErr=1.00D-06 EigMax=2.50D+02 EigMin=1.00D-04
 Number of steps in this run=     83 maximum allowed number of steps=    100.
 GradGradGradGradGradGradGradGradGradGradGradGradGradGradGradGradGradGrad

                          Input orientation:                          
 ---------------------------------------------------------------------
 Center     Atomic      Atomic             Coordinates (Angstroms)
 Number     Number       Type             X           Y           Z
 ---------------------------------------------------------------------
      1          6           0        0.158437    1.796700    0.000236
      2          6           0        1.322238    1.025707    0.000619
      3          6           0        1.213481   -0.370314    0.000060
      4          6           0       -0.041934   -0.981797   -0.000910
      5          6           0       -1.210311   -0.209802   -0.001158
      6          6           0       -1.099702    1.188579   -0.000745
      7          1           0        0.236555    2.881058    0.000370
      8          1           0        2.301769    1.500793    0.001169
      9          1           0       -0.091421   -2.067748   -0.001628
     10          8           0        2.310328   -1.197727    0.000151
     11          1           0        3.122949   -0.668729    0.000297
     12          1           0       -1.997763    1.801182   -0.001352
     13          6           0       -2.561006   -0.889800    0.000895
     14          1           0       -2.673101   -1.551257   -0.867348
     15          1           0       -2.691142   -1.508312    0.898030
     16          1           0       -3.377691   -0.160810   -0.024720
 ---------------------------------------------------------------------
                    Distance matrix (angstroms):
                    1          2          3          4          5
     1  C    0.000000
     2  C    1.396017   0.000000
     3  C    2.410201   1.400251   0.000000
     4  C    2.785713   2.427146   1.396417   0.000000
     5  C    2.428893   2.817852   2.429101   1.400386   0.000000
     6  C    1.397400   2.427411   2.789438   2.414416   1.402749
     7  H    1.087168   2.149659   3.394968   3.872881   3.412747
     8  H    2.163662   1.088663   2.164582   3.414118   3.906513
     9  H    3.872517   3.401162   2.141040   1.087078   2.168843
    10  O    3.687442   2.433101   1.373931   2.362152   3.656624
    11  H    3.855732   2.472584   1.932646   3.180330   4.357495
    12  H    2.156205   3.409365   3.876530   3.401505   2.159661
    13  C    3.822650   4.329983   3.810068   2.520752   1.512210
    14  H    4.469802   4.832892   4.153618   2.828080   2.165535
    15  H    4.455248   4.830509   4.165029   2.846685   2.165070
    16  H    4.041865   4.847453   4.596016   3.435384   2.168062
                    6          7          8          9         10
     6  C    0.000000
     7  H    2.156402   0.000000
     8  H    3.415770   2.483997   0.000000
     9  H    3.408856   4.959663   4.296726   0.000000
    10  O    4.162062   4.575699   2.698534   2.554474   0.000000
    11  H    4.613066   4.575178   2.319733   3.505629   0.969635
    12  H    1.087105   2.481595   4.310013   4.313092   5.249105
    13  C    2.540683   4.695287   5.418627   2.736132   4.881057
    14  H    3.276169   5.372564   5.900734   2.771517   5.070710
    15  H    3.257867   5.351988   5.898155   2.807295   5.090909
    16  H    2.647765   4.724020   5.917589   3.799542   5.781814
                   11         12         13         14         15
    11  H    0.000000
    12  H    5.685258   0.000000
    13  C    5.688253   2.749297   0.000000
    14  H    5.926707   3.527730   1.097240   0.000000
    15  H    5.942599   3.498916   1.097426   1.765992   0.000000
    16  H    6.520501   2.398783   1.095015   1.771951   1.771603
                   16
    16  H    0.000000
 Stoichiometry    C7H8O
 Framework group  C1[X(C7H8O)]
 Deg. of freedom    42
 Full point group                 C1      NOp   1
 Largest Abelian subgroup         C1      NOp   1
 Largest concise Abelian subgroup C1      NOp   1
                         Standard orientation:                         
 ---------------------------------------------------------------------
 Center     Atomic      Atomic             Coordinates (Angstroms)
 Number     Number       Type             X           Y           Z
 ---------------------------------------------------------------------
      1          6           0        0.158437    1.796700    0.000236
      2          6           0        1.322238    1.025707    0.000619
      3          6           0        1.213481   -0.370314    0.000060
      4          6           0       -0.041934   -0.981797   -0.000910
      5          6           0       -1.210311   -0.209802   -0.001158
      6          6           0       -1.099702    1.188579   -0.000745
      7          1           0        0.236555    2.881058    0.000370
      8          1           0        2.301769    1.500793    0.001169
      9          1           0       -0.091421   -2.067748   -0.001628
     10          8           0        2.310328   -1.197727    0.000151
     11          1           0        3.122949   -0.668729    0.000297
     12          1           0       -1.997763    1.801182   -0.001352
     13          6           0       -2.561006   -0.889800    0.000895
     14          1           0       -2.673101   -1.551257   -0.867348
     15          1           0       -2.691142   -1.508312    0.898030
     16          1           0       -3.377691   -0.160810   -0.024720
 ---------------------------------------------------------------------
 Rotational constants (GHZ):           3.6329877           1.7914874           1.2088516
 Standard basis: 6-31+G(d) (6D, 7F)
 There are   168 symmetry adapted cartesian basis functions of A   symmetry.
 There are   168 symmetry adapted basis functions of A   symmetry.
   168 basis functions,   288 primitive gaussians,   168 cartesian basis functions
    29 alpha electrons       29 beta electrons
       nuclear repulsion energy       342.4249106923 Hartrees.
 NAtoms=   16 NActive=   16 NUniq=   16 SFac= 1.00D+00 NAtFMM=   60 NAOKFM=F Big=F
 Integral buffers will be    131072 words long.
 Raffenetti 2 integral format.
 Two-electron integral symmetry is turned on.
 Nuclear repulsion after empirical dispersion term =      342.4155796872 Hartrees.
 One-electron integrals computed using PRISM.
 NBasis=   168 RedAO= T EigKep=  4.34D-06  NBF=   168
 NBsUse=   168 1.00D-06 EigRej= -1.00D+00 NBFU=   168
 ExpMin= 4.38D-02 ExpMax= 5.48D+03 ExpMxC= 8.25D+02 IAcc=3 IRadAn=         5 AccDes= 0.00D+00
 Harris functional with IExCor=  402 and IRadAn=       5 diagonalized for initial guess.
 HarFok:  IExCor=  402 AccDes= 0.00D+00 IRadAn=         5 IDoV= 1 UseB2=F ITyADJ=14
 ICtDFT=  3500011 ScaDFX=  1.000000  1.000000  1.000000  1.000000
 FoFCou: FMM=F IPFlag=           0 FMFlag=      100000 FMFlg1=           0
         NFxFlg=           0 DoJE=T BraDBF=F KetDBF=T FulRan=T
         wScrn=  0.000000 ICntrl=       500 IOpCl=  0 I1Cent=   200000004 NGrid=           0
         NMat0=    1 NMatS0=      1 NMatT0=    0 NMatD0=    1 NMtDS0=    0 NMtDT0=    0
 Petite list used in FoFCou.
 Requested convergence on RMS density matrix=1.00D-08 within1000 cycles.
 Requested convergence on MAX density matrix=1.00D-06.
 Requested convergence on             energy=1.00D-06.
 No special actions if energy rises.
 SCF Done:  E(RB3LYP) =  -346.808183603     A.U. after   13 cycles
            NFock= 13  Conv=0.90D-08     -V/T= 2.0099

 **********************************************************************

            Population analysis using the SCF Density.

 **********************************************************************

 Orbital symmetries:
       Occupied  (A) (A) (A) (A) (A) (A) (A) (A) (A) (A) (A) (A)
                 (A) (A) (A) (A) (A) (A) (A) (A) (A) (A) (A) (A)
                 (A) (A) (A) (A) (A)
       Virtual   (A) (A) (A) (A) (A) (A) (A) (A) (A) (A) (A) (A)
                 (A) (A) (A) (A) (A) (A) (A) (A) (A) (A) (A) (A)
                 (A) (A) (A) (A) (A) (A) (A) (A) (A) (A) (A) (A)
                 (A) (A) (A) (A) (A) (A) (A) (A) (A) (A) (A) (A)
                 (A) (A) (A) (A) (A) (A) (A) (A) (A) (A) (A) (A)
                 (A) (A) (A) (A) (A) (A) (A) (A) (A) (A) (A) (A)
                 (A) (A) (A) (A) (A) (A) (A) (A) (A) (A) (A) (A)
                 (A) (A) (A) (A) (A) (A) (A) (A) (A) (A) (A) (A)
                 (A) (A) (A) (A) (A) (A) (A) (A) (A) (A) (A) (A)
                 (A) (A) (A) (A) (A) (A) (A) (A) (A) (A) (A) (A)
                 (A) (A) (A) (A) (A) (A) (A) (A) (A) (A) (A) (A)
                 (A) (A) (A) (A) (A) (A) (A)
 The electronic state is 1-A.
 Alpha  occ. eigenvalues --  -19.19119 -10.25712 -10.20602 -10.19959 -10.19606
 Alpha  occ. eigenvalues --  -10.18783 -10.18771 -10.18766  -1.06709  -0.85728
 Alpha  occ. eigenvalues --   -0.77491  -0.74540  -0.69182  -0.61583  -0.60794
 Alpha  occ. eigenvalues --   -0.53192  -0.50193  -0.47694  -0.44202  -0.42624
 Alpha  occ. eigenvalues --   -0.41666  -0.40537  -0.40439  -0.37803  -0.36258
 Alpha  occ. eigenvalues --   -0.34302  -0.33286  -0.24985  -0.22850
 Alpha virt. eigenvalues --   -0.01640  -0.00465   0.00221   0.01285   0.02071
 Alpha virt. eigenvalues --    0.03839   0.04339   0.04954   0.06310   0.06538
 Alpha virt. eigenvalues --    0.07827   0.08223   0.09303   0.10082   0.12024
 Alpha virt. eigenvalues --    0.12058   0.12697   0.13056   0.14192   0.15071
 Alpha virt. eigenvalues --    0.15630   0.16192   0.16497   0.17079   0.18421
 Alpha virt. eigenvalues --    0.18691   0.20091   0.20840   0.21787   0.22761
 Alpha virt. eigenvalues --    0.23155   0.23716   0.24006   0.24257   0.26141
 Alpha virt. eigenvalues --    0.26595   0.27227   0.27312   0.28041   0.29377
 Alpha virt. eigenvalues --    0.30738   0.31850   0.33417   0.34780   0.35998
 Alpha virt. eigenvalues --    0.36974   0.38873   0.41055   0.41899   0.56429
 Alpha virt. eigenvalues --    0.60129   0.65915   0.66394   0.67298   0.68569
 Alpha virt. eigenvalues --    0.71205   0.71640   0.71883   0.73689   0.74901
 Alpha virt. eigenvalues --    0.75195   0.77436   0.77892   0.81118   0.82519
 Alpha virt. eigenvalues --    0.84428   0.88727   0.92184   0.93620   0.94870
 Alpha virt. eigenvalues --    0.95796   1.00008   1.02226   1.03714   1.05764
 Alpha virt. eigenvalues --    1.08481   1.10148   1.14795   1.15263   1.18079
 Alpha virt. eigenvalues --    1.19460   1.20520   1.24271   1.24325   1.27546
 Alpha virt. eigenvalues --    1.28842   1.36257   1.36599   1.40765   1.41629
 Alpha virt. eigenvalues --    1.44233   1.46041   1.47981   1.49445   1.51439
 Alpha virt. eigenvalues --    1.72596   1.76068   1.80794   1.81870   1.86894
 Alpha virt. eigenvalues --    1.89919   1.90457   1.92220   1.96206   1.97515
 Alpha virt. eigenvalues --    1.97653   2.00016   2.11325   2.12752   2.14373
 Alpha virt. eigenvalues --    2.15689   2.22037   2.27512   2.29583   2.31625
 Alpha virt. eigenvalues --    2.36184   2.38947   2.39114   2.49262   2.49999
 Alpha virt. eigenvalues --    2.57613   2.63627   2.65225   2.70791   2.75059
 Alpha virt. eigenvalues --    2.77347   2.87280   2.90791   3.04577   3.12190
 Alpha virt. eigenvalues --    3.42351   4.16781   4.23733   4.25613   4.29015
 Alpha virt. eigenvalues --    4.33891   4.42053   4.49785   4.77649
          Condensed to atoms (all electrons):
               1          2          3          4          5          6
     1  C    5.408454   0.215266   0.359999  -0.237402   0.123452   0.323948
     2  C    0.215266   6.432461   0.036002  -0.919178  -0.071740  -0.226711
     3  C    0.359999   0.036002   7.281346  -1.800640   0.575723   0.040156
     4  C   -0.237402  -0.919178  -1.800640  10.832755  -0.861137  -1.699230
     5  C    0.123452  -0.071740   0.575723  -0.861137   6.739468   0.132581
     6  C    0.323948  -0.226711   0.040156  -1.699230   0.132581   7.533782
     7  H    0.260423   0.033244  -0.003052  -0.001056  -0.003684   0.007971
     8  H    0.049253   0.273385  -0.043630  -0.010714   0.009972   0.008387
     9  H   -0.021411   0.039752  -0.003832   0.209924  -0.006058   0.059038
    10  O    0.025231  -0.018826   0.008319  -0.134990   0.046722   0.021072
    11  H   -0.004301  -0.096513  -0.050832   0.170226  -0.009447  -0.004508
    12  H    0.019340   0.015829  -0.006218   0.032188   0.027005   0.209735
    13  C   -0.111835   0.071513  -0.546099   0.204290  -0.688469   0.301591
    14  H   -0.003296   0.003563  -0.009349  -0.008326  -0.085014   0.022011
    15  H   -0.002753   0.003268  -0.008946  -0.013370  -0.077006   0.021691
    16  H   -0.006446   0.003311  -0.000903   0.012607  -0.129896  -0.003085
               7          8          9         10         11         12
     1  C    0.260423   0.049253  -0.021411   0.025231  -0.004301   0.019340
     2  C    0.033244   0.273385   0.039752  -0.018826  -0.096513   0.015829
     3  C   -0.003052  -0.043630  -0.003832   0.008319  -0.050832  -0.006218
     4  C   -0.001056  -0.010714   0.209924  -0.134990   0.170226   0.032188
     5  C   -0.003684   0.009972  -0.006058   0.046722  -0.009447   0.027005
     6  C    0.007971   0.008387   0.059038   0.021072  -0.004508   0.209735
     7  H    0.538301  -0.004989   0.000016  -0.000606  -0.000011  -0.004636
     8  H   -0.004989   0.560119  -0.000151  -0.013323   0.007579  -0.000150
     9  H    0.000016  -0.000151   0.535375  -0.005258  -0.000083  -0.000137
    10  O   -0.000606  -0.013323  -0.005258   8.610780   0.144607   0.000093
    11  H   -0.000011   0.007579  -0.000083   0.144607   0.367467  -0.000001
    12  H   -0.004636  -0.000150  -0.000137   0.000093  -0.000001   0.551494
    13  C   -0.000274   0.002101   0.005680  -0.002717   0.002442  -0.019310
    14  H    0.000002   0.000000   0.000935  -0.000006   0.000000   0.000123
    15  H    0.000002   0.000000   0.000835  -0.000008   0.000000   0.000133
    16  H   -0.000004   0.000000   0.000084   0.000029   0.000000   0.004252
              13         14         15         16
     1  C   -0.111835  -0.003296  -0.002753  -0.006446
     2  C    0.071513   0.003563   0.003268   0.003311
     3  C   -0.546099  -0.009349  -0.008946  -0.000903
     4  C    0.204290  -0.008326  -0.013370   0.012607
     5  C   -0.688469  -0.085014  -0.077006  -0.129896
     6  C    0.301591   0.022011   0.021691  -0.003085
     7  H   -0.000274   0.000002   0.000002  -0.000004
     8  H    0.002101   0.000000   0.000000   0.000000
     9  H    0.005680   0.000935   0.000835   0.000084
    10  O   -0.002717  -0.000006  -0.000008   0.000029
    11  H    0.002442   0.000000   0.000000   0.000000
    12  H   -0.019310   0.000123   0.000133   0.004252
    13  C    6.366496   0.413353   0.409564   0.463553
    14  H    0.413353   0.502058  -0.032566  -0.026272
    15  H    0.409564  -0.032566   0.501511  -0.026373
    16  H    0.463553  -0.026272  -0.026373   0.504933
 Mulliken charges:
               1
     1  C   -0.397924
     2  C    0.205372
     3  C    0.171957
     4  C    0.224051
     5  C    0.277526
     6  C   -0.748429
     7  H    0.178351
     8  H    0.162160
     9  H    0.185291
    10  O   -0.681121
    11  H    0.473374
    12  H    0.170260
    13  C   -0.871878
    14  H    0.222783
    15  H    0.224017
    16  H    0.204211
 Sum of Mulliken charges =   0.00000
 Mulliken charges with hydrogens summed into heavy atoms:
               1
     1  C   -0.219573
     2  C    0.367532
     3  C    0.171957
     4  C    0.409342
     5  C    0.277526
     6  C   -0.578170
    10  O   -0.207747
    13  C   -0.220868
 Electronic spatial extent (au):  <R**2>=            976.2596
 Charge=              0.0000 electrons
 Dipole moment (field-independent basis, Debye):
    X=              0.3551    Y=              1.0223    Z=              0.0037  Tot=              1.0822
 Quadrupole moment (field-independent basis, Debye-Ang):
   XX=            -39.1013   YY=            -47.5074   ZZ=            -51.9704
   XY=              3.7438   XZ=             -0.0041   YZ=             -0.0003
 Traceless Quadrupole moment (field-independent basis, Debye-Ang):
   XX=              7.0918   YY=             -1.3144   ZZ=             -5.7774
   XY=              3.7438   XZ=             -0.0041   YZ=             -0.0003
 Octapole moment (field-independent basis, Debye-Ang**2):
  XXX=             35.1715  YYY=              3.2928  ZZZ=              0.0580  XYY=             -4.7691
  XXY=              5.4545  XXZ=              0.0084  XZZ=              1.9223  YZZ=             -4.8999
  YYZ=             -0.0371  XYZ=              0.0232
 Hexadecapole moment (field-independent basis, Debye-Ang**3):
 XXXX=           -684.1243 YYYY=           -423.5667 ZZZZ=            -69.0113 XXXY=             -8.5398
 XXXZ=              0.0831 YYYX=              4.0574 YYYZ=              0.1379 ZZZX=             -0.1541
 ZZZY=             -0.0629 XXYY=           -219.0974 XXZZ=           -153.1206 YYZZ=            -92.5674
 XXYZ=             -0.0991 YYXZ=              0.0793 ZZXY=             -0.4068
 N-N= 3.424155796872D+02 E-N=-1.490129362635D+03  KE= 3.434234712566D+02
 Evaluate density.
 Using the total density.
 Monte-Carlo method of calculating molar volume:
 based on  0.001 e/bohr**3 density envelope.
 Number of points per bohr**3 =   20 CutOff= 1.00D-04
 Using the SCF density.
 There are       340 points.  Will hold       340 in memory.
 LenV=  8052976808 MDV=  8053063680.
 Box volume = 4926.590 fraction occupied=0.218
 Integrated density= 7.9821907868039389D+01 error= 2.1821907868039389D+01
 Molar volume = 1072.258 bohr**3/mol ( 95.687 cm**3/mol)
 Recommended a0 for SCRF calculation =  4.20 angstrom (  7.93 bohr)
 Calling FoFJK, ICntrl=      2127 FMM=F ISym2X=0 I1Cent= 0 IOpClX= 0 NMat=1 NMatS=1 NMatT=0.
 ***** Axes restored to original set *****
 -------------------------------------------------------------------
 Center     Atomic                   Forces (Hartrees/Bohr)
 Number     Number              X              Y              Z
 -------------------------------------------------------------------
      1        6          -0.000045896   -0.000003570   -0.000007801
      2        6           0.000018073   -0.000043083    0.000013472
      3        6           0.000082109    0.000028897   -0.000004277
      4        6          -0.000075670    0.000010071   -0.000005770
      5        6           0.000034568   -0.000063363    0.000014414
      6        6           0.000028608    0.000051297   -0.000002799
      7        1           0.000008240   -0.000001531    0.000000188
      8        1          -0.000006153    0.000002835   -0.000003695
      9        1           0.000009794    0.000004921    0.000000299
     10        8          -0.000039588    0.000010076   -0.000002290
     11        1           0.000010308    0.000002977    0.000001957
     12        1          -0.000008330   -0.000000618    0.000002711
     13        6          -0.000011195    0.000005107   -0.000005314
     14        1          -0.000001163   -0.000007480   -0.000005486
     15        1          -0.000000008   -0.000002510    0.000006288
     16        1          -0.000003697    0.000005973   -0.000001897
 -------------------------------------------------------------------
 Cartesian Forces:  Max     0.000082109 RMS     0.000024733

 GradGradGradGradGradGradGradGradGradGradGradGradGradGradGradGradGradGrad
 Berny optimization.
 FormGI is forming the generalized inverse of G from B-inverse, IUseBI=4.
 Internal  Forces:  Max     0.000044387 RMS     0.000011373
 Search for a local minimum.
 Step number   1 out of a maximum of   83
 All quantities printed in internal units (Hartrees-Bohrs-Radians)
 Mixed Optimization -- En-DIIS/RFO-DIIS
 Second derivative matrix not updated -- first step.
 ITU=  0
     Eigenvalues ---    0.00604   0.01476   0.02037   0.02072   0.02088
     Eigenvalues ---    0.02094   0.02104   0.02110   0.02119   0.02126
     Eigenvalues ---    0.02133   0.07047   0.07131   0.16000   0.16000
     Eigenvalues ---    0.16000   0.16000   0.16000   0.16000   0.16000
     Eigenvalues ---    0.16000   0.22000   0.23476   0.23491   0.25000
     Eigenvalues ---    0.25000   0.31129   0.33968   0.33989   0.34240
     Eigenvalues ---    0.34968   0.35142   0.35149   0.35152   0.41712
     Eigenvalues ---    0.41824   0.45351   0.45688   0.46094   0.46160
     Eigenvalues ---    0.50229   0.53452
 RFO step:  Lambda=-3.17102685D-08 EMin= 6.04435285D-03
 Linear search not attempted -- first point.
 Iteration  1 RMS(Cart)=  0.00011567 RMS(Int)=  0.00000001
 Iteration  2 RMS(Cart)=  0.00000001 RMS(Int)=  0.00000000
 Variable       Old X    -DE/DX   Delta X   Delta X   Delta X     New X
                                 (Linear)    (Quad)   (Total)
    R1        2.63809   0.00002   0.00000   0.00005   0.00005   2.63814
    R2        2.64070  -0.00002   0.00000  -0.00005  -0.00005   2.64066
    R3        2.05445   0.00000   0.00000   0.00000   0.00000   2.05445
    R4        2.64609  -0.00003   0.00000  -0.00007  -0.00007   2.64602
    R5        2.05728   0.00000   0.00000  -0.00001  -0.00001   2.05726
    R6        2.63884   0.00004   0.00000   0.00010   0.00010   2.63894
    R7        2.59635  -0.00003   0.00000  -0.00006  -0.00006   2.59629
    R8        2.64635  -0.00003   0.00000  -0.00007  -0.00007   2.64628
    R9        2.05428  -0.00001   0.00000  -0.00002  -0.00002   2.05426
   R10        2.65081   0.00004   0.00000   0.00008   0.00008   2.65089
   R11        2.85766   0.00001   0.00000   0.00004   0.00004   2.85771
   R12        2.05433   0.00001   0.00000   0.00002   0.00002   2.05435
   R13        1.83234   0.00001   0.00000   0.00002   0.00002   1.83236
   R14        2.07348   0.00001   0.00000   0.00003   0.00003   2.07351
   R15        2.07383   0.00001   0.00000   0.00002   0.00002   2.07385
   R16        2.06928   0.00001   0.00000   0.00002   0.00002   2.06930
    A1        2.10626   0.00001   0.00000   0.00003   0.00003   2.10629
    A2        2.08398  -0.00001   0.00000  -0.00007  -0.00007   2.08391
    A3        2.09295   0.00000   0.00000   0.00004   0.00004   2.09299
    A4        2.07815   0.00000   0.00000   0.00000   0.00000   2.07815
    A5        2.10491  -0.00001   0.00000  -0.00004  -0.00004   2.10487
    A6        2.10013   0.00001   0.00000   0.00004   0.00004   2.10017
    A7        2.10180  -0.00001   0.00000  -0.00003  -0.00003   2.10177
    A8        2.13933   0.00001   0.00000   0.00006   0.00006   2.13939
    A9        2.04205  -0.00001   0.00000  -0.00003  -0.00003   2.04202
   A10        2.10445   0.00001   0.00000   0.00004   0.00004   2.10449
   A11        2.06959  -0.00001   0.00000  -0.00008  -0.00008   2.06951
   A12        2.10915   0.00001   0.00000   0.00004   0.00004   2.10919
   A13        2.07575  -0.00001   0.00000  -0.00003  -0.00003   2.07573
   A14        2.09130   0.00002   0.00000   0.00006   0.00006   2.09136
   A15        2.11613  -0.00001   0.00000  -0.00003  -0.00003   2.11609
   A16        2.09997   0.00000   0.00000  -0.00001  -0.00001   2.09995
   A17        2.09272   0.00001   0.00000   0.00004   0.00004   2.09276
   A18        2.09050   0.00000   0.00000  -0.00003  -0.00003   2.09047
   A19        1.91825   0.00001   0.00000   0.00003   0.00003   1.91828
   A20        1.94041   0.00000   0.00000   0.00002   0.00002   1.94043
   A21        1.93956   0.00000   0.00000  -0.00002  -0.00002   1.93954
   A22        1.94633   0.00000   0.00000  -0.00001  -0.00001   1.94631
   A23        1.87025   0.00000   0.00000   0.00000   0.00000   1.87025
   A24        1.88244   0.00000   0.00000   0.00001   0.00001   1.88245
   A25        1.88167   0.00000   0.00000   0.00001   0.00001   1.88168
    D1       -0.00004   0.00000   0.00000   0.00016   0.00016   0.00011
    D2        3.14136   0.00000   0.00000  -0.00004  -0.00004   3.14132
    D3       -3.14128   0.00000   0.00000   0.00009   0.00009  -3.14119
    D4        0.00013   0.00000   0.00000  -0.00011  -0.00011   0.00002
    D5        0.00017   0.00000   0.00000  -0.00006  -0.00006   0.00011
    D6       -3.14125   0.00000   0.00000  -0.00009  -0.00009  -3.14135
    D7        3.14140   0.00000   0.00000   0.00001   0.00001   3.14141
    D8       -0.00002   0.00000   0.00000  -0.00002  -0.00002  -0.00005
    D9        0.00004   0.00000   0.00000  -0.00013  -0.00013  -0.00009
   D10        3.14139   0.00000   0.00000  -0.00011  -0.00011   3.14128
   D11       -3.14137   0.00000   0.00000   0.00007   0.00007  -3.14130
   D12       -0.00002   0.00000   0.00000   0.00009   0.00009   0.00007
   D13       -0.00015   0.00000   0.00000  -0.00001  -0.00001  -0.00016
   D14        3.14127   0.00000   0.00000   0.00002   0.00002   3.14129
   D15       -3.14152   0.00000   0.00000  -0.00003  -0.00003  -3.14154
   D16       -0.00009   0.00000   0.00000   0.00000   0.00000  -0.00010
   D17       -0.00038   0.00000   0.00000   0.00007   0.00007  -0.00031
   D18        3.14098   0.00000   0.00000   0.00009   0.00009   3.14108
   D19        0.00027   0.00000   0.00000   0.00011   0.00011   0.00038
   D20       -3.13922   0.00000   0.00000  -0.00008  -0.00008  -3.13931
   D21       -3.14115   0.00000   0.00000   0.00009   0.00009  -3.14107
   D22        0.00254   0.00000   0.00000  -0.00011  -0.00011   0.00244
   D23       -0.00028   0.00000   0.00000  -0.00008  -0.00008  -0.00035
   D24        3.14115   0.00000   0.00000  -0.00004  -0.00004   3.14110
   D25        3.13919   0.00000   0.00000   0.00012   0.00012   3.13930
   D26       -0.00258   0.00000   0.00000   0.00015   0.00015  -0.00243
   D27       -1.01532   0.00000   0.00000   0.00038   0.00038  -1.01494
   D28        1.06628   0.00000   0.00000   0.00038   0.00038   1.06666
   D29       -3.11689   0.00000   0.00000   0.00037   0.00037  -3.11652
   D30        2.12842   0.00000   0.00000   0.00018   0.00018   2.12861
   D31       -2.07316   0.00000   0.00000   0.00018   0.00018  -2.07298
   D32        0.02685   0.00000   0.00000   0.00017   0.00017   0.02702
         Item               Value     Threshold  Converged?
 Maximum Force            0.000044     0.000450     YES
 RMS     Force            0.000011     0.000300     YES
 Maximum Displacement     0.000525     0.001800     YES
 RMS     Displacement     0.000116     0.001200     YES
 Predicted change in Energy=-1.585514D-08
 Optimization completed.
    -- Stationary point found.
                           ----------------------------
                           !   Optimized Parameters   !
                           ! (Angstroms and Degrees)  !
 --------------------------                            --------------------------
 ! Name  Definition              Value          Derivative Info.                !
 --------------------------------------------------------------------------------
 ! R1    R(1,2)                  1.396          -DE/DX =    0.0                 !
 ! R2    R(1,6)                  1.3974         -DE/DX =    0.0                 !
 ! R3    R(1,7)                  1.0872         -DE/DX =    0.0                 !
 ! R4    R(2,3)                  1.4003         -DE/DX =    0.0                 !
 ! R5    R(2,8)                  1.0887         -DE/DX =    0.0                 !
 ! R6    R(3,4)                  1.3964         -DE/DX =    0.0                 !
 ! R7    R(3,10)                 1.3739         -DE/DX =    0.0                 !
 ! R8    R(4,5)                  1.4004         -DE/DX =    0.0                 !
 ! R9    R(4,9)                  1.0871         -DE/DX =    0.0                 !
 ! R10   R(5,6)                  1.4027         -DE/DX =    0.0                 !
 ! R11   R(5,13)                 1.5122         -DE/DX =    0.0                 !
 ! R12   R(6,12)                 1.0871         -DE/DX =    0.0                 !
 ! R13   R(10,11)                0.9696         -DE/DX =    0.0                 !
 ! R14   R(13,14)                1.0972         -DE/DX =    0.0                 !
 ! R15   R(13,15)                1.0974         -DE/DX =    0.0                 !
 ! R16   R(13,16)                1.095          -DE/DX =    0.0                 !
 ! A1    A(2,1,6)              120.6796         -DE/DX =    0.0                 !
 ! A2    A(2,1,7)              119.4031         -DE/DX =    0.0                 !
 ! A3    A(6,1,7)              119.9173         -DE/DX =    0.0                 !
 ! A4    A(1,2,3)              119.069          -DE/DX =    0.0                 !
 ! A5    A(1,2,8)              120.6024         -DE/DX =    0.0                 !
 ! A6    A(3,2,8)              120.3287         -DE/DX =    0.0                 !
 ! A7    A(2,3,4)              120.4243         -DE/DX =    0.0                 !
 ! A8    A(2,3,10)             122.5747         -DE/DX =    0.0                 !
 ! A9    A(4,3,10)             117.0011         -DE/DX =    0.0                 !
 ! A10   A(3,4,5)              120.576          -DE/DX =    0.0                 !
 ! A11   A(3,4,9)              118.5788         -DE/DX =    0.0                 !
 ! A12   A(5,4,9)              120.8452         -DE/DX =    0.0                 !
 ! A13   A(4,5,6)              118.9318         -DE/DX =    0.0                 !
 ! A14   A(4,5,13)             119.8229         -DE/DX =    0.0                 !
 ! A15   A(6,5,13)             121.2452         -DE/DX =    0.0                 !
 ! A16   A(1,6,5)              120.3193         -DE/DX =    0.0                 !
 ! A17   A(1,6,12)             119.9038         -DE/DX =    0.0                 !
 ! A18   A(5,6,12)             119.7769         -DE/DX =    0.0                 !
 ! A19   A(3,10,11)            109.9075         -DE/DX =    0.0                 !
 ! A20   A(5,13,14)            111.1772         -DE/DX =    0.0                 !
 ! A21   A(5,13,15)            111.1287         -DE/DX =    0.0                 !
 ! A22   A(5,13,16)            111.5164         -DE/DX =    0.0                 !
 ! A23   A(14,13,15)           107.1577         -DE/DX =    0.0                 !
 ! A24   A(14,13,16)           107.856          -DE/DX =    0.0                 !
 ! A25   A(15,13,16)           107.8118         -DE/DX =    0.0                 !
 ! D1    D(6,1,2,3)             -0.0025         -DE/DX =    0.0                 !
 ! D2    D(6,1,2,8)            179.9869         -DE/DX =    0.0                 !
 ! D3    D(7,1,2,3)           -179.9821         -DE/DX =    0.0                 !
 ! D4    D(7,1,2,8)              0.0074         -DE/DX =    0.0                 !
 ! D5    D(2,1,6,5)              0.0096         -DE/DX =    0.0                 !
 ! D6    D(2,1,6,12)          -179.9806         -DE/DX =    0.0                 !
 ! D7    D(7,1,6,5)            179.989          -DE/DX =    0.0                 !
 ! D8    D(7,1,6,12)            -0.0012         -DE/DX =    0.0                 !
 ! D9    D(1,2,3,4)              0.002          -DE/DX =    0.0                 !
 ! D10   D(1,2,3,10)           179.9884         -DE/DX =    0.0                 !
 ! D11   D(8,2,3,4)           -179.9874         -DE/DX =    0.0                 !
 ! D12   D(8,2,3,10)            -0.001          -DE/DX =    0.0                 !
 ! D13   D(2,3,4,5)             -0.0086         -DE/DX =    0.0                 !
 ! D14   D(2,3,4,9)            179.9817         -DE/DX =    0.0                 !
 ! D15   D(10,3,4,5)          -179.9957         -DE/DX =    0.0                 !
 ! D16   D(10,3,4,9)            -0.0054         -DE/DX =    0.0                 !
 ! D17   D(2,3,10,11)           -0.0218         -DE/DX =    0.0                 !
 ! D18   D(4,3,10,11)          179.9651         -DE/DX =    0.0                 !
 ! D19   D(3,4,5,6)              0.0153         -DE/DX =    0.0                 !
 ! D20   D(3,4,5,13)          -179.8643         -DE/DX =    0.0                 !
 ! D21   D(9,4,5,6)           -179.9747         -DE/DX =    0.0                 !
 ! D22   D(9,4,5,13)             0.1456         -DE/DX =    0.0                 !
 ! D23   D(4,5,6,1)             -0.0158         -DE/DX =    0.0                 !
 ! D24   D(4,5,6,12)           179.9744         -DE/DX =    0.0                 !
 ! D25   D(13,5,6,1)           179.8621         -DE/DX =    0.0                 !
 ! D26   D(13,5,6,12)           -0.1477         -DE/DX =    0.0                 !
 ! D27   D(4,5,13,14)          -58.1737         -DE/DX =    0.0                 !
 ! D28   D(4,5,13,15)           61.0935         -DE/DX =    0.0                 !
 ! D29   D(4,5,13,16)         -178.5848         -DE/DX =    0.0                 !
 ! D30   D(6,5,13,14)          121.9495         -DE/DX =    0.0                 !
 ! D31   D(6,5,13,15)         -118.7833         -DE/DX =    0.0                 !
 ! D32   D(6,5,13,16)            1.5384         -DE/DX =    0.0                 !
 --------------------------------------------------------------------------------
 GradGradGradGradGradGradGradGradGradGradGradGradGradGradGradGradGradGrad

                          Input orientation:                          
 ---------------------------------------------------------------------
 Center     Atomic      Atomic             Coordinates (Angstroms)
 Number     Number       Type             X           Y           Z
 ---------------------------------------------------------------------
      1          6           0        0.158437    1.796700    0.000236
      2          6           0        1.322238    1.025707    0.000619
      3          6           0        1.213481   -0.370314    0.000060
      4          6           0       -0.041934   -0.981797   -0.000910
      5          6           0       -1.210311   -0.209802   -0.001158
      6          6           0       -1.099702    1.188579   -0.000745
      7          1           0        0.236555    2.881058    0.000370
      8          1           0        2.301769    1.500793    0.001169
      9          1           0       -0.091421   -2.067748   -0.001628
     10          8           0        2.310328   -1.197727    0.000151
     11          1           0        3.122949   -0.668729    0.000297
     12          1           0       -1.997763    1.801182   -0.001352
     13          6           0       -2.561006   -0.889800    0.000895
     14          1           0       -2.673101   -1.551257   -0.867348
     15          1           0       -2.691142   -1.508312    0.898030
     16          1           0       -3.377691   -0.160810   -0.024720
 ---------------------------------------------------------------------
                    Distance matrix (angstroms):
                    1          2          3          4          5
     1  C    0.000000
     2  C    1.396017   0.000000
     3  C    2.410201   1.400251   0.000000
     4  C    2.785713   2.427146   1.396417   0.000000
     5  C    2.428893   2.817852   2.429101   1.400386   0.000000
     6  C    1.397400   2.427411   2.789438   2.414416   1.402749
     7  H    1.087168   2.149659   3.394968   3.872881   3.412747
     8  H    2.163662   1.088663   2.164582   3.414118   3.906513
     9  H    3.872517   3.401162   2.141040   1.087078   2.168843
    10  O    3.687442   2.433101   1.373931   2.362152   3.656624
    11  H    3.855732   2.472584   1.932646   3.180330   4.357495
    12  H    2.156205   3.409365   3.876530   3.401505   2.159661
    13  C    3.822650   4.329983   3.810068   2.520752   1.512210
    14  H    4.469802   4.832892   4.153618   2.828080   2.165535
    15  H    4.455248   4.830509   4.165029   2.846685   2.165070
    16  H    4.041865   4.847453   4.596016   3.435384   2.168062
                    6          7          8          9         10
     6  C    0.000000
     7  H    2.156402   0.000000
     8  H    3.415770   2.483997   0.000000
     9  H    3.408856   4.959663   4.296726   0.000000
    10  O    4.162062   4.575699   2.698534   2.554474   0.000000
    11  H    4.613066   4.575178   2.319733   3.505629   0.969635
    12  H    1.087105   2.481595   4.310013   4.313092   5.249105
    13  C    2.540683   4.695287   5.418627   2.736132   4.881057
    14  H    3.276169   5.372564   5.900734   2.771517   5.070710
    15  H    3.257867   5.351988   5.898155   2.807295   5.090909
    16  H    2.647765   4.724020   5.917589   3.799542   5.781814
                   11         12         13         14         15
    11  H    0.000000
    12  H    5.685258   0.000000
    13  C    5.688253   2.749297   0.000000
    14  H    5.926707   3.527730   1.097240   0.000000
    15  H    5.942599   3.498916   1.097426   1.765992   0.000000
    16  H    6.520501   2.398783   1.095015   1.771951   1.771603
                   16
    16  H    0.000000
 Stoichiometry    C7H8O
 Framework group  C1[X(C7H8O)]
 Deg. of freedom    42
 Full point group                 C1      NOp   1
 Largest Abelian subgroup         C1      NOp   1
 Largest concise Abelian subgroup C1      NOp   1
                         Standard orientation:                         
 ---------------------------------------------------------------------
 Center     Atomic      Atomic             Coordinates (Angstroms)
 Number     Number       Type             X           Y           Z
 ---------------------------------------------------------------------
      1          6           0        0.158437    1.796700    0.000236
      2          6           0        1.322238    1.025707    0.000619
      3          6           0        1.213481   -0.370314    0.000060
      4          6           0       -0.041934   -0.981797   -0.000910
      5          6           0       -1.210311   -0.209802   -0.001158
      6          6           0       -1.099702    1.188579   -0.000745
      7          1           0        0.236555    2.881058    0.000370
      8          1           0        2.301769    1.500793    0.001169
      9          1           0       -0.091421   -2.067748   -0.001628
     10          8           0        2.310328   -1.197727    0.000151
     11          1           0        3.122949   -0.668729    0.000297
     12          1           0       -1.997763    1.801182   -0.001352
     13          6           0       -2.561006   -0.889800    0.000895
     14          1           0       -2.673101   -1.551257   -0.867348
     15          1           0       -2.691142   -1.508312    0.898030
     16          1           0       -3.377691   -0.160810   -0.024720
 ---------------------------------------------------------------------
 Rotational constants (GHZ):           3.6329877           1.7914874           1.2088516
 1\1\GINC-IP-172-31-28-242\FOpt\RB3LYP\6-31+G(d)\C7H8O1\UBUNTU\19-Sep-2
 023\0\\# opt freq b3lyp/6-31+g(d) empiricaldispersion=gd3 scf=maxcycle
 =1000 volume\\Title Card Required\\0,1\C,0.158437,1.7967,0.000236\C,1.
 322238,1.025707,0.000619\C,1.213481,-0.370314,0.00006\C,-0.041934,-0.9
 81797,-0.00091\C,-1.210311,-0.209802,-0.001158\C,-1.099702,1.188579,-0
 .000745\H,0.236555,2.881058,0.00037\H,2.301769,1.500793,0.001169\H,-0.
 091421,-2.067748,-0.001628\O,2.310328,-1.197727,0.000151\H,3.122949,-0
 .668729,0.000297\H,-1.997763,1.801182,-0.001352\C,-2.561006,-0.8898,0.
 000895\H,-2.673101,-1.551257,-0.867348\H,-2.691142,-1.508312,0.89803\H
 ,-3.377691,-0.16081,-0.02472\\Version=EM64L-G16RevB.01\State=1-A\HF=-3
 46.8081836\RMSD=9.041e-09\RMSF=2.473e-05\Dipole=0.1396877,0.4022208,0.
 0014538\Quadrupole=5.2725423,-0.9771908,-4.2953515,2.7834426,-0.003077
 9,-0.0002468\PG=C01 [X(C7H8O1)]\\@


 AN OPTIMIST IS A GUY
 THAT HAS NEVER HAD
 MUCH EXPERIENCE
   (CERTAIN MAXIMS OF ARCHY  -- DON MARQUIS)
 Job cpu time:       0 days  0 hours  5 minutes 12.7 seconds.
 Elapsed time:       0 days  0 hours  0 minutes  9.9 seconds.
 File lengths (MBytes):  RWF=     19 Int=      0 D2E=      0 Chk=      3 Scr=      1
 Normal termination of Gaussian 16 at Tue Sep 19 06:53:10 2023.
 Link1:  Proceeding to internal job step number  2.
 ---------------------------------------------------------------------
 #N Geom=AllCheck Guess=TCheck SCRF=Check GenChk RB3LYP/6-31+G(d) Freq
 ---------------------------------------------------------------------
 1/10=4,29=7,30=1,38=1,40=1/1,3;
 2/12=2,40=1/2;
 3/5=1,6=6,7=11,11=2,14=-4,25=1,30=1,70=2,71=2,74=-5,116=1,124=31,140=1/1,2,3;
 4/5=101/1;
 5/5=2,7=1000,38=6,98=1/2;
 8/6=4,10=90,11=11/1;
 11/6=1,8=1,9=11,15=111,16=1/1,2,10;
 10/6=1/2;
 6/7=2,8=2,9=2,10=2,28=1/1;
 7/8=1,10=1,25=1/1,2,3,16;
 1/10=4,30=1/3;
 99//99;
 Structure from the checkpoint file:  "molecule37vol.chk"
 -------------------
 Title Card Required
 -------------------
 Charge =  0 Multiplicity = 1
 Redundant internal coordinates found in file.  (old form).
 C,0,0.158437,1.7967,0.000236
 C,0,1.322238,1.025707,0.000619
 C,0,1.213481,-0.370314,0.00006
 C,0,-0.041934,-0.981797,-0.00091
 C,0,-1.210311,-0.209802,-0.001158
 C,0,-1.099702,1.188579,-0.000745
 H,0,0.236555,2.881058,0.00037
 H,0,2.301769,1.500793,0.001169
 H,0,-0.091421,-2.067748,-0.001628
 O,0,2.310328,-1.197727,0.000151
 H,0,3.122949,-0.668729,0.000297
 H,0,-1.997763,1.801182,-0.001352
 C,0,-2.561006,-0.8898,0.000895
 H,0,-2.673101,-1.551257,-0.867348
 H,0,-2.691142,-1.508312,0.89803
 H,0,-3.377691,-0.16081,-0.02472
 Recover connectivity data from disk.

 GradGradGradGradGradGradGradGradGradGradGradGradGradGradGradGradGradGrad
 Berny optimization.
 Initialization pass.
                           ----------------------------
                           !    Initial Parameters    !
                           ! (Angstroms and Degrees)  !
 --------------------------                            --------------------------
 ! Name  Definition              Value          Derivative Info.                !
 --------------------------------------------------------------------------------
 ! R1    R(1,2)                  1.396          calculate D2E/DX2 analytically  !
 ! R2    R(1,6)                  1.3974         calculate D2E/DX2 analytically  !
 ! R3    R(1,7)                  1.0872         calculate D2E/DX2 analytically  !
 ! R4    R(2,3)                  1.4003         calculate D2E/DX2 analytically  !
 ! R5    R(2,8)                  1.0887         calculate D2E/DX2 analytically  !
 ! R6    R(3,4)                  1.3964         calculate D2E/DX2 analytically  !
 ! R7    R(3,10)                 1.3739         calculate D2E/DX2 analytically  !
 ! R8    R(4,5)                  1.4004         calculate D2E/DX2 analytically  !
 ! R9    R(4,9)                  1.0871         calculate D2E/DX2 analytically  !
 ! R10   R(5,6)                  1.4027         calculate D2E/DX2 analytically  !
 ! R11   R(5,13)                 1.5122         calculate D2E/DX2 analytically  !
 ! R12   R(6,12)                 1.0871         calculate D2E/DX2 analytically  !
 ! R13   R(10,11)                0.9696         calculate D2E/DX2 analytically  !
 ! R14   R(13,14)                1.0972         calculate D2E/DX2 analytically  !
 ! R15   R(13,15)                1.0974         calculate D2E/DX2 analytically  !
 ! R16   R(13,16)                1.095          calculate D2E/DX2 analytically  !
 ! A1    A(2,1,6)              120.6796         calculate D2E/DX2 analytically  !
 ! A2    A(2,1,7)              119.4031         calculate D2E/DX2 analytically  !
 ! A3    A(6,1,7)              119.9173         calculate D2E/DX2 analytically  !
 ! A4    A(1,2,3)              119.069          calculate D2E/DX2 analytically  !
 ! A5    A(1,2,8)              120.6024         calculate D2E/DX2 analytically  !
 ! A6    A(3,2,8)              120.3287         calculate D2E/DX2 analytically  !
 ! A7    A(2,3,4)              120.4243         calculate D2E/DX2 analytically  !
 ! A8    A(2,3,10)             122.5747         calculate D2E/DX2 analytically  !
 ! A9    A(4,3,10)             117.0011         calculate D2E/DX2 analytically  !
 ! A10   A(3,4,5)              120.576          calculate D2E/DX2 analytically  !
 ! A11   A(3,4,9)              118.5788         calculate D2E/DX2 analytically  !
 ! A12   A(5,4,9)              120.8452         calculate D2E/DX2 analytically  !
 ! A13   A(4,5,6)              118.9318         calculate D2E/DX2 analytically  !
 ! A14   A(4,5,13)             119.8229         calculate D2E/DX2 analytically  !
 ! A15   A(6,5,13)             121.2452         calculate D2E/DX2 analytically  !
 ! A16   A(1,6,5)              120.3193         calculate D2E/DX2 analytically  !
 ! A17   A(1,6,12)             119.9038         calculate D2E/DX2 analytically  !
 ! A18   A(5,6,12)             119.7769         calculate D2E/DX2 analytically  !
 ! A19   A(3,10,11)            109.9075         calculate D2E/DX2 analytically  !
 ! A20   A(5,13,14)            111.1772         calculate D2E/DX2 analytically  !
 ! A21   A(5,13,15)            111.1287         calculate D2E/DX2 analytically  !
 ! A22   A(5,13,16)            111.5164         calculate D2E/DX2 analytically  !
 ! A23   A(14,13,15)           107.1577         calculate D2E/DX2 analytically  !
 ! A24   A(14,13,16)           107.856          calculate D2E/DX2 analytically  !
 ! A25   A(15,13,16)           107.8118         calculate D2E/DX2 analytically  !
 ! D1    D(6,1,2,3)             -0.0025         calculate D2E/DX2 analytically  !
 ! D2    D(6,1,2,8)            179.9869         calculate D2E/DX2 analytically  !
 ! D3    D(7,1,2,3)           -179.9821         calculate D2E/DX2 analytically  !
 ! D4    D(7,1,2,8)              0.0074         calculate D2E/DX2 analytically  !
 ! D5    D(2,1,6,5)              0.0096         calculate D2E/DX2 analytically  !
 ! D6    D(2,1,6,12)          -179.9806         calculate D2E/DX2 analytically  !
 ! D7    D(7,1,6,5)            179.989          calculate D2E/DX2 analytically  !
 ! D8    D(7,1,6,12)            -0.0012         calculate D2E/DX2 analytically  !
 ! D9    D(1,2,3,4)              0.002          calculate D2E/DX2 analytically  !
 ! D10   D(1,2,3,10)           179.9884         calculate D2E/DX2 analytically  !
 ! D11   D(8,2,3,4)           -179.9874         calculate D2E/DX2 analytically  !
 ! D12   D(8,2,3,10)            -0.001          calculate D2E/DX2 analytically  !
 ! D13   D(2,3,4,5)             -0.0086         calculate D2E/DX2 analytically  !
 ! D14   D(2,3,4,9)            179.9817         calculate D2E/DX2 analytically  !
 ! D15   D(10,3,4,5)          -179.9957         calculate D2E/DX2 analytically  !
 ! D16   D(10,3,4,9)            -0.0054         calculate D2E/DX2 analytically  !
 ! D17   D(2,3,10,11)           -0.0218         calculate D2E/DX2 analytically  !
 ! D18   D(4,3,10,11)          179.9651         calculate D2E/DX2 analytically  !
 ! D19   D(3,4,5,6)              0.0153         calculate D2E/DX2 analytically  !
 ! D20   D(3,4,5,13)          -179.8643         calculate D2E/DX2 analytically  !
 ! D21   D(9,4,5,6)           -179.9747         calculate D2E/DX2 analytically  !
 ! D22   D(9,4,5,13)             0.1456         calculate D2E/DX2 analytically  !
 ! D23   D(4,5,6,1)             -0.0158         calculate D2E/DX2 analytically  !
 ! D24   D(4,5,6,12)           179.9744         calculate D2E/DX2 analytically  !
 ! D25   D(13,5,6,1)           179.8621         calculate D2E/DX2 analytically  !
 ! D26   D(13,5,6,12)           -0.1477         calculate D2E/DX2 analytically  !
 ! D27   D(4,5,13,14)          -58.1737         calculate D2E/DX2 analytically  !
 ! D28   D(4,5,13,15)           61.0935         calculate D2E/DX2 analytically  !
 ! D29   D(4,5,13,16)         -178.5848         calculate D2E/DX2 analytically  !
 ! D30   D(6,5,13,14)          121.9495         calculate D2E/DX2 analytically  !
 ! D31   D(6,5,13,15)         -118.7833         calculate D2E/DX2 analytically  !
 ! D32   D(6,5,13,16)            1.5384         calculate D2E/DX2 analytically  !
 --------------------------------------------------------------------------------
 Trust Radius=3.00D-01 FncErr=1.00D-07 GrdErr=1.00D-07 EigMax=2.50D+02 EigMin=1.00D-04
 Number of steps in this run=      2 maximum allowed number of steps=      2.
 GradGradGradGradGradGradGradGradGradGradGradGradGradGradGradGradGradGrad

                          Input orientation:                          
 ---------------------------------------------------------------------
 Center     Atomic      Atomic             Coordinates (Angstroms)
 Number     Number       Type             X           Y           Z
 ---------------------------------------------------------------------
      1          6           0        0.158437    1.796700    0.000236
      2          6           0        1.322238    1.025707    0.000619
      3          6           0        1.213481   -0.370314    0.000060
      4          6           0       -0.041934   -0.981797   -0.000910
      5          6           0       -1.210311   -0.209802   -0.001158
      6          6           0       -1.099702    1.188579   -0.000745
      7          1           0        0.236555    2.881058    0.000370
      8          1           0        2.301769    1.500793    0.001169
      9          1           0       -0.091421   -2.067748   -0.001628
     10          8           0        2.310328   -1.197727    0.000151
     11          1           0        3.122949   -0.668729    0.000297
     12          1           0       -1.997763    1.801182   -0.001352
     13          6           0       -2.561006   -0.889800    0.000895
     14          1           0       -2.673101   -1.551257   -0.867348
     15          1           0       -2.691142   -1.508312    0.898030
     16          1           0       -3.377691   -0.160810   -0.024720
 ---------------------------------------------------------------------
                    Distance matrix (angstroms):
                    1          2          3          4          5
     1  C    0.000000
     2  C    1.396017   0.000000
     3  C    2.410201   1.400251   0.000000
     4  C    2.785713   2.427146   1.396417   0.000000
     5  C    2.428893   2.817852   2.429101   1.400386   0.000000
     6  C    1.397400   2.427411   2.789438   2.414416   1.402749
     7  H    1.087168   2.149659   3.394968   3.872881   3.412747
     8  H    2.163662   1.088663   2.164582   3.414118   3.906513
     9  H    3.872517   3.401162   2.141040   1.087078   2.168843
    10  O    3.687442   2.433101   1.373931   2.362152   3.656624
    11  H    3.855732   2.472584   1.932646   3.180330   4.357495
    12  H    2.156205   3.409365   3.876530   3.401505   2.159661
    13  C    3.822650   4.329983   3.810068   2.520752   1.512210
    14  H    4.469802   4.832892   4.153618   2.828080   2.165535
    15  H    4.455248   4.830509   4.165029   2.846685   2.165070
    16  H    4.041865   4.847453   4.596016   3.435384   2.168062
                    6          7          8          9         10
     6  C    0.000000
     7  H    2.156402   0.000000
     8  H    3.415770   2.483997   0.000000
     9  H    3.408856   4.959663   4.296726   0.000000
    10  O    4.162062   4.575699   2.698534   2.554474   0.000000
    11  H    4.613066   4.575178   2.319733   3.505629   0.969635
    12  H    1.087105   2.481595   4.310013   4.313092   5.249105
    13  C    2.540683   4.695287   5.418627   2.736132   4.881057
    14  H    3.276169   5.372564   5.900734   2.771517   5.070710
    15  H    3.257867   5.351988   5.898155   2.807295   5.090909
    16  H    2.647765   4.724020   5.917589   3.799542   5.781814
                   11         12         13         14         15
    11  H    0.000000
    12  H    5.685258   0.000000
    13  C    5.688253   2.749297   0.000000
    14  H    5.926707   3.527730   1.097240   0.000000
    15  H    5.942599   3.498916   1.097426   1.765992   0.000000
    16  H    6.520501   2.398783   1.095015   1.771951   1.771603
                   16
    16  H    0.000000
 Stoichiometry    C7H8O
 Framework group  C1[X(C7H8O)]
 Deg. of freedom    42
 Full point group                 C1      NOp   1
 Largest Abelian subgroup         C1      NOp   1
 Largest concise Abelian subgroup C1      NOp   1
                         Standard orientation:                         
 ---------------------------------------------------------------------
 Center     Atomic      Atomic             Coordinates (Angstroms)
 Number     Number       Type             X           Y           Z
 ---------------------------------------------------------------------
      1          6           0        0.158437    1.796700    0.000236
      2          6           0        1.322238    1.025707    0.000619
      3          6           0        1.213481   -0.370314    0.000060
      4          6           0       -0.041934   -0.981797   -0.000910
      5          6           0       -1.210311   -0.209802   -0.001158
      6          6           0       -1.099702    1.188579   -0.000745
      7          1           0        0.236555    2.881058    0.000370
      8          1           0        2.301769    1.500793    0.001169
      9          1           0       -0.091421   -2.067748   -0.001628
     10          8           0        2.310328   -1.197727    0.000151
     11          1           0        3.122949   -0.668729    0.000297
     12          1           0       -1.997763    1.801182   -0.001352
     13          6           0       -2.561006   -0.889800    0.000895
     14          1           0       -2.673101   -1.551257   -0.867348
     15          1           0       -2.691142   -1.508312    0.898030
     16          1           0       -3.377691   -0.160810   -0.024720
 ---------------------------------------------------------------------
 Rotational constants (GHZ):           3.6329877           1.7914874           1.2088516
 Standard basis: 6-31+G(d) (6D, 7F)
 There are   168 symmetry adapted cartesian basis functions of A   symmetry.
 There are   168 symmetry adapted basis functions of A   symmetry.
   168 basis functions,   288 primitive gaussians,   168 cartesian basis functions
    29 alpha electrons       29 beta electrons
       nuclear repulsion energy       342.4249106923 Hartrees.
 NAtoms=   16 NActive=   16 NUniq=   16 SFac= 1.00D+00 NAtFMM=   60 NAOKFM=F Big=F
 Integral buffers will be    131072 words long.
 Raffenetti 2 integral format.
 Two-electron integral symmetry is turned on.
 Nuclear repulsion after empirical dispersion term =      342.4155796872 Hartrees.
 One-electron integrals computed using PRISM.
 NBasis=   168 RedAO= T EigKep=  4.34D-06  NBF=   168
 NBsUse=   168 1.00D-06 EigRej= -1.00D+00 NBFU=   168
 Initial guess from the checkpoint file:  "molecule37vol.chk"
 B after Tr=     0.000000    0.000000    0.000000
         Rot=    1.000000    0.000000    0.000000    0.000000 Ang=   0.00 deg.
 Requested convergence on RMS density matrix=1.00D-08 within1000 cycles.
 Requested convergence on MAX density matrix=1.00D-06.
 Requested convergence on             energy=1.00D-06.
 No special actions if energy rises.
 SCF Done:  E(RB3LYP) =  -346.808183603     A.U. after    1 cycles
            NFock=  1  Conv=0.62D-08     -V/T= 2.0099
 DoSCS=F DFT=T ScalE2(SS,OS)=  1.000000  1.000000
 Range of M.O.s used for correlation:     1   168
 NBasis=   168 NAE=    29 NBE=    29 NFC=     0 NFV=     0
 NROrb=    168 NOA=    29 NOB=    29 NVA=   139 NVB=   139

 **** Warning!!: The largest alpha MO coefficient is  0.12773556D+03

 Symmetrizing basis deriv contribution to polar:
 IMax=3 JMax=2 DiffMx= 0.00D+00
 G2DrvN: will do    17 centers at a time, making    1 passes.
 Calling FoFCou, ICntrl=  3107 FMM=F I1Cent=   0 AccDes= 0.00D+00.
 End of G2Drv F.D. properties file   721 does not exist.
 End of G2Drv F.D. properties file   722 does not exist.
 End of G2Drv F.D. properties file   788 does not exist.
          IDoAtm=1111111111111111
          Differentiating once with respect to electric field.
                with respect to dipole field.
          Differentiating once with respect to nuclear coordinates.
 Keep R1 ints in memory in canonical form, NReq=132582426.
          There are    51 degrees of freedom in the 1st order CPHF.  IDoFFX=6 NUNeed=     3.
     48 vectors produced by pass  0 Test12= 7.90D-15 1.96D-09 XBig12= 1.21D+02 5.19D+00.
 AX will form    48 AO Fock derivatives at one time.
     48 vectors produced by pass  1 Test12= 7.90D-15 1.96D-09 XBig12= 2.36D+01 7.82D-01.
     48 vectors produced by pass  2 Test12= 7.90D-15 1.96D-09 XBig12= 1.97D-01 6.19D-02.
     48 vectors produced by pass  3 Test12= 7.90D-15 1.96D-09 XBig12= 6.48D-04 3.12D-03.
     48 vectors produced by pass  4 Test12= 7.90D-15 1.96D-09 XBig12= 8.40D-07 1.04D-04.
     39 vectors produced by pass  5 Test12= 7.90D-15 1.96D-09 XBig12= 6.11D-10 3.59D-06.
      6 vectors produced by pass  6 Test12= 7.90D-15 1.96D-09 XBig12= 3.96D-13 8.32D-08.
      1 vectors produced by pass  7 Test12= 7.90D-15 1.96D-09 XBig12= 3.09D-16 2.47D-09.
 InvSVY:  IOpt=1 It=  1 EMax= 5.33D-15
 Solved reduced A of dimension   286 with    51 vectors.
 Isotropic polarizability for W=    0.000000       84.35 Bohr**3.
 End of Minotr F.D. properties file   721 does not exist.
 End of Minotr F.D. properties file   722 does not exist.
 End of Minotr F.D. properties file   788 does not exist.

 **********************************************************************

            Population analysis using the SCF Density.

 **********************************************************************

 Orbital symmetries:
       Occupied  (A) (A) (A) (A) (A) (A) (A) (A) (A) (A) (A) (A)
                 (A) (A) (A) (A) (A) (A) (A) (A) (A) (A) (A) (A)
                 (A) (A) (A) (A) (A)
       Virtual   (A) (A) (A) (A) (A) (A) (A) (A) (A) (A) (A) (A)
                 (A) (A) (A) (A) (A) (A) (A) (A) (A) (A) (A) (A)
                 (A) (A) (A) (A) (A) (A) (A) (A) (A) (A) (A) (A)
                 (A) (A) (A) (A) (A) (A) (A) (A) (A) (A) (A) (A)
                 (A) (A) (A) (A) (A) (A) (A) (A) (A) (A) (A) (A)
                 (A) (A) (A) (A) (A) (A) (A) (A) (A) (A) (A) (A)
                 (A) (A) (A) (A) (A) (A) (A) (A) (A) (A) (A) (A)
                 (A) (A) (A) (A) (A) (A) (A) (A) (A) (A) (A) (A)
                 (A) (A) (A) (A) (A) (A) (A) (A) (A) (A) (A) (A)
                 (A) (A) (A) (A) (A) (A) (A) (A) (A) (A) (A) (A)
                 (A) (A) (A) (A) (A) (A) (A) (A) (A) (A) (A) (A)
                 (A) (A) (A) (A) (A) (A) (A)
 The electronic state is 1-A.
 Alpha  occ. eigenvalues --  -19.19119 -10.25712 -10.20602 -10.19959 -10.19606
 Alpha  occ. eigenvalues --  -10.18783 -10.18771 -10.18766  -1.06709  -0.85728
 Alpha  occ. eigenvalues --   -0.77491  -0.74540  -0.69182  -0.61583  -0.60794
 Alpha  occ. eigenvalues --   -0.53192  -0.50193  -0.47694  -0.44202  -0.42624
 Alpha  occ. eigenvalues --   -0.41666  -0.40537  -0.40439  -0.37803  -0.36258
 Alpha  occ. eigenvalues --   -0.34302  -0.33286  -0.24985  -0.22850
 Alpha virt. eigenvalues --   -0.01640  -0.00465   0.00221   0.01285   0.02071
 Alpha virt. eigenvalues --    0.03839   0.04339   0.04954   0.06310   0.06538
 Alpha virt. eigenvalues --    0.07827   0.08223   0.09303   0.10082   0.12024
 Alpha virt. eigenvalues --    0.12058   0.12697   0.13056   0.14192   0.15071
 Alpha virt. eigenvalues --    0.15630   0.16192   0.16497   0.17079   0.18421
 Alpha virt. eigenvalues --    0.18691   0.20091   0.20840   0.21787   0.22761
 Alpha virt. eigenvalues --    0.23155   0.23716   0.24006   0.24257   0.26141
 Alpha virt. eigenvalues --    0.26595   0.27227   0.27312   0.28041   0.29377
 Alpha virt. eigenvalues --    0.30738   0.31850   0.33417   0.34780   0.35998
 Alpha virt. eigenvalues --    0.36974   0.38873   0.41055   0.41899   0.56429
 Alpha virt. eigenvalues --    0.60129   0.65915   0.66394   0.67298   0.68569
 Alpha virt. eigenvalues --    0.71205   0.71640   0.71883   0.73689   0.74901
 Alpha virt. eigenvalues --    0.75195   0.77436   0.77892   0.81118   0.82519
 Alpha virt. eigenvalues --    0.84428   0.88727   0.92184   0.93620   0.94870
 Alpha virt. eigenvalues --    0.95796   1.00008   1.02226   1.03714   1.05764
 Alpha virt. eigenvalues --    1.08481   1.10148   1.14795   1.15263   1.18079
 Alpha virt. eigenvalues --    1.19460   1.20520   1.24271   1.24325   1.27546
 Alpha virt. eigenvalues --    1.28842   1.36257   1.36599   1.40765   1.41629
 Alpha virt. eigenvalues --    1.44233   1.46041   1.47981   1.49445   1.51439
 Alpha virt. eigenvalues --    1.72597   1.76068   1.80794   1.81870   1.86894
 Alpha virt. eigenvalues --    1.89919   1.90457   1.92220   1.96206   1.97515
 Alpha virt. eigenvalues --    1.97653   2.00016   2.11325   2.12752   2.14373
 Alpha virt. eigenvalues --    2.15689   2.22037   2.27512   2.29583   2.31625
 Alpha virt. eigenvalues --    2.36184   2.38947   2.39114   2.49262   2.49999
 Alpha virt. eigenvalues --    2.57613   2.63627   2.65225   2.70791   2.75059
 Alpha virt. eigenvalues --    2.77347   2.87280   2.90791   3.04577   3.12190
 Alpha virt. eigenvalues --    3.42351   4.16781   4.23733   4.25613   4.29015
 Alpha virt. eigenvalues --    4.33891   4.42053   4.49785   4.77649
          Condensed to atoms (all electrons):
               1          2          3          4          5          6
     1  C    5.408454   0.215266   0.359999  -0.237402   0.123452   0.323948
     2  C    0.215266   6.432462   0.036002  -0.919178  -0.071740  -0.226711
     3  C    0.359999   0.036002   7.281345  -1.800640   0.575723   0.040156
     4  C   -0.237402  -0.919178  -1.800640  10.832755  -0.861137  -1.699230
     5  C    0.123452  -0.071740   0.575723  -0.861137   6.739468   0.132581
     6  C    0.323948  -0.226711   0.040156  -1.699230   0.132581   7.533783
     7  H    0.260423   0.033244  -0.003052  -0.001056  -0.003684   0.007971
     8  H    0.049253   0.273385  -0.043630  -0.010714   0.009972   0.008387
     9  H   -0.021411   0.039752  -0.003832   0.209924  -0.006058   0.059038
    10  O    0.025231  -0.018826   0.008319  -0.134990   0.046722   0.021072
    11  H   -0.004301  -0.096513  -0.050832   0.170226  -0.009447  -0.004508
    12  H    0.019340   0.015829  -0.006218   0.032188   0.027005   0.209735
    13  C   -0.111835   0.071513  -0.546099   0.204290  -0.688469   0.301591
    14  H   -0.003296   0.003563  -0.009349  -0.008326  -0.085014   0.022011
    15  H   -0.002753   0.003268  -0.008946  -0.013370  -0.077006   0.021691
    16  H   -0.006446   0.003311  -0.000903   0.012607  -0.129896  -0.003085
               7          8          9         10         11         12
     1  C    0.260423   0.049253  -0.021411   0.025231  -0.004301   0.019340
     2  C    0.033244   0.273385   0.039752  -0.018826  -0.096513   0.015829
     3  C   -0.003052  -0.043630  -0.003832   0.008319  -0.050832  -0.006218
     4  C   -0.001056  -0.010714   0.209924  -0.134990   0.170226   0.032188
     5  C   -0.003684   0.009972  -0.006058   0.046722  -0.009447   0.027005
     6  C    0.007971   0.008387   0.059038   0.021072  -0.004508   0.209735
     7  H    0.538301  -0.004989   0.000016  -0.000606  -0.000011  -0.004636
     8  H   -0.004989   0.560119  -0.000151  -0.013323   0.007579  -0.000150
     9  H    0.000016  -0.000151   0.535375  -0.005258  -0.000083  -0.000137
    10  O   -0.000606  -0.013323  -0.005258   8.610780   0.144607   0.000093
    11  H   -0.000011   0.007579  -0.000083   0.144607   0.367467  -0.000001
    12  H   -0.004636  -0.000150  -0.000137   0.000093  -0.000001   0.551494
    13  C   -0.000274   0.002101   0.005680  -0.002717   0.002442  -0.019310
    14  H    0.000002   0.000000   0.000935  -0.000006   0.000000   0.000123
    15  H    0.000002   0.000000   0.000835  -0.000008   0.000000   0.000133
    16  H   -0.000004   0.000000   0.000084   0.000029   0.000000   0.004252
              13         14         15         16
     1  C   -0.111835  -0.003296  -0.002753  -0.006446
     2  C    0.071513   0.003563   0.003268   0.003311
     3  C   -0.546099  -0.009349  -0.008946  -0.000903
     4  C    0.204290  -0.008326  -0.013370   0.012607
     5  C   -0.688469  -0.085014  -0.077006  -0.129896
     6  C    0.301591   0.022011   0.021691  -0.003085
     7  H   -0.000274   0.000002   0.000002  -0.000004
     8  H    0.002101   0.000000   0.000000   0.000000
     9  H    0.005680   0.000935   0.000835   0.000084
    10  O   -0.002717  -0.000006  -0.000008   0.000029
    11  H    0.002442   0.000000   0.000000   0.000000
    12  H   -0.019310   0.000123   0.000133   0.004252
    13  C    6.366496   0.413353   0.409564   0.463553
    14  H    0.413353   0.502058  -0.032566  -0.026272
    15  H    0.409564  -0.032566   0.501511  -0.026373
    16  H    0.463553  -0.026272  -0.026373   0.504933
 Mulliken charges:
               1
     1  C   -0.397924
     2  C    0.205371
     3  C    0.171957
     4  C    0.224051
     5  C    0.277527
     6  C   -0.748430
     7  H    0.178351
     8  H    0.162161
     9  H    0.185291
    10  O   -0.681121
    11  H    0.473374
    12  H    0.170260
    13  C   -0.871878
    14  H    0.222783
    15  H    0.224017
    16  H    0.204211
 Sum of Mulliken charges =   0.00000
 Mulliken charges with hydrogens summed into heavy atoms:
               1
     1  C   -0.219573
     2  C    0.367532
     3  C    0.171957
     4  C    0.409342
     5  C    0.277527
     6  C   -0.578170
    10  O   -0.207747
    13  C   -0.220868
 APT charges:
               1
     1  C    0.087217
     2  C   -0.180799
     3  C    0.597488
     4  C   -0.189625
     5  C    0.176014
     6  C   -0.188360
     7  H    0.023344
     8  H    0.021850
     9  H    0.044841
    10  O   -0.717256
    11  H    0.274831
    12  H    0.024814
    13  C    0.084723
    14  H   -0.021831
    15  H   -0.022653
    16  H   -0.014598
 Sum of APT charges =   0.00000
 APT charges with hydrogens summed into heavy atoms:
               1
     1  C    0.110560
     2  C   -0.158949
     3  C    0.597488
     4  C   -0.144784
     5  C    0.176014
     6  C   -0.163546
    10  O   -0.442426
    13  C    0.025642
 Electronic spatial extent (au):  <R**2>=            976.2596
 Charge=              0.0000 electrons
 Dipole moment (field-independent basis, Debye):
    X=              0.3551    Y=              1.0223    Z=              0.0037  Tot=              1.0822
 Quadrupole moment (field-independent basis, Debye-Ang):
   XX=            -39.1013   YY=            -47.5074   ZZ=            -51.9704
   XY=              3.7438   XZ=             -0.0041   YZ=             -0.0003
 Traceless Quadrupole moment (field-independent basis, Debye-Ang):
   XX=              7.0917   YY=             -1.3144   ZZ=             -5.7774
   XY=              3.7438   XZ=             -0.0041   YZ=             -0.0003
 Octapole moment (field-independent basis, Debye-Ang**2):
  XXX=             35.1715  YYY=              3.2928  ZZZ=              0.0580  XYY=             -4.7691
  XXY=              5.4545  XXZ=              0.0084  XZZ=              1.9223  YZZ=             -4.8999
  YYZ=             -0.0371  XYZ=              0.0232
 Hexadecapole moment (field-independent basis, Debye-Ang**3):
 XXXX=           -684.1243 YYYY=           -423.5667 ZZZZ=            -69.0113 XXXY=             -8.5398
 XXXZ=              0.0831 YYYX=              4.0574 YYYZ=              0.1379 ZZZX=             -0.1541
 ZZZY=             -0.0629 XXYY=           -219.0974 XXZZ=           -153.1206 YYZZ=            -92.5674
 XXYZ=             -0.0991 YYXZ=              0.0793 ZZXY=             -0.4068
 N-N= 3.424155796872D+02 E-N=-1.490129360579D+03  KE= 3.434234707258D+02
  Exact polarizability: 107.043   1.765  94.173  -0.021  -0.009  51.823
 Approx polarizability: 159.149  -1.757 150.605  -0.020  -0.007  74.382
 Calling FoFJK, ICntrl=    100127 FMM=F ISym2X=0 I1Cent= 0 IOpClX= 0 NMat=1 NMatS=1 NMatT=0.
 Full mass-weighted force constant matrix:
[...]
   yy         0.941735D+02      0.139551D+02      0.155271D+02
   zx        -0.214337D-01     -0.317614D-02     -0.353394D-02
   zy        -0.890496D-02     -0.131958D-02     -0.146823D-02
   zz         0.518231D+02      0.767940D+01      0.854448D+01

 ----------------------------------------------------------------------

 Dipole orientation:
     6         -0.78150670          0.28288773          3.30556025
     6          1.63161220         -0.55830480          2.65075583
     6          2.26327349         -0.78580947          0.09125524
     6          0.50284837         -0.17924423         -1.77863359
     6         -1.91865888          0.66458767         -1.12487655
     6         -2.54848269          0.89176564          1.43998416
     1         -1.28269053          0.46384906          5.28970572
     1          3.00648216         -1.03162750          4.10611879
     1          1.05362531         -0.37620677         -3.74787642
     8          4.59654982         -1.59920318         -0.70577672
     1          5.65862259         -1.96311156          0.74234551
     1         -4.42070730          1.54513091          1.97678980
     6         -3.80170921          1.30703690         -3.17612365
     1         -3.06647842          2.78403936         -4.43200378
     1         -4.21644555         -0.34786919         -4.35513551
     1         -5.58907578          1.98189171         -2.38126405

 Electric dipole moment (dipole orientation):
 (Debye = 10**-18 statcoulomb cm , SI units = C m)
                  (au)            (Debye)         (10**-30 SI)
   Tot        0.425788D+00      0.108224D+01      0.360998D+01
   x          0.000000D+00      0.000000D+00      0.000000D+00
   y          0.000000D+00      0.000000D+00      0.000000D+00
   z          0.425788D+00      0.108224D+01      0.360998D+01

 Dipole polarizability, Alpha (dipole orientation).
 (esu units = cm**3 , SI units = C**2 m**2 J**-1)
 Alpha(0;0):
               (au)            (10**-24 esu)      (10**-40 SI)
   iso        0.843464D+02      0.124988D+02      0.139068D+02
   aniso      0.501350D+02      0.742924D+01      0.826614D+01
   xx         0.989094D+02      0.146569D+02      0.163080D+02
   yx        -0.163168D+02     -0.241790D+01     -0.269028D+01
   yy         0.574781D+02      0.851738D+01      0.947686D+01
   zx         0.513086D+01      0.760315D+00      0.845964D+00
   zy        -0.160353D+01     -0.237619D+00     -0.264386D+00
   zz         0.966517D+02      0.143223D+02      0.159357D+02

 ----------------------------------------------------------------------
 1\1\GINC-IP-172-31-28-242\Freq\RB3LYP\6-31+G(d)\C7H8O1\UBUNTU\19-Sep-2
 023\0\\#N Geom=AllCheck Guess=TCheck SCRF=Check GenChk RB3LYP/6-31+G(d
 ) Freq\\Title Card Required\\0,1\C,0.158437,1.7967,0.000236\C,1.322238
 ,1.025707,0.000619\C,1.213481,-0.370314,0.00006\C,-0.041934,-0.981797,
 -0.00091\C,-1.210311,-0.209802,-0.001158\C,-1.099702,1.188579,-0.00074
 5\H,0.236555,2.881058,0.00037\H,2.301769,1.500793,0.001169\H,-0.091421
 ,-2.067748,-0.001628\O,2.310328,-1.197727,0.000151\H,3.122949,-0.66872
 9,0.000297\H,-1.997763,1.801182,-0.001352\C,-2.561006,-0.8898,0.000895
 \H,-2.673101,-1.551257,-0.867348\H,-2.691142,-1.508312,0.89803\H,-3.37
 7691,-0.16081,-0.02472\\Version=EM64L-G16RevB.01\State=1-A\HF=-346.808
 1836\RMSD=6.193e-09\RMSF=2.473e-05\ZeroPoint=0.1318538\Thermal=0.13839
 04\Dipole=0.139688,0.4022194,0.0014538\DipoleDeriv=0.2601447,0.0875612
 ,0.0002671,-0.0569666,0.1251014,-0.0003008,0.0005471,0.0001485,-0.1235
 966,-0.1374869,-0.0014403,0.00019,0.3597556,-0.2085427,0.0001778,0.000
 4592,0.0000144,-0.1963667,1.1611602,-0.6241486,-0.0001049,-0.6482799,0
 .5411291,0.000164,0.000261,0.0003998,0.0901752,-0.4397108,0.1570467,0.
 0006529,-0.0762949,0.0410538,-0.000267,0.0008056,0.0002221,-0.170217,0
 .3410795,0.0543947,-0.0018737,0.1723791,0.2523348,-0.0010017,-0.006487
 1,-0.0025447,-0.0653718,-0.1752955,-0.1454996,0.0001741,-0.1940485,-0.
 2153826,0.000649,0.0005523,-0.000204,-0.1744028,0.0584268,-0.0167952,-
 0.0000862,-0.0179282,-0.1244158,-0.0000562,-0.0002596,0.0000682,0.1360
 202,-0.1335025,-0.058096,-0.0001347,-0.0496205,0.0433982,-0.0000591,-0
 .0001984,-0.000115,0.1556544,0.076349,-0.0170238,-0.0001296,-0.0062035
 ,-0.0837203,-0.0001528,-0.000318,-0.000516,0.1418939,-1.1949806,0.6206
 851,-0.000103,0.6792147,-0.5712193,0.0000683,-0.0002215,-0.0000746,-0.
 3855687,0.3066614,-0.0733119,-0.000054,-0.1357535,0.1765588,-0.0000177
 ,0.0000264,-0.0000707,0.3412714,-0.0815038,0.0905952,-0.0002369,0.0749
 328,0.0114912,-0.0000628,-0.000574,0.0000887,0.1444557,0.0655915,-0.04
 2141,0.0004165,-0.1252408,0.0618787,0.0003458,0.0090131,0.0042217,0.12
 66992,-0.0121008,-0.0288041,0.0150944,-0.0598072,-0.0094405,-0.0878014
 ,-0.0460048,-0.1116947,-0.0439516,-0.0153024,-0.034334,-0.0116871,-0.0
 610165,-0.0002869,0.0843783,0.0478207,0.1078632,-0.0523689,-0.0795298,
 0.0313115,-0.0023849,0.144878,-0.039938,0.0039365,-0.005422,0.002193,0
 .0756741\Polar=107.0425453,1.7645932,94.1734773,-0.0214337,-0.008905,5
 1.8231347\Quadrupole=5.2725418,-0.9771915,-4.2953502,2.7834432,-0.0030
 779,-0.0002468\PG=C01 [X(C7H8O1)]\NImag=1\\0.67066834,0.00348692,0.735
 79265,0.00031883,0.00011061,0.13052605,-0.27741488,0.13161903,-0.00007
 181,0.73475960,0.07047183,-0.19164310,0.00001044,0.01609871,0.67088554
 ,-0.00006870,0.00003171,-0.05400349,0.00028871,0.00018292,0.11338805,0
 .04556691,0.02510876,0.00002399,-0.13240002,0.00755160,-0.00001295,0.6
 9659289,0.07766936,-0.03455106,0.00003373,-0.06819888,-0.31027548,-0.0
 0010609,0.02440281,0.68924850,0.00004199,-0.00000886,-0.00048787,-0.00
 004056,-0.00009273,-0.06110694,0.00025717,0.00024891,0.15051459,-0.062
 01950,0.00207547,-0.00003538,0.02335883,-0.06955374,-0.00003286,-0.270
 31669,-0.05480751,-0.00012415,0.68846038,0.00412332,-0.00228016,0.0000
 0446,-0.02824921,-0.01534151,-0.00002667,-0.12722961,-0.17790675,-0.00
 010124,-0.00098704,0.73847851,-0.00008949,0.00000366,-0.00085299,0.000
 02061,-0.00010162,0.00583484,-0.00013070,-0.00002825,-0.06331105,0.000
 19690,0.00035699,0.12114711,0.02561637,-0.03134852,0.00002618,-0.01163
 709,0.02429810,0.00001882,-0.05876958,-0.01657584,-0.00000677,-0.26037
 780,0.12604526,-0.00001265,0.64151848,-0.07992874,-0.02110486,-0.00004
 401,0.02764898,-0.05244558,0.00001076,0.03767558,0.07039894,0.00005694
 ,0.06335500,-0.19075830,-0.00009184,-0.01188251,0.66518472,-0.00005693
 ,0.00001895,0.00417490,-0.00002620,-0.00001970,-0.00167999,0.00000678,
 -0.00003994,-0.00187736,-0.00003433,0.00000788,-0.06080527,-0.00019620
 ,-0.00006300,0.17173197,-0.29703954,-0.11346137,-0.00016601,-0.0564483
 1,0.03257442,-0.00003861,-0.02162725,-0.03714466,-0.00001888,0.0354521
 5,0.02472460,0.00007060,-0.12529287,0.02015940,-0.00000029,0.72289659,
 -0.05085201,-0.16595370,-0.00005719,-0.01408003,0.05790353,-0.00000798
 ,-0.03528976,-0.04794074,-0.00003320,0.06689585,-0.03312501,0.00007982
 ,-0.04597802,-0.31608415,-0.00006253,-0.03166886,0.67486409,-0.0001116
 5,-0.00009765,-0.05897147,-0.00006514,0.00008158,0.00622430,-0.0000646
 5,-0.00008836,-0.00239944,0.00010614,0.00000820,0.00682349,-0.00006755
 ,0.00003641,-0.06282229,0.00037683,-0.00000539,0.12283211,-0.06121117,
 -0.02004534,-0.00002418,0.00588248,0.02728013,0.00000554,-0.00424283,0
 .00185135,-0.00000696,-0.00114391,0.00028829,0.00000061,-0.00507233,-0
 .00170688,0.00000230,0.00353169,-0.02939231,-0.00000053,0.06059582,-0.
 01978397,-0.33663997,-0.00003768,-0.00345431,-0.01330389,-0.00000342,0
 .00302402,0.00110398,0.00000120,0.00008361,0.00067874,0.00000042,-0.00
 279519,0.00104690,0.00000181,0.00159136,-0.00959971,-0.00000144,0.0212
 7911,0.35696511,-0.00002711,-0.00002972,-0.03581946,0.00000386,0.00000
 535,0.00304508,-0.00000082,0.00000362,0.00712502,-0.00000451,0.0000005
 3,-0.00082494,-0.00001542,-0.00001741,0.00669611,0.00000064,-0.0000130
 6,0.00329682,0.00002538,0.00004167,0.02509399,-0.01943081,-0.01433351,
 -0.00001167,-0.27743222,-0.10859252,-0.00013490,-0.00320503,0.00302769
 ,-0.00000081,0.00191797,-0.00016184,-0.00000214,0.00015126,0.00066042,
 0.00000144,-0.00187156,0.00449812,-0.00000341,0.00081669,0.00043416,0.
 00000265,0.29640833,0.01705997,0.01239977,0.00000929,-0.10874081,-0.11
 360843,-0.00007096,-0.03007612,-0.00867613,-0.00001473,0.00116926,-0.0
 0582942,-0.00000235,0.00111144,-0.00109407,0.00000076,0.00302306,-0.00
 152873,-0.00000002,-0.00023748,0.00079825,0.00000073,0.11685961,0.1159
 9814,-0.00001193,0.00000268,0.00154742,-0.00013433,-0.00007176,-0.0299
 9041,-0.00001518,-0.00001425,0.00322543,0.00000668,-0.00000328,0.00473
 037,-0.00001039,-0.00000366,-0.00068304,-0.00000065,0.00000515,0.00673
 223,0.00000253,0.00000068,-0.00403375,0.00014851,0.00007731,0.02149134
 ,-0.00119068,0.00026358,0.00000261,-0.00522230,-0.00127259,-0.00000483
 ,0.00309344,-0.03015793,-0.00000626,-0.06027573,-0.01401585,-0.0000416
 7,0.00611669,0.02662355,0.00000917,-0.00447258,0.00227300,-0.00000497,
 0.00014158,-0.00000559,-0.00000053,-0.00005802,-0.00159681,-0.00000373
 ,0.05874361,-0.00000635,0.00067804,0.00000155,-0.00266661,0.00086811,-
 0.00000573,0.00254305,-0.01248412,0.00000135,-0.01621446,-0.33627433,-
 0.00021678,-0.00256557,-0.01345865,-0.00001263,0.00309959,0.00079123,-
 0.00000715,-0.00002863,-0.00007815,0.00000079,-0.00000877,-0.00049789,
 -0.00000268,0.01557385,0.35840049,-0.00000335,0.00000022,-0.00076344,-
 0.00000725,-0.00000515,0.00513027,0.00001227,-0.00002219,0.00494883,-0
 .00002064,-0.00023582,-0.03390972,-0.00004658,-0.00001081,0.00252115,-
 0.00000586,0.00001210,0.00648947,0.00000050,-0.00000022,-0.00078611,-0
 .00000013,-0.00000209,0.00021485,0.00003860,0.00023173,0.02347554,-0.0
 0226627,-0.00152481,-0.00000201,-0.00599913,0.01030077,-0.00000023,-0.
 22152051,0.11656199,-0.00003009,-0.05720047,0.02928095,-0.00001633,0.0
 0343485,-0.00973992,-0.00000617,-0.00159932,0.00633969,0.00000969,-0.0
 0016043,0.00023000,-0.00000090,0.00370169,-0.00099925,0.00000043,0.001
 58403,0.00027033,-0.00000169,0.62916795,-0.01046619,-0.00328734,-0.000
 01058,0.04944891,-0.03367364,0.00000108,0.06294569,-0.17846071,-0.0000
 2322,-0.00815529,0.01859290,-0.00000131,-0.00267407,-0.00688922,0.0000
 0878,0.00568887,0.00203456,0.00000844,0.00180208,-0.00120697,0.0000006
 2,-0.00020556,0.00273992,0.00000420,0.00021585,0.00120175,0.00000332,0
 .08561814,0.38927519,-0.00000886,-0.00000543,0.00731101,0.00001545,-0.
 00000736,0.00834826,-0.00003018,-0.00001663,-0.03938158,-0.00003007,0.
 00001748,0.00645175,-0.00000535,-0.00001344,0.00512705,0.00000110,0.00
 000514,-0.00155337,0.00000115,-0.00000079,0.00006598,0.00000252,0.0000
 0239,-0.00376094,0.00000204,0.00000346,-0.00342566,0.00010513,0.000059
 13,0.02451991,-0.00127640,-0.00041646,-0.00000262,0.00562988,-0.002278
 13,-0.00000015,-0.03541993,-0.02284925,-0.00001186,-0.00234235,0.00627
 475,0.00000364,-0.00080376,-0.00215872,0.00000451,0.00095187,0.0003036
 7,0.00000058,0.00024941,-0.00023676,0.00000031,0.00007719,0.00160148,0
 .00000227,0.00036432,0.00011092,0.00000085,-0.34765499,-0.18341817,-0.
 00005895,0.38042934,0.00001998,-0.00055477,0.00000011,0.00411337,0.001
 72339,0.00000194,0.02808488,0.01319072,0.00000798,0.00411356,-0.002794
 92,0.00000223,0.00027500,0.00134104,-0.00000610,-0.00020790,-0.0004484
 8,-0.00000120,-0.00001853,0.00004531,0.00000004,-0.00130392,-0.0013865
 0,-0.00000080,0.00033962,0.00017560,0.00000081,-0.23795912,-0.19122854
 ,-0.00004852,0.20257410,0.18028411,0.00000276,0.00000108,-0.00078622,0
 .00000094,0.00000018,-0.00065515,-0.00000671,0.00000077,-0.00362669,-0
 .00000147,-0.00000247,0.00251590,-0.00000751,0.00000157,0.00173521,-0.
 00000070,-0.00000371,0.00022234,-0.00000008,0.00000013,0.00000364,-0.0
 0000070,-0.00000088,0.00060685,0.00000097,0.00000111,-0.00071003,-0.00
 005745,-0.00003971,-0.00301455,0.00006669,0.00003921,0.00403294,-0.019
 12271,0.01819910,0.00000262,-0.00298901,-0.00390478,-0.00000867,0.0001
 1776,-0.00094608,0.00000046,0.00124195,-0.00109611,-0.00000763,0.00323
 098,-0.00268413,-0.00000083,-0.24766593,0.12977187,-0.00017170,0.00063
 758,-0.00046373,0.00000413,-0.00110565,0.00091089,-0.00000325,0.000247
 30,-0.00010083,0.00000339,-0.00001357,0.00032225,0.00000086,0.00008283
 ,-0.00017440,-0.00000021,0.26379056,-0.01345262,0.01151567,-0.00000621
 ,-0.00267665,-0.00058113,-0.00000026,-0.00131723,-0.00094869,-0.000000
 88,-0.00205057,-0.00535134,0.00000083,0.02707880,-0.01372371,0.0000141
 6,0.12915926,-0.14714352,0.00008013,0.00031104,0.00082418,-0.00000022,
 -0.00074079,0.00045581,-0.00000087,0.00146741,-0.00067049,0.00000027,0
 .00031206,0.00025761,0.00000012,0.00006552,-0.00005518,-0.00000019,-0.
 13828920,0.15485655,-0.00001077,0.00001875,0.00133146,-0.00000911,-0.0
 0000265,0.00647596,-0.00000286,-0.00000452,-0.00036316,0.00000780,-0.0
 0001181,0.00564819,-0.00003150,-0.00003198,0.00217466,-0.00016711,0.00
 010683,-0.03192148,0.00000217,-0.00000012,-0.00392343,-0.00000204,0.00
 000113,0.00058702,0.00000237,0.00000215,0.00051521,-0.00000053,0.00000
 117,-0.00069042,0.00000065,-0.00000009,-0.00006408,0.00017746,-0.00008
 893,0.02391018,0.00026991,0.00161317,-0.00007597,0.00002923,-0.0013717
 6,-0.00000865,0.00075383,0.00503987,0.00000584,-0.03239777,-0.01253903
 ,0.00007747,-0.18755248,-0.05102394,0.00017629,-0.00292184,-0.00632116
 ,-0.00002677,0.00041206,0.00039016,0.00001100,0.00002873,-0.00006094,0
 .00001512,0.00105790,-0.00119533,0.00000147,-0.00066324,-0.00098504,0.
 00000255,-0.00023821,0.00019953,0.00000017,0.00096457,0.00216151,0.000
 06006,0.51343502,0.00100433,-0.00376223,0.00006319,-0.00058189,-0.0018
 4072,-0.00000546,0.00475246,-0.00118159,-0.00010878,0.01201035,0.01227
 452,-0.00008126,-0.04505004,-0.11276782,0.00006148,-0.03091240,-0.0137
 2281,0.00011438,-0.00113074,-0.00044184,-0.00000066,-0.00004850,0.0001
 6567,0.00000486,0.00068643,0.00072881,0.00008224,0.00164851,0.00046691
 ,0.00000517,0.00046184,-0.00028999,0.00000572,-0.00126727,0.00044324,-
 0.00004324,-0.04472959,0.55742071,-0.00005104,-0.00007556,0.00732218,0
 .00006387,0.00004364,-0.00084298,-0.00011507,-0.00002415,0.00558568,0.
 00000017,-0.00001658,0.00336315,-0.00010585,-0.00007642,-0.07143676,-0
 .00005295,-0.00001621,0.00592873,-0.00001334,-0.00000544,0.00004704,-0
 .00000269,-0.00000256,-0.00060093,0.00003838,-0.00002933,-0.00258439,-
 0.00000267,-0.00001145,0.00009770,-0.00000975,0.00000716,-0.00019753,-
 0.00000264,0.00004951,-0.00418452,0.00075662,0.00047393,0.54073880,-0.
 00048925,-0.00055620,0.00102372,-0.00012956,-0.00060057,-0.00019079,0.
 00067882,0.00021306,0.00075361,0.00012060,-0.00100270,0.00052941,-0.00
 409557,-0.01971495,-0.02383903,-0.00267474,0.00060897,-0.00031524,-0.0
 0023100,-0.00014231,0.00005824,-0.00001381,0.00003712,0.00002668,-0.00
 018027,0.00064335,-0.00041250,-0.00006293,0.00009298,0.00001325,0.0000
 4224,-0.00006128,-0.00006062,0.00012721,-0.00022687,-0.00025845,-0.049
 92661,-0.01244428,-0.01983898,0.05391166,0.00032519,-0.00049470,0.0010
 5818,-0.00014450,0.00067902,-0.00004404,-0.00075590,-0.00106246,0.0007
 4084,0.00220164,0.00057076,0.00050727,-0.00341434,-0.01060020,-0.01040
 678,-0.00251939,-0.00037471,-0.00006027,-0.00017062,-0.00011801,-0.000
 03630,-0.00006352,0.00002749,-0.00020348,-0.00006208,0.00023578,-0.000
 63927,-0.00012339,0.00018872,0.00001096,0.00002605,-0.00002605,-0.0000
 2896,-0.00005739,0.00023762,-0.00063585,-0.01181607,-0.13954752,-0.125
 18816,0.01735164,0.15052545,0.00032999,0.00011254,-0.00017371,-0.00008
 238,0.00032098,-0.00005906,-0.00032329,-0.00028895,0.00021815,0.000349
 44,-0.00028127,0.00099800,0.00010300,0.00191640,0.00320387,-0.00012701
 ,0.00050374,-0.00032490,0.00000131,0.00000595,0.00002165,-0.00002353,0
 .00002987,-0.00004329,-0.00032113,0.00016972,-0.00037269,-0.00011780,0
 .00012517,0.00000026,0.00001809,-0.00001489,0.00000112,0.00003436,0.00
 007564,0.00007429,-0.01896144,-0.12494813,-0.21176540,0.01979247,0.137
 40678,0.22873069,-0.00057558,-0.00048512,-0.00103581,-0.00012653,-0.00
 064673,0.00019291,0.00069413,0.00023441,-0.00085084,0.00005759,-0.0009
 9728,-0.00055629,-0.00477946,-0.01856352,0.02458853,-0.00239756,0.0007
 2715,0.00029444,-0.00021408,-0.00013612,-0.00005565,-0.00001489,0.0000
 3477,-0.00001960,-0.00016186,0.00062180,0.00045343,-0.00007832,0.00009
 273,-0.00001343,0.00004158,-0.00006188,0.00006588,0.00012998,-0.000222
 52,0.00026817,-0.05052009,-0.01401218,0.02397640,-0.00011241,0.0018364
 6,-0.00169994,0.05461420,0.00036279,-0.00045761,-0.00110560,-0.0001808
 9,0.00071089,0.00004632,-0.00079849,-0.00111783,-0.00070440,0.00220746
 ,0.00053373,-0.00044965,-0.00377402,-0.01001092,0.01094923,-0.00242675
 ,-0.00041160,-0.00005730,-0.00015912,-0.00011490,0.00004193,-0.0000600
 8,0.00002384,0.00019833,-0.00004182,0.00019868,0.00059560,-0.00010516,
 0.00018051,-0.00001169,0.00002555,-0.00002793,0.00002762,-0.00005432,0
 .00019452,0.00067054,-0.01325741,-0.12741044,0.12070515,0.00225444,0.0
 1254976,-0.01700417,0.01898570,0.13717467,-0.00023856,-0.00007665,-0.0
 0016697,0.00003872,-0.00030706,-0.00006073,0.00034009,0.00030177,0.000
 22889,-0.00037443,0.00029201,0.00101063,0.00011251,-0.00159062,0.00334
 824,0.00012602,-0.00053813,-0.00033594,0.00000400,-0.00000247,0.000026
 45,0.00002581,-0.00002757,-0.00005077,0.00029296,-0.00014983,-0.000398
 33,0.00012231,-0.00012347,0.00000449,-0.00001650,0.00001307,0.00000125
 ,-0.00002070,-0.00009253,0.00005248,0.02273831,0.12025677,-0.22252708,
 0.00203368,0.01534969,-0.02231531,-0.02433689,-0.13239322,0.24066304,-
 0.00008473,-0.00019469,0.00002752,0.00013903,-0.00035472,-0.00000464,0
 .00000404,0.00167962,0.00003809,-0.00453525,-0.00445850,-0.00004234,-0
 .02168768,0.02128039,-0.00062901,0.00117920,0.00216384,0.00004392,0.00
 000842,-0.00001441,-0.00000127,0.00003014,-0.00009622,-0.00000317,0.00
 021257,-0.00007633,-0.00001252,-0.00066934,-0.00032318,0.00000280,-0.0
 0013302,0.00006697,-0.00000197,0.00032616,-0.00157914,-0.00003632,-0.1
 9273099,0.12961298,-0.00464046,0.00303563,-0.00261378,0.00102787,0.003
 44330,-0.00297790,-0.00084733,0.21146254,-0.00003381,0.00034337,-0.000
 03029,0.00004478,-0.00005700,-0.00000412,-0.00062173,0.00066341,0.0000
 3081,-0.00234359,-0.00146742,0.00002184,-0.01275049,0.01096588,-0.0004
 5238,-0.00167920,0.00073976,-0.00001035,0.00007763,0.00004097,0.000002
 07,0.00003900,0.00001228,0.00000756,-0.00029061,0.00018514,-0.00001075
 ,-0.00011078,-0.00019164,0.00000002,-0.00008638,0.00005216,-0.00000147
 ,-0.00016586,-0.00031115,0.00001862,0.13389605,-0.17053489,0.00416647,
 0.01354761,-0.01279096,0.00187063,0.01259233,-0.01201537,-0.00091175,-
 0.14211495,0.18436547,-0.00001518,-0.00000634,-0.00018743,0.00000462,-
 0.00003704,-0.00004803,0.00006211,0.00004453,0.00070747,-0.00000928,-0
 .00000841,0.00118053,0.00024525,-0.00007890,-0.00140846,0.00000289,0.0
 0002462,-0.00022061,-0.00000040,-0.00000027,-0.00003411,0.00000108,-0.
 00000033,0.00002763,-0.00000399,0.00001226,-0.00034496,-0.00000170,-0.
 00000218,-0.00009989,0.00000225,-0.00000094,-0.00006500,-0.00000766,-0
 .00003056,0.00037764,-0.00477207,0.00411979,-0.04894371,0.02068456,-0.
 01783061,0.00180634,-0.02127130,0.01849130,0.00051967,0.00507883,-0.00
 469691,0.04673291\\0.00004588,0.00000353,0.00000780,-0.00001809,0.0000
 4311,-0.00001347,-0.00008210,-0.00002881,0.00000428,0.00007567,-0.0000
 1016,0.00000577,-0.00003459,0.00006342,-0.00001441,-0.00002859,-0.0000
 5124,0.00000280,-0.00000824,0.00000153,-0.00000019,0.00000615,-0.00000
 285,0.00000369,-0.00000979,-0.00000493,-0.00000030,0.00003963,-0.00001
 011,0.00000229,-0.00001031,-0.00000298,-0.00000196,0.00000835,0.000000
 60,-0.00000271,0.00001116,-0.00000510,0.00000531,0.00000117,0.00000747
 ,0.00000548,0.00000001,0.00000250,-0.00000628,0.00000371,-0.00000598,0
 .00000190\\\@


 LIFE IS SO UNCERTAIN - EAT DESSERT FIRST.
 Job cpu time:       0 days  0 hours 25 minutes 16.2 seconds.
 Elapsed time:       0 days  0 hours  0 minutes 47.6 seconds.
 File lengths (MBytes):  RWF=     54 Int=      0 D2E=      0 Chk=      3 Scr=      1
 Normal termination of Gaussian 16 at Tue Sep 19 06:53:58 2023.
