 Entering Gaussian System, Link 0=/home/ubuntu/g16/g16
 Input=/home/ubuntu/ML substrates/MOLECULE_13.gjf
 Output=/home/ubuntu/ML substrates/MOLECULE_13.log
 Initial command:
 /home/ubuntu/g16/l1.exe "/home/ubuntu/Scratch/Gau-27828.inp" -scrdir="/home/ubuntu/Scratch/"
 Entering Link 1 = /home/ubuntu/g16/l1.exe PID=     27830.
  
 Copyright (c) 1988-2017, Gaussian, Inc.  All Rights Reserved.
  
 This is part of the Gaussian(R) 16 program.  It is based on
 the Gaussian(R) 09 system (copyright 2009, Gaussian, Inc.),
 the Gaussian(R) 03 system (copyright 2003, Gaussian, Inc.),
 the Gaussian(R) 98 system (copyright 1998, Gaussian, Inc.),
 the Gaussian(R) 94 system (copyright 1995, Gaussian, Inc.),
 the Gaussian 92(TM) system (copyright 1992, Gaussian, Inc.),
 the Gaussian 90(TM) system (copyright 1990, Gaussian, Inc.),
 the Gaussian 88(TM) system (copyright 1988, Gaussian, Inc.),
 the Gaussian 86(TM) system (copyright 1986, Carnegie Mellon
 University), and the Gaussian 82(TM) system (copyright 1983,
 Carnegie Mellon University). Gaussian is a federally registered
 trademark of Gaussian, Inc.
  
 This software contains proprietary and confidential information,
 including trade secrets, belonging to Gaussian, Inc.
  
 This software is provided under written license and may be
 used, copied, transmitted, or stored only in accord with that
 written license.
  
 The following legend is applicable only to US Government
 contracts under FAR:
  
                    RESTRICTED RIGHTS LEGEND
  
 Use, reproduction and disclosure by the US Government is
 subject to restrictions as set forth in subparagraphs (a)
 and (c) of the Commercial Computer Software - Restricted
 Rights clause in FAR 52.227-19.
  
 Gaussian, Inc.
 340 Quinnipiac St., Bldg. 40, Wallingford CT 06492
  
  
 ---------------------------------------------------------------
 Warning -- This program may not be used in any manner that
 competes with the business of Gaussian, Inc. or will provide
 assistance to any competitor of Gaussian, Inc.  The licensee
 of this program is prohibited from giving any competitor of
 Gaussian, Inc. access to this program.  By using this program,
 the user acknowledges that Gaussian, Inc. is engaged in the
 business of creating and licensing software in the field of
 computational chemistry and represents and warrants to the
 licensee that it is not a competitor of Gaussian, Inc. and that
 it will not use this program in any manner prohibited above.
 ---------------------------------------------------------------
  

 Cite this work as:
 Gaussian 16, Revision B.01,
 M. J. Frisch, G. W. Trucks, H. B. Schlegel, G. E. Scuseria, 
 M. A. Robb, J. R. Cheeseman, G. Scalmani, V. Barone, 
 G. A. Petersson, H. Nakatsuji, X. Li, M. Caricato, A. V. Marenich, 
 J. Bloino, B. G. Janesko, R. Gomperts, B. Mennucci, H. P. Hratchian, 
 J. V. Ortiz, A. F. Izmaylov, J. L. Sonnenberg, D. Williams-Young, 
 F. Ding, F. Lipparini, F. Egidi, J. Goings, B. Peng, A. Petrone, 
 T. Henderson, D. Ranasinghe, V. G. Zakrzewski, J. Gao, N. Rega, 
 G. Zheng, W. Liang, M. Hada, M. Ehara, K. Toyota, R. Fukuda, 
 J. Hasegawa, M. Ishida, T. Nakajima, Y. Honda, O. Kitao, H. Nakai, 
 T. Vreven, K. Throssell, J. A. Montgomery, Jr., J. E. Peralta, 
 F. Ogliaro, M. J. Bearpark, J. J. Heyd, E. N. Brothers, K. N. Kudin, 
 V. N. Staroverov, T. A. Keith, R. Kobayashi, J. Normand, 
 K. Raghavachari, A. P. Rendell, J. C. Burant, S. S. Iyengar, 
 J. Tomasi, M. Cossi, J. M. Millam, M. Klene, C. Adamo, R. Cammi, 
 J. W. Ochterski, R. L. Martin, K. Morokuma, O. Farkas, 
 J. B. Foresman, and D. J. Fox, Gaussian, Inc., Wallingford CT, 2016.
 
 ******************************************
 Gaussian 16:  EM64L-G16RevB.01 20-Dec-2017
                14-Sep-2023 
 ******************************************
 %nprocshared=30
 Will use up to   30 processors via shared memory.
 %mem=30GB
 %chk=MOLECULE_13.chk
 ----------------------------------------------------------------------
 # opt freq b3lyp/6-31+g(d) geom=connectivity empiricaldispersion=gd3 v
 olume
 ----------------------------------------------------------------------
 1/18=20,19=15,26=3,38=1,57=2/1,3;
 2/9=110,12=2,17=6,18=5,40=1/2;
 3/5=1,6=6,7=11,11=2,25=1,30=1,71=1,74=-5,124=31/1,2,3;
 4//1;
 5/5=2,38=5/2;
 6/7=2,8=2,9=2,10=2,28=1,44=1/1,4;
 7//1,2,3,16;
 1/18=20,19=15,26=3/3(2);
 2/9=110/2;
 99//99;
 2/9=110/2;
 3/5=1,6=6,7=11,11=2,25=1,30=1,71=1,74=-5,124=31/1,2,3;
 4/5=5,16=3,69=1/1;
 5/5=2,38=5/2;
 7//1,2,3,16;
 1/18=20,19=15,26=3/3(-5);
 2/9=110/2;
 6/7=2,8=2,9=2,10=2,19=2,28=1,44=1/1,4;
 99/9=1/99;
 -----------
 molecule_13
 -----------
 Symbolic Z-matrix:
 Charge =  0 Multiplicity = 1
 C                     1.8791   -0.8043   -0.16198 
 C                     2.96555  -1.63522  -0.37663 
 C                     4.23822  -1.06892  -0.18194 
 C                     4.39068   0.27126   0.21017 
 C                     3.27656   1.10257   0.42474 
 C                     2.03117   0.53063   0.22901 
 H                     2.8334   -2.66639  -0.67917 
 H                     5.11922  -1.68181  -0.3389 
 H                     5.38726   0.67543   0.35116 
 H                     3.37851   2.13717   0.7273 
 O                     0.75752   1.11405   0.36714 
 O                     0.5073   -1.09353  -0.28135 
 B                    -0.19075   0.10254   0.049 
 C                    -1.70964   0.29102   0.06553 
 C                    -2.23306   1.6749    0.42211 
 H                    -3.27838   1.62901   0.74921 
 H                    -1.65588   2.06774   1.26899 
 C                    -2.48931  -0.76406  -0.27631 
 H                    -1.98979  -1.70276  -0.5233 
 C                    -2.10574   2.66221  -0.75907 
 H                    -2.69479   2.31837  -1.61744 
 H                    -2.45841   3.66114  -0.47681 
 H                    -1.06003   2.74704  -1.07513 
 C                    -3.99115  -0.82785  -0.34241 
 H                    -4.44248   0.15393  -0.16394 
 H                    -4.28539  -1.12589  -1.3607 
 C                    -4.56697  -1.85597   0.65868 
 H                    -4.33786  -1.56255   1.6892 
 H                    -5.65523  -1.93404   0.55672 
 H                    -4.13745  -2.85093   0.49007 
 

 GradGradGradGradGradGradGradGradGradGradGradGradGradGradGradGradGradGrad
 Berny optimization.
 Initialization pass.
                           ----------------------------
                           !    Initial Parameters    !
                           ! (Angstroms and Degrees)  !
 --------------------------                            --------------------------
 ! Name  Definition              Value          Derivative Info.                !
 --------------------------------------------------------------------------------
 ! R1    R(1,2)                  1.3845         estimate D2E/DX2                !
 ! R2    R(1,6)                  1.3993         estimate D2E/DX2                !
 ! R3    R(1,12)                 1.407          estimate D2E/DX2                !
 ! R4    R(2,3)                  1.4065         estimate D2E/DX2                !
 ! R5    R(2,7)                  1.0827         estimate D2E/DX2                !
 ! R6    R(3,4)                  1.4047         estimate D2E/DX2                !
 ! R7    R(3,8)                  1.0846         estimate D2E/DX2                !
 ! R8    R(4,5)                  1.4066         estimate D2E/DX2                !
 ! R9    R(4,9)                  1.0846         estimate D2E/DX2                !
 ! R10   R(5,6)                  1.3843         estimate D2E/DX2                !
 ! R11   R(5,10)                 1.0827         estimate D2E/DX2                !
 ! R12   R(6,11)                 1.4077         estimate D2E/DX2                !
 ! R13   R(11,13)                1.4225         estimate D2E/DX2                !
 ! R14   R(12,13)                1.4237         estimate D2E/DX2                !
 ! R15   R(13,14)                1.5306         estimate D2E/DX2                !
 ! R16   R(14,15)                1.5219         estimate D2E/DX2                !
 ! R17   R(14,18)                1.3557         estimate D2E/DX2                !
 ! R18   R(15,16)                1.0963         estimate D2E/DX2                !
 ! R19   R(15,17)                1.0976         estimate D2E/DX2                !
 ! R20   R(15,20)                1.5447         estimate D2E/DX2                !
 ! R21   R(18,19)                1.0916         estimate D2E/DX2                !
 ! R22   R(18,24)                1.5047         estimate D2E/DX2                !
 ! R23   R(20,21)                1.0964         estimate D2E/DX2                !
 ! R24   R(20,22)                1.0963         estimate D2E/DX2                !
 ! R25   R(20,23)                1.0957         estimate D2E/DX2                !
 ! R26   R(24,25)                1.0952         estimate D2E/DX2                !
 ! R27   R(24,26)                1.1011         estimate D2E/DX2                !
 ! R28   R(24,27)                1.5462         estimate D2E/DX2                !
 ! R29   R(27,28)                1.0957         estimate D2E/DX2                !
 ! R30   R(27,29)                1.0958         estimate D2E/DX2                !
 ! R31   R(27,30)                1.0967         estimate D2E/DX2                !
 ! A1    A(2,1,6)              122.0449         estimate D2E/DX2                !
 ! A2    A(2,1,12)             128.943          estimate D2E/DX2                !
 ! A3    A(6,1,12)             109.0121         estimate D2E/DX2                !
 ! A4    A(1,2,3)              116.5476         estimate D2E/DX2                !
 ! A5    A(1,2,7)              121.2733         estimate D2E/DX2                !
 ! A6    A(3,2,7)              122.179          estimate D2E/DX2                !
 ! A7    A(2,3,4)              121.3991         estimate D2E/DX2                !
 ! A8    A(2,3,8)              119.1704         estimate D2E/DX2                !
 ! A9    A(4,3,8)              119.4305         estimate D2E/DX2                !
 ! A10   A(3,4,5)              121.3662         estimate D2E/DX2                !
 ! A11   A(3,4,9)              119.4424         estimate D2E/DX2                !
 ! A12   A(5,4,9)              119.1914         estimate D2E/DX2                !
 ! A13   A(4,5,6)              116.5406         estimate D2E/DX2                !
 ! A14   A(4,5,10)             122.1939         estimate D2E/DX2                !
 ! A15   A(6,5,10)             121.2655         estimate D2E/DX2                !
 ! A16   A(1,6,5)              122.1015         estimate D2E/DX2                !
 ! A17   A(1,6,11)             108.9337         estimate D2E/DX2                !
 ! A18   A(5,6,11)             128.9647         estimate D2E/DX2                !
 ! A19   A(6,11,13)            106.6473         estimate D2E/DX2                !
 ! A20   A(1,12,13)            106.5973         estimate D2E/DX2                !
 ! A21   A(11,13,12)           108.8096         estimate D2E/DX2                !
 ! A22   A(11,13,14)           124.8567         estimate D2E/DX2                !
 ! A23   A(12,13,14)           126.3338         estimate D2E/DX2                !
 ! A24   A(13,14,15)           117.1151         estimate D2E/DX2                !
 ! A25   A(13,14,18)           118.1735         estimate D2E/DX2                !
 ! A26   A(15,14,18)           124.6769         estimate D2E/DX2                !
 ! A27   A(14,15,16)           111.0869         estimate D2E/DX2                !
 ! A28   A(14,15,17)           108.9885         estimate D2E/DX2                !
 ! A29   A(14,15,20)           111.9421         estimate D2E/DX2                !
 ! A30   A(16,15,17)           106.6305         estimate D2E/DX2                !
 ! A31   A(16,15,20)           109.4816         estimate D2E/DX2                !
 ! A32   A(17,15,20)           108.5353         estimate D2E/DX2                !
 ! A33   A(14,18,19)           117.5878         estimate D2E/DX2                !
 ! A34   A(14,18,24)           128.1777         estimate D2E/DX2                !
 ! A35   A(19,18,24)           114.226          estimate D2E/DX2                !
 ! A36   A(15,20,21)           110.7276         estimate D2E/DX2                !
 ! A37   A(15,20,22)           111.038          estimate D2E/DX2                !
 ! A38   A(15,20,23)           110.4083         estimate D2E/DX2                !
 ! A39   A(21,20,22)           108.3308         estimate D2E/DX2                !
 ! A40   A(21,20,23)           108.132          estimate D2E/DX2                !
 ! A41   A(22,20,23)           108.1033         estimate D2E/DX2                !
 ! A42   A(18,24,25)           111.4795         estimate D2E/DX2                !
 ! A43   A(18,24,26)           108.5926         estimate D2E/DX2                !
 ! A44   A(18,24,27)           111.8052         estimate D2E/DX2                !
 ! A45   A(25,24,26)           106.4539         estimate D2E/DX2                !
 ! A46   A(25,24,27)           109.7005         estimate D2E/DX2                !
 ! A47   A(26,24,27)           108.6187         estimate D2E/DX2                !
 ! A48   A(24,27,28)           110.6711         estimate D2E/DX2                !
 ! A49   A(24,27,29)           110.9142         estimate D2E/DX2                !
 ! A50   A(24,27,30)           110.9679         estimate D2E/DX2                !
 ! A51   A(28,27,29)           108.3148         estimate D2E/DX2                !
 ! A52   A(28,27,30)           107.7965         estimate D2E/DX2                !
 ! A53   A(29,27,30)           108.0587         estimate D2E/DX2                !
 ! D1    D(6,1,2,3)             -0.0242         estimate D2E/DX2                !
 ! D2    D(6,1,2,7)           -179.9908         estimate D2E/DX2                !
 ! D3    D(12,1,2,3)           179.8708         estimate D2E/DX2                !
 ! D4    D(12,1,2,7)            -0.0959         estimate D2E/DX2                !
 ! D5    D(2,1,6,5)              0.0228         estimate D2E/DX2                !
 ! D6    D(2,1,6,11)           179.9936         estimate D2E/DX2                !
 ! D7    D(12,1,6,5)          -179.8908         estimate D2E/DX2                !
 ! D8    D(12,1,6,11)            0.08           estimate D2E/DX2                !
 ! D9    D(2,1,12,13)         -179.9711         estimate D2E/DX2                !
 ! D10   D(6,1,12,13)           -0.0653         estimate D2E/DX2                !
 ! D11   D(1,2,3,4)              0.0049         estimate D2E/DX2                !
 ! D12   D(1,2,3,8)           -179.9678         estimate D2E/DX2                !
 ! D13   D(7,2,3,4)            179.9713         estimate D2E/DX2                !
 ! D14   D(7,2,3,8)             -0.0015         estimate D2E/DX2                !
 ! D15   D(2,3,4,5)              0.0166         estimate D2E/DX2                !
 ! D16   D(2,3,4,9)           -179.9949         estimate D2E/DX2                !
 ! D17   D(8,3,4,5)            179.9893         estimate D2E/DX2                !
 ! D18   D(8,3,4,9)             -0.0222         estimate D2E/DX2                !
 ! D19   D(3,4,5,6)             -0.0183         estimate D2E/DX2                !
 ! D20   D(3,4,5,10)           179.9863         estimate D2E/DX2                !
 ! D21   D(9,4,5,6)            179.9931         estimate D2E/DX2                !
 ! D22   D(9,4,5,10)            -0.0023         estimate D2E/DX2                !
 ! D23   D(4,5,6,1)             -0.0007         estimate D2E/DX2                !
 ! D24   D(4,5,6,11)          -179.9652         estimate D2E/DX2                !
 ! D25   D(10,5,6,1)           179.9947         estimate D2E/DX2                !
 ! D26   D(10,5,6,11)            0.0303         estimate D2E/DX2                !
 ! D27   D(1,6,11,13)           -0.0614         estimate D2E/DX2                !
 ! D28   D(5,6,11,13)          179.9068         estimate D2E/DX2                !
 ! D29   D(6,11,13,12)           0.0207         estimate D2E/DX2                !
 ! D30   D(6,11,13,14)        -179.9778         estimate D2E/DX2                !
 ! D31   D(1,12,13,11)           0.027          estimate D2E/DX2                !
 ! D32   D(1,12,13,14)        -179.9745         estimate D2E/DX2                !
 ! D33   D(11,13,14,15)          1.3303         estimate D2E/DX2                !
 ! D34   D(11,13,14,18)        179.2971         estimate D2E/DX2                !
 ! D35   D(12,13,14,15)       -178.668          estimate D2E/DX2                !
 ! D36   D(12,13,14,18)         -0.7012         estimate D2E/DX2                !
 ! D37   D(13,14,15,16)       -159.9796         estimate D2E/DX2                !
 ! D38   D(13,14,15,17)        -42.7808         estimate D2E/DX2                !
 ! D39   D(13,14,15,20)         77.2893         estimate D2E/DX2                !
 ! D40   D(18,14,15,16)         22.1998         estimate D2E/DX2                !
 ! D41   D(18,14,15,17)        139.3986         estimate D2E/DX2                !
 ! D42   D(18,14,15,20)       -100.5312         estimate D2E/DX2                !
 ! D43   D(13,14,18,19)          1.4213         estimate D2E/DX2                !
 ! D44   D(13,14,18,24)       -179.7052         estimate D2E/DX2                !
 ! D45   D(15,14,18,19)        179.2206         estimate D2E/DX2                !
 ! D46   D(15,14,18,24)         -1.9059         estimate D2E/DX2                !
 ! D47   D(14,15,20,21)         61.3391         estimate D2E/DX2                !
 ! D48   D(14,15,20,22)       -178.2743         estimate D2E/DX2                !
 ! D49   D(14,15,20,23)        -58.3851         estimate D2E/DX2                !
 ! D50   D(16,15,20,21)        -62.2992         estimate D2E/DX2                !
 ! D51   D(16,15,20,22)         58.0874         estimate D2E/DX2                !
 ! D52   D(16,15,20,23)        177.9766         estimate D2E/DX2                !
 ! D53   D(17,15,20,21)       -178.3263         estimate D2E/DX2                !
 ! D54   D(17,15,20,22)        -57.9397         estimate D2E/DX2                !
 ! D55   D(17,15,20,23)         61.9495         estimate D2E/DX2                !
 ! D56   D(14,18,24,25)          5.5438         estimate D2E/DX2                !
 ! D57   D(14,18,24,26)        122.5133         estimate D2E/DX2                !
 ! D58   D(14,18,24,27)       -117.6593         estimate D2E/DX2                !
 ! D59   D(19,18,24,25)       -175.551          estimate D2E/DX2                !
 ! D60   D(19,18,24,26)        -58.5815         estimate D2E/DX2                !
 ! D61   D(19,18,24,27)         61.2459         estimate D2E/DX2                !
 ! D62   D(18,24,27,28)         63.1387         estimate D2E/DX2                !
 ! D63   D(18,24,27,29)       -176.6143         estimate D2E/DX2                !
 ! D64   D(18,24,27,30)        -56.4928         estimate D2E/DX2                !
 ! D65   D(25,24,27,28)        -61.0665         estimate D2E/DX2                !
 ! D66   D(25,24,27,29)         59.1806         estimate D2E/DX2                !
 ! D67   D(25,24,27,30)        179.3021         estimate D2E/DX2                !
 ! D68   D(26,24,27,28)       -177.0492         estimate D2E/DX2                !
 ! D69   D(26,24,27,29)        -56.8021         estimate D2E/DX2                !
 ! D70   D(26,24,27,30)         63.3194         estimate D2E/DX2                !
 --------------------------------------------------------------------------------
 Trust Radius=3.00D-01 FncErr=1.00D-07 GrdErr=1.00D-06 EigMax=2.50D+02 EigMin=1.00D-04
 Number of steps in this run=    164 maximum allowed number of steps=    180.
 GradGradGradGradGradGradGradGradGradGradGradGradGradGradGradGradGradGrad

                          Input orientation:                          
 ---------------------------------------------------------------------
 Center     Atomic      Atomic             Coordinates (Angstroms)
 Number     Number       Type             X           Y           Z
 ---------------------------------------------------------------------
      1          6           0        1.879095   -0.804297   -0.161984
      2          6           0        2.965549   -1.635220   -0.376633
      3          6           0        4.238222   -1.068915   -0.181937
      4          6           0        4.390683    0.271256    0.210171
      5          6           0        3.276555    1.102570    0.424742
      6          6           0        2.031167    0.530625    0.229007
      7          1           0        2.833404   -2.666393   -0.679169
      8          1           0        5.119221   -1.681813   -0.338904
      9          1           0        5.387255    0.675426    0.351156
     10          1           0        3.378514    2.137171    0.727302
     11          8           0        0.757519    1.114048    0.367143
     12          8           0        0.507303   -1.093528   -0.281347
     13          5           0       -0.190745    0.102542    0.049003
     14          6           0       -1.709638    0.291015    0.065527
     15          6           0       -2.233063    1.674901    0.422114
     16          1           0       -3.278381    1.629008    0.749209
     17          1           0       -1.655876    2.067745    1.268992
     18          6           0       -2.489306   -0.764058   -0.276307
     19          1           0       -1.989790   -1.702755   -0.523295
     20          6           0       -2.105737    2.662213   -0.759070
     21          1           0       -2.694791    2.318365   -1.617438
     22          1           0       -2.458411    3.661143   -0.476809
     23          1           0       -1.060029    2.747041   -1.075126
     24          6           0       -3.991153   -0.827845   -0.342411
     25          1           0       -4.442479    0.153932   -0.163944
     26          1           0       -4.285387   -1.125893   -1.360701
     27          6           0       -4.566966   -1.855967    0.658675
     28          1           0       -4.337864   -1.562549    1.689195
     29          1           0       -5.655234   -1.934038    0.556717
     30          1           0       -4.137452   -2.850928    0.490072
 ---------------------------------------------------------------------
                    Distance matrix (angstroms):
                    1          2          3          4          5
     1  C    0.000000
     2  C    1.384518   0.000000
     3  C    2.374005   1.406522   0.000000
     4  C    2.757424   2.451529   1.404653   0.000000
     5  C    2.435833   2.869568   2.451165   1.406558   0.000000
     6  C    1.399291   2.435314   2.756537   2.373803   1.384350
     7  H    2.155362   1.082732   2.184649   3.441776   3.952225
     8  H    3.361510   2.154506   1.084639   2.155627   3.425108
     9  H    3.841885   3.425408   2.155734   1.084613   2.154744
    10  H    3.419257   3.952233   3.441628   2.184845   1.082745
    11  O    2.284284   3.603758   4.145131   3.732937   2.519721
    12  O    1.407024   2.519024   3.732324   4.145463   3.604187
    13  B    2.269606   3.628109   4.587090   4.587365   3.628141
    14  C    3.759052   5.075752   6.106364   6.102068   5.064561
    15  C    4.837090   6.214537   7.054852   6.774153   5.539265
    16  H    5.775016   7.135080   8.040220   7.806958   6.584041
    17  H    4.774132   6.146349   6.832585   6.396042   5.096391
    18  C    4.370082   5.524892   6.735093   6.974438   6.100895
    19  H    3.988238   4.957969   6.269483   6.719012   6.041772
    20  C    5.315269   6.658238   7.382426   6.989963   5.727387
    21  H    5.726238   7.014975   7.848630   7.598339   6.426946
    22  H    6.233236   7.581612   8.203980   7.672898   6.344204
    23  H    4.699391   5.991442   6.590203   6.123052   4.874408
    24  C    5.873067   7.003480   8.234469   8.471632   7.558744
    25  H    6.393786   7.623987   8.766427   8.841859   7.799356
    26  H    6.288178   7.335113   8.604920   8.927141   8.083120
    27  C    6.582643   7.606535   8.880170   9.217685   8.386208
    28  H    6.530880   7.590307   8.791704   9.040901   8.165848
    29  H    7.652383   8.676309   9.958640  10.290960   9.434790
    30  H    6.388483   7.258219   8.589475   9.086004   8.402495
                    6          7          8          9         10
     6  C    0.000000
     7  H    3.418961   0.000000
     8  H    3.841026   2.511999   0.000000
     9  H    3.361430   4.330298   2.470749   0.000000
    10  H    2.155141   5.034832   4.330300   2.512613   0.000000
    11  O    1.407708   4.437995   5.228746   4.650495   2.836567
    12  O    2.284840   2.836003   4.649643   5.229072   4.438315
    13  B    2.269923   4.164458   5.615170   5.615477   4.164062
    14  C    3.752034   5.471752   7.119616   7.113034   5.453029
    15  C    4.419312   6.762303   8.118051   7.685911   5.638850
    16  H    5.446867   7.605567   9.092043   8.727028   6.676298
    17  H    4.127783   6.808893   7.908632   7.237864   5.063924
    18  C    4.729294   5.666782   7.663933   8.031565   6.622362
    19  H    4.660691   4.920985   7.111433   7.800077   6.717716
    20  C    4.757514   7.266054   8.440801   7.831019   5.706311
    21  H    5.379596   7.502606   8.871012   8.479038   6.512731
    22  H    5.518571   8.251180   9.272902   8.435313   6.151591
    23  H    4.021039   6.679885   7.638056   6.920501   4.829219
    24  C    6.200024   7.075892   9.150311   9.523413   8.015460
    25  H    6.496491   7.820368   9.737899   9.857026   8.117604
    26  H    6.720869   7.315382   9.476274   9.986752   8.587358
    27  C    7.029637   7.563868   9.738979  10.275652   8.892722
    28  H    6.861347   7.632477   9.672842  10.068606   8.611368
    29  H    8.078534   8.609340  10.814557  11.348485   9.910219
    30  H    7.039525   7.070644   9.366965  10.157486   9.023700
                   11         12         13         14         15
    11  O    0.000000
    12  O    2.314420   0.000000
    13  B    1.422520   1.423722   0.000000
    14  C    2.618247   2.636685   1.530631   0.000000
    15  C    3.043215   3.958366   2.604340   1.521929   0.000000
    16  H    4.086520   4.775526   3.514809   2.172234   1.096260
    17  H    2.747243   4.132377   2.738066   2.146622   1.097576
    18  C    3.805678   3.014671   2.477944   1.355696   2.549897
    19  H    4.034224   2.581699   2.612123   2.097693   3.515898
    20  C    3.444329   4.600194   3.297286   2.541542   1.544731
    21  H    4.160215   4.866165   3.735926   2.813014   2.187924
    22  H    4.188335   5.607188   4.252344   3.494646   2.191803
    23  H    2.837303   4.223338   3.002115   2.784806   2.183397
    24  C    5.179218   4.506709   3.932166   2.573630   3.152636
    25  H    5.314495   5.105907   4.257374   2.745882   2.745602
    26  H    5.782187   4.912833   4.501379   3.267451   3.903192
    27  C    6.103779   5.216623   4.833091   3.622938   4.239115
    28  H    5.905499   5.251539   4.760394   3.602717   4.064082
    29  H    7.102828   6.275800   5.853723   4.556299   4.975320
    30  H    6.300547   5.025663   4.949144   3.993285   4.910646
                   16         17         18         19         20
    16  H    0.000000
    17  H    1.759314   0.000000
    18  C    2.720494   3.331916   0.000000
    19  H    3.792147   4.188133   1.091637   0.000000
    20  C    2.171983   2.160741   3.481310   4.372869   0.000000
    21  H    2.533142   3.077927   3.367817   4.226533   1.096363
    22  H    2.510985   2.496157   4.429849   5.384530   1.096317
    23  H    3.082090   2.512243   3.874114   4.579264   1.095715
    24  C    2.781331   4.053959   1.504654   2.191721   3.988597
    25  H    2.089216   3.671667   2.161068   3.097112   3.479369
    26  H    3.613206   4.901932   2.129024   2.510734   4.411642
    27  C    3.716678   4.923662   2.526485   2.839430   5.336815
    28  H    3.491721   4.533064   2.813886   3.229276   5.368892
    29  H    4.287398   5.702321   3.476476   3.828237   5.954473
    30  H    4.568915   5.564017   2.767444   2.637739   6.006908
                   21         22         23         24         25
    21  H    0.000000
    22  H    1.777628   0.000000
    23  H    1.774912   1.774553   0.000000
    24  C    3.633853   4.745353   4.680616   0.000000
    25  H    3.138762   4.041651   4.358375   1.095186   0.000000
    26  H    3.802476   5.199502   5.048178   1.101054   1.759221
    27  C    5.109871   6.014468   6.040890   1.546211   2.175291
    28  H    5.356772   5.959100   6.079329   2.188018   2.528117
    29  H    5.619084   6.526401   6.759536   2.191178   2.519870
    30  H    5.765801   6.794197   6.577054   2.192555   3.090301
                   26         27         28         29         30
    26  H    0.000000
    27  C    2.165681   0.000000
    28  H    3.081443   1.095698   0.000000
    29  H    2.491199   1.095818   1.776506   0.000000
    30  H    2.534362   1.096748   1.771435   1.774483   0.000000
 Stoichiometry    C12H15BO2
 Framework group  C1[X(C12H15BO2)]
 Deg. of freedom    84
 Full point group                 C1      NOp   1
 Largest Abelian subgroup         C1      NOp   1
 Largest concise Abelian subgroup C1      NOp   1
                         Standard orientation:                         
 ---------------------------------------------------------------------
 Center     Atomic      Atomic             Coordinates (Angstroms)
 Number     Number       Type             X           Y           Z
 ---------------------------------------------------------------------
      1          6           0       -1.879095   -0.804297    0.161984
      2          6           0       -2.965549   -1.635220    0.376633
      3          6           0       -4.238222   -1.068915    0.181937
      4          6           0       -4.390683    0.271256   -0.210171
      5          6           0       -3.276555    1.102570   -0.424742
      6          6           0       -2.031167    0.530625   -0.229007
      7          1           0       -2.833404   -2.666393    0.679169
      8          1           0       -5.119221   -1.681813    0.338904
      9          1           0       -5.387255    0.675426   -0.351156
     10          1           0       -3.378514    2.137171   -0.727302
     11          8           0       -0.757519    1.114048   -0.367143
     12          8           0       -0.507303   -1.093528    0.281347
     13          5           0        0.190745    0.102542   -0.049003
     14          6           0        1.709638    0.291015   -0.065527
     15          6           0        2.233063    1.674901   -0.422114
     16          1           0        3.278381    1.629008   -0.749209
     17          1           0        1.655876    2.067745   -1.268992
     18          6           0        2.489306   -0.764058    0.276307
     19          1           0        1.989790   -1.702755    0.523295
     20          6           0        2.105737    2.662213    0.759070
     21          1           0        2.694791    2.318365    1.617438
     22          1           0        2.458411    3.661143    0.476809
     23          1           0        1.060029    2.747041    1.075126
     24          6           0        3.991153   -0.827845    0.342411
     25          1           0        4.442479    0.153932    0.163944
     26          1           0        4.285387   -1.125893    1.360701
     27          6           0        4.566966   -1.855967   -0.658675
     28          1           0        4.337864   -1.562549   -1.689195
     29          1           0        5.655234   -1.934038   -0.556717
     30          1           0        4.137452   -2.850928   -0.490072
 ---------------------------------------------------------------------
 Rotational constants (GHZ):           1.2830847           0.2969210           0.2504034
 Standard basis: 6-31+G(d) (6D, 7F)
 There are   315 symmetry adapted cartesian basis functions of A   symmetry.
 There are   315 symmetry adapted basis functions of A   symmetry.
   315 basis functions,   540 primitive gaussians,   315 cartesian basis functions
    54 alpha electrons       54 beta electrons
       nuclear repulsion energy       913.0245708125 Hartrees.
 NAtoms=   30 NActive=   30 NUniq=   30 SFac= 1.00D+00 NAtFMM=   60 NAOKFM=F Big=F
 Integral buffers will be    131072 words long.
 Raffenetti 2 integral format.
 Two-electron integral symmetry is turned on.
 Nuclear repulsion after empirical dispersion term =      913.0012052487 Hartrees.
 One-electron integrals computed using PRISM.
 NBasis=   315 RedAO= T EigKep=  1.30D-06  NBF=   315
 NBsUse=   315 1.00D-06 EigRej= -1.00D+00 NBFU=   315
 ExpMin= 3.15D-02 ExpMax= 5.48D+03 ExpMxC= 8.25D+02 IAcc=3 IRadAn=         5 AccDes= 0.00D+00
 Harris functional with IExCor=  402 and IRadAn=       5 diagonalized for initial guess.
 HarFok:  IExCor=  402 AccDes= 0.00D+00 IRadAn=         5 IDoV= 1 UseB2=F ITyADJ=14
 ICtDFT=  3500011 ScaDFX=  1.000000  1.000000  1.000000  1.000000
 FoFCou: FMM=F IPFlag=           0 FMFlag=      100000 FMFlg1=           0
         NFxFlg=           0 DoJE=T BraDBF=F KetDBF=T FulRan=T
         wScrn=  0.000000 ICntrl=       500 IOpCl=  0 I1Cent=   200000004 NGrid=           0
         NMat0=    1 NMatS0=      1 NMatT0=    0 NMatD0=    1 NMtDS0=    0 NMtDT0=    0
 Petite list used in FoFCou.
 Requested convergence on RMS density matrix=1.00D-08 within 128 cycles.
 Requested convergence on MAX density matrix=1.00D-06.
 Requested convergence on             energy=1.00D-06.
 No special actions if energy rises.
 SCF Done:  E(RB3LYP) =  -641.751958681     A.U. after   14 cycles
            NFock= 14  Conv=0.77D-08     -V/T= 2.0100

 **********************************************************************

            Population analysis using the SCF Density.

 **********************************************************************

 Orbital symmetries:
       Occupied  (A) (A) (A) (A) (A) (A) (A) (A) (A) (A) (A) (A)
                 (A) (A) (A) (A) (A) (A) (A) (A) (A) (A) (A) (A)
                 (A) (A) (A) (A) (A) (A) (A) (A) (A) (A) (A) (A)
                 (A) (A) (A) (A) (A) (A) (A) (A) (A) (A) (A) (A)
                 (A) (A) (A) (A) (A) (A)
       Virtual   (A) (A) (A) (A) (A) (A) (A) (A) (A) (A) (A) (A)
                 (A) (A) (A) (A) (A) (A) (A) (A) (A) (A) (A) (A)
                 (A) (A) (A) (A) (A) (A) (A) (A) (A) (A) (A) (A)
                 (A) (A) (A) (A) (A) (A) (A) (A) (A) (A) (A) (A)
                 (A) (A) (A) (A) (A) (A) (A) (A) (A) (A) (A) (A)
                 (A) (A) (A) (A) (A) (A) (A) (A) (A) (A) (A) (A)
                 (A) (A) (A) (A) (A) (A) (A) (A) (A) (A) (A) (A)
                 (A) (A) (A) (A) (A) (A) (A) (A) (A) (A) (A) (A)
                 (A) (A) (A) (A) (A) (A) (A) (A) (A) (A) (A) (A)
                 (A) (A) (A) (A) (A) (A) (A) (A) (A) (A) (A) (A)
                 (A) (A) (A) (A) (A) (A) (A) (A) (A) (A) (A) (A)
                 (A) (A) (A) (A) (A) (A) (A) (A) (A) (A) (A) (A)
                 (A) (A) (A) (A) (A) (A) (A) (A) (A) (A) (A) (A)
                 (A) (A) (A) (A) (A) (A) (A) (A) (A) (A) (A) (A)
                 (A) (A) (A) (A) (A) (A) (A) (A) (A) (A) (A) (A)
                 (A) (A) (A) (A) (A) (A) (A) (A) (A) (A) (A) (A)
                 (A) (A) (A) (A) (A) (A) (A) (A) (A) (A) (A) (A)
                 (A) (A) (A) (A) (A) (A) (A) (A) (A) (A) (A) (A)
                 (A) (A) (A) (A) (A) (A) (A) (A) (A) (A) (A) (A)
                 (A) (A) (A) (A) (A) (A) (A) (A) (A) (A) (A) (A)
                 (A) (A) (A) (A) (A) (A) (A) (A) (A) (A) (A) (A)
                 (A) (A) (A) (A) (A) (A) (A) (A) (A)
 The electronic state is 1-A.
 Alpha  occ. eigenvalues --  -19.19330 -19.19181 -10.25676 -10.25619 -10.20728
 Alpha  occ. eigenvalues --  -10.20706 -10.20438 -10.20414 -10.20360 -10.19720
 Alpha  occ. eigenvalues --  -10.18935 -10.18690 -10.18195 -10.17772  -6.80289
 Alpha  occ. eigenvalues --   -1.09175  -1.02023  -0.86149  -0.81752  -0.77211
 Alpha  occ. eigenvalues --   -0.76140  -0.74156  -0.71852  -0.64561  -0.62681
 Alpha  occ. eigenvalues --   -0.61918  -0.60957  -0.57388  -0.52791  -0.51652
 Alpha  occ. eigenvalues --   -0.51510  -0.48722  -0.45962  -0.45670  -0.45507
 Alpha  occ. eigenvalues --   -0.44551  -0.43977  -0.41287  -0.40912  -0.40654
 Alpha  occ. eigenvalues --   -0.38324  -0.38005  -0.37443  -0.36859  -0.36636
 Alpha  occ. eigenvalues --   -0.36200  -0.35366  -0.35234  -0.34824  -0.34016
 Alpha  occ. eigenvalues --   -0.31753  -0.26628  -0.25694  -0.23270
 Alpha virt. eigenvalues --   -0.03912  -0.01485  -0.00462  -0.00032   0.00804
 Alpha virt. eigenvalues --    0.01360   0.01756   0.02127   0.02809   0.03992
 Alpha virt. eigenvalues --    0.04316   0.04624   0.04934   0.05022   0.05971
 Alpha virt. eigenvalues --    0.07036   0.07244   0.07431   0.08187   0.08552
 Alpha virt. eigenvalues --    0.08741   0.09275   0.09680   0.09997   0.10339
 Alpha virt. eigenvalues --    0.10731   0.11661   0.11800   0.12044   0.12481
 Alpha virt. eigenvalues --    0.13180   0.13545   0.13845   0.14137   0.14203
 Alpha virt. eigenvalues --    0.15002   0.15094   0.15753   0.16012   0.16497
 Alpha virt. eigenvalues --    0.16780   0.17369   0.17946   0.18201   0.18589
 Alpha virt. eigenvalues --    0.18814   0.19739   0.19966   0.20493   0.21006
 Alpha virt. eigenvalues --    0.21470   0.21611   0.21982   0.22222   0.22427
 Alpha virt. eigenvalues --    0.23040   0.23613   0.23636   0.24417   0.24705
 Alpha virt. eigenvalues --    0.25233   0.25550   0.25781   0.26675   0.27184
 Alpha virt. eigenvalues --    0.27452   0.28396   0.28704   0.28821   0.29486
 Alpha virt. eigenvalues --    0.29773   0.31063   0.31103   0.31824   0.32411
 Alpha virt. eigenvalues --    0.33217   0.33677   0.34540   0.35062   0.35902
 Alpha virt. eigenvalues --    0.37398   0.37703   0.38774   0.39471   0.39666
 Alpha virt. eigenvalues --    0.40941   0.41761   0.42358   0.45092   0.46323
 Alpha virt. eigenvalues --    0.47290   0.47792   0.50062   0.54290   0.58762
 Alpha virt. eigenvalues --    0.61514   0.62118   0.63262   0.65713   0.66492
 Alpha virt. eigenvalues --    0.67134   0.67406   0.68088   0.68812   0.70159
 Alpha virt. eigenvalues --    0.71299   0.71333   0.72136   0.72310   0.73143
 Alpha virt. eigenvalues --    0.73785   0.74693   0.75149   0.75515   0.76058
 Alpha virt. eigenvalues --    0.77834   0.79774   0.80740   0.81317   0.82328
 Alpha virt. eigenvalues --    0.84175   0.87884   0.88654   0.88795   0.90194
 Alpha virt. eigenvalues --    0.92408   0.92926   0.93957   0.95019   0.95617
 Alpha virt. eigenvalues --    0.96340   0.98556   0.99179   0.99919   1.00743
 Alpha virt. eigenvalues --    1.01773   1.03488   1.05449   1.06604   1.07871
 Alpha virt. eigenvalues --    1.08697   1.09651   1.11356   1.12568   1.13518
 Alpha virt. eigenvalues --    1.14266   1.14329   1.15270   1.16500   1.17530
 Alpha virt. eigenvalues --    1.18449   1.19587   1.20793   1.22949   1.23137
 Alpha virt. eigenvalues --    1.24924   1.25122   1.28725   1.30211   1.32424
 Alpha virt. eigenvalues --    1.35885   1.37040   1.37728   1.38485   1.39249
 Alpha virt. eigenvalues --    1.40191   1.44535   1.45581   1.46472   1.47325
 Alpha virt. eigenvalues --    1.47584   1.48179   1.48510   1.50761   1.51540
 Alpha virt. eigenvalues --    1.57637   1.60183   1.60715   1.62125   1.66451
 Alpha virt. eigenvalues --    1.70028   1.75876   1.77498   1.79494   1.81001
 Alpha virt. eigenvalues --    1.82997   1.84420   1.85246   1.87711   1.88485
 Alpha virt. eigenvalues --    1.90886   1.92184   1.94937   1.95766   1.96769
 Alpha virt. eigenvalues --    1.99434   1.99937   2.00214   2.02954   2.04110
 Alpha virt. eigenvalues --    2.05089   2.07591   2.08536   2.09676   2.11066
 Alpha virt. eigenvalues --    2.13197   2.15228   2.16044   2.17927   2.21734
 Alpha virt. eigenvalues --    2.23435   2.25091   2.25304   2.28526   2.29170
 Alpha virt. eigenvalues --    2.31064   2.32489   2.34462   2.35661   2.35876
 Alpha virt. eigenvalues --    2.37295   2.43044   2.46802   2.51428   2.53045
 Alpha virt. eigenvalues --    2.53959   2.55109   2.59649   2.61476   2.62479
 Alpha virt. eigenvalues --    2.65488   2.65850   2.68937   2.71162   2.72387
 Alpha virt. eigenvalues --    2.79221   2.83335   2.84367   2.87870   2.96095
 Alpha virt. eigenvalues --    2.99969   3.02290   3.11820   3.15191   3.23124
 Alpha virt. eigenvalues --    3.46567   3.82467   4.19804   4.21314   4.23970
 Alpha virt. eigenvalues --    4.28095   4.33360   4.36324   4.39135   4.47133
 Alpha virt. eigenvalues --    4.48641   4.51182   4.55918   4.70445   4.72673
 Alpha virt. eigenvalues --    5.03066
          Condensed to atoms (all electrons):
               1          2          3          4          5          6
     1  C   15.655992  -0.831644   0.173542  -0.831354  -3.060748  -5.919526
     2  C   -0.831644  14.343864   0.179348   0.799091  -4.472128  -3.338451
     3  C    0.173542   0.179348   5.490277   0.276546   0.886362  -1.055326
     4  C   -0.831354   0.799091   0.276546   5.456348  -0.090514   0.344537
     5  C   -3.060748  -4.472128   0.886362  -0.090514  14.837256  -1.395310
     6  C   -5.919526  -3.338451  -1.055326   0.344537  -1.395310  16.499379
     7  H    0.006816   0.284229  -0.057663   0.013597  -0.028714   0.078866
     8  H    0.025264  -0.030618   0.316423  -0.008350   0.021849  -0.022287
     9  H   -0.020492   0.018426  -0.007035   0.317117  -0.029518   0.023797
    10  H    0.073459  -0.027820   0.014042  -0.054062   0.295123  -0.003024
    11  O    1.309582   0.614916  -0.006080   0.003698  -0.802396  -1.169217
    12  O   -1.106713  -0.785067   0.011032  -0.011423   0.537062   1.278091
    13  B   -0.316556   0.053659   0.019240   0.016919   0.181085  -0.080303
    14  C   -0.015963  -0.379940  -0.018548  -0.004589  -0.144602   0.519128
    15  C   -0.762362  -0.228801   0.002862   0.005484   0.369892   0.634402
    16  H    0.002134   0.000127   0.000002   0.000000  -0.000980  -0.002290
    17  H   -0.010155  -0.002401   0.000239  -0.000307   0.011466   0.005348
    18  C    0.849959   0.574482   0.000436   0.009928  -0.395100  -1.055362
    19  H    0.022704   0.019650  -0.000175   0.000327  -0.005021  -0.032260
    20  C    0.027675   0.002265  -0.000095  -0.001754  -0.014294  -0.021798
    21  H   -0.001103  -0.000374   0.000023  -0.000029   0.000510   0.001795
    22  H   -0.000939   0.000003  -0.000008   0.000012  -0.000020   0.001185
    23  H    0.003423  -0.000191  -0.000052  -0.000319  -0.006028   0.002360
    24  C    0.071820   0.005281   0.002751  -0.001966  -0.006450  -0.079521
    25  H    0.000017   0.000023  -0.000002   0.000000  -0.000037  -0.000135
    26  H   -0.000280  -0.000110   0.000007  -0.000004   0.000039   0.000107
    27  C    0.009802   0.003636  -0.000018   0.000043  -0.001891  -0.009857
    28  H   -0.000191  -0.000041   0.000002  -0.000001   0.000040   0.000328
    29  H   -0.000012   0.000002   0.000000   0.000000   0.000001   0.000016
    30  H    0.000291  -0.000008  -0.000003   0.000000  -0.000015  -0.000062
               7          8          9         10         11         12
     1  C    0.006816   0.025264  -0.020492   0.073459   1.309582  -1.106713
     2  C    0.284229  -0.030618   0.018426  -0.027820   0.614916  -0.785067
     3  C   -0.057663   0.316423  -0.007035   0.014042  -0.006080   0.011032
     4  C    0.013597  -0.008350   0.317117  -0.054062   0.003698  -0.011423
     5  C   -0.028714   0.021849  -0.029518   0.295123  -0.802396   0.537062
     6  C    0.078866  -0.022287   0.023797  -0.003024  -1.169217   1.278091
     7  H    0.515644  -0.004243  -0.000136   0.000015  -0.001395  -0.005533
     8  H   -0.004243   0.527901  -0.004729  -0.000137   0.000090  -0.000606
     9  H   -0.000136  -0.004729   0.527755  -0.004247  -0.000562   0.000094
    10  H    0.000015  -0.000137  -0.004247   0.515460  -0.005524  -0.001402
    11  O   -0.001395   0.000090  -0.000562  -0.005524   8.920198  -0.373114
    12  O   -0.005533  -0.000606   0.000094  -0.001402  -0.373114   8.900931
    13  B   -0.001238  -0.001539  -0.001546  -0.001329   0.117596   0.189617
    14  C    0.001249  -0.000004   0.000015  -0.000046  -0.168529  -0.102836
    15  C    0.000000   0.000013  -0.000019   0.000273  -0.193294   0.137944
    16  H    0.000000   0.000000   0.000000   0.000000  -0.001165  -0.000451
    17  H    0.000000   0.000000   0.000000   0.000000   0.000180  -0.000338
    18  C   -0.000966  -0.000023   0.000036  -0.000514   0.276863  -0.140574
    19  H    0.000001   0.000000   0.000000   0.000000   0.001103   0.007467
    20  C   -0.000009  -0.000001  -0.000006  -0.000016  -0.015764  -0.005695
    21  H    0.000000   0.000000   0.000000   0.000000  -0.000547   0.000092
    22  H    0.000000   0.000000   0.000000   0.000000  -0.000333   0.000038
    23  H    0.000000   0.000000   0.000000   0.000000  -0.001087   0.000256
    24  C   -0.000079   0.000001   0.000000  -0.000001   0.028051  -0.003836
    25  H    0.000000   0.000000   0.000000   0.000000  -0.000036  -0.000024
    26  H    0.000000   0.000000   0.000000   0.000000   0.000082  -0.000187
    27  C    0.000002   0.000000   0.000000   0.000000   0.000122  -0.002636
    28  H    0.000000   0.000000   0.000000   0.000000   0.000004  -0.000032
    29  H    0.000000   0.000000   0.000000   0.000000  -0.000001   0.000004
    30  H    0.000000   0.000000   0.000000   0.000000  -0.000005  -0.000010
              13         14         15         16         17         18
     1  C   -0.316556  -0.015963  -0.762362   0.002134  -0.010155   0.849959
     2  C    0.053659  -0.379940  -0.228801   0.000127  -0.002401   0.574482
     3  C    0.019240  -0.018548   0.002862   0.000002   0.000239   0.000436
     4  C    0.016919  -0.004589   0.005484   0.000000  -0.000307   0.009928
     5  C    0.181085  -0.144602   0.369892  -0.000980   0.011466  -0.395100
     6  C   -0.080303   0.519128   0.634402  -0.002290   0.005348  -1.055362
     7  H   -0.001238   0.001249   0.000000   0.000000   0.000000  -0.000966
     8  H   -0.001539  -0.000004   0.000013   0.000000   0.000000  -0.000023
     9  H   -0.001546   0.000015  -0.000019   0.000000   0.000000   0.000036
    10  H   -0.001329  -0.000046   0.000273   0.000000   0.000000  -0.000514
    11  O    0.117596  -0.168529  -0.193294  -0.001165   0.000180   0.276863
    12  O    0.189617  -0.102836   0.137944  -0.000451  -0.000338  -0.140574
    13  B    3.462435   0.412505   0.115787  -0.004549  -0.018950  -0.054510
    14  C    0.412505   7.996463  -0.264768  -0.113419  -0.086018  -1.837219
    15  C    0.115787  -0.264768   7.228503   0.402425   0.447267  -0.728902
    16  H   -0.004549  -0.113419   0.402425   0.561120  -0.035265   0.041136
    17  H   -0.018950  -0.086018   0.447267  -0.035265   0.524067  -0.013289
    18  C   -0.054510  -1.837219  -0.728902   0.041136  -0.013289   8.969898
    19  H    0.003596  -0.172435  -0.014452  -0.000058  -0.000132   0.505364
    20  C   -0.069172  -0.001476  -0.167301  -0.014736  -0.042645   0.002298
    21  H   -0.009529   0.018633  -0.058942  -0.004690   0.004420  -0.027885
    22  H   -0.001993   0.017397  -0.088832  -0.002366  -0.002762   0.005457
    23  H   -0.012209  -0.004309  -0.112252   0.004522  -0.003962   0.020123
    24  C    0.010450   0.025483  -0.253072  -0.022851   0.008052  -0.509658
    25  H    0.003854   0.050516  -0.016327   0.005398   0.000011  -0.139904
    26  H   -0.003771   0.018754   0.007964  -0.000111  -0.000013  -0.113491
    27  C   -0.020846  -0.052163  -0.012123   0.002553   0.000052   0.064068
    28  H   -0.004935   0.008442  -0.002318   0.000005  -0.000011  -0.018758
    29  H    0.000456  -0.008788  -0.000393   0.000015  -0.000001   0.033672
    30  H   -0.001170   0.019173   0.001675  -0.000004   0.000001  -0.001423
              19         20         21         22         23         24
     1  C    0.022704   0.027675  -0.001103  -0.000939   0.003423   0.071820
     2  C    0.019650   0.002265  -0.000374   0.000003  -0.000191   0.005281
     3  C   -0.000175  -0.000095   0.000023  -0.000008  -0.000052   0.002751
     4  C    0.000327  -0.001754  -0.000029   0.000012  -0.000319  -0.001966
     5  C   -0.005021  -0.014294   0.000510  -0.000020  -0.006028  -0.006450
     6  C   -0.032260  -0.021798   0.001795   0.001185   0.002360  -0.079521
     7  H    0.000001  -0.000009   0.000000   0.000000   0.000000  -0.000079
     8  H    0.000000  -0.000001   0.000000   0.000000   0.000000   0.000001
     9  H    0.000000  -0.000006   0.000000   0.000000   0.000000   0.000000
    10  H    0.000000  -0.000016   0.000000   0.000000   0.000000  -0.000001
    11  O    0.001103  -0.015764  -0.000547  -0.000333  -0.001087   0.028051
    12  O    0.007467  -0.005695   0.000092   0.000038   0.000256  -0.003836
    13  B    0.003596  -0.069172  -0.009529  -0.001993  -0.012209   0.010450
    14  C   -0.172435  -0.001476   0.018633   0.017397  -0.004309   0.025483
    15  C   -0.014452  -0.167301  -0.058942  -0.088832  -0.112252  -0.253072
    16  H   -0.000058  -0.014736  -0.004690  -0.002366   0.004522  -0.022851
    17  H   -0.000132  -0.042645   0.004420  -0.002762  -0.003962   0.008052
    18  C    0.505364   0.002298  -0.027885   0.005457   0.020123  -0.509658
    19  H    0.536978   0.000607  -0.000037   0.000004  -0.000008  -0.081951
    20  C    0.000607   5.789409   0.403971   0.413921   0.454006   0.034009
    21  H   -0.000037   0.403971   0.514723  -0.028838  -0.029716   0.011388
    22  H    0.000004   0.413921  -0.028838   0.518131  -0.026951  -0.001597
    23  H   -0.000008   0.454006  -0.029716  -0.026951   0.492261  -0.001363
    24  C   -0.081951   0.034009   0.011388  -0.001597  -0.001363   6.717572
    25  H    0.004232  -0.001358   0.000066   0.000046   0.000004   0.417256
    26  H   -0.002589   0.000420  -0.000050  -0.000003   0.000002   0.451453
    27  C    0.005495  -0.005680   0.000755   0.000035  -0.000302  -0.088816
    28  H   -0.000213  -0.000073   0.000000   0.000000   0.000000  -0.048465
    29  H   -0.000075  -0.000108   0.000000   0.000000   0.000000  -0.082071
    30  H    0.002557  -0.000290   0.000000   0.000000   0.000000  -0.113688
              25         26         27         28         29         30
     1  C    0.000017  -0.000280   0.009802  -0.000191  -0.000012   0.000291
     2  C    0.000023  -0.000110   0.003636  -0.000041   0.000002  -0.000008
     3  C   -0.000002   0.000007  -0.000018   0.000002   0.000000  -0.000003
     4  C    0.000000  -0.000004   0.000043  -0.000001   0.000000   0.000000
     5  C   -0.000037   0.000039  -0.001891   0.000040   0.000001  -0.000015
     6  C   -0.000135   0.000107  -0.009857   0.000328   0.000016  -0.000062
     7  H    0.000000   0.000000   0.000002   0.000000   0.000000   0.000000
     8  H    0.000000   0.000000   0.000000   0.000000   0.000000   0.000000
     9  H    0.000000   0.000000   0.000000   0.000000   0.000000   0.000000
    10  H    0.000000   0.000000   0.000000   0.000000   0.000000   0.000000
    11  O   -0.000036   0.000082   0.000122   0.000004  -0.000001  -0.000005
    12  O   -0.000024  -0.000187  -0.002636  -0.000032   0.000004  -0.000010
    13  B    0.003854  -0.003771  -0.020846  -0.004935   0.000456  -0.001170
    14  C    0.050516   0.018754  -0.052163   0.008442  -0.008788   0.019173
    15  C   -0.016327   0.007964  -0.012123  -0.002318  -0.000393   0.001675
    16  H    0.005398  -0.000111   0.002553   0.000005   0.000015  -0.000004
    17  H    0.000011  -0.000013   0.000052  -0.000011  -0.000001   0.000001
    18  C   -0.139904  -0.113491   0.064068  -0.018758   0.033672  -0.001423
    19  H    0.004232  -0.002589   0.005495  -0.000213  -0.000075   0.002557
    20  C   -0.001358   0.000420  -0.005680  -0.000073  -0.000108  -0.000290
    21  H    0.000066  -0.000050   0.000755   0.000000   0.000000   0.000000
    22  H    0.000046  -0.000003   0.000035   0.000000   0.000000   0.000000
    23  H    0.000004   0.000002  -0.000302   0.000000   0.000000   0.000000
    24  C    0.417256   0.451453  -0.088816  -0.048465  -0.082071  -0.113688
    25  H    0.535719  -0.033132  -0.017760  -0.004283  -0.002295   0.004221
    26  H   -0.033132   0.527529  -0.059691   0.004296  -0.002956  -0.003508
    27  C   -0.017760  -0.059691   5.660589   0.408184   0.404027   0.434306
    28  H   -0.004283   0.004296   0.408184   0.503808  -0.027862  -0.029614
    29  H   -0.002295  -0.002956   0.404027  -0.027862   0.513369  -0.027954
    30  H    0.004221  -0.003508   0.434306  -0.029614  -0.027954   0.508140
 Mulliken charges:
               1
     1  C    0.645557
     2  C   -0.801405
     3  C   -0.228128
     4  C   -0.238978
     5  C   -0.686920
     6  C    0.795392
     7  H    0.199557
     8  H    0.180993
     9  H    0.181049
    10  H    0.199749
    11  O   -0.533437
    12  O   -0.522152
    13  B    1.016944
    14  C    0.287893
    15  C   -0.450333
    16  H    0.183499
    17  H    0.215147
    18  C   -0.316142
    19  H    0.199319
    20  C   -0.766310
    21  H    0.205366
    22  H    0.198415
    23  H    0.221791
    24  C   -0.488181
    25  H    0.193929
    26  H    0.209244
    27  C   -0.721887
    28  H    0.211687
    29  H    0.200952
    30  H    0.207390
 Sum of Mulliken charges =   0.00000
 Mulliken charges with hydrogens summed into heavy atoms:
               1
     1  C    0.645557
     2  C   -0.601848
     3  C   -0.047135
     4  C   -0.057929
     5  C   -0.487171
     6  C    0.795392
    11  O   -0.533437
    12  O   -0.522152
    13  B    1.016944
    14  C    0.287893
    15  C   -0.051687
    18  C   -0.116823
    20  C   -0.140738
    24  C   -0.085008
    27  C   -0.101858
 Electronic spatial extent (au):  <R**2>=           4386.1892
 Charge=              0.0000 electrons
 Dipole moment (field-independent basis, Debye):
    X=              0.4161    Y=             -0.2485    Z=              0.0834  Tot=              0.4918
 Quadrupole moment (field-independent basis, Debye-Ang):
   XX=            -77.1024   YY=            -88.0942   ZZ=            -93.4705
   XY=             -0.2717   XZ=              0.5059   YZ=             -2.0607
 Traceless Quadrupole moment (field-independent basis, Debye-Ang):
   XX=              9.1199   YY=             -1.8718   ZZ=             -7.2481
   XY=             -0.2717   XZ=              0.5059   YZ=             -2.0607
 Octapole moment (field-independent basis, Debye-Ang**2):
  XXX=            -19.1668  YYY=             -5.0035  ZZZ=             -0.7061  XYY=             -9.0776
  XXY=             -5.1210  XXZ=              0.8249  XZZ=              8.8383  YZZ=              0.7317
  YYZ=              1.5542  XYZ=              3.9041
 Hexadecapole moment (field-independent basis, Debye-Ang**3):
 XXXX=          -4488.1382 YYYY=          -1111.2222 ZZZZ=           -237.1356 XXXY=            -11.0871
 XXXZ=             20.2240 YYYX=              9.1911 YYYZ=            -26.1318 ZZZX=              0.9955
 ZZZY=             -4.8557 XXYY=           -939.7758 XXZZ=           -893.1195 YYZZ=           -234.7853
 XXYZ=            -41.8210 YYXZ=             -2.3649 ZZXY=             -5.8446
 N-N= 9.130012052487D+02 E-N=-3.315915456843D+03  KE= 6.353823870677D+02
 Evaluate density.
 Using the total density.
 Monte-Carlo method of calculating molar volume:
 based on  0.001 e/bohr**3 density envelope.
 Number of points per bohr**3 =   20 CutOff= 1.00D-04
 Using the SCF density.
 There are       432 points.  Will hold       432 in memory.
 LenV=  4026294492 MDV=  4026531840.
 Box volume =10143.565 fraction occupied=0.213
 Integrated density= 6.9884762741215752D+01 error=-3.8115237258784248D+01
 Molar volume = 2160.204 bohr**3/mol (192.774 cm**3/mol)
 Recommended a0 for SCRF calculation =  5.17 angstrom (  9.77 bohr)
 Calling FoFJK, ICntrl=      2127 FMM=F ISym2X=0 I1Cent= 0 IOpClX= 0 NMat=1 NMatS=1 NMatT=0.
 ***** Axes restored to original set *****
 -------------------------------------------------------------------
 Center     Atomic                   Forces (Hartrees/Bohr)
 Number     Number              X              Y              Z
 -------------------------------------------------------------------
      1        6          -0.020982012    0.003014547    0.000266904
      2        6          -0.000229082    0.001809786    0.000503490
      3        6          -0.001845619    0.003013861    0.000818817
      4        6          -0.002454868   -0.002526710   -0.000771167
      5        6          -0.000719933   -0.001678770   -0.000484051
      6        6          -0.020477794    0.001465499   -0.000071161
      7        1          -0.000039367   -0.001664940   -0.000480828
      8        1           0.000888318   -0.000702357   -0.000170600
      9        1           0.001017507    0.000497797    0.000166129
     10        1           0.000360725    0.001638507    0.000489338
     11        8           0.005612272   -0.012360569   -0.003359204
     12        8           0.008910617    0.010941769    0.003437783
     13        5           0.034018965   -0.005311803   -0.000566416
     14        6          -0.005623703    0.000073327   -0.000409778
     15        6          -0.000164823   -0.000127613   -0.001929593
     16        1           0.000316532    0.000115975    0.000082378
     17        1          -0.000249011    0.000062376    0.000039634
     18        6           0.000355842    0.003180075    0.001002214
     19        1           0.000242823   -0.000139346   -0.000039846
     20        6          -0.000086652   -0.001867070    0.001822745
     21        1          -0.000023152    0.000002491   -0.000180208
     22        1          -0.000087762    0.000236192    0.000204553
     23        1          -0.000001728    0.000369754   -0.000435451
     24        6          -0.000447364   -0.001219003    0.001319513
     25        1           0.000126859   -0.000174056   -0.000093130
     26        1           0.000462248   -0.000049107    0.000242377
     27        6           0.001437640    0.001505744   -0.001564423
     28        1           0.000017002    0.000006748    0.000267885
     29        1          -0.000294322    0.000053546   -0.000125847
     30        1          -0.000040158   -0.000166651    0.000017945
 -------------------------------------------------------------------
 Cartesian Forces:  Max     0.034018965 RMS     0.005344084

 GradGradGradGradGradGradGradGradGradGradGradGradGradGradGradGradGradGrad
 Berny optimization.
 FormGI is forming the generalized inverse of G from B-inverse, IUseBI=4.
 Internal  Forces:  Max     0.022592979 RMS     0.003416175
 Search for a local minimum.
 Step number   1 out of a maximum of  164
 All quantities printed in internal units (Hartrees-Bohrs-Radians)
 Mixed Optimization -- RFO/linear search
 Second derivative matrix not updated -- first step.
 ITU=  0
     Eigenvalues ---    0.00230   0.00230   0.00476   0.00704   0.00890
     Eigenvalues ---    0.01246   0.01357   0.01520   0.01823   0.01957
     Eigenvalues ---    0.02010   0.02017   0.02038   0.02046   0.02103
     Eigenvalues ---    0.02147   0.02166   0.02201   0.02675   0.04038
     Eigenvalues ---    0.04101   0.05382   0.05426   0.05442   0.05447
     Eigenvalues ---    0.05477   0.05519   0.09168   0.09233   0.12747
     Eigenvalues ---    0.12771   0.15998   0.16000   0.16000   0.16000
     Eigenvalues ---    0.16000   0.16000   0.16000   0.16000   0.16000
     Eigenvalues ---    0.16000   0.16000   0.21917   0.21926   0.22000
     Eigenvalues ---    0.22000   0.22613   0.24526   0.24985   0.24990
     Eigenvalues ---    0.25000   0.25000   0.25000   0.27976   0.28104
     Eigenvalues ---    0.29365   0.30182   0.31894   0.33566   0.33952
     Eigenvalues ---    0.34044   0.34088   0.34093   0.34099   0.34149
     Eigenvalues ---    0.34160   0.34162   0.34220   0.34624   0.35440
     Eigenvalues ---    0.35443   0.35665   0.35666   0.37467   0.40092
     Eigenvalues ---    0.41469   0.41813   0.43051   0.44106   0.44641
     Eigenvalues ---    0.44911   0.47070   0.47892   0.53827
 RFO step:  Lambda=-4.50722820D-03 EMin= 2.30000000D-03
 Linear search not attempted -- first point.
 Iteration  1 RMS(Cart)=  0.02536359 RMS(Int)=  0.00012874
 Iteration  2 RMS(Cart)=  0.00015763 RMS(Int)=  0.00001904
 Iteration  3 RMS(Cart)=  0.00000004 RMS(Int)=  0.00001904
 Variable       Old X    -DE/DX   Delta X   Delta X   Delta X     New X
                                 (Linear)    (Quad)   (Total)
    R1        2.61636  -0.00105   0.00000  -0.00216  -0.00217   2.61419
    R2        2.64428  -0.00424   0.00000  -0.00876  -0.00884   2.63544
    R3        2.65889  -0.02259   0.00000  -0.05017  -0.05019   2.60870
    R4        2.65794  -0.00127   0.00000  -0.00281  -0.00280   2.65514
    R5        2.04607   0.00172   0.00000   0.00478   0.00478   2.05084
    R6        2.65441  -0.00277   0.00000  -0.00609  -0.00608   2.64833
    R7        2.04967   0.00114   0.00000   0.00318   0.00318   2.05286
    R8        2.65801  -0.00131   0.00000  -0.00290  -0.00289   2.65511
    R9        2.04962   0.00114   0.00000   0.00318   0.00318   2.05280
   R10        2.61604  -0.00111   0.00000  -0.00227  -0.00228   2.61376
   R11        2.04609   0.00174   0.00000   0.00481   0.00481   2.05090
   R12        2.66018  -0.02225   0.00000  -0.04948  -0.04950   2.61068
   R13        2.68817  -0.01561   0.00000  -0.03707  -0.03701   2.65116
   R14        2.69045  -0.01554   0.00000  -0.03709  -0.03703   2.65341
   R15        2.89247   0.00426   0.00000   0.01429   0.01429   2.90676
   R16        2.87603  -0.00109   0.00000  -0.00356  -0.00356   2.87247
   R17        2.56189  -0.00366   0.00000  -0.00675  -0.00675   2.55515
   R18        2.07163  -0.00028   0.00000  -0.00082  -0.00082   2.07082
   R19        2.07412  -0.00008   0.00000  -0.00023  -0.00023   2.07389
   R20        2.91912  -0.00190   0.00000  -0.00665  -0.00665   2.91247
   R21        2.06289   0.00024   0.00000   0.00068   0.00068   2.06358
   R22        2.84338  -0.00126   0.00000  -0.00390  -0.00390   2.83949
   R23        2.07183   0.00015   0.00000   0.00044   0.00044   2.07227
   R24        2.07174   0.00030   0.00000   0.00086   0.00086   2.07260
   R25        2.07060   0.00015   0.00000   0.00044   0.00044   2.07104
   R26        2.06960  -0.00022   0.00000  -0.00064  -0.00064   2.06896
   R27        2.08069  -0.00033   0.00000  -0.00098  -0.00098   2.07971
   R28        2.92192  -0.00226   0.00000  -0.00794  -0.00794   2.91398
   R29        2.07057   0.00026   0.00000   0.00074   0.00074   2.07131
   R30        2.07080   0.00030   0.00000   0.00087   0.00087   2.07166
   R31        2.07255   0.00013   0.00000   0.00038   0.00038   2.07294
    A1        2.13009   0.00025   0.00000   0.00066   0.00068   2.13077
    A2        2.25048  -0.00188   0.00000  -0.00797  -0.00791   2.24256
    A3        1.90262   0.00163   0.00000   0.00731   0.00724   1.90985
    A4        2.03414  -0.00037   0.00000  -0.00140  -0.00142   2.03272
    A5        2.11662   0.00036   0.00000   0.00177   0.00178   2.11840
    A6        2.13243   0.00001   0.00000  -0.00037  -0.00036   2.13206
    A7        2.11881   0.00007   0.00000   0.00058   0.00058   2.11939
    A8        2.07992  -0.00010   0.00000  -0.00072  -0.00072   2.07920
    A9        2.08445   0.00004   0.00000   0.00013   0.00014   2.08459
   A10        2.11824   0.00003   0.00000   0.00043   0.00043   2.11867
   A11        2.08466   0.00007   0.00000   0.00029   0.00029   2.08495
   A12        2.08028  -0.00010   0.00000  -0.00072  -0.00072   2.07956
   A13        2.03402  -0.00041   0.00000  -0.00158  -0.00159   2.03242
   A14        2.13269   0.00000   0.00000  -0.00044  -0.00044   2.13225
   A15        2.11648   0.00041   0.00000   0.00202   0.00203   2.11851
   A16        2.13107   0.00042   0.00000   0.00130   0.00132   2.13240
   A17        1.90125   0.00148   0.00000   0.00681   0.00673   1.90798
   A18        2.25086  -0.00191   0.00000  -0.00811  -0.00805   2.24280
   A19        1.86135  -0.00616   0.00000  -0.02453  -0.02450   1.83685
   A20        1.86047  -0.00611   0.00000  -0.02452  -0.02448   1.83599
   A21        1.89908   0.00916   0.00000   0.03492   0.03501   1.93410
   A22        2.17916  -0.00500   0.00000  -0.01911  -0.01916   2.16000
   A23        2.20494  -0.00416   0.00000  -0.01581  -0.01586   2.18908
   A24        2.04404   0.00191   0.00000   0.00755   0.00755   2.05159
   A25        2.06252  -0.00115   0.00000  -0.00445  -0.00446   2.05806
   A26        2.17602  -0.00075   0.00000  -0.00288  -0.00288   2.17314
   A27        1.93883  -0.00011   0.00000  -0.00109  -0.00108   1.93775
   A28        1.90221  -0.00005   0.00000   0.00167   0.00167   1.90388
   A29        1.95376   0.00046   0.00000   0.00268   0.00268   1.95643
   A30        1.86105  -0.00007   0.00000  -0.00243  -0.00243   1.85862
   A31        1.91082  -0.00027   0.00000  -0.00254  -0.00253   1.90828
   A32        1.89430   0.00001   0.00000   0.00155   0.00154   1.89584
   A33        2.05229  -0.00049   0.00000  -0.00245  -0.00245   2.04985
   A34        2.23712   0.00068   0.00000   0.00303   0.00303   2.24015
   A35        1.99362  -0.00018   0.00000  -0.00056  -0.00056   1.99306
   A36        1.93256   0.00003   0.00000   0.00011   0.00010   1.93267
   A37        1.93798  -0.00035   0.00000  -0.00255  -0.00255   1.93543
   A38        1.92699   0.00083   0.00000   0.00555   0.00555   1.93254
   A39        1.89073   0.00006   0.00000  -0.00057  -0.00057   1.89016
   A40        1.88726  -0.00036   0.00000  -0.00139  -0.00139   1.88587
   A41        1.88676  -0.00023   0.00000  -0.00126  -0.00126   1.88550
   A42        1.94568   0.00008   0.00000   0.00101   0.00101   1.94669
   A43        1.89530  -0.00025   0.00000  -0.00356  -0.00356   1.89174
   A44        1.95137  -0.00011   0.00000  -0.00080  -0.00080   1.95057
   A45        1.85797   0.00005   0.00000   0.00134   0.00134   1.85931
   A46        1.91463   0.00008   0.00000   0.00165   0.00165   1.91628
   A47        1.89575   0.00015   0.00000   0.00039   0.00038   1.89614
   A48        1.93157   0.00013   0.00000   0.00100   0.00100   1.93257
   A49        1.93582  -0.00024   0.00000  -0.00175  -0.00175   1.93407
   A50        1.93676   0.00016   0.00000   0.00106   0.00106   1.93782
   A51        1.89045   0.00003   0.00000  -0.00002  -0.00002   1.89043
   A52        1.88140  -0.00008   0.00000   0.00008   0.00008   1.88149
   A53        1.88598   0.00000   0.00000  -0.00038  -0.00038   1.88560
    D1       -0.00042   0.00000   0.00000   0.00020   0.00020  -0.00022
    D2       -3.14143  -0.00001   0.00000  -0.00039  -0.00039   3.14137
    D3        3.13934   0.00004   0.00000   0.00145   0.00145   3.14078
    D4       -0.00167   0.00002   0.00000   0.00086   0.00086  -0.00081
    D5        0.00040  -0.00001   0.00000  -0.00031  -0.00031   0.00009
    D6        3.14148   0.00000   0.00000   0.00004   0.00004   3.14152
    D7       -3.13969  -0.00003   0.00000  -0.00132  -0.00133  -3.14102
    D8        0.00140  -0.00002   0.00000  -0.00097  -0.00098   0.00042
    D9       -3.14109   0.00000   0.00000   0.00019   0.00018  -3.14091
   D10       -0.00114   0.00003   0.00000   0.00131   0.00130   0.00016
   D11        0.00009   0.00000   0.00000   0.00005   0.00005   0.00014
   D12       -3.14103  -0.00001   0.00000  -0.00044  -0.00044  -3.14147
   D13        3.14109   0.00001   0.00000   0.00064   0.00064  -3.14145
   D14       -0.00003   0.00000   0.00000   0.00015   0.00015   0.00013
   D15        0.00029   0.00000   0.00000  -0.00021  -0.00021   0.00008
   D16       -3.14150   0.00000   0.00000  -0.00017  -0.00017   3.14151
   D17        3.14141   0.00001   0.00000   0.00028   0.00028  -3.14150
   D18       -0.00039   0.00001   0.00000   0.00032   0.00032  -0.00007
   D19       -0.00032   0.00000   0.00000   0.00011   0.00011  -0.00021
   D20        3.14135   0.00000   0.00000  -0.00006  -0.00006   3.14130
   D21        3.14147   0.00000   0.00000   0.00007   0.00007   3.14154
   D22       -0.00004   0.00000   0.00000  -0.00009  -0.00009  -0.00013
   D23       -0.00001   0.00000   0.00000   0.00014   0.00014   0.00013
   D24       -3.14098  -0.00001   0.00000  -0.00029  -0.00029  -3.14127
   D25        3.14150   0.00001   0.00000   0.00031   0.00031  -3.14138
   D26        0.00053   0.00000   0.00000  -0.00012  -0.00012   0.00041
   D27       -0.00107   0.00001   0.00000   0.00028   0.00026  -0.00081
   D28        3.13997   0.00002   0.00000   0.00066   0.00065   3.14061
   D29        0.00036   0.00001   0.00000   0.00054   0.00056   0.00093
   D30       -3.14121  -0.00006   0.00000  -0.00286  -0.00288   3.13910
   D31        0.00047  -0.00002   0.00000  -0.00113  -0.00115  -0.00068
   D32       -3.14115   0.00004   0.00000   0.00233   0.00236  -3.13879
   D33        0.02322   0.00008   0.00000   0.00556   0.00553   0.02875
   D34        3.12933   0.00018   0.00000   0.01216   0.01215   3.14147
   D35       -3.11834   0.00001   0.00000   0.00157   0.00158  -3.11676
   D36       -0.01224   0.00011   0.00000   0.00817   0.00820  -0.00404
   D37       -2.79217   0.00022   0.00000   0.01922   0.01923  -2.77294
   D38       -0.74667   0.00005   0.00000   0.01664   0.01664  -0.73003
   D39        1.34895   0.00032   0.00000   0.02137   0.02138   1.37034
   D40        0.38746   0.00012   0.00000   0.01216   0.01215   0.39961
   D41        2.43297  -0.00006   0.00000   0.00957   0.00956   2.44253
   D42       -1.75460   0.00022   0.00000   0.01431   0.01431  -1.74029
   D43        0.02481  -0.00003   0.00000  -0.00221  -0.00220   0.02261
   D44       -3.13645   0.00000   0.00000  -0.00091  -0.00089  -3.13734
   D45        3.12799   0.00013   0.00000   0.00516   0.00514   3.13313
   D46       -0.03326   0.00016   0.00000   0.00646   0.00645  -0.02682
   D47        1.07057   0.00000   0.00000  -0.00070  -0.00070   1.06987
   D48       -3.11147  -0.00014   0.00000  -0.00303  -0.00303  -3.11451
   D49       -1.01901  -0.00011   0.00000  -0.00263  -0.00263  -1.02165
   D50       -1.08733   0.00001   0.00000   0.00066   0.00067  -1.08666
   D51        1.01382  -0.00012   0.00000  -0.00167  -0.00167   1.01215
   D52        3.10628  -0.00010   0.00000  -0.00127  -0.00127   3.10501
   D53       -3.11238   0.00024   0.00000   0.00409   0.00409  -3.10829
   D54       -1.01124   0.00010   0.00000   0.00175   0.00175  -1.00948
   D55        1.08122   0.00012   0.00000   0.00216   0.00215   1.08338
   D56        0.09676   0.00006   0.00000   0.00286   0.00286   0.09961
   D57        2.13826   0.00002   0.00000   0.00289   0.00289   2.14115
   D58       -2.05354  -0.00002   0.00000   0.00055   0.00056  -2.05299
   D59       -3.06394   0.00009   0.00000   0.00410   0.00411  -3.05984
   D60       -1.02244   0.00004   0.00000   0.00414   0.00414  -1.01830
   D61        1.06894   0.00000   0.00000   0.00180   0.00181   1.07075
   D62        1.10198   0.00015   0.00000   0.00158   0.00158   1.10356
   D63       -3.08250   0.00012   0.00000   0.00107   0.00107  -3.08143
   D64       -0.98599   0.00006   0.00000   0.00013   0.00013  -0.98586
   D65       -1.06581   0.00007   0.00000  -0.00035  -0.00035  -1.06616
   D66        1.03290   0.00004   0.00000  -0.00086  -0.00086   1.03203
   D67        3.12941  -0.00002   0.00000  -0.00180  -0.00180   3.12761
   D68       -3.09009  -0.00013   0.00000  -0.00307  -0.00307  -3.09316
   D69       -0.99138  -0.00016   0.00000  -0.00359  -0.00359  -0.99497
   D70        1.10513  -0.00021   0.00000  -0.00453  -0.00453   1.10060
         Item               Value     Threshold  Converged?
 Maximum Force            0.022593     0.000450     NO 
 RMS     Force            0.003416     0.000300     NO 
 Maximum Displacement     0.071150     0.001800     NO 
 RMS     Displacement     0.025341     0.001200     NO 
 Predicted change in Energy=-2.284926D-03
 GradGradGradGradGradGradGradGradGradGradGradGradGradGradGradGradGradGrad

                          Input orientation:                          
 ---------------------------------------------------------------------
 Center     Atomic      Atomic             Coordinates (Angstroms)
 Number     Number       Type             X           Y           Z
 ---------------------------------------------------------------------
      1          6           0        1.847858   -0.800704   -0.166383
      2          6           0        2.930733   -1.633868   -0.383022
      3          6           0        4.202872   -1.072839   -0.180430
      4          6           0        4.357962    0.261145    0.220133
      5          6           0        3.247380    1.094213    0.436238
      6          6           0        2.002612    0.526712    0.232321
      7          1           0        2.796980   -2.665284   -0.692986
      8          1           0        5.083690   -1.688714   -0.338415
      9          1           0        5.356770    0.662021    0.367516
     10          1           0        3.352823    2.128773    0.746756
     11          8           0        0.758152    1.110568    0.370209
     12          8           0        0.503582   -1.088952   -0.290956
     13          5           0       -0.160707    0.102087    0.043279
     14          6           0       -1.686348    0.297412    0.060645
     15          6           0       -2.214431    1.676931    0.419248
     16          1           0       -3.253680    1.623048    0.762610
     17          1           0       -1.629975    2.078273    1.256950
     18          6           0       -2.463409   -0.756591   -0.276249
     19          1           0       -1.960785   -1.694643   -0.520970
     20          6           0       -2.118160    2.660082   -0.763747
     21          1           0       -2.719186    2.308271   -1.610814
     22          1           0       -2.478389    3.655138   -0.475643
     23          1           0       -1.080420    2.759730   -1.101786
     24          6           0       -3.962931   -0.825858   -0.342718
     25          1           0       -4.418584    0.154752   -0.171052
     26          1           0       -4.251616   -1.131566   -1.359762
     27          6           0       -4.532907   -1.849289    0.660034
     28          1           0       -4.306753   -1.550522    1.690087
     29          1           0       -5.621147   -1.931759    0.556323
     30          1           0       -4.099801   -2.843768    0.496535
 ---------------------------------------------------------------------
                    Distance matrix (angstroms):
                    1          2          3          4          5
     1  C    0.000000
     2  C    1.383370   0.000000
     3  C    2.370727   1.405039   0.000000
     4  C    2.752733   2.447826   1.401434   0.000000
     5  C    2.431568   2.865986   2.447317   1.405026   0.000000
     6  C    1.394613   2.430671   2.751376   2.370306   1.383144
     7  H    2.157499   1.085259   2.185206   3.440122   3.951180
     8  H    3.359875   2.154117   1.086324   2.154206   3.422982
     9  H    3.838890   3.423459   2.154406   1.086297   2.154307
    10  H    3.417686   3.951205   3.439851   2.185332   1.085290
    11  O    2.264587   3.580418   4.115406   3.701713   2.490157
    12  O    1.380465   2.489271   3.700976   4.115850   3.580985
    13  B    2.212085   3.571032   4.524524   4.524925   3.571244
    14  C    3.707831   5.024353   6.051332   6.046523   5.011750
    15  C    4.794145   6.170716   7.007327   6.726102   5.492834
    16  H    5.723923   7.082862   7.984817   7.751527   6.530694
    17  H    4.733889   6.104879   6.783632   6.342896   5.042869
    18  C    4.312893   5.466058   6.674466   6.914716   6.045348
    19  H    3.928183   4.893841   6.204295   6.655893   5.984894
    20  C    5.297470   6.638846   7.364130   6.975893   5.716724
    21  H    5.710516   6.997822   7.835355   7.591385   6.423727
    22  H    6.218246   7.565763   8.190249   7.664138   6.338320
    23  H    4.703879   5.992468   6.591711   6.129144   4.885623
    24  C    5.813518   6.940973   8.171149   8.410448   7.502135
    25  H    6.338865   7.566806   8.708420   8.785904   7.747154
    26  H    6.223922   7.265843   8.536548   8.863439   8.025874
    27  C    6.518946   7.539250   8.810397   9.148497   8.321488
    28  H    6.472090   7.529006   8.725866   8.973305   8.101339
    29  H    7.588651   8.608471   9.888979  10.222743   9.371324
    30  H    6.323624   7.187899   8.516387   9.013914   8.336210
                    6          7          8          9         10
     6  C    0.000000
     7  H    3.417023   0.000000
     8  H    3.837563   2.511663   0.000000
     9  H    3.359608   4.329913   2.469588   0.000000
    10  H    2.157385   5.036348   4.329746   2.512169   0.000000
    11  O    1.381515   4.420889   5.200808   4.620443   2.812622
    12  O    2.265233   2.811783   4.619454   5.201243   4.421400
    13  B    2.212689   4.116836   5.554849   5.555287   4.116701
    14  C    3.700065   5.426394   7.066637   7.059223   5.405356
    15  C    4.375088   6.723550   8.072433   7.639097   5.595153
    16  H    5.395532   7.557713   9.038349   8.672919   6.625850
    17  H    4.080796   6.775065   7.861849   7.184112   5.009103
    18  C    4.674490   5.611459   7.604697   7.973839   6.572703
    19  H    4.605474   4.858812   7.046842   7.738856   6.667839
    20  C    4.745965   7.247284   8.423750   7.819628   5.700488
    21  H    5.372753   7.483765   8.858880   8.476143   6.516106
    22  H    5.510684   8.235562   9.260703   8.429674   6.150373
    23  H    4.033770   6.680727   7.639871   6.927962   4.844466
    24  C    6.143926   7.014454   9.087678   9.464410   7.964738
    25  H    6.444597   7.764623   9.680887   9.803312   8.070557
    26  H    6.663332   7.244279   9.407524   9.925802   8.537840
    27  C    6.967161   7.498250   9.669623  10.207740   8.832736
    28  H    6.800594   7.575272   9.608035  10.001411   8.549631
    29  H    8.016905   8.541879  10.744913  11.281756   9.851717
    30  H    6.976345   7.000886   9.293427  10.086325   8.962721
                   11         12         13         14         15
    11  O    0.000000
    12  O    2.310809   0.000000
    13  B    1.402932   1.404125   0.000000
    14  C    2.594732   2.615611   1.538192   0.000000
    15  C    3.026454   3.942346   2.615200   1.520046   0.000000
    16  H    4.063424   4.752048   3.520972   2.169469   1.095828
    17  H    2.725052   4.120606   2.745370   2.146110   1.097456
    18  C    3.779239   2.985585   2.478279   1.352126   2.543174
    19  H    4.006998   2.548112   2.605168   2.093293   3.509396
    20  C    3.458326   4.599165   3.320581   2.539349   1.541211
    21  H    4.177418   4.865119   3.761527   2.811420   2.185067
    22  H    4.203035   5.606484   4.273770   3.491312   2.187192
    23  H    2.875213   4.240149   3.036464   2.789517   2.184486
    24  C    5.152343   4.474554   3.932809   2.570460   3.146712
    25  H    5.291989   5.078277   4.263594   2.745751   2.742950
    26  H    5.754802   4.874020   4.497329   3.261922   3.899058
    27  C    6.069601   5.181574   4.827462   3.615313   4.227001
    28  H    5.871690   5.222729   4.757393   3.596729   4.050839
    29  H    7.070068   6.240233   5.849458   4.549455   4.964590
    30  H    6.265177   4.989053   4.939632   3.985193   4.898705
                   16         17         18         19         20
    16  H    0.000000
    17  H    1.757277   0.000000
    18  C    2.714118   3.328929   0.000000
    19  H    3.785001   4.183938   1.091999   0.000000
    20  C    2.166705   2.158713   3.468502   4.364326   0.000000
    21  H    2.527520   3.076256   3.352590   4.217375   1.096598
    22  H    2.502746   2.491624   4.416258   5.374954   1.096770
    23  H    3.080759   2.515955   3.867646   4.577536   1.095949
[...]
 00127852,-0.00124486,0.00037112,0.00002684,0.00008507,0.00805264,-0.09
 067017,-0.00522985,0.02763116,0.00142359,0.00129649,0.00050295,-0.0004
 7708,-0.00033860,-0.00005325,-0.00010373,0.00043933,0.00010333,-0.0001
 8667,0.00022716,0.00018192,0.00022488,-0.00020128,-0.05239316,0.553973
 69,-0.00027043,-0.00005379,0.00017490,0.00003099,0.00000869,-0.0000011
 5,-0.00000148,0.00000822,-0.00001821,0.00001080,-0.00002977,0.00005621
 ,-0.00003636,0.00008732,-0.00015181,0.00005634,0.00016921,-0.00060949,
 -0.00000753,-0.00000022,0.00000819,0.00000561,-0.00000066,0.00000245,-
 0.00000160,-0.00000989,0.00004417,0.00000562,0.00000757,-0.00001505,-0
 .00034353,0.00052571,-0.00124909,0.00036150,0.00044937,-0.00103069,-0.
 00078280,-0.00450912,0.01044923,-0.00859926,-0.00439667,0.01263010,-0.
 00048441,0.00223072,-0.00676640,-0.00030403,-0.00076036,-0.00026420,-0
 .00025002,-0.00063594,0.00017255,-0.00757126,-0.00497428,-0.07650123,0
 .00744738,-0.00004465,0.00371686,-0.00050617,0.00094120,0.00030403,0.0
 0000096,-0.00005770,0.00028124,0.00006342,0.00024286,-0.00032639,0.000
 14043,0.00008255,0.00009700,0.02070530,0.05645121,0.50877973,0.0003948
 3,-0.00001618,0.00002680,-0.00002097,-0.00001394,-0.00000838,-0.000014
 65,-0.00002400,-0.00000839,-0.00005334,0.00002889,0.00000840,0.0000638
 0,-0.00000688,0.00000031,-0.00015232,-0.00004119,-0.00003154,0.0000138
 5,-0.00000473,-0.00000051,-0.00001032,-0.00000037,-0.00000063,-0.00000
 708,-0.00000246,-0.00000073,-0.00001308,-0.00000975,-0.00000445,-0.000
 08618,-0.00030387,-0.00010781,-0.00044601,-0.00009704,-0.00005889,0.00
 084056,0.00056352,0.00028743,0.00046788,0.00021051,0.00011249,-0.00108
 302,-0.00078795,0.00044345,0.00009357,-0.00162279,-0.00129365,0.000582
 37,0.00010048,-0.00017958,-0.01382145,0.03291358,0.00725785,-0.0059072
 2,-0.00072151,-0.00079448,0.00023766,-0.00036685,-0.00029683,-0.000058
 09,-0.00010617,0.00025566,0.00003134,-0.00003521,0.00010751,0.00011316
 ,0.00020434,-0.00008078,-0.09219035,0.09305418,0.01582577,0.10198054,-
 0.00012130,-0.00004633,-0.00001434,0.00000242,0.00001114,0.00000317,0.
 00001475,0.00001417,0.00000278,0.00002695,-0.00001583,-0.00000490,-0.0
 0002029,-0.00001149,-0.00000639,0.00002495,0.00005416,0.00002079,-0.00
 000664,0.00000117,0.00000280,0.00000478,-0.00000096,0.00000064,0.00000
 591,0.00000033,0.00000111,0.00000304,0.00000422,0.00000272,0.00018445,
 0.00012153,0.00003108,0.00018321,-0.00004108,-0.00002167,-0.00033653,-
 0.00002279,0.00003704,0.00021962,-0.00060280,0.00007367,-0.00124049,-0
 .00116044,-0.00093635,-0.00193577,-0.00099014,-0.00045195,-0.00031041,
 0.00014397,0.00012810,0.00061134,0.00308018,0.00038572,-0.00087293,0.0
 0113875,-0.00028767,0.00001679,0.00013200,-0.00006371,0.00001537,0.000
 06954,-0.00007519,-0.00003745,0.00001333,-0.00007825,0.00001936,0.0000
 1469,0.00006786,0.09584051,-0.25971883,-0.03909755,-0.10049988,0.28620
 636,-0.00005880,-0.00003747,0.00000595,0.00000314,0.00000832,0.0000054
 0,0.00001081,0.00000392,0.00000019,0.00001275,-0.00000610,-0.00000184,
 -0.00000433,-0.00000697,-0.00000515,-0.00002352,0.00003328,0.00002658,
 -0.00000191,-0.00000093,-0.00000047,0.00000424,-0.00000040,-0.00000076
 ,0.00000401,0.00000002,-0.00000003,-0.00000010,0.00000096,0.00000372,0
 .00012723,0.00002681,0.00000135,0.00014957,-0.00003992,-0.00000735,-0.
 00016375,-0.00000558,-0.00003644,-0.00001719,0.00001617,-0.00018794,-0
 .00085666,-0.00045201,-0.00008683,-0.00076501,-0.00113935,-0.00019455,
 0.00013163,0.00011703,-0.00011667,0.00019251,0.00215367,-0.00027505,-0
 .00039874,0.00015996,0.00157955,0.00025646,0.00019226,0.00031809,0.000
 00974,0.00005161,-0.00025090,-0.00004804,0.00003002,-0.00006980,-0.000
 07489,0.00000701,-0.00014720,0.01610587,-0.04002253,-0.05755159,-0.019
 63891,0.04220924,0.05927217,0.00004332,0.00012945,0.00007106,0.0000824
 1,-0.00006914,-0.00001857,-0.00012362,-0.00006878,-0.00002337,-0.00009
 209,0.00008734,0.00003968,0.00006325,0.00008668,-0.00000886,0.00013088
 ,-0.00017495,-0.00020758,-0.00000520,0.00001854,-0.00000065,-0.0000193
 0,0.00000328,-0.00000055,-0.00002063,0.00000201,0.00000926,0.00000603,
 -0.00000624,-0.00000753,-0.00092431,-0.00012267,-0.00032885,-0.0005170
 9,0.00058694,0.00000414,0.00173807,-0.00156938,0.00194911,-0.00504554,
 0.00132442,0.00190814,-0.00015403,0.00080492,-0.00040349,0.00033370,-0
 .00017237,-0.00027260,0.00014522,-0.00010611,-0.00008588,-0.01256929,-
 0.01294968,-0.03273758,0.00077617,0.00042508,0.00092799,-0.00001457,0.
 00000857,-0.00029330,0.00005780,-0.00002466,0.00010728,0.00005903,-0.0
 0007691,0.00007876,0.00000851,0.00008846,-0.00003778,-0.06330159,-0.01
 460355,-0.06311558,0.00350632,0.00318254,0.01280287,0.07210687,0.00001
 957,-0.00000482,-0.00001017,-0.00001501,0.00000429,0.00000364,0.000009
 76,0.00000886,0.00000456,0.00000331,-0.00001291,-0.00000192,-0.0000141
 0,-0.00000002,-0.00000129,-0.00001494,0.00001112,-0.00002130,0.0000025
 1,0.00000046,-0.00000259,-0.00000110,0.00000089,-0.00000044,-0.0000017
 4,-0.00000047,0.00000013,0.00000023,-0.00000035,-0.00000290,-0.0000229
 9,0.00008202,0.00005731,-0.00001850,-0.00011313,-0.00003437,-0.0004990
 9,-0.00000176,0.00007421,0.00054928,0.00033297,0.00012522,-0.00035499,
 0.00012493,-0.00077344,-0.00002026,0.00051252,0.00047498,-0.00037308,-
 0.00016925,0.00019643,-0.00274852,-0.00154803,-0.00094355,-0.00010452,
 0.00037685,0.00026295,-0.00010626,0.00010862,-0.00021535,0.00009709,-0
 .00002346,0.00007165,0.00003387,0.00002114,0.00003007,0.00001162,-0.00
 004887,0.00009658,-0.01340966,-0.06798950,-0.06862897,-0.00806980,-0.0
 0837657,-0.02764144,0.02131050,0.07274144,0.00003606,0.00002061,0.0000
 0922,0.00000912,-0.00001862,0.00000142,-0.00001932,-0.00000855,-0.0000
 0219,-0.00001398,0.00001231,0.00000480,0.00000852,0.00001336,0.0000049
 6,0.00002575,-0.00004812,-0.00000311,-0.00000080,0.00000433,-0.0000030
 6,-0.00000499,0.00000157,-0.00000171,-0.00000438,0.00000100,-0.0000015
 2,0.00000199,-0.00000070,-0.00000177,-0.00013154,0.00001274,0.00007281
 ,-0.00010800,0.00002503,0.00001137,0.00001897,-0.00008795,-0.00015816,
 0.00012367,0.00140601,-0.00008942,0.00019393,0.00012532,-0.00011353,-0
 .00007868,0.00011359,0.00008580,-0.00002893,-0.00004005,0.00002178,-0.
 00169778,-0.00170669,0.00022255,-0.00072546,0.00019283,0.00051553,-0.0
 0008038,-0.00003822,-0.00013234,0.00002086,0.00006164,-0.00000235,-0.0
 0001368,-0.00003050,-0.00000476,-0.00000750,-0.00000674,0.00005426,-0.
 05929737,-0.06768550,-0.25737657,-0.00070306,-0.00204770,-0.00448625,0
 .06481987,0.07086796,0.28420959,0.00008044,0.00013023,-0.00000411,0.00
 006605,-0.00006170,-0.00001530,-0.00010122,-0.00005819,-0.00001701,-0.
 00008001,0.00008244,0.00000745,0.00005667,0.00004741,0.00006385,0.0000
 7029,-0.00022058,0.00005783,-0.00000343,0.00001243,0.00000337,-0.00001
 654,0.00000186,0.00000065,-0.00001687,0.00000678,-0.00000822,0.0000031
 0,-0.00000811,0.00000129,-0.00074611,-0.00029833,0.00022740,-0.0004424
 5,0.00038152,0.00032138,0.00174284,0.00003279,-0.00252505,-0.00378859,
 0.00247429,-0.00116045,-0.00062650,-0.00001913,0.00157331,0.00038309,-
 0.00013133,-0.00021685,0.00021051,-0.00007266,-0.00008028,-0.01922224,
 -0.02629474,0.02252456,0.00091123,0.00002522,-0.00055799,0.00030397,-0
 .00037134,-0.00049854,0.00000110,-0.00002631,0.00019145,0.00003775,-0.
 00016411,0.00015938,0.00004975,0.00011031,-0.00001938,-0.08817428,-0.0
 2284093,0.02926491,0.00547239,0.00747939,-0.00866769,0.00364144,0.0045
 3805,-0.00447828,0.55798732,-0.00015634,-0.00016517,-0.00003935,-0.000
 06811,0.00007407,0.00001901,0.00012034,0.00005322,0.00002615,0.0000792
 2,-0.00008576,-0.00002502,-0.00005717,-0.00005705,-0.00001501,-0.00023
 662,0.00025127,0.00005888,0.00000999,-0.00001500,-0.00001264,0.0000205
 2,-0.00000220,-0.00000147,0.00001775,-0.00000372,-0.00000147,-0.000007
 24,0.00000493,0.00000109,0.00082556,0.00029091,0.00004748,0.00066692,-
 0.00066301,-0.00015560,-0.00240498,0.00054001,0.00020842,0.00376233,0.
 00103402,0.00160640,0.00030855,-0.00034034,-0.00048511,-0.00023290,0.0
 0012811,0.00021950,-0.00010387,0.00007338,0.00001812,-0.01197714,-0.00
 290724,-0.00024863,0.00125707,0.00093190,-0.00062613,-0.00022406,0.000
 19454,0.00020934,0.00004348,0.00001842,-0.00015399,-0.00003682,0.00014
 336,-0.00006669,-0.00004330,-0.00006198,0.00001311,-0.01728456,-0.1226
 1626,0.04410865,-0.01294797,-0.01965500,0.02182653,0.00332556,0.004753
 38,-0.00473184,-0.02819846,0.51860903,0.00021603,0.00013250,0.00004810
 ,0.00002728,-0.00003971,-0.00000913,-0.00008109,-0.00003783,-0.0000198
 1,-0.00007079,0.00005898,0.00000888,0.00003738,0.00003844,0.00001134,0
 .00013950,-0.00022309,-0.00000104,0.00000337,0.00000685,0.00000750,-0.
 00001692,0.00000203,0.00000195,-0.00001771,0.00000212,0.00000004,0.000
 00153,-0.00001073,0.00000572,-0.00076441,-0.00026028,-0.00003322,-0.00
 061742,0.00038633,0.00011310,0.00167866,-0.00026140,-0.00049141,-0.003
 96559,-0.00070429,-0.00152899,-0.00008142,0.00016507,0.00017879,0.0000
 2174,-0.00012563,0.00015403,-0.00009786,-0.00010308,-0.00000639,0.0064
 6452,-0.00100774,0.00238055,-0.00045848,-0.00011736,0.00029808,0.00011
 338,-0.00007675,-0.00008729,0.00001967,0.00005635,-0.00008389,0.000025
 97,-0.00009641,0.00005417,-0.00003059,0.00003182,-0.00005950,0.0223924
 8,0.04381046,-0.11920711,-0.00230607,-0.00302194,0.00338255,0.01346264
 ,0.02372273,-0.02261323,0.02909421,0.04965150,0.52304498,-0.00006876,-
 0.00003483,-0.00002133,-0.00000907,0.00001271,0.00000539,0.00002009,0.
 00001278,0.00000246,0.00002006,-0.00001674,-0.00000435,-0.00001506,-0.
 00001145,-0.00000671,-0.00003755,0.00004501,0.00002858,-0.00000167,-0.
 00000188,0.00000241,0.00000530,-0.00000135,0.00000027,0.00000565,0.000
 00002,0.00000013,-0.00000078,0.00000234,0.00000139,0.00016509,0.000059
 30,0.00001530,0.00014711,-0.00007715,-0.00003505,-0.00040944,0.0000440
 7,0.00000642,0.00034086,-0.00016599,-0.00040733,0.00006975,-0.00009573
 ,-0.00005900,-0.00002438,0.00000509,0.00003838,-0.00001546,0.00001161,
 0.00001843,0.00099422,0.00089315,0.00135559,-0.00001641,0.00002087,0.0
 0008275,-0.00001178,0.00002780,0.00007252,-0.00000302,-0.00000083,-0.0
 0002417,-0.00000906,0.00003823,-0.00001877,-0.00000618,-0.00001218,0.0
 0000181,0.00163439,0.00355035,0.01268474,0.00020522,0.00039790,-0.0008
 2479,-0.00042997,-0.00185161,0.00215141,-0.06175827,-0.01516700,-0.053
 21374,0.06204562,0.00000712,-0.00000974,-0.00001435,-0.00000292,-0.000
 00050,0.00000840,0.00000933,0.00000129,0.00000231,0.00000254,-0.000003
 94,0.00000110,0.00000094,-0.00000180,-0.00000076,-0.00002541,0.0000168
 7,-0.00000033,0.00000020,-0.00000086,-0.00000496,0.00000114,0.00000008
 ,-0.00000163,0.00000113,-0.00000002,-0.00000077,-0.00000142,0.00000064
 ,-0.00000158,0.00005569,-0.00000913,-0.00000758,0.00004933,-0.00004877
 ,0.00000603,-0.00010225,0.00002713,0.00005842,-0.00001799,-0.00002445,
 -0.00018190,-0.00013231,-0.00001678,0.00002854,0.00009680,-0.00012316,
 0.00001102,0.00004319,0.00001578,-0.00001890,0.00138060,0.00075715,0.0
 0010908,-0.00007537,-0.00006321,-0.00003451,0.00009819,0.00000356,0.00
 002974,-0.00001897,0.00000991,-0.00001915,-0.00001146,-0.00000267,-0.0
 0000978,0.00000266,0.00002214,-0.00003234,0.00391873,0.00605890,0.0227
 0341,0.00074289,0.00095658,-0.00037902,-0.00230906,-0.00259879,0.00384
 921,-0.01481158,-0.06955163,-0.07076678,0.01868636,0.07349246,-0.00003
 654,-0.00001886,-0.00000561,-0.00000501,0.00000364,0.00000331,0.000013
 15,0.00000671,0.00000791,0.00001339,-0.00001072,-0.00000130,-0.0000076
 7,-0.00000746,0.00000393,-0.00000923,0.00003141,0.00000758,-0.00000132
 ,0.00000110,-0.00000673,0.00000224,0.00000041,-0.00000245,0.00000288,0
 .00000046,-0.00000239,0.00000061,0.00000303,-0.00000295,0.00013270,0.0
 0004649,0.00005266,0.00009314,-0.00007388,0.00002366,-0.00027878,0.000
 14230,-0.00016779,0.00085468,0.00029557,0.00044383,0.00022632,0.000006
 89,0.00004307,-0.00008738,0.00010649,-0.00006056,0.00001655,0.00005309
 ,0.00001319,-0.00174129,-0.00073885,0.00033108,0.00008873,0.00001851,-
 0.00013990,-0.00012253,-0.00001560,-0.00003825,0.00001672,-0.00001760,
 0.00004546,0.00000439,0.00002055,0.00000483,0.00000560,-0.00001874,0.0
 0004201,-0.00306900,-0.00519048,-0.01992497,-0.00041396,0.00022326,0.0
 0073381,0.00205997,0.00347695,-0.00164343,-0.05221702,-0.06993008,-0.2
 7828013,0.05603946,0.07365827,0.30404751,0.00019350,0.00010619,0.00004
 420,0.00002699,-0.00003977,-0.00001152,-0.00006586,-0.00003796,-0.0000
 1297,-0.00005941,0.00005342,0.00001307,0.00004390,0.00003109,0.0000166
 2,0.00011277,-0.00015194,-0.00003130,0.00000617,0.00000558,0.00000039,
 -0.00001652,0.00000381,0.00000028,-0.00001649,0.00000032,-0.00000173,0
 .00000310,-0.00000713,-0.00000128,-0.00049372,-0.00015665,-0.00003829,
 -0.00045950,0.00023323,0.00008994,0.00116356,-0.00006073,-0.00031254,-
 0.00090590,0.00055593,0.00022445,-0.00011313,-0.00000270,0.00022454,0.
 00005262,-0.00001267,-0.00002737,0.00003526,-0.00006606,-0.00003848,0.
 00037985,-0.00301623,0.00211428,0.00030111,0.00013348,-0.00017342,0.00
 008207,-0.00004960,-0.00015938,-0.00000079,0.00002910,0.00002386,0.000
 01529,-0.00009980,0.00004034,-0.00000802,0.00002509,-0.00000352,-0.010
 23292,0.00041793,-0.00170933,0.00035255,-0.00058748,-0.00013824,0.0002
 9360,0.00040088,0.00050839,-0.30706443,-0.01400009,-0.02784724,-0.0053
 6842,0.00006373,-0.00074556,0.33328550,0.00005435,0.00006731,0.0000165
 5,0.00003006,-0.00002929,-0.00001211,-0.00005208,-0.00002528,-0.000010
 70,-0.00003703,0.00003817,0.00000743,0.00002478,0.00002626,0.00001576,
 0.00007670,-0.00011377,-0.00000110,-0.00000293,0.00000605,0.00000570,-
 0.00000860,0.00000111,0.00000103,-0.00000883,0.00000230,-0.00000104,0.
 00000268,-0.00000377,0.00000080,-0.00038231,-0.00011586,0.00001824,-0.
 00026770,0.00023885,0.00009318,0.00091689,-0.00016454,-0.00054612,-0.0
 0165197,0.00049092,-0.00039026,-0.00006364,0.00004503,0.00044901,0.000
 05772,-0.00001171,-0.00003857,0.00002547,-0.00001450,-0.00002109,0.000
 45596,-0.00314040,0.00333802,-0.00040283,0.00019749,0.00007602,0.00008
 656,-0.00009140,-0.00012617,-0.00000649,0.00001597,0.00002960,0.000010
 11,-0.00007655,0.00004341,0.00000596,0.00002275,-0.00001140,-0.0234214
 4,-0.00179449,-0.00171938,0.00003449,0.00017038,-0.00077835,0.00069880
 ,0.00089920,-0.00050739,-0.01379804,-0.04888328,-0.00285367,-0.0097181
 4,-0.00122477,-0.00060997,0.01692527,0.05029745,-0.00004982,-0.0000472
 2,-0.00000867,-0.00001498,0.00001726,0.00000464,0.00003313,0.00001371,
 0.00000728,0.00002477,-0.00002188,-0.00000337,-0.00001080,-0.00001745,
 -0.00000935,-0.00005243,0.00009330,-0.00001095,0.00000086,-0.00000394,
 -0.00000393,0.00000606,-0.00000068,-0.00000059,0.00000594,-0.00000168,
 0.00000111,-0.00000143,0.00000302,-0.00000157,0.00030012,0.00007777,-0
 .00001930,0.00019927,-0.00015443,-0.00006125,-0.00058156,0.00015048,0.
 00043628,0.00162029,-0.00017387,0.00067916,0.00007908,0.00001342,-0.00
 025176,-0.00007044,0.00004362,-0.00000014,-0.00002686,0.00004754,0.000
 01570,0.00004159,0.00371962,-0.00262189,-0.00015253,-0.00014100,-0.000
 05131,-0.00005398,0.00004909,0.00008122,-0.00000222,-0.00000977,-0.000
 01217,-0.00000894,0.00004039,-0.00002902,0.00000325,-0.00001710,0.0000
 0954,0.02370757,0.00090848,0.00093163,-0.00060138,-0.00039672,0.000680
 85,0.00006964,-0.00090853,0.00068905,-0.02870935,-0.00269571,-0.051769
 28,-0.03127766,-0.00057511,-0.00170970,0.02953371,-0.00048842,0.053257
 27,-0.00010942,-0.00003909,-0.00001429,-0.00000291,0.00001462,0.000002
 83,0.00002072,0.00001202,0.00000245,0.00002215,-0.00001734,-0.00000398
 ,-0.00001605,-0.00000714,-0.00000374,-0.00003298,0.00005754,0.00001577
 ,-0.00000379,-0.00000132,0.00000135,0.00000697,-0.00000134,0.00000018,
 0.00000594,0.00000026,0.00000059,-0.00000023,0.00000232,0.00000090,0.0
 0017261,0.00006759,0.00002066,0.00018925,-0.00005845,-0.00002785,-0.00
 040796,-0.00002389,0.00003212,0.00027961,0.00014178,0.00010306,0.00001
 100,-0.00001346,-0.00009492,-0.00002708,0.00009206,0.00005933,-0.00004
 861,0.00001456,0.00002625,0.00088536,-0.00160751,-0.00060386,-0.000143
 09,0.00024904,0.00022165,-0.00003194,0.00005194,0.00006878,0.00000449,
 0.00000902,-0.00003545,-0.00000995,0.00002978,-0.00002143,-0.00000393,
 -0.00002167,-0.00000429,0.00469491,-0.01242400,-0.00261996,-0.00049197
 ,-0.00226410,0.00187175,0.00022460,0.00064949,-0.00052442,-0.08897699,
 0.09270933,0.01587097,0.00253190,-0.00765182,-0.00083525,-0.01154273,0
 .03041620,0.00598909,0.09280010,-0.00004825,0.00001639,0.00000911,0.00
 001464,-0.00001372,-0.00000734,-0.00002100,0.00000148,-0.00000403,0.00
 000108,0.00000670,0.00000113,-0.00000730,0.00001010,0.00000168,0.00007
 628,-0.00004447,-0.00000595,-0.00000833,0.00000547,0.00000773,-0.00000
 224,-0.00000034,0.00000135,-0.00000073,0.00000157,0.00000150,0.0000047
 3,0.00000161,0.00000246,-0.00012710,0.00005566,0.00000594,-0.00006800,
 0.00014311,0.00000657,0.00018138,-0.00022355,-0.00003945,-0.00059058,0
 .00016123,-0.00004924,0.00031851,0.00004323,-0.00006827,-0.00013487,0.
 00010562,0.00012395,-0.00010807,0.00004073,0.00003127,0.00172143,0.000
 21379,-0.00057750,-0.00113832,0.00015244,0.00021196,-0.00002636,0.0000
 7347,0.00009928,0.00001012,0.00001862,-0.00007951,-0.00000203,0.000011
 52,-0.00002194,-0.00003731,-0.00003572,0.00000608,0.00767881,-0.020550
 00,-0.00309774,-0.00217432,-0.00149024,0.00367327,0.00017039,0.0009092
 4,0.00025108,0.09205281,-0.26209290,-0.03835848,0.00334730,-0.00768224
 ,-0.00146289,-0.00069625,0.00317036,0.00047583,-0.10038641,0.28699088,
 -0.00000953,0.00000189,0.00000485,0.00000559,-0.00000146,-0.00000874,-
 0.00000876,-0.00000273,-0.00000380,-0.00000296,0.00000603,0.00000064,0
 .00000341,0.00000115,0.00000151,0.00000561,-0.00000884,-0.00000058,-0.
 00000095,0.00000011,0.00000678,-0.00000067,-0.00000054,0.00000171,-0.0
 0000018,0.00000013,0.00000071,0.00000062,0.00000004,0.00000052,-0.0000
 3064,-0.00001397,0.00000399,-0.00001839,0.00004991,-0.00001671,0.00013
 717,-0.00002869,-0.00003268,-0.00004613,-0.00005860,-0.00014072,-0.000
 01955,0.00003226,0.00015013,0.00006996,0.00002058,-0.00012252,0.000082
 74,0.00000451,-0.00002252,-0.00095614,0.00000329,0.00061004,0.00037307
 ,-0.00024355,0.00000796,-0.00002470,-0.00004112,-0.00005565,-0.0000074
 7,-0.00002460,0.00006472,0.00000850,-0.00000507,0.00001672,0.00001786,
 0.00000750,0.00001894,-0.00900432,0.02162492,0.00334567,0.00220438,0.0
 0331436,-0.00259139,-0.00076822,-0.00027911,0.00073025,0.01568448,-0.0
 3882545,-0.05549935,0.01338544,-0.02841609,-0.00381769,-0.00158192,0.0
 0402098,-0.00022950,-0.01949828,0.03886216,0.05757670\\0.00001229,0.00
 002520,0.00002073,-0.00001822,-0.00000876,-0.00000099,0.00001553,0.000
 01586,0.00000239,0.00001009,-0.00001836,-0.00000240,-0.00001223,0.0000
 1140,0.00000021,-0.00000800,-0.00002450,-0.00001562,0.00000193,0.00000
 060,-0.00000064,-0.00000018,-0.00000156,-0.00000156,0.00000033,0.00000
 203,0.00000103,0.00000179,-0.00000073,0.00000044,0.00000514,-0.0000008
 1,0.00000198,-0.00000352,0.00001116,-0.00001421,0.00000442,-0.00001546
 ,0.00001191,0.00000246,0.00000194,-0.00000356,-0.00000685,0.00000891,0
 .00000372,0.00000126,-0.00000050,-0.00000252,0.00000032,-0.00000433,-0
 .00000175,-0.00000849,-0.00000923,0.00000878,0.00000217,0.00000514,-0.
 00000680,0.00000015,0.00000129,-0.00000539,0.00000080,0.00000037,0.000
 00273,-0.00000033,0.00000136,0.00000023,-0.00000164,0.00000036,0.00000
 190,-0.00000084,0.00000325,-0.00000107,0.00000324,-0.00000229,-0.00000
 049,-0.00000125,-0.00000196,0.00000040,-0.00000031,-0.00000075,0.00000
 169,0.00000045,-0.00000027,-0.00000026,-0.00000040,-0.00000014,-0.0000
 0016,-0.00000013,0.00000080,-0.00000071\\\@


 THERE ARE PEOPLE SO ADDICTED TO EXAGERATING THEY
 CAN'T TELL THE TRUTH WITHOUT LYING. -- FORTUNE COOKIE
 Job cpu time:       0 days  2 hours 22 minutes 53.4 seconds.
 Elapsed time:       0 days  0 hours  4 minutes 45.8 seconds.
 File lengths (MBytes):  RWF=    309 Int=      0 D2E=      0 Chk=     10 Scr=      1
 Normal termination of Gaussian 16 at Thu Sep 14 11:42:52 2023.
