 Entering Gaussian System, Link 0=g16
 Input=/home/ubuntu/substrates/molecule_1.gjf
 Output=/home/ubuntu/substrates/molecule_1.log
 Initial command:
 /home/ubuntu/g16/l1.exe "/home/ubuntu/Scratch/Gau-52389.inp" -scrdir="/home/ubuntu/Scratch/"
 Entering Link 1 = /home/ubuntu/g16/l1.exe PID=     52393.
  
 Copyright (c) 1988-2017, Gaussian, Inc.  All Rights Reserved.
  
 This is part of the Gaussian(R) 16 program.  It is based on
 the Gaussian(R) 09 system (copyright 2009, Gaussian, Inc.),
 the Gaussian(R) 03 system (copyright 2003, Gaussian, Inc.),
 the Gaussian(R) 98 system (copyright 1998, Gaussian, Inc.),
 the Gaussian(R) 94 system (copyright 1995, Gaussian, Inc.),
 the Gaussian 92(TM) system (copyright 1992, Gaussian, Inc.),
 the Gaussian 90(TM) system (copyright 1990, Gaussian, Inc.),
 the Gaussian 88(TM) system (copyright 1988, Gaussian, Inc.),
 the Gaussian 86(TM) system (copyright 1986, Carnegie Mellon
 University), and the Gaussian 82(TM) system (copyright 1983,
 Carnegie Mellon University). Gaussian is a federally registered
 trademark of Gaussian, Inc.
  
 This software contains proprietary and confidential information,
 including trade secrets, belonging to Gaussian, Inc.
  
 This software is provided under written license and may be
 used, copied, transmitted, or stored only in accord with that
 written license.
  
 The following legend is applicable only to US Government
 contracts under FAR:
  
                    RESTRICTED RIGHTS LEGEND
  
 Use, reproduction and disclosure by the US Government is
 subject to restrictions as set forth in subparagraphs (a)
 and (c) of the Commercial Computer Software - Restricted
 Rights clause in FAR 52.227-19.
  
 Gaussian, Inc.
 340 Quinnipiac St., Bldg. 40, Wallingford CT 06492
  
  
 ---------------------------------------------------------------
 Warning -- This program may not be used in any manner that
 competes with the business of Gaussian, Inc. or will provide
 assistance to any competitor of Gaussian, Inc.  The licensee
 of this program is prohibited from giving any competitor of
 Gaussian, Inc. access to this program.  By using this program,
 the user acknowledges that Gaussian, Inc. is engaged in the
 business of creating and licensing software in the field of
 computational chemistry and represents and warrants to the
 licensee that it is not a competitor of Gaussian, Inc. and that
 it will not use this program in any manner prohibited above.
 ---------------------------------------------------------------
  

 Cite this work as:
 Gaussian 16, Revision B.01,
 M. J. Frisch, G. W. Trucks, H. B. Schlegel, G. E. Scuseria, 
 M. A. Robb, J. R. Cheeseman, G. Scalmani, V. Barone, 
 G. A. Petersson, H. Nakatsuji, X. Li, M. Caricato, A. V. Marenich, 
 J. Bloino, B. G. Janesko, R. Gomperts, B. Mennucci, H. P. Hratchian, 
 J. V. Ortiz, A. F. Izmaylov, J. L. Sonnenberg, D. Williams-Young, 
 F. Ding, F. Lipparini, F. Egidi, J. Goings, B. Peng, A. Petrone, 
 T. Henderson, D. Ranasinghe, V. G. Zakrzewski, J. Gao, N. Rega, 
 G. Zheng, W. Liang, M. Hada, M. Ehara, K. Toyota, R. Fukuda, 
 J. Hasegawa, M. Ishida, T. Nakajima, Y. Honda, O. Kitao, H. Nakai, 
 T. Vreven, K. Throssell, J. A. Montgomery, Jr., J. E. Peralta, 
 F. Ogliaro, M. J. Bearpark, J. J. Heyd, E. N. Brothers, K. N. Kudin, 
 V. N. Staroverov, T. A. Keith, R. Kobayashi, J. Normand, 
 K. Raghavachari, A. P. Rendell, J. C. Burant, S. S. Iyengar, 
 J. Tomasi, M. Cossi, J. M. Millam, M. Klene, C. Adamo, R. Cammi, 
 J. W. Ochterski, R. L. Martin, K. Morokuma, O. Farkas, 
 J. B. Foresman, and D. J. Fox, Gaussian, Inc., Wallingford CT, 2016.
 
 ******************************************
 Gaussian 16:  EM64L-G16RevB.01 20-Dec-2017
                18-Sep-2023 
 ******************************************
 %nprocshared=30
 Will use up to   30 processors via shared memory.
 %mem=30GB
 %chk=molecule_1.chk
 ----------------------------------------------------------------------
 # opt freq rb3lyp/6-31+g(d) geom=connectivity empiricaldispersion=gd3 
 volume
 ----------------------------------------------------------------------
 1/18=20,19=15,26=3,38=1,57=2/1,3;
 2/9=110,12=2,17=6,18=5,40=1/2;
 3/5=1,6=6,7=11,11=2,25=1,30=1,71=1,74=-5,116=1,124=31/1,2,3;
 4//1;
 5/5=2,38=5/2;
 6/7=2,8=2,9=2,10=2,28=1,44=1/1,4;
 7//1,2,3,16;
 1/18=20,19=15,26=3/3(2);
 2/9=110/2;
 99//99;
 2/9=110/2;
 3/5=1,6=6,7=11,11=2,25=1,30=1,71=1,74=-5,116=1,124=31/1,2,3;
 4/5=5,16=3,69=1/1;
 5/5=2,38=5/2;
 7//1,2,3,16;
 1/18=20,19=15,26=3/3(-5);
 2/9=110/2;
 6/7=2,8=2,9=2,10=2,19=2,28=1,44=1/1,4;
 99/9=1/99;
 -------------------
 Title Card Required
 -------------------
 Symbolic Z-matrix:
 Charge =  0 Multiplicity = 1
 C                    -1.43286   1.21056   0. 
 C                    -0.03815   1.2159    0. 
 C                     0.67197  0.         0. 
 C                    -0.03815  -1.2159    0. 
 C                    -1.43286  -1.21055   0. 
 C                    -2.13361   0.        0. 
 H                    -1.97359   2.15341   0. 
 H                     0.51031   2.15311   0. 
 H                     0.51031  -2.15311   0. 
 H                    -1.9736   -2.1534    0. 
 H                    -3.22052   0.        0. 
 C                     2.10602  0.        0. 
 C                     3.32216   0.        0. 
 H                     4.39216   0.        0. 
 

 GradGradGradGradGradGradGradGradGradGradGradGradGradGradGradGradGradGrad
 Berny optimization.
 Initialization pass.
                           ----------------------------
                           !    Initial Parameters    !
                           ! (Angstroms and Degrees)  !
 --------------------------                            --------------------------
 ! Name  Definition              Value          Derivative Info.                !
 --------------------------------------------------------------------------------
 ! R1    R(1,2)                  1.3947         estimate D2E/DX2                !
 ! R2    R(1,6)                  1.3987         estimate D2E/DX2                !
 ! R3    R(1,7)                  1.0869         estimate D2E/DX2                !
 ! R4    R(2,3)                  1.4081         estimate D2E/DX2                !
 ! R5    R(2,8)                  1.0859         estimate D2E/DX2                !
 ! R6    R(3,4)                  1.4081         estimate D2E/DX2                !
 ! R7    R(3,12)                 1.434          estimate D2E/DX2                !
 ! R8    R(4,5)                  1.3947         estimate D2E/DX2                !
 ! R9    R(4,9)                  1.0859         estimate D2E/DX2                !
 ! R10   R(5,6)                  1.3987         estimate D2E/DX2                !
 ! R11   R(5,10)                 1.0869         estimate D2E/DX2                !
 ! R12   R(6,11)                 1.0869         estimate D2E/DX2                !
 ! R13   R(12,13)                1.2161         estimate D2E/DX2                !
 ! R14   R(13,14)                1.07           estimate D2E/DX2                !
 ! A1    A(2,1,6)              120.2849         estimate D2E/DX2                !
 ! A2    A(2,1,7)              119.615          estimate D2E/DX2                !
 ! A3    A(6,1,7)              120.1001         estimate D2E/DX2                !
 ! A4    A(1,2,3)              120.0663         estimate D2E/DX2                !
 ! A5    A(1,2,8)              120.5563         estimate D2E/DX2                !
 ! A6    A(3,2,8)              119.3774         estimate D2E/DX2                !
 ! A7    A(2,3,4)              119.428          estimate D2E/DX2                !
 ! A8    A(2,3,12)             120.286          estimate D2E/DX2                !
 ! A9    A(4,3,12)             120.286          estimate D2E/DX2                !
 ! A10   A(3,4,5)              120.0663         estimate D2E/DX2                !
 ! A11   A(3,4,9)              119.3773         estimate D2E/DX2                !
 ! A12   A(5,4,9)              120.5563         estimate D2E/DX2                !
 ! A13   A(4,5,6)              120.2849         estimate D2E/DX2                !
 ! A14   A(4,5,10)             119.615          estimate D2E/DX2                !
 ! A15   A(6,5,10)             120.1001         estimate D2E/DX2                !
 ! A16   A(1,6,5)              119.8696         estimate D2E/DX2                !
 ! A17   A(1,6,11)             120.0652         estimate D2E/DX2                !
 ! A18   A(5,6,11)             120.0652         estimate D2E/DX2                !
 ! A19   L(3,12,13,8,-1)       179.9998         estimate D2E/DX2                !
 ! A20   L(12,13,14,8,-1)      180.0            estimate D2E/DX2                !
 ! A21   L(3,12,13,8,-2)       179.9998         estimate D2E/DX2                !
 ! A22   L(12,13,14,8,-2)      180.0            estimate D2E/DX2                !
 ! D1    D(6,1,2,3)              0.0            estimate D2E/DX2                !
 ! D2    D(6,1,2,8)            180.0            estimate D2E/DX2                !
 ! D3    D(7,1,2,3)            180.0            estimate D2E/DX2                !
 ! D4    D(7,1,2,8)              0.0            estimate D2E/DX2                !
 ! D5    D(2,1,6,5)              0.0            estimate D2E/DX2                !
 ! D6    D(2,1,6,11)           180.0            estimate D2E/DX2                !
 ! D7    D(7,1,6,5)            180.0            estimate D2E/DX2                !
 ! D8    D(7,1,6,11)             0.0            estimate D2E/DX2                !
 ! D9    D(1,2,3,4)              0.0            estimate D2E/DX2                !
 ! D10   D(1,2,3,12)           180.0            estimate D2E/DX2                !
 ! D11   D(8,2,3,4)            180.0            estimate D2E/DX2                !
 ! D12   D(8,2,3,12)             0.0            estimate D2E/DX2                !
 ! D13   D(2,3,4,5)              0.0            estimate D2E/DX2                !
 ! D14   D(2,3,4,9)            180.0            estimate D2E/DX2                !
 ! D15   D(12,3,4,5)          -180.0            estimate D2E/DX2                !
 ! D16   D(12,3,4,9)             0.0            estimate D2E/DX2                !
 ! D17   D(3,4,5,6)              0.0            estimate D2E/DX2                !
 ! D18   D(3,4,5,10)           180.0            estimate D2E/DX2                !
 ! D19   D(9,4,5,6)            180.0            estimate D2E/DX2                !
 ! D20   D(9,4,5,10)             0.0            estimate D2E/DX2                !
 ! D21   D(4,5,6,1)              0.0            estimate D2E/DX2                !
 ! D22   D(4,5,6,11)           180.0            estimate D2E/DX2                !
 ! D23   D(10,5,6,1)           180.0            estimate D2E/DX2                !
 ! D24   D(10,5,6,11)            0.0            estimate D2E/DX2                !
 --------------------------------------------------------------------------------
 Trust Radius=3.00D-01 FncErr=1.00D-07 GrdErr=1.00D-06 EigMax=2.50D+02 EigMin=1.00D-04
 Number of steps in this run=     70 maximum allowed number of steps=    100.
 GradGradGradGradGradGradGradGradGradGradGradGradGradGradGradGradGradGrad

                          Input orientation:                          
 ---------------------------------------------------------------------
 Center     Atomic      Atomic             Coordinates (Angstroms)
 Number     Number       Type             X           Y           Z
 ---------------------------------------------------------------------
      1          6           0       -1.432861    1.210555    0.000000
      2          6           0       -0.038148    1.215903    0.000000
      3          6           0        0.671969   -0.000001    0.000000
      4          6           0       -0.038150   -1.215903    0.000000
      5          6           0       -1.432862   -1.210554    0.000000
      6          6           0       -2.133613    0.000001    0.000000
      7          1           0       -1.973594    2.153405    0.000000
      8          1           0        0.510313    2.153105    0.000000
      9          1           0        0.510311   -2.153107    0.000000
     10          1           0       -1.973596   -2.153403    0.000000
     11          1           0       -3.220520    0.000001    0.000000
     12          6           0        2.106015   -0.000002   -0.000001
     13          6           0        3.322164    0.000001    0.000001
     14          1           0        4.392164    0.000004    0.000003
 ---------------------------------------------------------------------
                    Distance matrix (angstroms):
                    1          2          3          4          5
     1  C    0.000000
     2  C    1.394723   0.000000
     3  C    2.428118   1.408080   0.000000
     4  C    2.798735   2.431806   1.408079   0.000000
     5  C    2.421109   2.798736   2.428117   1.394722   0.000000
     6  C    1.398747   2.422683   2.805582   2.422682   1.398748
     7  H    1.086903   2.150549   3.411182   3.885638   3.407141
     8  H    2.159705   1.085890   2.159166   3.413360   3.884602
     9  H    3.884603   3.413361   2.159166   1.085892   2.159705
    10  H    3.407141   3.885638   3.411181   2.150548   1.086903
    11  H    2.158973   3.406745   3.892489   3.406744   2.158973
    12  C    3.740199   2.464926   1.434046   2.464926   3.740199
    13  C    4.906700   3.573530   2.650195   3.573532   4.906701
    14  H    5.949483   4.594135   3.720195   4.594139   5.949485
                    6          7          8          9         10
     6  C    0.000000
     7  H    2.159341   0.000000
     8  H    3.409722   2.483907   0.000000
     9  H    3.409723   4.971502   4.306212   0.000000
    10  H    2.159341   4.306808   4.971500   2.483907   0.000000
    11  H    1.086907   2.488368   4.307548   4.307548   2.488367
    12  C    4.239628   4.613065   2.679950   2.679950   4.613064
    13  C    5.455777   5.716835   3.541520   3.541524   5.716837
    14  H    6.525777   6.720120   4.438988   4.438994   6.720124
                   11         12         13         14
    11  H    0.000000
    12  C    5.326535   0.000000
    13  C    6.542684   1.216149   0.000000
    14  H    7.612684   2.286149   1.070000   0.000000
 Stoichiometry    C8H6
 Framework group  C1[X(C8H6)]
 Deg. of freedom    36
 Full point group                 C1      NOp   1
 Largest Abelian subgroup         C1      NOp   1
 Largest concise Abelian subgroup C1      NOp   1
                         Standard orientation:                         
 ---------------------------------------------------------------------
 Center     Atomic      Atomic             Coordinates (Angstroms)
 Number     Number       Type             X           Y           Z
 ---------------------------------------------------------------------
      1          6           0       -1.514197    1.210555    0.000000
      2          6           0       -0.119484    1.215903    0.000000
      3          6           0        0.590633   -0.000001    0.000000
      4          6           0       -0.119486   -1.215903    0.000000
      5          6           0       -1.514198   -1.210554    0.000000
      6          6           0       -2.214949    0.000001    0.000000
      7          1           0       -2.054930    2.153405    0.000000
      8          1           0        0.428977    2.153105    0.000000
      9          1           0        0.428975   -2.153107    0.000000
     10          1           0       -2.054932   -2.153403    0.000000
     11          1           0       -3.301856    0.000001    0.000000
     12          6           0        2.024679   -0.000002   -0.000001
     13          6           0        3.240828    0.000001    0.000001
     14          1           0        4.310828    0.000003    0.000003
 ---------------------------------------------------------------------
 Rotational constants (GHZ):           5.6565620           1.5212842           1.1988608
 Standard basis: 6-31+G(d) (6D, 7F)
 There are   164 symmetry adapted cartesian basis functions of A   symmetry.
 There are   164 symmetry adapted basis functions of A   symmetry.
   164 basis functions,   280 primitive gaussians,   164 cartesian basis functions
    27 alpha electrons       27 beta electrons
       nuclear repulsion energy       297.9555977550 Hartrees.
 NAtoms=   14 NActive=   14 NUniq=   14 SFac= 1.00D+00 NAtFMM=   60 NAOKFM=F Big=F
 Integral buffers will be    131072 words long.
 Raffenetti 2 integral format.
 Two-electron integral symmetry is turned on.
 Nuclear repulsion after empirical dispersion term =      297.9485043743 Hartrees.
 One-electron integrals computed using PRISM.
 NBasis=   164 RedAO= T EigKep=  4.94D-06  NBF=   164
 NBsUse=   163 1.00D-06 EigRej=  3.48D-07 NBFU=   163
 ExpMin= 4.38D-02 ExpMax= 3.05D+03 ExpMxC= 4.57D+02 IAcc=3 IRadAn=         5 AccDes= 0.00D+00
 Harris functional with IExCor=  402 and IRadAn=       5 diagonalized for initial guess.
 HarFok:  IExCor=  402 AccDes= 0.00D+00 IRadAn=         5 IDoV= 1 UseB2=F ITyADJ=14
 ICtDFT=  3500011 ScaDFX=  1.000000  1.000000  1.000000  1.000000
 FoFCou: FMM=F IPFlag=           0 FMFlag=      100000 FMFlg1=           0
         NFxFlg=           0 DoJE=T BraDBF=F KetDBF=T FulRan=T
         wScrn=  0.000000 ICntrl=       500 IOpCl=  0 I1Cent=   200000004 NGrid=           0
         NMat0=    1 NMatS0=      1 NMatT0=    0 NMatD0=    1 NMtDS0=    0 NMtDT0=    0
 Petite list used in FoFCou.
 Requested convergence on RMS density matrix=1.00D-08 within 128 cycles.
 Requested convergence on MAX density matrix=1.00D-06.
 Requested convergence on             energy=1.00D-06.
 No special actions if energy rises.
 SCF Done:  E(RB3LYP) =  -308.414773228     A.U. after   13 cycles
            NFock= 13  Conv=0.83D-08     -V/T= 2.0103

 **********************************************************************

            Population analysis using the SCF Density.

 **********************************************************************

 Orbital symmetries:
       Occupied  (A) (A) (A) (A) (A) (A) (A) (A) (A) (A) (A) (A)
                 (A) (A) (A) (A) (A) (A) (A) (A) (A) (A) (A) (A)
                 (A) (A) (A)
       Virtual   (A) (A) (A) (A) (A) (A) (A) (A) (A) (A) (A) (A)
                 (A) (A) (A) (A) (A) (A) (A) (A) (A) (A) (A) (A)
                 (A) (A) (A) (A) (A) (A) (A) (A) (A) (A) (A) (A)
                 (A) (A) (A) (A) (A) (A) (A) (A) (A) (A) (A) (A)
                 (A) (A) (A) (A) (A) (A) (A) (A) (A) (A) (A) (A)
                 (A) (A) (A) (A) (A) (A) (A) (A) (A) (A) (A) (A)
                 (A) (A) (A) (A) (A) (A) (A) (A) (A) (A) (A) (A)
                 (A) (A) (A) (A) (A) (A) (A) (A) (A) (A) (A) (A)
                 (A) (A) (A) (A) (A) (A) (A) (A) (A) (A) (A) (A)
                 (A) (A) (A) (A) (A) (A) (A) (A) (A) (A) (A) (A)
                 (A) (A) (A) (A) (A) (A) (A) (A) (A) (A) (A) (A)
                 (A) (A) (A) (A)
 The electronic state is 1-A.
 Alpha  occ. eigenvalues --  -10.22832 -10.20884 -10.20883 -10.20746 -10.20664
 Alpha  occ. eigenvalues --  -10.20646 -10.20405 -10.19794  -0.87300  -0.79124
 Alpha  occ. eigenvalues --   -0.76063  -0.73382  -0.63392  -0.61963  -0.55788
 Alpha  occ. eigenvalues --   -0.52301  -0.48729  -0.46655  -0.44561  -0.43576
 Alpha  occ. eigenvalues --   -0.38920  -0.37031  -0.36213  -0.31684  -0.28408
 Alpha  occ. eigenvalues --   -0.26691  -0.24264
 Alpha virt. eigenvalues --   -0.04485  -0.02220   0.00260   0.02028   0.02230
 Alpha virt. eigenvalues --    0.02985   0.03380   0.04894   0.05206   0.05342
 Alpha virt. eigenvalues --    0.05620   0.06965   0.08752   0.08996   0.09187
 Alpha virt. eigenvalues --    0.09565   0.11392   0.12299   0.14021   0.14141
 Alpha virt. eigenvalues --    0.14437   0.14501   0.15137   0.16208   0.16687
 Alpha virt. eigenvalues --    0.16959   0.19478   0.19633   0.20099   0.20450
 Alpha virt. eigenvalues --    0.21030   0.21131   0.22382   0.23175   0.23979
 Alpha virt. eigenvalues --    0.24723   0.26404   0.26834   0.28371   0.28644
 Alpha virt. eigenvalues --    0.29279   0.31385   0.32985   0.34268   0.34633
 Alpha virt. eigenvalues --    0.39001   0.39385   0.55367   0.57861   0.59425
 Alpha virt. eigenvalues --    0.65699   0.67337   0.67680   0.68611   0.70934
 Alpha virt. eigenvalues --    0.71099   0.72013   0.72502   0.73854   0.74860
 Alpha virt. eigenvalues --    0.75005   0.75546   0.78117   0.80845   0.81628
 Alpha virt. eigenvalues --    0.83111   0.85755   0.88475   0.90146   0.92191
 Alpha virt. eigenvalues --    0.92863   0.96250   0.97518   1.00288   1.00649
 Alpha virt. eigenvalues --    1.07659   1.10546   1.12833   1.15531   1.16230
 Alpha virt. eigenvalues --    1.23352   1.23499   1.24432   1.30860   1.31473
 Alpha virt. eigenvalues --    1.34240   1.41686   1.42492   1.43536   1.45268
 Alpha virt. eigenvalues --    1.47713   1.49449   1.55204   1.57625   1.59106
 Alpha virt. eigenvalues --    1.73510   1.77741   1.83835   1.86514   1.90248
 Alpha virt. eigenvalues --    1.91850   1.94246   1.96639   1.98163   2.07031
 Alpha virt. eigenvalues --    2.09520   2.11135   2.14127   2.15553   2.17067
 Alpha virt. eigenvalues --    2.27582   2.28309   2.29214   2.29663   2.45653
 Alpha virt. eigenvalues --    2.50715   2.59063   2.60708   2.63238   2.72581
 Alpha virt. eigenvalues --    2.72893   2.74092   2.74204   2.85743   2.86357
 Alpha virt. eigenvalues --    3.14196   3.31465   3.47880   4.21158   4.23039
 Alpha virt. eigenvalues --    4.23404   4.30225   4.37218   4.38270   4.57419
 Alpha virt. eigenvalues --    4.84295
          Condensed to atoms (all electrons):
               1          2          3          4          5          6
     1  C    6.072116  -0.544624  -0.156958   0.505470  -0.437510   0.594010
     2  C   -0.544624  11.644164  -0.651473  -5.008224   0.505472  -0.117640
     3  C   -0.156958  -0.651473   8.918238  -0.651474  -0.156958  -0.338059
     4  C    0.505470  -5.008224  -0.651474  11.644231  -0.544652  -0.117639
     5  C   -0.437510   0.505472  -0.156958  -0.544652   6.072141   0.594011
     6  C    0.594010  -0.117640  -0.338059  -0.117639   0.594011   5.262661
     7  H    0.291606  -0.007404  -0.009911  -0.009603   0.008944   0.023546
     8  H   -0.037406   0.253443   0.010697   0.042211  -0.010018   0.007794
     9  H   -0.010018   0.042211   0.010697   0.253442  -0.037406   0.007794
    10  H    0.008944  -0.009602  -0.009910  -0.007404   0.291606   0.023545
    11  H   -0.001121   0.008297   0.001315   0.008297  -0.001121   0.275210
    12  C   -0.269286   0.240450  -1.203638   0.240448  -0.269288   0.007017
    13  C    0.089051  -0.231063   0.545813  -0.231098   0.089054  -0.033886
    14  H    0.002091  -0.001886   0.041555  -0.001887   0.002091  -0.000349
               7          8          9         10         11         12
     1  C    0.291606  -0.037406  -0.010018   0.008944  -0.001121  -0.269286
     2  C   -0.007404   0.253443   0.042211  -0.009602   0.008297   0.240450
     3  C   -0.009911   0.010697   0.010697  -0.009910   0.001315  -1.203638
     4  C   -0.009603   0.042211   0.253442  -0.007404   0.008297   0.240448
     5  C    0.008944  -0.010018  -0.037406   0.291606  -0.001121  -0.269288
     6  C    0.023546   0.007794   0.007794   0.023545   0.275210   0.007017
     7  H    0.532053  -0.004626   0.000016  -0.000160  -0.004797  -0.003362
     8  H   -0.004626   0.525006  -0.000143   0.000016  -0.000142   0.026691
     9  H    0.000016  -0.000143   0.525006  -0.004626  -0.000142   0.026692
    10  H   -0.000160   0.000016  -0.004626   0.532053  -0.004797  -0.003362
    11  H   -0.004797  -0.000142  -0.000142  -0.004797   0.535322   0.002061
    12  C   -0.003362   0.026691   0.026692  -0.003362   0.002061   7.657430
    13  C   -0.000203  -0.008115  -0.008115  -0.000203  -0.000379  -0.460891
    14  H    0.000000   0.000003   0.000003   0.000000   0.000000  -0.174803
              13         14
     1  C    0.089051   0.002091
     2  C   -0.231063  -0.001886
     3  C    0.545813   0.041555
     4  C   -0.231098  -0.001887
     5  C    0.089054   0.002091
     6  C   -0.033886  -0.000349
     7  H   -0.000203   0.000000
     8  H   -0.008115   0.000003
     9  H   -0.008115   0.000003
    10  H   -0.000203   0.000000
    11  H   -0.000379   0.000000
    12  C   -0.460891  -0.174803
    13  C    6.139026   0.494070
    14  H    0.494070   0.383948
 Mulliken charges:
               1
     1  C   -0.106367
     2  C   -0.122122
     3  C   -0.349934
     4  C   -0.122120
     5  C   -0.106367
     6  C   -0.188016
     7  H    0.183902
     8  H    0.194590
     9  H    0.194590
    10  H    0.183902
    11  H    0.181999
    12  C    0.183842
    13  C   -0.383062
    14  H    0.255163
 Sum of Mulliken charges =   0.00000
 Mulliken charges with hydrogens summed into heavy atoms:
               1
     1  C    0.077535
     2  C    0.072468
     3  C   -0.349934
     4  C    0.072470
     5  C    0.077535
     6  C   -0.006017
    12  C    0.183842
    13  C   -0.127899
 Electronic spatial extent (au):  <R**2>=            952.6726
 Charge=              0.0000 electrons
 Dipole moment (field-independent basis, Debye):
    X=             -0.7219    Y=              0.0000    Z=              0.0000  Tot=              0.7219
 Quadrupole moment (field-independent basis, Debye-Ang):
   XX=            -38.8740   YY=            -42.8533   ZZ=            -51.6887
   XY=              0.0000   XZ=              0.0000   YZ=              0.0000
 Traceless Quadrupole moment (field-independent basis, Debye-Ang):
   XX=              5.5980   YY=              1.6187   ZZ=             -7.2167
   XY=              0.0000   XZ=              0.0000   YZ=              0.0000
 Octapole moment (field-independent basis, Debye-Ang**2):
  XXX=             19.4829  YYY=              0.0000  ZZZ=              0.0000  XYY=             -8.0794
  XXY=              0.0001  XXZ=              0.0001  XZZ=             -1.1739  YZZ=              0.0000
  YYZ=              0.0000  XYZ=              0.0000
 Hexadecapole moment (field-independent basis, Debye-Ang**3):
 XXXX=           -746.7743 YYYY=           -289.2202 ZZZZ=            -65.7558 XXXY=              0.0004
 XXXZ=              0.0002 YYYX=              0.0000 YYYZ=              0.0000 ZZZX=              0.0000
 ZZZY=              0.0000 XXYY=           -219.3731 XXZZ=           -199.0656 YYZZ=            -70.5796
 XXYZ=              0.0000 YYXZ=              0.0000 ZZXY=              0.0000
 N-N= 2.979485043743D+02 E-N=-1.309067821908D+03  KE= 3.052819606483D+02
 Evaluate density.
 Using the total density.
 Monte-Carlo method of calculating molar volume:
 based on  0.001 e/bohr**3 density envelope.
 Number of points per bohr**3 =   20 CutOff= 1.00D-04
 Using the SCF density.
 There are       349 points.  Will hold       349 in memory.
 LenV=  4026446148 MDV=  4026531840.
 Box volume = 5355.991 fraction occupied=0.215
 Integrated density= 4.4318645582249729D+01 error=-9.6813544177502706D+00
 Molar volume = 1151.001 bohr**3/mol (102.714 cm**3/mol)
 Recommended a0 for SCRF calculation =  4.29 angstrom (  8.10 bohr)
 Calling FoFJK, ICntrl=      2127 FMM=F ISym2X=0 I1Cent= 0 IOpClX= 0 NMat=1 NMatS=1 NMatT=0.
 ***** Axes restored to original set *****
 -------------------------------------------------------------------
 Center     Atomic                   Forces (Hartrees/Bohr)
 Number     Number              X              Y              Z
 -------------------------------------------------------------------
      1        6           0.000097761    0.000300563    0.000000017
      2        6          -0.000942009   -0.000375713    0.000000002
      3        6           0.004277825    0.000000460   -0.000000150
      4        6          -0.000940839    0.000374085    0.000000002
      5        6           0.000097052   -0.000300088    0.000000017
      6        6          -0.000323556   -0.000000214   -0.000000003
      7        1          -0.000084843   -0.000022500    0.000000001
      8        1           0.000077971   -0.000016505   -0.000000008
      9        1           0.000077360    0.000017469   -0.000000008
     10        1          -0.000084951    0.000022282    0.000000001
     11        1           0.000012415    0.000000055   -0.000000003
     12        6           0.005911889    0.000000202    0.000000225
     13        6          -0.006176108   -0.000000053   -0.000000060
     14        1          -0.001999966   -0.000000044   -0.000000033
 -------------------------------------------------------------------
 Cartesian Forces:  Max     0.006176108 RMS     0.001525812

 GradGradGradGradGradGradGradGradGradGradGradGradGradGradGradGradGradGrad
 Berny optimization.
 FormGI is forming the generalized inverse of G from B-inverse, IUseBI=4.
 Internal  Forces:  Max     0.008176074 RMS     0.001147199
 Search for a local minimum.
 Step number   1 out of a maximum of   70
 All quantities printed in internal units (Hartrees-Bohrs-Radians)
 Mixed Optimization -- RFO/linear search
 Second derivative matrix not updated -- first step.
 ITU=  0
     Eigenvalues ---    0.00499   0.00499   0.01982   0.02014   0.02061
     Eigenvalues ---    0.02076   0.02105   0.02110   0.02121   0.02133
     Eigenvalues ---    0.02137   0.04521   0.04521   0.16000   0.16000
     Eigenvalues ---    0.16000   0.16000   0.16000   0.22000   0.22000
     Eigenvalues ---    0.23477   0.25000   0.35173   0.35173   0.35173
     Eigenvalues ---    0.35292   0.35292   0.37230   0.40413   0.41083
     Eigenvalues ---    0.41604   0.44796   0.45186   0.45995   0.46506
     Eigenvalues ---    0.97110
 RFO step:  Lambda=-1.04107652D-04 EMin= 4.99391781D-03
 Linear search not attempted -- first point.
 Iteration  1 RMS(Cart)=  0.00218341 RMS(Int)=  0.00000104
 Iteration  2 RMS(Cart)=  0.00000147 RMS(Int)=  0.00000033
 Iteration  3 RMS(Cart)=  0.00000000 RMS(Int)=  0.00000033
 Variable       Old X    -DE/DX   Delta X   Delta X   Delta X     New X
                                 (Linear)    (Quad)   (Total)
    R1        2.63564   0.00014   0.00000   0.00030   0.00030   2.63595
    R2        2.64325   0.00005   0.00000   0.00010   0.00010   2.64335
    R3        2.05395   0.00002   0.00000   0.00006   0.00006   2.05401
    R4        2.66089   0.00044   0.00000   0.00100   0.00100   2.66188
    R5        2.05203   0.00003   0.00000   0.00007   0.00007   2.05211
    R6        2.66088   0.00044   0.00000   0.00100   0.00100   2.66188
    R7        2.70995  -0.00226   0.00000  -0.00560  -0.00560   2.70435
    R8        2.63564   0.00014   0.00000   0.00031   0.00031   2.63595
    R9        2.05204   0.00002   0.00000   0.00007   0.00007   2.05211
   R10        2.64325   0.00005   0.00000   0.00010   0.00010   2.64335
   R11        2.05395   0.00002   0.00000   0.00007   0.00007   2.05401
   R12        2.05396  -0.00001   0.00000  -0.00004  -0.00004   2.05392
   R13        2.29819  -0.00818   0.00000  -0.00842  -0.00842   2.28977
   R14        2.02201  -0.00200   0.00000  -0.00537  -0.00537   2.01664
    A1        2.09937   0.00002   0.00000   0.00000   0.00000   2.09937
    A2        2.08767   0.00008   0.00000   0.00054   0.00054   2.08822
    A3        2.09614  -0.00010   0.00000  -0.00054  -0.00054   2.09560
    A4        2.09555   0.00057   0.00000   0.00250   0.00250   2.09805
    A5        2.10411  -0.00021   0.00000  -0.00077  -0.00077   2.10334
    A6        2.08353  -0.00036   0.00000  -0.00174  -0.00174   2.08179
    A7        2.08441  -0.00099   0.00000  -0.00403  -0.00403   2.08038
    A8        2.09939   0.00049   0.00000   0.00201   0.00201   2.10140
    A9        2.09939   0.00049   0.00000   0.00201   0.00201   2.10140
   A10        2.09555   0.00057   0.00000   0.00250   0.00250   2.09805
   A11        2.08353  -0.00036   0.00000  -0.00173  -0.00173   2.08179
   A12        2.10410  -0.00021   0.00000  -0.00077  -0.00077   2.10334
   A13        2.09937   0.00002   0.00000   0.00000   0.00000   2.09937
   A14        2.08768   0.00008   0.00000   0.00054   0.00054   2.08822
   A15        2.09614  -0.00010   0.00000  -0.00054  -0.00054   2.09560
   A16        2.09212  -0.00019   0.00000  -0.00097  -0.00097   2.09115
   A17        2.09553   0.00010   0.00000   0.00048   0.00049   2.09602
   A18        2.09553   0.00010   0.00000   0.00049   0.00049   2.09602
   A19        3.14159   0.00000   0.00000   0.00001   0.00001   3.14160
   A20        3.14159   0.00000   0.00000   0.00002   0.00002   3.14161
   A21        3.14159   0.00000   0.00000   0.00000   0.00000   3.14159
   A22        3.14159   0.00000   0.00000   0.00001   0.00001   3.14160
    D1        0.00000   0.00000   0.00000   0.00000   0.00000   0.00000
    D2        3.14159   0.00000   0.00000   0.00000   0.00000  -3.14159
    D3        3.14159   0.00000   0.00000   0.00000   0.00000   3.14159
    D4        0.00000   0.00000   0.00000   0.00000   0.00000   0.00000
    D5        0.00000   0.00000   0.00000   0.00000   0.00000   0.00000
    D6        3.14159   0.00000   0.00000   0.00000   0.00000  -3.14159
    D7        3.14159   0.00000   0.00000   0.00000   0.00000  -3.14159
    D8        0.00000   0.00000   0.00000   0.00000   0.00000   0.00000
    D9        0.00000   0.00000   0.00000   0.00000   0.00000   0.00000
   D10        3.14159   0.00000   0.00000   0.00000   0.00000  -3.14159
   D11        3.14159   0.00000   0.00000   0.00000   0.00000   3.14159
   D12        0.00000   0.00000   0.00000   0.00000   0.00000   0.00000
   D13        0.00000   0.00000   0.00000   0.00000   0.00000   0.00000
   D14        3.14159   0.00000   0.00000   0.00000   0.00000  -3.14159
   D15       -3.14159   0.00000   0.00000   0.00000   0.00000   3.14159
   D16        0.00000   0.00000   0.00000   0.00000   0.00000   0.00000
   D17        0.00000   0.00000   0.00000   0.00000   0.00000   0.00000
   D18        3.14159   0.00000   0.00000   0.00000   0.00000  -3.14159
   D19        3.14159   0.00000   0.00000   0.00000   0.00000   3.14159
   D20        0.00000   0.00000   0.00000   0.00000   0.00000   0.00000
   D21        0.00000   0.00000   0.00000   0.00000   0.00000   0.00000
   D22        3.14159   0.00000   0.00000   0.00000   0.00000   3.14159
   D23        3.14159   0.00000   0.00000   0.00000   0.00000   3.14159
   D24        0.00000   0.00000   0.00000   0.00000   0.00000   0.00000
         Item               Value     Threshold  Converged?
 Maximum Force            0.008176     0.000450     NO 
 RMS     Force            0.001147     0.000300     NO 
 Maximum Displacement     0.012559     0.001800     NO 
 RMS     Displacement     0.002184     0.001200     NO 
 Predicted change in Energy=-5.206318D-05
 GradGradGradGradGradGradGradGradGradGradGradGradGradGradGradGradGradGrad

                          Input orientation:                          
 ---------------------------------------------------------------------
 Center     Atomic      Atomic             Coordinates (Angstroms)
 Number     Number       Type             X           Y           Z
 ---------------------------------------------------------------------
      1          6           0       -1.432126    1.210259    0.000000
      2          6           0       -0.037250    1.214929    0.000001
      3          6           0        0.675584    0.000003    0.000001
      4          6           0       -0.037248   -1.214925    0.000001
      5          6           0       -1.432124   -1.210258    0.000000
      6          6           0       -2.133490    0.000000   -0.000001
      7          1           0       -1.972932    2.153107   -0.000001
      8          1           0        0.510968    2.152317    0.000001
      9          1           0        0.510972   -2.152312    0.000001
     10          1           0       -1.972927   -2.153107   -0.000001
     11          1           0       -3.220379   -0.000001   -0.000001
     12          6           0        2.106666    0.000005    0.000002
     13          6           0        3.318360    0.000003    0.000002
     14          1           0        4.385518   -0.000014   -0.000002
 ---------------------------------------------------------------------
                    Distance matrix (angstroms):
                    1          2          3          4          5
     1  C    0.000000
     2  C    1.394884   0.000000
     3  C    2.430465   1.408608   0.000000
     4  C    2.797714   2.429854   1.408608   0.000000
     5  C    2.420516   2.797714   2.430465   1.394884   0.000000
     6  C    1.398799   2.422865   2.809074   2.422865   1.398799
     7  H    1.086937   2.151056   3.413281   3.884650   3.406566
     8  H    2.159418   1.085928   2.158600   3.411577   3.883621
     9  H    3.883621   3.411577   2.158600   1.085928   2.159418
    10  H    3.406566   3.884651   3.413282   2.151056   1.086937
    11  H    2.159300   3.407105   3.895962   3.407105   2.159300
    12  C    3.740022   2.464227   1.431082   2.464228   3.740022
    13  C    4.902228   3.568776   2.642776   3.568775   4.902227
    14  H    5.942200   4.586607   3.709934   4.586596   5.942192
                    6          7          8          9         10
     6  C    0.000000
     7  H    2.159085   0.000000
     8  H    3.409637   2.483899   0.000000
     9  H    3.409637   4.970554   4.304628   0.000000
    10  H    2.159085   4.306213   4.970554   2.483900   0.000000
    11  H    1.086888   2.488373   4.307600   4.307600   2.488372
    12  C    4.240156   4.612913   2.679310   2.679310   4.612913
    13  C    5.451850   5.712584   3.537500   3.537497   5.712583
    14  H    6.519008   6.713107   4.432231   4.432210   6.713094
                   11         12         13         14
    11  H    0.000000
    12  C    5.327044   0.000000
    13  C    6.538738   1.211694   0.000000
    14  H    7.605897   2.278852   1.067158   0.000000
 Stoichiometry    C8H6
 Framework group  C1[X(C8H6)]
 Deg. of freedom    36
 Full point group                 C1      NOp   1
 Largest Abelian subgroup         C1      NOp   1
 Largest concise Abelian subgroup C1      NOp   1
                         Standard orientation:                         
 ---------------------------------------------------------------------
 Center     Atomic      Atomic             Coordinates (Angstroms)
 Number     Number       Type             X           Y           Z
 ---------------------------------------------------------------------
      1          6           0       -1.513820    1.210257   -0.000001
      2          6           0       -0.118943    1.214927    0.000000
      3          6           0        0.593890    0.000001    0.000000
      4          6           0       -0.118941   -1.214926    0.000000
      5          6           0       -1.513817   -1.210259   -0.000001
      6          6           0       -2.215184   -0.000001   -0.000001
      7          1           0       -2.054625    2.153105   -0.000001
      8          1           0        0.429274    2.152315    0.000000
      9          1           0        0.429278   -2.152313    0.000000
     10          1           0       -2.054621   -2.153108   -0.000001
     11          1           0       -3.302072   -0.000003   -0.000002
     12          6           0        2.024972    0.000003    0.000002
     13          6           0        3.236666    0.000001    0.000002
     14          1           0        4.303825   -0.000016   -0.000003
 ---------------------------------------------------------------------
 Rotational constants (GHZ):           5.6618612           1.5228554           1.2000746
 Standard basis: 6-31+G(d) (6D, 7F)
 There are   164 symmetry adapted cartesian basis functions of A   symmetry.
 There are   164 symmetry adapted basis functions of A   symmetry.
   164 basis functions,   280 primitive gaussians,   164 cartesian basis functions
    27 alpha electrons       27 beta electrons
       nuclear repulsion energy       298.0864136671 Hartrees.
 NAtoms=   14 NActive=   14 NUniq=   14 SFac= 1.00D+00 NAtFMM=   60 NAOKFM=F Big=F
 Integral buffers will be    131072 words long.
 Raffenetti 2 integral format.
 Two-electron integral symmetry is turned on.
 Nuclear repulsion after empirical dispersion term =      298.0793182517 Hartrees.
 One-electron integrals computed using PRISM.
 NBasis=   164 RedAO= T EigKep=  4.90D-06  NBF=   164
 NBsUse=   163 1.00D-06 EigRej=  3.40D-07 NBFU=   163
 Initial guess from the checkpoint file:  "molecule_1.chk"
 B after Tr=     0.000000    0.000000    0.000000
         Rot=    1.000000    0.000000    0.000000    0.000000 Ang=   0.00 deg.
 Requested convergence on RMS density matrix=1.00D-08 within 128 cycles.
 Requested convergence on MAX density matrix=1.00D-06.
 Requested convergence on             energy=1.00D-06.
 No special actions if energy rises.
 SCF Done:  E(RB3LYP) =  -308.414823748     A.U. after   10 cycles
            NFock= 10  Conv=0.94D-08     -V/T= 2.0102
 Calling FoFJK, ICntrl=      2127 FMM=F ISym2X=0 I1Cent= 0 IOpClX= 0 NMat=1 NMatS=1 NMatT=0.
 ***** Axes restored to original set *****
 -------------------------------------------------------------------
 Center     Atomic                   Forces (Hartrees/Bohr)
 Number     Number              X              Y              Z
 -------------------------------------------------------------------
      1        6           0.000176695    0.000111931   -0.000000020
      2        6          -0.000478527   -0.000121208    0.000000010
      3        6           0.000852094    0.000000395    0.000000122
      4        6          -0.000478281    0.000121049    0.000000010
      5        6           0.000176593   -0.000111724   -0.000000019
      6        6          -0.000054633   -0.000000097    0.000000008
      7        1           0.000027163    0.000004070   -0.000000002
      8        1           0.000018909    0.000067863    0.000000001
      9        1           0.000018902   -0.000067869    0.000000001
     10        1           0.000027202   -0.000004083   -0.000000002
     11        1           0.000009173    0.000000015    0.000000004
     12        6          -0.001144322   -0.000000210   -0.000000111
     13        6           0.000682028   -0.000000569   -0.000000112
     14        1           0.000167005    0.000000438    0.000000110
 -------------------------------------------------------------------
 Cartesian Forces:  Max     0.001144322 RMS     0.000272449

 GradGradGradGradGradGradGradGradGradGradGradGradGradGradGradGradGradGrad
 Berny optimization.
 Using GEDIIS/GDIIS optimizer.
 FormGI is forming the generalized inverse of G from B-inverse, IUseBI=4.
 Internal  Forces:  Max     0.000849032 RMS     0.000138143
 Search for a local minimum.
 Step number   2 out of a maximum of   70
 All quantities printed in internal units (Hartrees-Bohrs-Radians)
 Mixed Optimization -- En-DIIS/RFO-DIIS
 Update second derivatives using D2CorX and points    1    2
 DE= -5.05D-05 DEPred=-5.21D-05 R= 9.70D-01
 TightC=F SS=  1.41D+00  RLast= 1.34D-02 DXNew= 5.0454D-01 4.0243D-02
 Trust test= 9.70D-01 RLast= 1.34D-02 DXMaxT set to 3.00D-01
 ITU=  1  0
 Use linear search instead of GDIIS.
     Eigenvalues ---    0.00499   0.00499   0.01982   0.02014   0.02061
     Eigenvalues ---    0.02076   0.02105   0.02110   0.02121   0.02133
     Eigenvalues ---    0.02137   0.04521   0.04521   0.16000   0.16000
     Eigenvalues ---    0.16000   0.16000   0.16024   0.21956   0.22000
     Eigenvalues ---    0.22199   0.25000   0.35172   0.35173   0.35173
     Eigenvalues ---    0.35264   0.35292   0.37565   0.39084   0.41065
     Eigenvalues ---    0.41594   0.44798   0.45106   0.45995   0.46628
     Eigenvalues ---    1.08921
 RFO step:  Lambda=-1.84104640D-06 EMin= 4.99391778D-03
 Quartic linear search produced a step of -0.03219.
 Iteration  1 RMS(Cart)=  0.00032688 RMS(Int)=  0.00000008
 Iteration  2 RMS(Cart)=  0.00000012 RMS(Int)=  0.00000002
 Variable       Old X    -DE/DX   Delta X   Delta X   Delta X     New X
                                 (Linear)    (Quad)   (Total)
    R1        2.63595  -0.00018  -0.00001  -0.00036  -0.00037   2.63558
    R2        2.64335   0.00004   0.00000   0.00008   0.00008   2.64343
    R3        2.05401  -0.00001   0.00000  -0.00002  -0.00003   2.05399
    R4        2.66188   0.00017  -0.00003   0.00042   0.00039   2.66227
    R5        2.05211   0.00007   0.00000   0.00019   0.00019   2.05229
    R6        2.66188   0.00017  -0.00003   0.00042   0.00039   2.66227
    R7        2.70435  -0.00030   0.00018  -0.00099  -0.00081   2.70354
    R8        2.63595  -0.00018  -0.00001  -0.00036  -0.00037   2.63558
    R9        2.05211   0.00007   0.00000   0.00019   0.00019   2.05229
   R10        2.64335   0.00004   0.00000   0.00008   0.00008   2.64343
   R11        2.05401  -0.00001   0.00000  -0.00002  -0.00003   2.05399
   R12        2.05392  -0.00001   0.00000  -0.00003  -0.00003   2.05390
   R13        2.28977   0.00085   0.00027   0.00042   0.00070   2.29047
   R14        2.01664   0.00017   0.00017   0.00016   0.00034   2.01697
    A1        2.09937   0.00000   0.00000  -0.00005  -0.00005   2.09932
    A2        2.08822  -0.00002  -0.00002  -0.00011  -0.00013   2.08809
    A3        2.09560   0.00003   0.00002   0.00015   0.00017   2.09577
    A4        2.09805   0.00015  -0.00008   0.00076   0.00068   2.09874
    A5        2.10334  -0.00009   0.00002  -0.00047  -0.00044   2.10289
    A6        2.08179  -0.00006   0.00006  -0.00030  -0.00024   2.08155
    A7        2.08038  -0.00026   0.00013  -0.00123  -0.00110   2.07929
    A8        2.10140   0.00013  -0.00006   0.00061   0.00055   2.10195
    A9        2.10140   0.00013  -0.00006   0.00061   0.00055   2.10195
   A10        2.09805   0.00015  -0.00008   0.00076   0.00068   2.09874
   A11        2.08179  -0.00006   0.00006  -0.00030  -0.00024   2.08155
   A12        2.10334  -0.00009   0.00002  -0.00047  -0.00044   2.10289
   A13        2.09937   0.00000   0.00000  -0.00005  -0.00005   2.09932
   A14        2.08822  -0.00002  -0.00002  -0.00011  -0.00013   2.08809
   A15        2.09560   0.00003   0.00002   0.00015   0.00017   2.09577
   A16        2.09115  -0.00003   0.00003  -0.00021  -0.00018   2.09097
   A17        2.09602   0.00001  -0.00002   0.00010   0.00009   2.09611
   A18        2.09602   0.00001  -0.00002   0.00010   0.00009   2.09611
   A19        3.14160   0.00000   0.00000  -0.00001  -0.00001   3.14158
   A20        3.14161   0.00000   0.00000  -0.00017  -0.00017   3.14144
   A21        3.14159   0.00000   0.00000   0.00000   0.00000   3.14159
   A22        3.14160   0.00000   0.00000  -0.00003  -0.00003   3.14157
    D1        0.00000   0.00000   0.00000   0.00000   0.00000   0.00000
    D2       -3.14159   0.00000   0.00000   0.00000   0.00000   3.14159
    D3        3.14159   0.00000   0.00000   0.00000   0.00000  -3.14159
    D4        0.00000   0.00000   0.00000   0.00000   0.00000   0.00000
    D5        0.00000   0.00000   0.00000   0.00000   0.00000   0.00000
    D6       -3.14159   0.00000   0.00000   0.00000   0.00000   3.14159
    D7       -3.14159   0.00000   0.00000   0.00000   0.00000   3.14159
    D8        0.00000   0.00000   0.00000   0.00000   0.00000   0.00000
    D9        0.00000   0.00000   0.00000   0.00000   0.00000   0.00000
   D10       -3.14159   0.00000   0.00000   0.00000   0.00000   3.14159
   D11        3.14159   0.00000   0.00000   0.00000   0.00000  -3.14159
   D12        0.00000   0.00000   0.00000   0.00000   0.00000   0.00000
   D13        0.00000   0.00000   0.00000   0.00000   0.00000   0.00000
   D14       -3.14159   0.00000   0.00000   0.00000   0.00000   3.14159
   D15        3.14159   0.00000   0.00000   0.00000   0.00000  -3.14159
   D16        0.00000   0.00000   0.00000   0.00000   0.00000   0.00000
   D17        0.00000   0.00000   0.00000   0.00000   0.00000   0.00000
   D18       -3.14159   0.00000   0.00000   0.00000   0.00000   3.14159
   D19        3.14159   0.00000   0.00000   0.00000   0.00000  -3.14159
   D20        0.00000   0.00000   0.00000   0.00000   0.00000   0.00000
   D21        0.00000   0.00000   0.00000   0.00000   0.00000   0.00000
   D22        3.14159   0.00000   0.00000   0.00000   0.00000  -3.14159
   D23        3.14159   0.00000   0.00000   0.00000   0.00000  -3.14159
   D24        0.00000   0.00000   0.00000   0.00000   0.00000   0.00000
         Item               Value     Threshold  Converged?
 Maximum Force            0.000849     0.000450     NO 
 RMS     Force            0.000138     0.000300     YES
 Maximum Displacement     0.001183     0.001800     YES
 RMS     Displacement     0.000327     0.001200     YES
 Predicted change in Energy=-9.742362D-07
 GradGradGradGradGradGradGradGradGradGradGradGradGradGradGradGradGradGrad

                          Input orientation:                          
 ---------------------------------------------------------------------
 Center     Atomic      Atomic             Coordinates (Angstroms)
 Number     Number       Type             X           Y           Z
 ---------------------------------------------------------------------
      1          6           0       -1.432179    1.210233    0.000000
      2          6           0       -0.037499    1.214698   -0.000001
      3          6           0        0.676092   -0.000021   -0.000002
      4          6           0       -0.037523   -1.214726   -0.000001
      5          6           0       -1.432203   -1.210233    0.000000
      6          6           0       -2.133685    0.000007    0.000001
      7          1           0       -1.972721    2.153216    0.000001
      8          1           0        0.510490    2.152335   -0.000001
      9          1           0        0.510446   -2.152375   -0.000001
     10          1           0       -1.972765   -2.153204    0.000001
     11          1           0       -3.220560    0.000018    0.000002
     12          6           0        2.106746   -0.000036   -0.000003
     13          6           0        3.318808   -0.000037   -0.000003
     14          1           0        4.386144    0.000129    0.000010
 ---------------------------------------------------------------------
                    Distance matrix (angstroms):
                    1          2          3          4          5
     1  C    0.000000
     2  C    1.394687   0.000000
     3  C    2.430951   1.408813   0.000000
     4  C    2.797408   2.429425   1.408813   0.000000
     5  C    2.420465   2.797408   2.430951   1.394687   0.000000
     6  C    1.398841   2.422699   2.809777   2.422699   1.398841
     7  H    1.086923   2.150791   3.413596   3.884330   3.406603
     8  H    2.159055   1.086027   2.158718   3.411367   3.883416
     9  H    3.883416   3.411367   2.158718   1.086027   2.159055
    10  H    3.406603   3.884330   3.413596   2.150790   1.086923
    11  H    2.159381   3.406952   3.896652   3.406953   2.159381
    12  C    3.740152   2.464420   1.430654   2.464419   3.740152
    13  C    4.902716   3.569366   2.642716   3.569374   4.902722
    14  H    5.942830   4.587351   3.710052   4.587451   5.942907
                    6          7          8          9         10
     6  C    0.000000
     7  H    2.159216   0.000000
     8  H    3.409425   2.483211   0.000000
     9  H    3.409425   4.970335   4.304710   0.000000
    10  H    2.159216   4.306420   4.970335   2.483211   0.000000
    11  H    1.086875   2.488646   4.307343   4.307343   2.488646
    12  C    4.240431   4.612867   2.679689   2.679689   4.612867
    13  C    5.452493   5.712860   3.538270   3.538284   5.712869
    14  H    6.519829   6.713490   4.433135   4.433318   6.713610
                   11         12         13         14
    11  H    0.000000
    12  C    5.327306   0.000000
    13  C    6.539368   1.212062   0.000000
    14  H    7.606704   2.279398   1.067336   0.000000
 Stoichiometry    C8H6
 Framework group  C1[X(C8H6)]
 Deg. of freedom    36
 Full point group                 C1      NOp   1
 Largest Abelian subgroup         C1      NOp   1
 Largest concise Abelian subgroup C1      NOp   1
                         Standard orientation:                         
 ---------------------------------------------------------------------
 Center     Atomic      Atomic             Coordinates (Angstroms)
 Number     Number       Type             X           Y           Z
 ---------------------------------------------------------------------
      1          6           0       -1.513892    1.210240    0.000001
      2          6           0       -0.119212    1.214708    0.000000
      3          6           0        0.594381   -0.000009   -0.000001
      4          6           0       -0.119231   -1.214716    0.000000
      5          6           0       -1.513911   -1.210226    0.000001
      6          6           0       -2.215396    0.000013    0.000002
      7          1           0       -2.054437    2.153221    0.000001
      8          1           0        0.428774    2.152347   -0.000001
      9          1           0        0.428741   -2.152363   -0.000001
     10          1           0       -2.054470   -2.153199    0.000001
     11          1           0       -3.302270    0.000021    0.000003
     12          6           0        2.025035   -0.000021   -0.000003
     13          6           0        3.237097   -0.000019   -0.000002
     14          1           0        4.304433    0.000150    0.000011
 ---------------------------------------------------------------------
 Rotational constants (GHZ):           5.6626693           1.5225492           1.1999207
 Standard basis: 6-31+G(d) (6D, 7F)
 There are   164 symmetry adapted cartesian basis functions of A   symmetry.
 There are   164 symmetry adapted basis functions of A   symmetry.
   164 basis functions,   280 primitive gaussians,   164 cartesian basis functions
    27 alpha electrons       27 beta electrons
       nuclear repulsion energy       298.0774117302 Hartrees.
 NAtoms=   14 NActive=   14 NUniq=   14 SFac= 1.00D+00 NAtFMM=   60 NAOKFM=F Big=F
 Integral buffers will be    131072 words long.
 Raffenetti 2 integral format.
 Two-electron integral symmetry is turned on.
 Nuclear repulsion after empirical dispersion term =      298.0703167566 Hartrees.
 One-electron integrals computed using PRISM.
 NBasis=   164 RedAO= T EigKep=  4.90D-06  NBF=   164
 NBsUse=   163 1.00D-06 EigRej=  3.40D-07 NBFU=   163
 Initial guess from the checkpoint file:  "molecule_1.chk"
 B after Tr=     0.000000    0.000000    0.000000
         Rot=    1.000000    0.000000    0.000000    0.000002 Ang=   0.00 deg.
 Requested convergence on RMS density matrix=1.00D-08 within 128 cycles.
 Requested convergence on MAX density matrix=1.00D-06.
 Requested convergence on             energy=1.00D-06.
 No special actions if energy rises.
 SCF Done:  E(RB3LYP) =  -308.414824923     A.U. after    9 cycles
            NFock=  9  Conv=0.59D-08     -V/T= 2.0102
 Calling FoFJK, ICntrl=      2127 FMM=F ISym2X=0 I1Cent= 0 IOpClX= 0 NMat=1 NMatS=1 NMatT=0.
 ***** Axes restored to original set *****
 -------------------------------------------------------------------
 Center     Atomic                   Forces (Hartrees/Bohr)
 Number     Number              X              Y              Z
 -------------------------------------------------------------------
      1        6           0.000045137    0.000013569    0.000000027
      2        6          -0.000109905   -0.000023346   -0.000000009
      3        6           0.000212926   -0.000002466   -0.000000233
      4        6          -0.000110756    0.000023558   -0.000000009
      5        6           0.000045015   -0.000013701    0.000000027
      6        6          -0.000033570   -0.000000088   -0.000000010
      7        1           0.000011954    0.000002344    0.000000002
      8        1           0.000005959    0.000017574   -0.000000007
      9        1           0.000005949   -0.000017557   -0.000000007
     10        1           0.000011891   -0.000002342    0.000000002
     11        1           0.000000658    0.000000006   -0.000000004
     12        6          -0.000200351    0.000000751    0.000000179
     13        6           0.000084457    0.000005980    0.000000318
     14        1           0.000030637   -0.000004281   -0.000000278
 -------------------------------------------------------------------
 Cartesian Forces:  Max     0.000212926 RMS     0.000054686

 GradGradGradGradGradGradGradGradGradGradGradGradGradGradGradGradGradGrad
 Berny optimization.
 Using GEDIIS/GDIIS optimizer.
 FormGI is forming the generalized inverse of G from B-inverse, IUseBI=4.
 Internal  Forces:  Max     0.000115093 RMS     0.000025540
 Search for a local minimum.
 Step number   3 out of a maximum of   70
 All quantities printed in internal units (Hartrees-Bohrs-Radians)
 Mixed Optimization -- En-DIIS/RFO-DIIS
 Swapping is turned off.
 Update second derivatives using D2CorX and points    1    2    3
 DE= -1.17D-06 DEPred=-9.74D-07 R= 1.21D+00
 TightC=F SS=  1.41D+00  RLast= 2.31D-03 DXNew= 5.0454D-01 6.9312D-03
 Trust test= 1.21D+00 RLast= 2.31D-03 DXMaxT set to 3.00D-01
 ITU=  1  1  0
     Eigenvalues ---    0.00499   0.00500   0.01982   0.02014   0.02061
     Eigenvalues ---    0.02076   0.02105   0.02110   0.02121   0.02133
     Eigenvalues ---    0.02137   0.04521   0.04521   0.15773   0.16000
     Eigenvalues ---    0.16000   0.16000   0.16007   0.19137   0.22000
     Eigenvalues ---    0.22115   0.25000   0.34981   0.35173   0.35173
     Eigenvalues ---    0.35179   0.35292   0.37287   0.37591   0.41062
     Eigenvalues ---    0.41592   0.44798   0.44858   0.45995   0.46276
     Eigenvalues ---    1.06130
 En-DIIS/RFO-DIIS/Sim-DIIS IScMMF=       -3 using points:     3    2
 RFO step:  Lambda=-1.50644786D-07.
 DidBck=F Rises=F RFO-DIIS coefs:    1.25133   -0.25133
 Iteration  1 RMS(Cart)=  0.00054029 RMS(Int)=  0.00000063
 Iteration  2 RMS(Cart)=  0.00000061 RMS(Int)=  0.00000001
 Variable       Old X    -DE/DX   Delta X   Delta X   Delta X     New X
                                 (Linear)    (Quad)   (Total)
    R1        2.63558  -0.00004  -0.00009  -0.00002  -0.00012   2.63546
    R2        2.64343   0.00001   0.00002   0.00002   0.00004   2.64346
    R3        2.05399   0.00000  -0.00001  -0.00001  -0.00001   2.05397
    R4        2.66227   0.00004   0.00010   0.00002   0.00012   2.66239
    R5        2.05229   0.00002   0.00005   0.00002   0.00007   2.05236
    R6        2.66227   0.00004   0.00010   0.00002   0.00012   2.66239
    R7        2.70354  -0.00009  -0.00020  -0.00011  -0.00032   2.70323
    R8        2.63558  -0.00004  -0.00009  -0.00002  -0.00012   2.63546
    R9        2.05229   0.00002   0.00005   0.00002   0.00007   2.05236
   R10        2.64343   0.00001   0.00002   0.00002   0.00004   2.64346
   R11        2.05399   0.00000  -0.00001  -0.00001  -0.00001   2.05397
   R12        2.05390   0.00000  -0.00001   0.00000   0.00000   2.05389
   R13        2.29047   0.00012   0.00017  -0.00005   0.00012   2.29059
   R14        2.01697   0.00003   0.00008   0.00000   0.00008   2.01706
    A1        2.09932   0.00001  -0.00001   0.00005   0.00004   2.09936
    A2        2.08809  -0.00002  -0.00003  -0.00008  -0.00011   2.08798
    A3        2.09577   0.00001   0.00004   0.00003   0.00008   2.09585
    A4        2.09874   0.00003   0.00017   0.00004   0.00021   2.09895
    A5        2.10289  -0.00002  -0.00011  -0.00003  -0.00014   2.10276
    A6        2.08155  -0.00001  -0.00006  -0.00002  -0.00008   2.08148
    A7        2.07929  -0.00006  -0.00028  -0.00009  -0.00037   2.07892
    A8        2.10195   0.00003   0.00014   0.00004   0.00018   2.10213
    A9        2.10195   0.00003   0.00014   0.00005   0.00019   2.10214
   A10        2.09874   0.00003   0.00017   0.00004   0.00021   2.09895
   A11        2.08155  -0.00001  -0.00006  -0.00002  -0.00008   2.08148
   A12        2.10289  -0.00002  -0.00011  -0.00003  -0.00014   2.10276
   A13        2.09932   0.00001  -0.00001   0.00005   0.00004   2.09936
   A14        2.08809  -0.00002  -0.00003  -0.00008  -0.00011   2.08798
   A15        2.09577   0.00001   0.00004   0.00003   0.00008   2.09585
   A16        2.09097  -0.00002  -0.00004  -0.00009  -0.00014   2.09083
   A17        2.09611   0.00001   0.00002   0.00005   0.00007   2.09618
   A18        2.09611   0.00001   0.00002   0.00005   0.00007   2.09618
   A19        3.14158   0.00000   0.00000   0.00014   0.00013   3.14172
   A20        3.14144   0.00001  -0.00004   0.00225   0.00220   3.14364
   A21        3.14159   0.00000   0.00000   0.00001   0.00001   3.14160
   A22        3.14157   0.00000  -0.00001   0.00009   0.00009   3.14166
    D1        0.00000   0.00000   0.00000   0.00000   0.00000   0.00000
    D2        3.14159   0.00000   0.00000   0.00000   0.00000  -3.14159
    D3       -3.14159   0.00000   0.00000   0.00000   0.00000   3.14159
    D4        0.00000   0.00000   0.00000   0.00000   0.00000   0.00000
    D5        0.00000   0.00000   0.00000   0.00000   0.00000   0.00000
    D6        3.14159   0.00000   0.00000   0.00000   0.00000  -3.14159
    D7        3.14159   0.00000   0.00000   0.00000   0.00000  -3.14159
    D8        0.00000   0.00000   0.00000   0.00000   0.00000   0.00000
    D9        0.00000   0.00000   0.00000   0.00000   0.00000   0.00000
   D10        3.14159   0.00000   0.00000   0.00000   0.00000  -3.14159
   D11       -3.14159   0.00000   0.00000   0.00000   0.00000   3.14159
   D12        0.00000   0.00000   0.00000   0.00000   0.00000   0.00000
   D13        0.00000   0.00000   0.00000   0.00000   0.00000   0.00000
   D14        3.14159   0.00000   0.00000   0.00000   0.00000  -3.14159
   D15       -3.14159   0.00000   0.00000   0.00000   0.00000   3.14159
   D16        0.00000   0.00000   0.00000   0.00000   0.00000   0.00000
   D17        0.00000   0.00000   0.00000   0.00000   0.00000   0.00000
   D18        3.14159   0.00000   0.00000   0.00000   0.00000  -3.14159
   D19       -3.14159   0.00000   0.00000   0.00000   0.00000   3.14159
   D20        0.00000   0.00000   0.00000   0.00000   0.00000   0.00000
   D21        0.00000   0.00000   0.00000   0.00000   0.00000   0.00000
   D22       -3.14159   0.00000   0.00000   0.00000   0.00000   3.14159
   D23       -3.14159   0.00000   0.00000   0.00000   0.00000   3.14159
   D24        0.00000   0.00000   0.00000   0.00000   0.00000   0.00000
         Item               Value     Threshold  Converged?
 Maximum Force            0.000115     0.000450     YES
 RMS     Force            0.000026     0.000300     YES
 Maximum Displacement     0.003433     0.001800     NO 
 RMS     Displacement     0.000540     0.001200     YES
 Predicted change in Energy=-7.532272D-08
 GradGradGradGradGradGradGradGradGradGradGradGradGradGradGradGradGradGrad

                          Input orientation:                          
 ---------------------------------------------------------------------
 Center     Atomic      Atomic             Coordinates (Angstroms)
 Number     Number       Type             X           Y           Z
 ---------------------------------------------------------------------
      1          6           0       -1.432357    1.210205   -0.000002
      2          6           0       -0.037740    1.214823    0.000004
      3          6           0        0.676276    0.000280    0.000007
      4          6           0       -0.037424   -1.214450    0.000004
      5          6           0       -1.432043   -1.210196   -0.000002
      6          6           0       -2.133787   -0.000087   -0.000005
      7          1           0       -1.972892    2.153184   -0.000004
      8          1           0        0.510037    2.152627    0.000007
      9          1           0        0.510597   -2.152111    0.000007
     10          1           0       -1.972332   -2.153315   -0.000004
     11          1           0       -3.220660   -0.000228   -0.000009
     12          6           0        2.106762    0.000473    0.000015
     13          6           0        3.318888    0.000486    0.000014
     14          1           0        4.386266   -0.001687   -0.000031
 ---------------------------------------------------------------------
                    Distance matrix (angstroms):
                    1          2          3          4          5
     1  C    0.000000
     2  C    1.394625   0.000000
     3  C    2.431101   1.408877   0.000000
     4  C    2.797283   2.429273   1.408877   0.000000
     5  C    2.420401   2.797284   2.431102   1.394625   0.000000
     6  C    1.398860   2.422689   2.810063   2.422688   1.398860
     7  H    1.086916   2.150659   3.413661   3.884198   3.406588
     8  H    2.158947   1.086064   2.158758   3.411293   3.883330
     9  H    3.883329   3.411293   2.158758   1.086064   2.158947
    10  H    3.406588   3.884199   3.413663   2.150660   1.086916
    11  H    2.159439   3.406953   3.896936   3.406953   2.159439
    12  C    3.740163   2.464455   1.430487   2.464462   3.740168
    13  C    4.902832   3.569533   2.642612   3.569440   4.902764
    14  H    5.943489   4.588216   3.709990   4.586919   5.942492
                    6          7          8          9         10
     6  C    0.000000
     7  H    2.159273   0.000000
     8  H    3.409396   2.482929   0.000000
     9  H    3.409395   4.970239   4.304738   0.000000
    10  H    2.159273   4.306499   4.970241   2.482929   0.000000
    11  H    1.086873   2.488796   4.307306   4.307306   2.488796
    12  C    4.240550   4.612780   2.679795   2.679806   4.612788
    13  C    5.452676   5.712884   3.538553   3.538386   5.712781
    14  H    6.520053   6.714339   4.434662   4.432283   6.712769
                   11         12         13         14
    11  H    0.000000
    12  C    5.327423   0.000000
    13  C    6.539549   1.212126   0.000000
    14  H    7.606926   2.279504   1.067380   0.000000
 Stoichiometry    C8H6
 Framework group  C1[X(C8H6)]
 Deg. of freedom    36
 Full point group                 C1      NOp   1
 Largest Abelian subgroup         C1      NOp   1
 Largest concise Abelian subgroup C1      NOp   1
                         Standard orientation:                         
 ---------------------------------------------------------------------
 Center     Atomic      Atomic             Coordinates (Angstroms)
 Number     Number       Type             X           Y           Z
 ---------------------------------------------------------------------
      1          6           0       -1.514033    1.210109   -0.000005
      2          6           0       -0.119416    1.214685    0.000001
      3          6           0        0.594564    0.000120    0.000004
      4          6           0       -0.119173   -1.214588    0.000001
      5          6           0       -1.513792   -1.210292   -0.000005
      6          6           0       -2.215500   -0.000162   -0.000008
      7          1           0       -2.054539    2.153103   -0.000007
      8          1           0        0.428389    2.152472    0.000003
      9          1           0        0.428820   -2.152266    0.000003
     10          1           0       -2.054109   -2.153395   -0.000007
     11          1           0       -3.302373   -0.000270   -0.000013
     12          6           0        2.025050    0.000269    0.000012
     13          6           0        3.237176    0.000246    0.000010
     14          1           0        4.304553   -0.001959   -0.000035
 ---------------------------------------------------------------------
 Rotational constants (GHZ):           5.6630382           1.5224734           1.1998902
 Standard basis: 6-31+G(d) (6D, 7F)
 There are   164 symmetry adapted cartesian basis functions of A   symmetry.
 There are   164 symmetry adapted basis functions of A   symmetry.
   164 basis functions,   280 primitive gaussians,   164 cartesian basis functions
    27 alpha electrons       27 beta electrons
       nuclear repulsion energy       298.0763434369 Hartrees.
 NAtoms=   14 NActive=   14 NUniq=   14 SFac= 1.00D+00 NAtFMM=   60 NAOKFM=F Big=F
 Integral buffers will be    131072 words long.
 Raffenetti 2 integral format.
 Two-electron integral symmetry is turned on.
 Nuclear repulsion after empirical dispersion term =      298.0692485533 Hartrees.
 One-electron integrals computed using PRISM.
 NBasis=   164 RedAO= T EigKep=  4.90D-06  NBF=   164
 NBsUse=   163 1.00D-06 EigRej=  3.39D-07 NBFU=   163
 Initial guess from the checkpoint file:  "molecule_1.chk"
 B after Tr=     0.000000    0.000000    0.000000
         Rot=    1.000000    0.000000    0.000002   -0.000024 Ang=   0.00 deg.
 Requested convergence on RMS density matrix=1.00D-08 within 128 cycles.
 Requested convergence on MAX density matrix=1.00D-06.
 Requested convergence on             energy=1.00D-06.
 No special actions if energy rises.
 SCF Done:  E(RB3LYP) =  -308.414824865     A.U. after    9 cycles
            NFock=  9  Conv=0.36D-08     -V/T= 2.0102
 Calling FoFJK, ICntrl=      2127 FMM=F ISym2X=0 I1Cent= 0 IOpClX= 0 NMat=1 NMatS=1 NMatT=0.
 ***** Axes restored to original set *****
 -------------------------------------------------------------------
 Center     Atomic                   Forces (Hartrees/Bohr)
 Number     Number              X              Y              Z
 -------------------------------------------------------------------
      1        6          -0.000002848   -0.000005542   -0.000000088
      2        6           0.000000950    0.000002428    0.000000028
      3        6          -0.000010935    0.000032189    0.000000810
      4        6           0.000012326   -0.000005078    0.000000029
      5        6          -0.000001923    0.000007896   -0.000000088
      6        6          -0.000003958    0.000000536    0.000000026
      7        1           0.000000474    0.000002201   -0.000000006
      8        1          -0.000001358   -0.000001355    0.000000027
      9        1          -0.000001265    0.000000920    0.000000027
     10        1           0.000001356   -0.000002304   -0.000000006
     11        1           0.000001736   -0.000000054    0.000000013
     12        6           0.000013672   -0.000009330   -0.000000624
     13        6          -0.000005245   -0.000078605   -0.000001147
     14        1          -0.000002983    0.000056099    0.000000997
 -------------------------------------------------------------------
 Cartesian Forces:  Max     0.000078605 RMS     0.000016273

 GradGradGradGradGradGradGradGradGradGradGradGradGradGradGradGradGradGrad
 Berny optimization.
 Using GEDIIS/GDIIS optimizer.
 FormGI is forming the generalized inverse of G from B-inverse, IUseBI=4.
 Internal  Forces:  Max     0.000113135 RMS     0.000016888
 Search for a local minimum.
 Step number   4 out of a maximum of   70
 All quantities printed in internal units (Hartrees-Bohrs-Radians)
 Mixed Optimization -- En-DIIS/RFO-DIIS
 Swapping is turned off.
 Update second derivatives using D2CorX and points    1    2    3    4
 DE=  5.74D-08 DEPred=-7.53D-08 R=-7.61D-01
 Trust test=-7.61D-01 RLast= 2.34D-03 DXMaxT set to 1.50D-01
 ITU= -1  1  1  0
     Eigenvalues ---    0.00499   0.01466   0.01982   0.02014   0.02061
     Eigenvalues ---    0.02076   0.02105   0.02110   0.02121   0.02133
     Eigenvalues ---    0.02137   0.04445   0.04522   0.12130   0.16000
     Eigenvalues ---    0.16000   0.16000   0.16006   0.16599   0.22003
     Eigenvalues ---    0.22146   0.25119   0.33886   0.35173   0.35175
     Eigenvalues ---    0.35177   0.35292   0.36018   0.37590   0.41026
     Eigenvalues ---    0.41592   0.44588   0.44804   0.45995   0.46071
     Eigenvalues ---    0.99056
 En-DIIS/RFO-DIIS/Sim-DIIS IScMMF=       -3 using points:     4    3    2
 RFO step:  Lambda=-6.40000415D-07.
 DidBck=T Rises=F RFO-DIIS coefs:    0.12103    1.15154   -0.27257
 Iteration  1 RMS(Cart)=  0.00047810 RMS(Int)=  0.00000051
 Iteration  2 RMS(Cart)=  0.00000050 RMS(Int)=  0.00000001
 Variable       Old X    -DE/DX   Delta X   Delta X   Delta X     New X
                                 (Linear)    (Quad)   (Total)
    R1        2.63546   0.00000   0.00000   0.00001   0.00001   2.63547
    R2        2.64346   0.00000  -0.00001   0.00001   0.00000   2.64346
    R3        2.05397   0.00000   0.00001   0.00000   0.00000   2.05397
    R4        2.66239   0.00000   0.00000  -0.00001  -0.00001   2.66238
    R5        2.05236   0.00000  -0.00001   0.00000  -0.00001   2.05236
    R6        2.66239   0.00000   0.00000  -0.00001  -0.00001   2.66238
    R7        2.70323   0.00001   0.00006  -0.00003   0.00003   2.70325
    R8        2.63546   0.00000   0.00000   0.00001   0.00001   2.63547
    R9        2.05236   0.00000  -0.00001   0.00000  -0.00001   2.05236
   R10        2.64346   0.00000  -0.00001   0.00001   0.00000   2.64346
   R11        2.05397   0.00000   0.00001   0.00000   0.00000   2.05397
   R12        2.05389   0.00000   0.00000   0.00000   0.00000   2.05389
   R13        2.29059  -0.00001   0.00008  -0.00010  -0.00002   2.29057
   R14        2.01706   0.00000   0.00002  -0.00003  -0.00001   2.01705
    A1        2.09936   0.00000  -0.00005   0.00005   0.00000   2.09936
    A2        2.08798   0.00000   0.00007  -0.00006   0.00000   2.08798
    A3        2.09585   0.00000  -0.00002   0.00001   0.00000   2.09584
    A4        2.09895   0.00000   0.00000  -0.00002  -0.00002   2.09893
    A5        2.10276   0.00000   0.00000   0.00001   0.00001   2.10277
    A6        2.08148   0.00000   0.00000   0.00001   0.00001   2.08148
    A7        2.07892   0.00000   0.00002   0.00001   0.00003   2.07895
    A8        2.10213   0.00001  -0.00001  -0.00001  -0.00001   2.10212
    A9        2.10214  -0.00001  -0.00002   0.00000  -0.00002   2.10212
   A10        2.09895   0.00000   0.00000  -0.00002  -0.00002   2.09893
   A11        2.08148   0.00000   0.00000   0.00001   0.00001   2.08148
   A12        2.10276   0.00000   0.00000   0.00001   0.00001   2.10277
   A13        2.09936   0.00000  -0.00005   0.00005   0.00000   2.09936
   A14        2.08798   0.00000   0.00006  -0.00006   0.00000   2.08798
   A15        2.09585   0.00000  -0.00002   0.00001   0.00000   2.09584
   A16        2.09083   0.00000   0.00007  -0.00007   0.00001   2.09084
   A17        2.09618   0.00000  -0.00004   0.00003   0.00000   2.09617
   A18        2.09618   0.00000  -0.00004   0.00003   0.00000   2.09617
   A19        3.14172  -0.00006  -0.00012   0.00000  -0.00012   3.14160
   A20        3.14364  -0.00011  -0.00198  -0.00001  -0.00199   3.14165
   A21        3.14160   0.00000  -0.00001   0.00001   0.00000   3.14160
   A22        3.14166   0.00000  -0.00008   0.00006  -0.00002   3.14164
    D1        0.00000   0.00000   0.00000   0.00000   0.00000   0.00000
    D2       -3.14159   0.00000   0.00000   0.00000   0.00000  -3.14159
    D3        3.14159   0.00000   0.00000   0.00000   0.00000   3.14159
    D4        0.00000   0.00000   0.00000   0.00000   0.00000   0.00000
    D5        0.00000   0.00000   0.00000   0.00000   0.00000   0.00000
    D6       -3.14159   0.00000   0.00000   0.00000   0.00000  -3.14159
    D7       -3.14159   0.00000   0.00000   0.00000   0.00000  -3.14159
    D8        0.00000   0.00000   0.00000   0.00000   0.00000   0.00000
    D9        0.00000   0.00000   0.00000   0.00000   0.00000   0.00000
   D10       -3.14159   0.00000   0.00000   0.00000   0.00000  -3.14159
   D11        3.14159   0.00000   0.00000   0.00000   0.00000   3.14159
   D12        0.00000   0.00000   0.00000   0.00000   0.00000   0.00000
   D13        0.00000   0.00000   0.00000   0.00000   0.00000   0.00000
   D14       -3.14159   0.00000   0.00000   0.00000   0.00000  -3.14159
   D15        3.14159   0.00000   0.00000   0.00000   0.00000   3.14159
   D16        0.00000   0.00000   0.00000   0.00000   0.00000   0.00000
   D17        0.00000   0.00000   0.00000   0.00000   0.00000   0.00000
   D18       -3.14159   0.00000   0.00000   0.00000   0.00000  -3.14159
   D19        3.14159   0.00000   0.00000   0.00000   0.00000   3.14159
   D20        0.00000   0.00000   0.00000   0.00000   0.00000   0.00000
   D21        0.00000   0.00000   0.00000   0.00000   0.00000   0.00000
   D22        3.14159   0.00000   0.00000   0.00000   0.00000   3.14159
   D23        3.14159   0.00000   0.00000   0.00000   0.00000   3.14159
   D24        0.00000   0.00000   0.00000   0.00000   0.00000   0.00000
         Item               Value     Threshold  Converged?
 Maximum Force            0.000113     0.000450     YES
 RMS     Force            0.000017     0.000300     YES
 Maximum Displacement     0.003097     0.001800     NO 
 RMS     Displacement     0.000478     0.001200     YES
 Predicted change in Energy=-1.448205D-07
 GradGradGradGradGradGradGradGradGradGradGradGradGradGradGradGradGradGrad

                          Input orientation:                          
 ---------------------------------------------------------------------
 Center     Atomic      Atomic             Coordinates (Angstroms)
 Number     Number       Type             X           Y           Z
 ---------------------------------------------------------------------
      1          6           0       -1.432203    1.210202   -0.000001
      2          6           0       -0.037579    1.214649    0.000003
      3          6           0        0.676260    0.000008    0.000005
      4          6           0       -0.037571   -1.214637    0.000003
      5          6           0       -1.432194   -1.210201   -0.000001
      6          6           0       -2.133782   -0.000002   -0.000003
      7          1           0       -1.972626    2.153245   -0.000003
      8          1           0        0.510322    2.152376    0.000005
      9          1           0        0.510338   -2.152361    0.000005
     10          1           0       -1.972610   -2.153248   -0.000003
     11          1           0       -3.220655   -0.000006   -0.000006
     12          6           0        2.106760    0.000014    0.000010
     13          6           0        3.318878    0.000014    0.000010
     14          1           0        4.386254   -0.000048   -0.000020
 ---------------------------------------------------------------------
                    Distance matrix (angstroms):
                    1          2          3          4          5
     1  C    0.000000
     2  C    1.394631   0.000000
     3  C    2.431087   1.408871   0.000000
     4  C    2.797293   2.429286   1.408871   0.000000
     5  C    2.420403   2.797293   2.431087   1.394631   0.000000
     6  C    1.398859   2.422693   2.810041   2.422693   1.398859
     7  H    1.086916   2.150667   3.413653   3.884208   3.406587
     8  H    2.158957   1.086061   2.158755   3.411300   3.883336
     9  H    3.883335   3.411300   2.158755   1.086061   2.158957
    10  H    3.406587   3.884208   3.413653   2.150667   1.086916
    11  H    2.159436   3.406957   3.896915   3.406957   2.159436
    12  C    3.740163   2.464454   1.430501   2.464454   3.740163
    13  C    4.902788   3.569474   2.642618   3.569471   4.902786
    14  H    5.942991   4.587569   3.709994   4.587532   5.942963
                    6          7          8          9         10
     6  C    0.000000
     7  H    2.159270   0.000000
     8  H    3.409401   2.482949   0.000000
     9  H    3.409401   4.970247   4.304737   0.000000
    10  H    2.159270   4.306493   4.970247   2.482949   0.000000
    11  H    1.086873   2.488788   4.307312   4.307312   2.488788
    12  C    4.240542   4.612787   2.679791   2.679791   4.612787
    13  C    5.452660   5.712830   3.538453   3.538448   5.712827
    14  H    6.520035   6.713570   4.433483   4.433415   6.713525
                   11         12         13         14
    11  H    0.000000
    12  C    5.327415   0.000000
    13  C    6.539533   1.212118   0.000000
    14  H    7.606908   2.279493   1.067375   0.000000
 Stoichiometry    C8H6
 Framework group  C1[X(C8H6)]
[...]
 ! R13   R(12,13)                1.2121         -DE/DX =    0.0                 !
 ! R14   R(13,14)                1.0674         -DE/DX =    0.0                 !
 ! A1    A(2,1,6)              120.2844         -DE/DX =    0.0                 !
 ! A2    A(2,1,7)              119.6327         -DE/DX =    0.0                 !
 ! A3    A(6,1,7)              120.0829         -DE/DX =    0.0                 !
 ! A4    A(1,2,3)              120.2599         -DE/DX =    0.0                 !
 ! A5    A(1,2,8)              120.4799         -DE/DX =    0.0                 !
 ! A6    A(3,2,8)              119.2602         -DE/DX =    0.0                 !
 ! A7    A(2,3,4)              119.1153         -DE/DX =    0.0                 !
 ! A8    A(2,3,12)             120.4424         -DE/DX =    0.0                 !
 ! A9    A(4,3,12)             120.4424         -DE/DX =    0.0                 !
 ! A10   A(3,4,5)              120.2599         -DE/DX =    0.0                 !
 ! A11   A(3,4,9)              119.2602         -DE/DX =    0.0                 !
 ! A12   A(5,4,9)              120.4799         -DE/DX =    0.0                 !
 ! A13   A(4,5,6)              120.2844         -DE/DX =    0.0                 !
 ! A14   A(4,5,10)             119.6327         -DE/DX =    0.0                 !
 ! A15   A(6,5,10)             120.0829         -DE/DX =    0.0                 !
 ! A16   A(1,6,5)              119.7962         -DE/DX =    0.0                 !
 ! A17   A(1,6,11)             120.1019         -DE/DX =    0.0                 !
 ! A18   A(5,6,11)             120.1019         -DE/DX =    0.0                 !
 ! A19   L(3,12,13,8,-1)       180.0002         -DE/DX =    0.0                 !
 ! A20   L(12,13,14,8,-1)      180.0033         -DE/DX =    0.0                 !
 ! A21   L(3,12,13,8,-2)       180.0003         -DE/DX =    0.0                 !
 ! A22   L(12,13,14,8,-2)      180.0026         -DE/DX =    0.0                 !
 ! D1    D(6,1,2,3)              0.0            -DE/DX =    0.0                 !
 ! D2    D(6,1,2,8)            180.0            -DE/DX =    0.0                 !
 ! D3    D(7,1,2,3)            180.0            -DE/DX =    0.0                 !
 ! D4    D(7,1,2,8)              0.0            -DE/DX =    0.0                 !
 ! D5    D(2,1,6,5)              0.0            -DE/DX =    0.0                 !
 ! D6    D(2,1,6,11)           180.0            -DE/DX =    0.0                 !
 ! D7    D(7,1,6,5)            180.0            -DE/DX =    0.0                 !
 ! D8    D(7,1,6,11)             0.0            -DE/DX =    0.0                 !
 ! D9    D(1,2,3,4)              0.0            -DE/DX =    0.0                 !
 ! D10   D(1,2,3,12)          -179.9999         -DE/DX =    0.0                 !
 ! D11   D(8,2,3,4)            180.0            -DE/DX =    0.0                 !
 ! D12   D(8,2,3,12)             0.0            -DE/DX =    0.0                 !
 ! D13   D(2,3,4,5)              0.0            -DE/DX =    0.0                 !
 ! D14   D(2,3,4,9)            180.0            -DE/DX =    0.0                 !
 ! D15   D(12,3,4,5)           179.9999         -DE/DX =    0.0                 !
 ! D16   D(12,3,4,9)             0.0            -DE/DX =    0.0                 !
 ! D17   D(3,4,5,6)              0.0            -DE/DX =    0.0                 !
 ! D18   D(3,4,5,10)          -180.0            -DE/DX =    0.0                 !
 ! D19   D(9,4,5,6)            180.0            -DE/DX =    0.0                 !
 ! D20   D(9,4,5,10)             0.0            -DE/DX =    0.0                 !
 ! D21   D(4,5,6,1)              0.0            -DE/DX =    0.0                 !
 ! D22   D(4,5,6,11)           180.0            -DE/DX =    0.0                 !
 ! D23   D(10,5,6,1)           180.0            -DE/DX =    0.0                 !
 ! D24   D(10,5,6,11)            0.0            -DE/DX =    0.0                 !
 --------------------------------------------------------------------------------
 GradGradGradGradGradGradGradGradGradGradGradGradGradGradGradGradGradGrad


 ----------------------------------------------------------------------

 Electric dipole moment (input orientation):
 (Debye = 10**-18 statcoulomb cm , SI units = C m)
                  (au)            (Debye)         (10**-30 SI)
   Tot        0.279544D+00      0.710530D+00      0.237007D+01
   x         -0.279544D+00     -0.710530D+00     -0.237007D+01
   y         -0.303553D-04     -0.771556D-04     -0.257363D-03
   z         -0.163681D-04     -0.416036D-04     -0.138775D-03

 Dipole polarizability, Alpha (input orientation).
 (esu units = cm**3 , SI units = C**2 m**2 J**-1)
 Alpha(0;0):
               (au)            (10**-24 esu)      (10**-40 SI)
   iso        0.929143D+02      0.137685D+02      0.153195D+02
   aniso      0.812854D+02      0.120453D+02      0.134021D+02
   xx         0.142651D+03      0.211386D+02      0.235199D+02
   yx         0.160148D-03      0.237315D-04      0.264049D-04
   yy         0.866786D+02      0.128444D+02      0.142914D+02
   zx         0.308828D-03      0.457636D-04      0.509189D-04
   zy         0.000000D+00      0.000000D+00      0.000000D+00
   zz         0.494137D+02      0.732236D+01      0.814722D+01

 ----------------------------------------------------------------------

 Dipole orientation:
     6         -0.00009200          2.28724444          2.70622363
     6         -0.00023956          2.29536128          0.07076561
     6         -0.00006525         -0.00012300         -1.27794581
     6          0.00025898         -2.29532422          0.07124737
     6          0.00040472         -2.28665434          2.70670361
     6          0.00022994          0.00043418          4.03226285
     1         -0.00022863          4.06944864          3.72728110
     1         -0.00048932          4.06729641         -0.96481109
     1          0.00039410         -4.06747663         -0.96395748
     1          0.00065514         -4.06864418          3.72813514
     1          0.00034411          0.00064969          6.08615529
     6         -0.00021333         -0.00040626         -3.98120024
     6         -0.00034894         -0.00065556         -6.27177092
     1         -0.00052393         -0.00099177         -8.28881800

 Electric dipole moment (dipole orientation):
 (Debye = 10**-18 statcoulomb cm , SI units = C m)
                  (au)            (Debye)         (10**-30 SI)
   Tot        0.279544D+00      0.710530D+00      0.237007D+01
   x          0.000000D+00      0.000000D+00      0.000000D+00
   y          0.000000D+00      0.000000D+00      0.000000D+00
   z          0.279544D+00      0.710530D+00      0.237007D+01

 Dipole polarizability, Alpha (dipole orientation).
 (esu units = cm**3 , SI units = C**2 m**2 J**-1)
 Alpha(0;0):
               (au)            (10**-24 esu)      (10**-40 SI)
   iso        0.929143D+02      0.137685D+02      0.153195D+02
   aniso      0.812854D+02      0.120453D+02      0.134021D+02
   xx         0.494137D+02      0.732236D+01      0.814722D+01
   yx        -0.404633D-02     -0.599605D-03     -0.667150D-03
   yy         0.866786D+02      0.128444D+02      0.142914D+02
   zx         0.514982D-02      0.763125D-03      0.849091D-03
   zy         0.591833D-02      0.877006D-03      0.975801D-03
   zz         0.142651D+03      0.211386D+02      0.235199D+02

 ----------------------------------------------------------------------
 1\1\GINC-IP-172-31-0-122\Freq\RB3LYP\6-31+G(d)\C8H6\UBUNTU\18-Sep-2023
 \0\\#N Geom=AllCheck Guess=TCheck SCRF=Check GenChk RB3LYP/6-31+G(d) F
 req\\Title Card Required\\0,1\C,-1.4322033002,1.2102021156,-0.00000110
 39\C,-0.037579448,1.2146488116,0.0000029349\C,0.6762598021,0.000008347
 7,0.000005063\C,-0.0375705885,-1.2146373655,0.0000029413\C,-1.43219446
 51,-1.2102009104,-0.0000010975\C,-2.1337816219,-0.0000019584,-0.000003
 2334\H,-1.9726260499,2.1532452896,-0.0000026353\H,0.5103223222,2.15237
 60116,0.0000046764\H,0.5103380543,-2.1523605465,0.000004688\H,-1.97261
 03517,-2.1532480207,-0.0000026235\H,-3.2206547029,-0.0000059434,-0.000
 0064488\C,2.1067604555,0.0000138005,0.0000104419\C,3.3188782657,0.0000
 135046,0.0000096408\H,4.3862536285,-0.0000484963,-0.000020482\\Version
 =EM64L-G16RevB.01\State=1-A\HF=-308.414825\RMSD=1.170e-09\RMSF=2.876e-
 06\ZeroPoint=0.1094373\Thermal=0.1158915\Dipole=-0.2795439,-0.0000304,
 -0.0000164\DipoleDeriv=-0.0129092,-0.1058247,0.0000002,-0.1033793,0.07
 04614,-0.0000005,0.0000006,-0.0000006,-0.1438181,-0.0736671,0.0876404,
 0.0000003,0.0256097,0.0420609,-0.0000001,-0.0000014,0.0000003,-0.08254
 89,0.2949308,0.0000002,0.0000002,-0.0000034,0.0449058,0.,0.000001,0.,-
 0.0449915,-0.0736671,-0.0876417,0.0000003,-0.0256084,0.042062,0.000000
 1,-0.0000014,-0.0000003,-0.0825502,-0.0129109,0.1058233,0.0000002,0.10
 33782,0.0704615,0.0000005,0.0000006,0.0000006,-0.1438171,0.0287017,0.0
 000005,0.0000003,-0.0000003,-0.0049028,0.,0.0000003,0.,-0.123921,0.008
 0467,0.0737541,-0.0000004,0.0867358,-0.0674427,0.0000003,-0.0000002,0.
 0000004,0.13918,0.0326276,-0.0724633,-0.0000003,-0.0598766,-0.0359872,
 0.,-0.0000004,-0.0000002,0.1351057,0.0326267,0.0724644,-0.0000003,0.05
 98777,-0.0359866,0.,-0.0000004,0.0000002,0.1351053,0.0080478,-0.073753
 7,-0.0000004,-0.086735,-0.0674437,-0.0000003,-0.0000002,-0.0000004,0.1
 391801,-0.1196135,-0.0000007,-0.0000007,-0.0000007,0.0670331,0.,-0.000
 0008,0.,0.1404339,0.3363834,0.0000083,0.0000054,0.0000207,-0.1063913,0
 .,0.0000204,0.,-0.013617,-0.6855537,-0.0000047,-0.0000039,-0.0000375,-
 0.2550156,0.,-0.0000354,0.,-0.3071368,0.2369568,-0.0000023,-0.0000009,
 0.0000191,0.2361854,0.,0.0000172,0.,0.2533957\Polar=142.6505125,0.0001
 601,86.6786124,0.0003088,0.,49.4137092\Quadrupole=4.1687473,1.1881675,
 -5.3569147,-0.0002611,-0.0001174,0.\PG=C01 [X(C8H6)]\NImag=0\\0.687423
 31,-0.03309087,0.72158213,0.00000161,-0.00000010,0.13279084,-0.3432275
 5,0.03126731,-0.00000078,0.69552206,-0.03210105,-0.13005892,-0.0000001
 2,0.04440029,0.70483224,-0.00000084,0.00000007,-0.06119065,0.00000174,
 0.00000014,0.13275935,-0.02969195,0.02694357,-0.00000014,-0.15780408,0
 .10152223,-0.00000030,0.67788062,0.07207557,0.03266684,0.00000024,0.05
 083251,-0.26648064,0.00000016,-0.00000015,0.63432870,-0.00000009,0.000
 00013,0.00627694,-0.00000037,0.00000036,-0.06458577,0.00000166,0.,0.14
 952362,-0.04953418,-0.02805886,-0.00000013,0.06094696,-0.02065038,0.00
 000015,-0.15780267,-0.05083177,-0.00000037,0.69552239,-0.02711766,-0.0
 1675655,-0.00000010,0.02065125,-0.05437995,0.00000008,-0.10152132,-0.2
 6648163,-0.00000036,-0.04440051,0.70483133,-0.00000013,-0.00000008,-0.
 00611882,0.00000015,-0.00000008,0.00873976,-0.00000030,-0.00000016,-0.
 06458566,0.00000174,-0.00000014,0.13275923,0.06430258,0.02283402,0.000
 00019,-0.04953460,0.02711742,-0.00000013,-0.02969126,-0.07207603,-0.00
 000009,-0.34322754,0.03209951,-0.00000084,0.68742280,-0.02283313,-0.05
 633507,-0.00000006,0.02805861,-0.01675614,0.00000008,-0.02694399,0.032
 66603,-0.00000013,-0.03126887,-0.13005880,-0.00000007,0.03309060,0.721
 58255,0.00000019,0.00000006,0.00742448,-0.00000013,0.00000010,-0.00611
 884,-0.00000014,-0.00000024,0.00627694,-0.00000078,0.00000012,-0.06119
 057,0.00000161,0.00000010,0.13279077,-0.18084413,-0.12095854,-0.000000
 36,-0.02723060,-0.02941057,-0.00000011,0.00235786,0.00000027,0.0000000
 2,-0.02723140,0.02941011,-0.00000011,-0.18084541,0.12095929,-0.0000003
 6,0.74136103,-0.05623024,-0.28350638,-0.00000016,-0.07565166,0.0331189
 5,-0.00000022,0.00000024,-0.06588266,0.,0.07565123,0.03311971,0.000000
 22,0.05623100,-0.28350508,0.00000016,0.00000029,0.66191292,-0.00000037
 ,-0.00000036,-0.06197143,-0.00000010,-0.00000010,0.00707956,0.00000004
 ,0.,-0.00628268,-0.00000010,0.00000010,0.00707955,-0.00000037,0.000000
 36,-0.06197142,0.00000181,0.,0.13254751,-0.12895196,0.12037102,-0.0000
 0026,-0.01110977,0.02932398,-0.00000004,-0.00509987,-0.00151691,-0.000
 00004,-0.00074903,-0.00086907,0.,-0.00118007,-0.00312888,-0.00000002,0
 .01227563,-0.01523919,0.00000003,0.13365774,0.12043945,-0.27012112,0.0
 0000034,-0.00192687,0.00394484,0.,-0.00093549,0.00180652,0.,-0.0008491
 8,0.00020609,0.,-0.00424023,-0.00296638,-0.00000001,0.01609677,-0.0186
 9050,0.00000005,-0.12939884,0.28523621,-0.00000026,0.00000034,-0.03665
 268,-0.00000004,0.00000008,0.00309395,-0.00000003,0.,0.00725479,0.,0.,
 -0.00065633,-0.00000002,-0.00000001,0.00691331,0.00000003,-0.00000004,
 0.00319143,0.00000031,-0.00000037,0.02555866,-0.01034843,-0.02871711,-
 0.00000005,-0.13113165,-0.12388583,-0.00000030,0.01065169,0.01558747,0
 .00000003,-0.00150046,0.00304213,-0.00000002,-0.00058848,0.00075648,0.
 ,-0.00551362,0.00169101,-0.00000004,0.00061097,0.00033835,0.00000001,0
 .13663177,0.00234497,0.00462434,0.00000001,-0.12206600,-0.27069587,-0.
 00000040,-0.01549998,-0.01900446,-0.00000005,0.00424715,-0.00274376,0.
 00000001,0.00076086,0.00025389,0.,0.00066018,0.00154642,0.,-0.00036585
 ,0.00084588,0.,0.13101937,0.28551340,-0.00000002,-0.00000009,0.0034700
 6,-0.00000032,-0.00000037,-0.03661621,0.00000004,0.,0.00333241,-0.0000
 0002,0.00000002,0.00617426,-0.00000001,0.,-0.00068514,-0.00000004,0.,0
 .00730757,0.00000002,0.,-0.00412111,0.00000035,0.00000043,0.02520119,-
 0.00058847,-0.00075648,0.,-0.00150041,-0.00304213,-0.00000002,0.010651
 70,-0.01558722,0.00000003,-0.13113341,0.12388681,-0.00000030,-0.010348
 63,0.02871701,-0.00000005,-0.00551360,-0.00169107,-0.00000004,0.000107
 03,0.00010561,0.,0.00060066,-0.00082679,0.,0.13663364,-0.00076087,0.00
 025387,0.,-0.00424714,-0.00274380,-0.00000001,0.01550019,-0.01900451,0
 .00000005,0.12206701,-0.27069402,0.00000040,-0.00234508,0.00462452,-0.
 00000001,-0.00066023,0.00154640,0.,0.00009824,0.00000018,0.,0.00082681
 ,-0.00100784,0.,-0.13102047,0.28551148,-0.00000001,0.,-0.00068514,-0.0
 0000002,-0.00000002,0.00617427,0.00000004,0.,0.00333240,-0.00000033,0.
 00000037,-0.03661620,-0.00000002,0.00000009,0.00347007,-0.00000004,0.,
 0.00730757,0.,0.,-0.00113996,0.,0.,0.00040538,0.00000035,-0.00000043,0
 .02520117,-0.00118012,0.00312889,-0.00000002,-0.00074904,0.00086906,0.
 ,-0.00509988,0.00151684,-0.00000004,-0.01110959,-0.02932406,-0.0000000
 4,-0.12895020,-0.12037000,-0.00000026,0.01227564,0.01523941,0.00000003
 ,0.00047320,0.00084555,0.,0.00010703,-0.00009824,0.,0.00061097,0.00036
 585,0.00000002,0.13365584,0.00424025,-0.00296632,0.00000001,0.00084918
 ,0.00020610,0.,0.00093544,0.00180654,0.,0.00192677,0.00394464,0.,-0.12
 043842,-0.27012288,-0.00000034,-0.01609655,-0.01869051,-0.00000005,-0.
 00084554,-0.00104493,0.,-0.00010561,0.00000018,0.,-0.00033835,0.000845
 89,0.,0.12939773,0.28523810,-0.00000003,0.00000001,0.00691331,0.,0.,-0
 .00065633,-0.00000003,0.,0.00725477,-0.00000004,-0.00000008,0.00309394
 ,-0.00000026,-0.00000034,-0.03665264,0.00000003,0.00000004,0.00319143,
 0.,0.,0.00020778,0.,0.,-0.00113996,0.00000001,0.,-0.00412111,0.0000003
 1,0.00000037,0.02555865,-0.01131485,0.00257802,-0.00000004,0.00067972,
 -0.00315527,-0.00000002,0.00072470,0.,0.,0.00067968,0.00315531,-0.0000
 0002,-0.01131504,-0.00257814,-0.00000004,-0.33932723,-0.00000102,-0.00
 000089,0.00077147,-0.00043513,0.00000001,-0.00064350,0.00021905,0.,-0.
 00064351,-0.00021906,0.,0.00077147,0.00043513,0.00000001,0.35963095,-0
 .02874558,0.00493376,-0.00000008,-0.00209409,-0.00478578,0.,0.,-0.0012
 7627,0.,0.00209414,-0.00478574,0.,0.02874546,0.00493395,0.00000008,-0.
 00000102,-0.06029317,0.,0.00031943,0.00071727,0.,-0.00143980,0.0001132
 0,0.,0.00143979,0.00011321,0.,-0.00031942,0.00071727,0.,0.00000110,0.0
 5938618,-0.00000003,0.00000001,0.00326459,-0.00000003,0.,0.00707920,0.
 ,0.,-0.00084510,-0.00000003,0.,0.00707920,-0.00000003,-0.00000001,0.00
 326459,-0.00000089,0.,-0.03640446,0.00000001,0.,-0.00390655,0.,0.,0.00
 013117,0.,0.,0.00013118,0.00000001,0.,-0.00390655,0.00000099,0.,0.0251
 0861,0.00618684,0.00442396,-0.00000002,-0.03846841,0.01794138,-0.00000
 011,-0.29569518,0.00000042,-0.00000057,-0.03846772,-0.01794184,-0.0000
 0011,0.00618695,-0.00442377,-0.00000002,-0.00274318,0.00000002,0.,-0.0
 0027810,-0.00006041,0.,0.00108185,-0.00116035,0.00000002,0.00108187,0.
 00116039,0.00000002,-0.00027807,0.00006041,0.,0.00013441,0.,0.,1.41873
 494,0.00252081,-0.00473070,0.00000005,0.03034003,0.00541468,0.00000005
 ,-0.00000061,-0.07772343,0.,-0.03034000,0.00541428,-0.00000005,-0.0025
 2074,-0.00473066,-0.00000005,-0.00000002,-0.00148049,0.,0.00139360,0.0
 0013386,0.,0.00109952,0.00030456,0.,-0.00109950,0.00030457,0.,-0.00139
 356,0.00013385,0.,0.,0.00021176,0.,-0.00000389,0.10463297,0.,0.0000000
 4,0.00726340,-0.00000012,0.00000004,0.00261919,-0.00000052,0.,-0.05843
 608,-0.00000012,-0.00000003,0.00261929,0.,-0.00000004,0.00726324,0.000
 00005,0.,-0.00122970,0.,0.,0.00042547,0.00000002,0.,-0.00362665,0.0000
 0002,0.,-0.00362661,0.,0.,0.00042548,0.,0.,-0.00111135,-0.00000145,0.,
 0.07993025,-0.00225728,-0.00005722,0.00000003,0.00359952,-0.00907969,0
 .,-0.02206597,-0.00000142,-0.00000040,0.00359897,0.00907989,0.,-0.0022
 5731,0.00005707,0.00000003,0.00087181,0.,0.,-0.00054809,0.00004065,0.,
 0.00006524,0.00073998,-0.00000001,0.00006522,-0.00073999,-0.00000001,-
 0.00054812,-0.00004065,0.,-0.00017119,0.,0.,-1.06166758,0.00000414,0.0
 0000209,1.50121752,-0.00071314,0.00019588,-0.00000006,0.00075037,-0.00
 140444,0.00000010,-0.00000003,0.00609624,0.,-0.00075058,-0.00140426,-0
 .00000010,0.00071312,0.00019572,0.00000006,0.00000004,0.00076037,0.,-0
 .00006405,-0.00005978,0.,-0.00022249,0.00030997,0.00000001,0.00022253,
 0.00031001,-0.00000001,0.00006399,-0.00005978,0.,0.,0.00003035,0.,0.00
 000646,-0.02771433,0.,-0.00002770,0.04217092,-0.00000002,-0.00000007,-
 0.00035313,0.00000007,-0.00000007,0.00168144,-0.00000044,0.,0.00579997
 ,0.00000007,0.00000007,0.00168110,-0.00000002,0.00000007,-0.00035290,-
 0.00000005,0.,0.00006570,0.,0.,-0.00016615,0.,0.00000001,-0.00006349,0
 .,-0.00000001,-0.00006356,0.,0.,-0.00016614,0.,0.,0.00005557,0.0000037
 1,0.,-0.03178734,-0.00001393,0.,0.03928572,0.00002619,0.00009229,-0.00
 000001,0.00000786,0.00015056,0.,0.00068431,0.00000041,0.00000022,0.000
 00800,-0.00015055,0.,0.00002619,-0.00009228,-0.00000001,0.00010719,0.,
 0.,0.00002085,-0.00002021,0.,-0.00002306,0.00002563,0.,-0.00002307,-0.
 00002563,0.,0.00002086,0.00002021,0.,0.00002292,0.,0.,0.00419138,0.000
 00022,0.00000005,-0.41990275,0.00002149,0.00001062,0.41483313,-0.00002
 851,0.00021826,0.00000002,-0.00116377,-0.00021126,-0.00000005,-0.00000
 009,0.00648273,0.,0.00116386,-0.00021132,0.00000005,0.00002851,0.00021
 835,-0.00000002,-0.00000003,0.00004401,0.,-0.00007794,-0.00000814,0.,0
 .00000970,-0.00005992,0.,-0.00000973,-0.00005993,0.,0.00007797,-0.0000
 0814,0.,0.,-0.00001599,0.,-0.00000278,-0.00017093,0.,0.00002493,-0.019
 42687,0.,-0.00002214,0.01320915,0.00000002,0.00000003,-0.00043177,-0.0
 0000004,0.00000004,-0.00005891,0.00000014,0.,0.00568345,-0.00000004,-0
 .00000004,-0.00005874,0.00000002,-0.00000003,-0.00043188,0.00000001,0.
 ,0.00008937,0.,0.,-0.00000262,0.,0.,0.00023051,0.,0.,0.00023054,0.,0.,
 -0.00000263,0.,0.,0.00005990,-0.00000146,0.,-0.00072860,0.00001224,0.,
 -0.01561680,-0.00001087,0.,0.01103819\\-0.00000152,0.00000369,0.000000
 06,0.00000435,-0.00000071,-0.00000002,-0.00000907,-0.00000093,-0.00000
 054,0.00000401,0.00000079,-0.00000002,-0.00000154,-0.00000376,0.000000
 06,0.00000485,-0.00000001,-0.00000002,-0.00000140,-0.00000213,0.,0.000
 00078,-0.00000039,-0.00000002,0.00000078,0.00000040,-0.00000002,-0.000
 00142,0.00000213,0.,-0.00000175,0.,0.,0.00000950,0.00000030,0.00000042
 ,-0.00000745,0.00000221,0.00000077,-0.00000013,-0.00000159,-0.00000067
 \\\@


 Luck is a matter of preparation meeting opportunity.
                                    -- Oprah Winfrey
 Job cpu time:       0 days  0 hours 18 minutes 50.3 seconds.
 Elapsed time:       0 days  0 hours  0 minutes 37.7 seconds.
 File lengths (MBytes):  RWF=     46 Int=      0 D2E=      0 Chk=      3 Scr=      1
 Normal termination of Gaussian 16 at Mon Sep 18 07:20:14 2023.
