 Entering Gaussian System, Link 0=/home/ubuntu/g16/g16
 Input=/home/ubuntu/Downloads/molecule32vol.gjf
 Output=/home/ubuntu/Downloads/molecule32vol.log
 Initial command:
 /home/ubuntu/g16/l1.exe "/home/ubuntu/Scratch/Gau-66253.inp" -scrdir="/home/ubuntu/Scratch/"
 Entering Link 1 = /home/ubuntu/g16/l1.exe PID=     66255.
  
 Copyright (c) 1988-2017, Gaussian, Inc.  All Rights Reserved.
  
 This is part of the Gaussian(R) 16 program.  It is based on
 the Gaussian(R) 09 system (copyright 2009, Gaussian, Inc.),
 the Gaussian(R) 03 system (copyright 2003, Gaussian, Inc.),
 the Gaussian(R) 98 system (copyright 1998, Gaussian, Inc.),
 the Gaussian(R) 94 system (copyright 1995, Gaussian, Inc.),
 the Gaussian 92(TM) system (copyright 1992, Gaussian, Inc.),
 the Gaussian 90(TM) system (copyright 1990, Gaussian, Inc.),
 the Gaussian 88(TM) system (copyright 1988, Gaussian, Inc.),
 the Gaussian 86(TM) system (copyright 1986, Carnegie Mellon
 University), and the Gaussian 82(TM) system (copyright 1983,
 Carnegie Mellon University). Gaussian is a federally registered
 trademark of Gaussian, Inc.
  
 This software contains proprietary and confidential information,
 including trade secrets, belonging to Gaussian, Inc.
  
 This software is provided under written license and may be
 used, copied, transmitted, or stored only in accord with that
 written license.
  
 The following legend is applicable only to US Government
 contracts under FAR:
  
                    RESTRICTED RIGHTS LEGEND
  
 Use, reproduction and disclosure by the US Government is
 subject to restrictions as set forth in subparagraphs (a)
 and (c) of the Commercial Computer Software - Restricted
 Rights clause in FAR 52.227-19.
  
 Gaussian, Inc.
 340 Quinnipiac St., Bldg. 40, Wallingford CT 06492
  
  
 ---------------------------------------------------------------
 Warning -- This program may not be used in any manner that
 competes with the business of Gaussian, Inc. or will provide
 assistance to any competitor of Gaussian, Inc.  The licensee
 of this program is prohibited from giving any competitor of
 Gaussian, Inc. access to this program.  By using this program,
 the user acknowledges that Gaussian, Inc. is engaged in the
 business of creating and licensing software in the field of
 computational chemistry and represents and warrants to the
 licensee that it is not a competitor of Gaussian, Inc. and that
 it will not use this program in any manner prohibited above.
 ---------------------------------------------------------------
  

 Cite this work as:
 Gaussian 16, Revision B.01,
 M. J. Frisch, G. W. Trucks, H. B. Schlegel, G. E. Scuseria, 
 M. A. Robb, J. R. Cheeseman, G. Scalmani, V. Barone, 
 G. A. Petersson, H. Nakatsuji, X. Li, M. Caricato, A. V. Marenich, 
 J. Bloino, B. G. Janesko, R. Gomperts, B. Mennucci, H. P. Hratchian, 
 J. V. Ortiz, A. F. Izmaylov, J. L. Sonnenberg, D. Williams-Young, 
 F. Ding, F. Lipparini, F. Egidi, J. Goings, B. Peng, A. Petrone, 
 T. Henderson, D. Ranasinghe, V. G. Zakrzewski, J. Gao, N. Rega, 
 G. Zheng, W. Liang, M. Hada, M. Ehara, K. Toyota, R. Fukuda, 
 J. Hasegawa, M. Ishida, T. Nakajima, Y. Honda, O. Kitao, H. Nakai, 
 T. Vreven, K. Throssell, J. A. Montgomery, Jr., J. E. Peralta, 
 F. Ogliaro, M. J. Bearpark, J. J. Heyd, E. N. Brothers, K. N. Kudin, 
 V. N. Staroverov, T. A. Keith, R. Kobayashi, J. Normand, 
 K. Raghavachari, A. P. Rendell, J. C. Burant, S. S. Iyengar, 
 J. Tomasi, M. Cossi, J. M. Millam, M. Klene, C. Adamo, R. Cammi, 
 J. W. Ochterski, R. L. Martin, K. Morokuma, O. Farkas, 
 J. B. Foresman, and D. J. Fox, Gaussian, Inc., Wallingford CT, 2016.
 
 ******************************************
 Gaussian 16:  EM64L-G16RevB.01 20-Dec-2017
                19-Sep-2023 
 ******************************************
 %nprocshared=32
 Will use up to   32 processors via shared memory.
 %mem=60GB
 %chk=molecule32vol.chk
 ----------------------------------------------------------------------
 # opt freq b3lyp/6-31+g(d) empiricaldispersion=gd3 scf=maxcycle=1000 v
 olume
 ----------------------------------------------------------------------
 1/18=20,19=15,26=3,38=1/1,3;
 2/9=110,12=2,17=6,18=5,40=1/2;
 3/5=1,6=6,7=11,11=2,25=1,30=1,71=1,74=-5,124=31/1,2,3;
 4//1;
 5/5=2,7=1000,38=5/2;
 6/7=2,8=2,9=2,10=2,28=1,44=1/1,4;
 7//1,2,3,16;
 1/18=20,19=15,26=3/3(2);
 2/9=110/2;
 99//99;
 2/9=110/2;
 3/5=1,6=6,7=11,11=2,25=1,30=1,71=1,74=-5,124=31/1,2,3;
 4/5=5,16=3,69=1/1;
 5/5=2,7=1000,38=5/2;
 7//1,2,3,16;
 1/18=20,19=15,26=3/3(-5);
 2/9=110/2;
 6/7=2,8=2,9=2,10=2,19=2,28=1,44=1/1,4;
 99/9=1/99;
 -------------------
 Title Card Required
 -------------------
 Symbolic Z-matrix:
 Charge =  0 Multiplicity = 1
 C                     1.80895  -0.07453  -0.00004 
 C                     1.17145   1.16749   0.00005 
 C                    -0.2244    1.21116  -0.00002 
 C                    -0.92244   0.00244  -0.00001 
 C                    -0.19318  -1.19657  -0.00001 
 N                     1.14037  -1.23794  0. 
 H                    -0.75576   2.16141  -0.00005 
 H                     2.89423  -0.14341   0.00006 
 H                     1.75297   2.08524   0.00003 
 H                    -0.7271   -2.14429   0. 
 O                    -2.28765  -0.09299   0.00005 
 H                    -2.68799   0.79072  -0.00022 
 

 GradGradGradGradGradGradGradGradGradGradGradGradGradGradGradGradGradGrad
 Berny optimization.
 Initialization pass.
                           ----------------------------
                           !    Initial Parameters    !
                           ! (Angstroms and Degrees)  !
 --------------------------                            --------------------------
 ! Name  Definition              Value          Derivative Info.                !
 --------------------------------------------------------------------------------
 ! R1    R(1,2)                  1.3961         estimate D2E/DX2                !
 ! R2    R(1,6)                  1.3418         estimate D2E/DX2                !
 ! R3    R(1,8)                  1.0875         estimate D2E/DX2                !
 ! R4    R(2,3)                  1.3965         estimate D2E/DX2                !
 ! R5    R(2,9)                  1.0865         estimate D2E/DX2                !
 ! R6    R(3,4)                  1.3958         estimate D2E/DX2                !
 ! R7    R(3,7)                  1.0887         estimate D2E/DX2                !
 ! R8    R(4,5)                  1.4034         estimate D2E/DX2                !
 ! R9    R(4,11)                 1.3685         estimate D2E/DX2                !
 ! R10   R(5,6)                  1.3342         estimate D2E/DX2                !
 ! R11   R(5,10)                 1.0878         estimate D2E/DX2                !
 ! R12   R(11,12)                0.9702         estimate D2E/DX2                !
 ! A1    A(2,1,6)              122.9446         estimate D2E/DX2                !
 ! A2    A(2,1,8)              120.8021         estimate D2E/DX2                !
 ! A3    A(6,1,8)              116.2533         estimate D2E/DX2                !
 ! A4    A(1,2,3)              118.9627         estimate D2E/DX2                !
 ! A5    A(1,2,9)              120.4697         estimate D2E/DX2                !
 ! A6    A(3,2,9)              120.5676         estimate D2E/DX2                !
 ! A7    A(2,3,4)              118.2146         estimate D2E/DX2                !
 ! A8    A(2,3,7)              121.0055         estimate D2E/DX2                !
 ! A9    A(4,3,7)              120.7799         estimate D2E/DX2                !
 ! A10   A(3,4,5)              118.6843         estimate D2E/DX2                !
 ! A11   A(3,4,11)             124.005          estimate D2E/DX2                !
 ! A12   A(5,4,11)             117.3107         estimate D2E/DX2                !
 ! A13   A(4,5,6)              123.0858         estimate D2E/DX2                !
 ! A14   A(4,5,10)             119.2951         estimate D2E/DX2                !
 ! A15   A(6,5,10)             117.619          estimate D2E/DX2                !
 ! A16   A(1,6,5)              118.108          estimate D2E/DX2                !
 ! A17   A(4,11,12)            110.3735         estimate D2E/DX2                !
 ! D1    D(6,1,2,3)             -0.0091         estimate D2E/DX2                !
 ! D2    D(6,1,2,9)            179.9993         estimate D2E/DX2                !
 ! D3    D(8,1,2,3)           -179.9971         estimate D2E/DX2                !
 ! D4    D(8,1,2,9)              0.0113         estimate D2E/DX2                !
 ! D5    D(2,1,6,5)              0.0061         estimate D2E/DX2                !
 ! D6    D(8,1,6,5)            179.9946         estimate D2E/DX2                !
 ! D7    D(1,2,3,4)              0.0074         estimate D2E/DX2                !
 ! D8    D(1,2,3,7)           -179.9947         estimate D2E/DX2                !
 ! D9    D(9,2,3,4)            179.9991         estimate D2E/DX2                !
 ! D10   D(9,2,3,7)             -0.0031         estimate D2E/DX2                !
 ! D11   D(2,3,4,5)             -0.0035         estimate D2E/DX2                !
 ! D12   D(2,3,4,11)           179.9939         estimate D2E/DX2                !
 ! D13   D(7,3,4,5)            179.9987         estimate D2E/DX2                !
 ! D14   D(7,3,4,11)            -0.004          estimate D2E/DX2                !
 ! D15   D(3,4,5,6)              0.0006         estimate D2E/DX2                !
 ! D16   D(3,4,5,10)           179.9999         estimate D2E/DX2                !
 ! D17   D(11,4,5,6)          -179.9969         estimate D2E/DX2                !
 ! D18   D(11,4,5,10)            0.0024         estimate D2E/DX2                !
 ! D19   D(3,4,11,12)            0.0188         estimate D2E/DX2                !
 ! D20   D(5,4,11,12)         -179.9838         estimate D2E/DX2                !
 ! D21   D(4,5,6,1)             -0.0018         estimate D2E/DX2                !
 ! D22   D(10,5,6,1)           179.9989         estimate D2E/DX2                !
 --------------------------------------------------------------------------------
 Trust Radius=3.00D-01 FncErr=1.00D-07 GrdErr=1.00D-06 EigMax=2.50D+02 EigMin=1.00D-04
 Number of steps in this run=     61 maximum allowed number of steps=    100.
 GradGradGradGradGradGradGradGradGradGradGradGradGradGradGradGradGradGrad

                          Input orientation:                          
 ---------------------------------------------------------------------
 Center     Atomic      Atomic             Coordinates (Angstroms)
 Number     Number       Type             X           Y           Z
 ---------------------------------------------------------------------
      1          6           0        1.808951   -0.074530   -0.000036
      2          6           0        1.171449    1.167485    0.000047
      3          6           0       -0.224397    1.211159   -0.000022
      4          6           0       -0.922444    0.002435   -0.000012
      5          6           0       -0.193179   -1.196574   -0.000008
      6          7           0        1.140367   -1.237944   -0.000002
      7          1           0       -0.755763    2.161405   -0.000047
      8          1           0        2.894233   -0.143410    0.000062
      9          1           0        1.752969    2.085239    0.000027
     10          1           0       -0.727101   -2.144290    0.000001
     11          8           0       -2.287650   -0.092988    0.000047
     12          1           0       -2.687993    0.790722   -0.000219
 ---------------------------------------------------------------------
                    Distance matrix (angstroms):
                    1          2          3          4          5
     1  C    0.000000
     2  C    1.396070   0.000000
     3  C    2.405722   1.396529   0.000000
     4  C    2.732479   2.396191   1.395809   0.000000
     5  C    2.295105   2.729649   2.407935   1.403371   0.000000
     6  N    1.341841   2.405630   2.803692   2.407017   1.334188
     7  H    3.402523   2.168415   1.088723   2.165395   3.404780
     8  H    1.087466   2.164816   3.400104   3.819463   3.262096
     9  H    2.160494   1.086480   2.161942   3.390561   3.815467
    10  H    3.273449   3.817374   3.392897   2.155594   1.087768
    11  O    4.096643   3.681597   2.440863   1.368537   2.367427
    12  H    4.579429   3.877788   2.499214   1.933536   3.189583
                    6          7          8          9         10
     6  N    0.000000
     7  H    3.892413   0.000000
     8  H    2.067378   4.316786   0.000000
     9  H    3.379175   2.509888   2.503869   0.000000
    10  H    2.075789   4.305790   4.137340   4.903026   0.000000
    11  O    3.614170   2.725613   5.182128   4.590346   2.577431
    12  H    4.332647   2.369026   5.659845   4.625788   3.529787
                   11         12
    11  O    0.000000
    12  H    0.970164   0.000000
 Stoichiometry    C5H5NO
 Framework group  C1[X(C5H5NO)]
 Deg. of freedom    30
 Full point group                 C1      NOp   1
 Largest Abelian subgroup         C1      NOp   1
 Largest concise Abelian subgroup C1      NOp   1
                         Standard orientation:                         
 ---------------------------------------------------------------------
 Center     Atomic      Atomic             Coordinates (Angstroms)
 Number     Number       Type             X           Y           Z
 ---------------------------------------------------------------------
      1          6           0       -1.808951   -0.074530    0.000036
      2          6           0       -1.171449    1.167485   -0.000047
      3          6           0        0.224397    1.211159    0.000022
      4          6           0        0.922444    0.002435    0.000012
      5          6           0        0.193179   -1.196574    0.000008
      6          7           0       -1.140367   -1.237944    0.000002
      7          1           0        0.755763    2.161405    0.000047
      8          1           0       -2.894233   -0.143410   -0.000062
      9          1           0       -1.752969    2.085239   -0.000027
     10          1           0        0.727101   -2.144290   -0.000001
     11          8           0        2.287650   -0.092988   -0.000047
     12          1           0        2.687993    0.790722    0.000219
 ---------------------------------------------------------------------
 Rotational constants (GHZ):           5.8028609           2.6760433           1.8314521
 Standard basis: 6-31+G(d) (6D, 7F)
 There are   143 symmetry adapted cartesian basis functions of A   symmetry.
 There are   143 symmetry adapted basis functions of A   symmetry.
   143 basis functions,   244 primitive gaussians,   143 cartesian basis functions
    25 alpha electrons       25 beta electrons
       nuclear repulsion energy       273.4363133543 Hartrees.
 NAtoms=   12 NActive=   12 NUniq=   12 SFac= 1.00D+00 NAtFMM=   60 NAOKFM=F Big=F
 Integral buffers will be    131072 words long.
 Raffenetti 2 integral format.
 Two-electron integral symmetry is turned on.
 Nuclear repulsion after empirical dispersion term =      273.4303250596 Hartrees.
 One-electron integrals computed using PRISM.
 NBasis=   143 RedAO= T EigKep=  2.11D-05  NBF=   143
 NBsUse=   143 1.00D-06 EigRej= -1.00D+00 NBFU=   143
 ExpMin= 4.38D-02 ExpMax= 5.48D+03 ExpMxC= 8.25D+02 IAcc=3 IRadAn=         5 AccDes= 0.00D+00
 Harris functional with IExCor=  402 and IRadAn=       5 diagonalized for initial guess.
 HarFok:  IExCor=  402 AccDes= 0.00D+00 IRadAn=         5 IDoV= 1 UseB2=F ITyADJ=14
 ICtDFT=  3500011 ScaDFX=  1.000000  1.000000  1.000000  1.000000
 FoFCou: FMM=F IPFlag=           0 FMFlag=      100000 FMFlg1=           0
         NFxFlg=           0 DoJE=T BraDBF=F KetDBF=T FulRan=T
         wScrn=  0.000000 ICntrl=       500 IOpCl=  0 I1Cent=   200000004 NGrid=           0
         NMat0=    1 NMatS0=      1 NMatT0=    0 NMatD0=    1 NMtDS0=    0 NMtDT0=    0
 Petite list used in FoFCou.
 Keep R1 ints in memory in canonical form, NReq=83990704.
 Requested convergence on RMS density matrix=1.00D-08 within1000 cycles.
 Requested convergence on MAX density matrix=1.00D-06.
 Requested convergence on             energy=1.00D-06.
 No special actions if energy rises.
 SCF Done:  E(RB3LYP) =  -323.521372082     A.U. after   13 cycles
            NFock= 13  Conv=0.71D-08     -V/T= 2.0096

 **********************************************************************

            Population analysis using the SCF Density.

 **********************************************************************

 Orbital symmetries:
       Occupied  (A) (A) (A) (A) (A) (A) (A) (A) (A) (A) (A) (A)
                 (A) (A) (A) (A) (A) (A) (A) (A) (A) (A) (A) (A)
                 (A)
       Virtual   (A) (A) (A) (A) (A) (A) (A) (A) (A) (A) (A) (A)
                 (A) (A) (A) (A) (A) (A) (A) (A) (A) (A) (A) (A)
                 (A) (A) (A) (A) (A) (A) (A) (A) (A) (A) (A) (A)
                 (A) (A) (A) (A) (A) (A) (A) (A) (A) (A) (A) (A)
                 (A) (A) (A) (A) (A) (A) (A) (A) (A) (A) (A) (A)
                 (A) (A) (A) (A) (A) (A) (A) (A) (A) (A) (A) (A)
                 (A) (A) (A) (A) (A) (A) (A) (A) (A) (A) (A) (A)
                 (A) (A) (A) (A) (A) (A) (A) (A) (A) (A) (A) (A)
                 (A) (A) (A) (A) (A) (A) (A) (A) (A) (A) (A) (A)
                 (A) (A) (A) (A) (A) (A) (A) (A) (A) (A)
 The electronic state is 1-A.
 Alpha  occ. eigenvalues --  -19.20694 -14.34474 -10.27294 -10.22910 -10.22659
 Alpha  occ. eigenvalues --  -10.22214 -10.21493  -1.08407  -0.94902  -0.81311
 Alpha  occ. eigenvalues --   -0.76795  -0.65961  -0.63936  -0.56316  -0.52535
 Alpha  occ. eigenvalues --   -0.50324  -0.45611  -0.43514  -0.42549  -0.41541
 Alpha  occ. eigenvalues --   -0.37659  -0.37486  -0.29454  -0.26581  -0.24702
 Alpha virt. eigenvalues --   -0.04003  -0.01551  -0.01356   0.00945   0.02865
 Alpha virt. eigenvalues --    0.04056   0.05290   0.05367   0.06381   0.08695
 Alpha virt. eigenvalues --    0.08946   0.09536   0.09777   0.12847   0.13136
 Alpha virt. eigenvalues --    0.13651   0.13653   0.14066   0.15103   0.15727
 Alpha virt. eigenvalues --    0.16088   0.18477   0.20399   0.20660   0.21099
 Alpha virt. eigenvalues --    0.23023   0.23853   0.24621   0.24654   0.25220
 Alpha virt. eigenvalues --    0.26110   0.26812   0.27643   0.29362   0.31963
 Alpha virt. eigenvalues --    0.32673   0.33765   0.34945   0.36759   0.37912
 Alpha virt. eigenvalues --    0.40607   0.56255   0.58351   0.64256   0.65427
 Alpha virt. eigenvalues --    0.67529   0.70074   0.70740   0.72234   0.73518
 Alpha virt. eigenvalues --    0.76287   0.76474   0.80187   0.86707   0.90567
 Alpha virt. eigenvalues --    0.92885   0.93649   0.95895   1.01056   1.01381
 Alpha virt. eigenvalues --    1.02219   1.04912   1.09231   1.10033   1.13601
 Alpha virt. eigenvalues --    1.16083   1.17282   1.17584   1.19731   1.22049
 Alpha virt. eigenvalues --    1.22745   1.26619   1.34502   1.36709   1.42716
 Alpha virt. eigenvalues --    1.43331   1.45331   1.45401   1.49758   1.51115
 Alpha virt. eigenvalues --    1.65756   1.71079   1.79248   1.80292   1.84260
 Alpha virt. eigenvalues --    1.89146   1.93850   1.95319   1.96152   1.99513
 Alpha virt. eigenvalues --    2.13441   2.14793   2.15552   2.21030   2.25286
 Alpha virt. eigenvalues --    2.27687   2.30824   2.34197   2.46145   2.48841
 Alpha virt. eigenvalues --    2.55281   2.59665   2.67986   2.68228   2.74467
 Alpha virt. eigenvalues --    2.76731   2.80703   2.85163   3.01696   3.10588
 Alpha virt. eigenvalues --    3.41468   4.17141   4.18282   4.23814   4.28837
 Alpha virt. eigenvalues --    4.36291   4.42140   4.72105
          Condensed to atoms (all electrons):
               1          2          3          4          5          6
     1  C    5.931444  -0.181547   0.211444  -0.287016   0.021288   0.157008
     2  C   -0.181547   5.770639  -0.007838   0.277150  -0.198910   0.161511
     3  C    0.211444  -0.007838   6.256222   0.195001  -0.688723  -0.070915
     4  C   -0.287016   0.277150   0.195001   5.994505  -0.671225   0.149704
     5  C    0.021288  -0.198910  -0.688723  -0.671225   7.292894   0.097068
     6  N    0.157008   0.161511  -0.070915   0.149704   0.097068   6.861599
     7  H   -0.012728   0.055345   0.226644   0.029916  -0.010486   0.001947
     8  H    0.442019  -0.142794   0.044625  -0.021027   0.030114  -0.088998
     9  H    0.031204   0.274989   0.000987  -0.002015  -0.011221   0.004934
    10  H    0.038058  -0.035724   0.061569  -0.118865   0.403599  -0.088444
    11  O    0.020674   0.020134   0.051186   0.112887  -0.246763   0.009002
    12  H   -0.007077   0.012508  -0.115709   0.011676   0.107598  -0.000981
               7          8          9         10         11         12
     1  C   -0.012728   0.442019   0.031204   0.038058   0.020674  -0.007077
     2  C    0.055345  -0.142794   0.274989  -0.035724   0.020134   0.012508
     3  C    0.226644   0.044625   0.000987   0.061569   0.051186  -0.115709
     4  C    0.029916  -0.021027  -0.002015  -0.118865   0.112887   0.011676
     5  C   -0.010486   0.030114  -0.011221   0.403599  -0.246763   0.107598
     6  N    0.001947  -0.088998   0.004934  -0.088444   0.009002  -0.000981
     7  H    0.545283  -0.000146  -0.004889  -0.000142  -0.014222   0.006960
     8  H   -0.000146   0.556519  -0.001664  -0.000008   0.000126  -0.000001
     9  H   -0.004889  -0.001664   0.519616   0.000022  -0.000444  -0.000018
    10  H   -0.000142  -0.000008   0.000022   0.543614   0.000928  -0.000382
    11  O   -0.014222   0.000126  -0.000444   0.000928   8.588145   0.147361
    12  H    0.006960  -0.000001  -0.000018  -0.000382   0.147361   0.366992
 Mulliken charges:
               1
     1  C   -0.364770
     2  C   -0.005463
     3  C   -0.164494
     4  C    0.329309
     5  C   -0.125233
     6  N   -0.193436
     7  H    0.176517
     8  H    0.181235
     9  H    0.188498
    10  H    0.195775
    11  O   -0.689013
    12  H    0.471073
 Sum of Mulliken charges =   0.00000
 Mulliken charges with hydrogens summed into heavy atoms:
               1
     1  C   -0.183535
     2  C    0.183035
     3  C    0.012023
     4  C    0.329309
     5  C    0.070542
     6  N   -0.193436
    11  O   -0.217939
 Electronic spatial extent (au):  <R**2>=            643.0577
 Charge=              0.0000 electrons
 Dipole moment (field-independent basis, Debye):
    X=              1.1481    Y=              3.5012    Z=              0.0004  Tot=              3.6847
 Quadrupole moment (field-independent basis, Debye-Ang):
   XX=            -38.0714   YY=            -39.1818   ZZ=            -43.6288
   XY=              0.6147   XZ=              0.0017   YZ=              0.0005
 Traceless Quadrupole moment (field-independent basis, Debye-Ang):
   XX=              2.2226   YY=              1.1122   ZZ=             -3.3348
   XY=              0.6147   XZ=              0.0017   YZ=              0.0005
 Octapole moment (field-independent basis, Debye-Ang**2):
  XXX=              8.2322  YYY=             10.0632  ZZZ=             -0.0001  XYY=             13.8588
  XXY=             19.6952  XXZ=              0.0035  XZZ=              4.1912  YZZ=             -1.0907
  YYZ=              0.0002  XYZ=              0.0013
 Hexadecapole moment (field-independent basis, Debye-Ang**3):
 XXXX=           -464.1095 YYYY=           -280.0154 ZZZZ=            -49.4370 XXXY=             31.2176
 XXXZ=              0.0134 YYYX=            -15.7588 YYYZ=              0.0010 ZZZX=              0.0007
 ZZZY=              0.0004 XXYY=           -128.9797 XXZZ=           -100.8366 YYZZ=            -61.6795
 XXYZ=              0.0035 YYXZ=              0.0010 ZZXY=              1.5150
 N-N= 2.734303250596D+02 E-N=-1.299491009039D+03  KE= 3.204489996179D+02
 Evaluate density.
 Using the total density.
 Monte-Carlo method of calculating molar volume:
 based on  0.001 e/bohr**3 density envelope.
 Number of points per bohr**3 =   20 CutOff= 1.00D-04
 Using the SCF density.
 There are       327 points.  Will hold       327 in memory.
 LenV=  8052995019 MDV=  8053063680.
 Box volume = 4401.204 fraction occupied=0.168
 Integrated density= 3.0106881460878348D+01 error=-1.9893118539121652D+01
 Molar volume =  740.264 bohr**3/mol ( 66.060 cm**3/mol)
 Recommended a0 for SCRF calculation =  3.77 angstrom (  7.12 bohr)
 Calling FoFJK, ICntrl=      2127 FMM=F ISym2X=0 I1Cent= 0 IOpClX= 0 NMat=1 NMatS=1 NMatT=0.
 ***** Axes restored to original set *****
 -------------------------------------------------------------------
 Center     Atomic                   Forces (Hartrees/Bohr)
 Number     Number              X              Y              Z
 -------------------------------------------------------------------
      1        6          -0.000012666   -0.000069531    0.000021088
      2        6          -0.000093952    0.000061361   -0.000017418
      3        6           0.000105082   -0.000050456    0.000004263
      4        6          -0.000012001   -0.000004347    0.000001277
      5        6          -0.000038565    0.000050165    0.000001242
      6        7           0.000040798    0.000017235   -0.000006704
      7        1          -0.000008429    0.000020763    0.000001703
      8        1           0.000011440    0.000007463   -0.000005399
      9        1           0.000012772   -0.000002262    0.000002231
     10        1           0.000005372   -0.000016626    0.000000519
     11        8          -0.000058281    0.000038467   -0.000004714
     12        1           0.000048430   -0.000052231    0.000001911
 -------------------------------------------------------------------
 Cartesian Forces:  Max     0.000105082 RMS     0.000037003

 GradGradGradGradGradGradGradGradGradGradGradGradGradGradGradGradGradGrad
 Berny optimization.
 FormGI is forming the generalized inverse of G from B-inverse, IUseBI=4.
 Internal  Forces:  Max     0.000069863 RMS     0.000018974
 Search for a local minimum.
 Step number   1 out of a maximum of   61
 All quantities printed in internal units (Hartrees-Bohrs-Radians)
 Mixed Optimization -- En-DIIS/RFO-DIIS
 Second derivative matrix not updated -- first step.
 ITU=  0
     Eigenvalues ---    0.02092   0.02108   0.02116   0.02137   0.02140
     Eigenvalues ---    0.02161   0.02211   0.02251   0.02425   0.16000
     Eigenvalues ---    0.16000   0.16000   0.16000   0.16000   0.22000
     Eigenvalues ---    0.23203   0.23456   0.25000   0.34961   0.35072
     Eigenvalues ---    0.35107   0.35223   0.41848   0.44078   0.45618
     Eigenvalues ---    0.46270   0.51259   0.53343   0.55085   0.57166
 RFO step:  Lambda=-5.76283137D-08 EMin= 2.09248298D-02
 Linear search not attempted -- first point.
 Iteration  1 RMS(Cart)=  0.00008131 RMS(Int)=  0.00000001
 Iteration  2 RMS(Cart)=  0.00000001 RMS(Int)=  0.00000000
 Variable       Old X    -DE/DX   Delta X   Delta X   Delta X     New X
                                 (Linear)    (Quad)   (Total)
    R1        2.63819   0.00003   0.00000   0.00007   0.00007   2.63826
    R2        2.53571  -0.00003   0.00000  -0.00005  -0.00005   2.53566
    R3        2.05501   0.00001   0.00000   0.00003   0.00003   2.05504
    R4        2.63906  -0.00007   0.00000  -0.00015  -0.00015   2.63890
    R5        2.05315   0.00001   0.00000   0.00001   0.00001   2.05316
    R6        2.63770   0.00001   0.00000   0.00002   0.00002   2.63772
    R7        2.05739   0.00002   0.00000   0.00006   0.00006   2.05745
    R8        2.65199  -0.00002   0.00000  -0.00005  -0.00005   2.65194
    R9        2.58616   0.00001   0.00000   0.00002   0.00002   2.58618
   R10        2.52125   0.00003   0.00000   0.00005   0.00005   2.52130
   R11        2.05558   0.00001   0.00000   0.00003   0.00003   2.05562
   R12        1.83334  -0.00007   0.00000  -0.00013  -0.00013   1.83322
    A1        2.14579   0.00000   0.00000   0.00000   0.00000   2.14579
    A2        2.10839  -0.00001   0.00000  -0.00006  -0.00006   2.10834
    A3        2.02900   0.00001   0.00000   0.00006   0.00006   2.02906
    A4        2.07629  -0.00001   0.00000  -0.00005  -0.00005   2.07624
    A5        2.10259  -0.00001   0.00000  -0.00005  -0.00005   2.10254
    A6        2.10430   0.00002   0.00000   0.00010   0.00010   2.10440
    A7        2.06323   0.00003   0.00000   0.00011   0.00011   2.06334
    A8        2.11194  -0.00002   0.00000  -0.00007  -0.00007   2.11188
    A9        2.10801  -0.00001   0.00000  -0.00004  -0.00004   2.10797
   A10        2.07143  -0.00002   0.00000  -0.00008  -0.00008   2.07135
   A11        2.16430   0.00001   0.00000   0.00003   0.00003   2.16433
   A12        2.04746   0.00001   0.00000   0.00004   0.00004   2.04750
   A13        2.14825   0.00000   0.00000   0.00002   0.00002   2.14828
   A14        2.08209   0.00001   0.00000   0.00008   0.00008   2.08217
   A15        2.05284  -0.00002   0.00000  -0.00010  -0.00010   2.05274
   A16        2.06137   0.00000   0.00000  -0.00001  -0.00001   2.06137
   A17        1.92638  -0.00004   0.00000  -0.00025  -0.00025   1.92613
    D1       -0.00016   0.00001   0.00000   0.00026   0.00026   0.00010
    D2        3.14158   0.00000   0.00000   0.00008   0.00008  -3.14153
    D3       -3.14154   0.00000   0.00000  -0.00006  -0.00006   3.14158
    D4        0.00020  -0.00001   0.00000  -0.00024  -0.00024  -0.00004
    D5        0.00011   0.00000   0.00000  -0.00017  -0.00017  -0.00006
    D6        3.14150   0.00000   0.00000   0.00013   0.00013  -3.14155
    D7        0.00013   0.00000   0.00000  -0.00019  -0.00019  -0.00006
    D8       -3.14150   0.00000   0.00000  -0.00013  -0.00013   3.14155
    D9        3.14158   0.00000   0.00000  -0.00002  -0.00002   3.14156
   D10       -0.00005   0.00000   0.00000   0.00004   0.00004  -0.00001
   D11       -0.00006   0.00000   0.00000   0.00006   0.00006   0.00000
   D12        3.14149   0.00000   0.00000   0.00011   0.00011  -3.14159
   D13        3.14157   0.00000   0.00000   0.00000   0.00000   3.14157
   D14       -0.00007   0.00000   0.00000   0.00005   0.00005  -0.00002
   D15        0.00001   0.00000   0.00000   0.00002   0.00002   0.00003
   D16        3.14159   0.00000   0.00000   0.00002   0.00002  -3.14158
   D17       -3.14154   0.00000   0.00000  -0.00002  -0.00002  -3.14156
   D18        0.00004   0.00000   0.00000  -0.00003  -0.00003   0.00002
   D19        0.00033   0.00000   0.00000  -0.00010  -0.00010   0.00023
   D20       -3.14131   0.00000   0.00000  -0.00005  -0.00005  -3.14136
   D21       -0.00003   0.00000   0.00000   0.00003   0.00003   0.00000
   D22        3.14157   0.00000   0.00000   0.00003   0.00003  -3.14158
         Item               Value     Threshold  Converged?
 Maximum Force            0.000070     0.000450     YES
 RMS     Force            0.000019     0.000300     YES
 Maximum Displacement     0.000388     0.001800     YES
 RMS     Displacement     0.000081     0.001200     YES
 Predicted change in Energy=-2.881412D-08
 Optimization completed.
    -- Stationary point found.
                           ----------------------------
                           !   Optimized Parameters   !
                           ! (Angstroms and Degrees)  !
 --------------------------                            --------------------------
 ! Name  Definition              Value          Derivative Info.                !
 --------------------------------------------------------------------------------
 ! R1    R(1,2)                  1.3961         -DE/DX =    0.0                 !
 ! R2    R(1,6)                  1.3418         -DE/DX =    0.0                 !
 ! R3    R(1,8)                  1.0875         -DE/DX =    0.0                 !
 ! R4    R(2,3)                  1.3965         -DE/DX =   -0.0001              !
 ! R5    R(2,9)                  1.0865         -DE/DX =    0.0                 !
 ! R6    R(3,4)                  1.3958         -DE/DX =    0.0                 !
 ! R7    R(3,7)                  1.0887         -DE/DX =    0.0                 !
 ! R8    R(4,5)                  1.4034         -DE/DX =    0.0                 !
 ! R9    R(4,11)                 1.3685         -DE/DX =    0.0                 !
 ! R10   R(5,6)                  1.3342         -DE/DX =    0.0                 !
 ! R11   R(5,10)                 1.0878         -DE/DX =    0.0                 !
 ! R12   R(11,12)                0.9702         -DE/DX =   -0.0001              !
 ! A1    A(2,1,6)              122.9446         -DE/DX =    0.0                 !
 ! A2    A(2,1,8)              120.8021         -DE/DX =    0.0                 !
 ! A3    A(6,1,8)              116.2533         -DE/DX =    0.0                 !
 ! A4    A(1,2,3)              118.9627         -DE/DX =    0.0                 !
 ! A5    A(1,2,9)              120.4697         -DE/DX =    0.0                 !
 ! A6    A(3,2,9)              120.5676         -DE/DX =    0.0                 !
 ! A7    A(2,3,4)              118.2146         -DE/DX =    0.0                 !
 ! A8    A(2,3,7)              121.0055         -DE/DX =    0.0                 !
 ! A9    A(4,3,7)              120.7799         -DE/DX =    0.0                 !
 ! A10   A(3,4,5)              118.6843         -DE/DX =    0.0                 !
 ! A11   A(3,4,11)             124.005          -DE/DX =    0.0                 !
 ! A12   A(5,4,11)             117.3107         -DE/DX =    0.0                 !
 ! A13   A(4,5,6)              123.0858         -DE/DX =    0.0                 !
 ! A14   A(4,5,10)             119.2951         -DE/DX =    0.0                 !
 ! A15   A(6,5,10)             117.619          -DE/DX =    0.0                 !
 ! A16   A(1,6,5)              118.108          -DE/DX =    0.0                 !
 ! A17   A(4,11,12)            110.3735         -DE/DX =    0.0                 !
 ! D1    D(6,1,2,3)             -0.0091         -DE/DX =    0.0                 !
 ! D2    D(6,1,2,9)           -180.0007         -DE/DX =    0.0                 !
 ! D3    D(8,1,2,3)            180.0029         -DE/DX =    0.0                 !
 ! D4    D(8,1,2,9)              0.0113         -DE/DX =    0.0                 !
 ! D5    D(2,1,6,5)              0.0061         -DE/DX =    0.0                 !
 ! D6    D(8,1,6,5)           -180.0054         -DE/DX =    0.0                 !
 ! D7    D(1,2,3,4)              0.0074         -DE/DX =    0.0                 !
 ! D8    D(1,2,3,7)            180.0053         -DE/DX =    0.0                 !
 ! D9    D(9,2,3,4)            179.9991         -DE/DX =    0.0                 !
 ! D10   D(9,2,3,7)             -0.0031         -DE/DX =    0.0                 !
 ! D11   D(2,3,4,5)             -0.0035         -DE/DX =    0.0                 !
 ! D12   D(2,3,4,11)          -180.0061         -DE/DX =    0.0                 !
 ! D13   D(7,3,4,5)            179.9987         -DE/DX =    0.0                 !
 ! D14   D(7,3,4,11)            -0.004          -DE/DX =    0.0                 !
 ! D15   D(3,4,5,6)              0.0006         -DE/DX =    0.0                 !
 ! D16   D(3,4,5,10)          -180.0001         -DE/DX =    0.0                 !
 ! D17   D(11,4,5,6)          -179.9969         -DE/DX =    0.0                 !
 ! D18   D(11,4,5,10)            0.0024         -DE/DX =    0.0                 !
 ! D19   D(3,4,11,12)            0.0188         -DE/DX =    0.0                 !
 ! D20   D(5,4,11,12)         -179.9838         -DE/DX =    0.0                 !
 ! D21   D(4,5,6,1)             -0.0018         -DE/DX =    0.0                 !
 ! D22   D(10,5,6,1)          -180.0011         -DE/DX =    0.0                 !
 --------------------------------------------------------------------------------
 GradGradGradGradGradGradGradGradGradGradGradGradGradGradGradGradGradGrad

                          Input orientation:                          
 ---------------------------------------------------------------------
 Center     Atomic      Atomic             Coordinates (Angstroms)
 Number     Number       Type             X           Y           Z
 ---------------------------------------------------------------------
      1          6           0        1.808951   -0.074530   -0.000036
      2          6           0        1.171449    1.167485    0.000047
      3          6           0       -0.224397    1.211159   -0.000022
      4          6           0       -0.922444    0.002435   -0.000012
      5          6           0       -0.193179   -1.196574   -0.000008
      6          7           0        1.140367   -1.237944   -0.000002
      7          1           0       -0.755763    2.161405   -0.000047
      8          1           0        2.894233   -0.143410    0.000062
      9          1           0        1.752969    2.085239    0.000027
     10          1           0       -0.727101   -2.144290    0.000001
     11          8           0       -2.287650   -0.092988    0.000047
     12          1           0       -2.687993    0.790722   -0.000219
 ---------------------------------------------------------------------
                    Distance matrix (angstroms):
                    1          2          3          4          5
     1  C    0.000000
     2  C    1.396070   0.000000
     3  C    2.405722   1.396529   0.000000
     4  C    2.732479   2.396191   1.395809   0.000000
     5  C    2.295105   2.729649   2.407935   1.403371   0.000000
     6  N    1.341841   2.405630   2.803692   2.407017   1.334188
     7  H    3.402523   2.168415   1.088723   2.165395   3.404780
     8  H    1.087466   2.164816   3.400104   3.819463   3.262096
     9  H    2.160494   1.086480   2.161942   3.390561   3.815467
    10  H    3.273449   3.817374   3.392897   2.155594   1.087768
    11  O    4.096643   3.681597   2.440863   1.368537   2.367427
    12  H    4.579429   3.877788   2.499214   1.933536   3.189583
                    6          7          8          9         10
     6  N    0.000000
     7  H    3.892413   0.000000
     8  H    2.067378   4.316786   0.000000
     9  H    3.379175   2.509888   2.503869   0.000000
    10  H    2.075789   4.305790   4.137340   4.903026   0.000000
    11  O    3.614170   2.725613   5.182128   4.590346   2.577431
    12  H    4.332647   2.369026   5.659845   4.625788   3.529787
                   11         12
    11  O    0.000000
    12  H    0.970164   0.000000
 Stoichiometry    C5H5NO
 Framework group  C1[X(C5H5NO)]
 Deg. of freedom    30
 Full point group                 C1      NOp   1
 Largest Abelian subgroup         C1      NOp   1
 Largest concise Abelian subgroup C1      NOp   1
                         Standard orientation:                         
 ---------------------------------------------------------------------
 Center     Atomic      Atomic             Coordinates (Angstroms)
 Number     Number       Type             X           Y           Z
 ---------------------------------------------------------------------
      1          6           0       -1.808951   -0.074530    0.000036
      2          6           0       -1.171449    1.167485   -0.000047
      3          6           0        0.224397    1.211159    0.000022
      4          6           0        0.922444    0.002435    0.000012
      5          6           0        0.193179   -1.196574    0.000008
      6          7           0       -1.140367   -1.237944    0.000002
      7          1           0        0.755763    2.161405    0.000047
      8          1           0       -2.894233   -0.143410   -0.000062
      9          1           0       -1.752969    2.085239   -0.000027
     10          1           0        0.727101   -2.144290   -0.000001
     11          8           0        2.287650   -0.092988   -0.000047
     12          1           0        2.687993    0.790722    0.000219
 ---------------------------------------------------------------------
 Rotational constants (GHZ):           5.8028609           2.6760433           1.8314521
 1\1\GINC-IP-172-31-28-242\FOpt\RB3LYP\6-31+G(d)\C5H5N1O1\UBUNTU\19-Sep
 -2023\0\\# opt freq b3lyp/6-31+g(d) empiricaldispersion=gd3 scf=maxcyc
 le=1000 volume\\Title Card Required\\0,1\C,1.808951,-0.07453,-0.000036
 \C,1.171449,1.167485,0.000047\C,-0.224397,1.211159,-0.000022\C,-0.9224
 44,0.002435,-0.000012\C,-0.193179,-1.196574,-0.000008\N,1.140367,-1.23
 7944,-0.000002\H,-0.755763,2.161405,-0.000047\H,2.894233,-0.14341,0.00
 0062\H,1.752969,2.085239,0.000027\H,-0.727101,-2.14429,0.000001\O,-2.2
 8765,-0.092988,0.000047\H,-2.687993,0.790722,-0.000219\\Version=EM64L-
 G16RevB.01\State=1-A\HF=-323.5213721\RMSD=7.136e-09\RMSF=3.700e-05\Dip
 ole=-0.4516846,1.3774922,-0.000171\Quadrupole=1.652448,0.826877,-2.479
 325,-0.4569781,0.0012357,-0.0003908\PG=C01 [X(C5H5N1O1)]\\@


 I WANT TO KNOW HOW GOD CREATED THE WORLD.  I AM NOT INTERESTED IN
 THIS OR THAT PHENOMENON, IN THE SPECTRUM OF THIS OR THAT ELEMENT.
 I WANT TO KNOW HIS THOUGHTS, THE REST ARE DETAILS.
     -- ALBERT EINSTEIN
 Job cpu time:       0 days  0 hours  3 minutes 31.0 seconds.
 Elapsed time:       0 days  0 hours  0 minutes  6.6 seconds.
 File lengths (MBytes):  RWF=     11 Int=      0 D2E=      0 Chk=      3 Scr=      1
 Normal termination of Gaussian 16 at Tue Sep 19 06:44:10 2023.
 Link1:  Proceeding to internal job step number  2.
 ---------------------------------------------------------------------
 #N Geom=AllCheck Guess=TCheck SCRF=Check GenChk RB3LYP/6-31+G(d) Freq
 ---------------------------------------------------------------------
 1/10=4,29=7,30=1,38=1,40=1/1,3;
 2/12=2,40=1/2;
 3/5=1,6=6,7=11,11=2,14=-4,25=1,30=1,70=2,71=2,74=-5,116=1,124=31,140=1/1,2,3;
 4/5=101/1;
 5/5=2,7=1000,38=6,98=1/2;
 8/6=4,10=90,11=11/1;
 11/6=1,8=1,9=11,15=111,16=1/1,2,10;
 10/6=1/2;
 6/7=2,8=2,9=2,10=2,28=1/1;
 7/8=1,10=1,25=1/1,2,3,16;
 1/10=4,30=1/3;
 99//99;
 Structure from the checkpoint file:  "molecule32vol.chk"
 -------------------
 Title Card Required
 -------------------
 Charge =  0 Multiplicity = 1
 Redundant internal coordinates found in file.  (old form).
 C,0,1.808951,-0.07453,-0.000036
 C,0,1.171449,1.167485,0.000047
 C,0,-0.224397,1.211159,-0.000022
 C,0,-0.922444,0.002435,-0.000012
 C,0,-0.193179,-1.196574,-0.000008
 N,0,1.140367,-1.237944,-0.000002
 H,0,-0.755763,2.161405,-0.000047
 H,0,2.894233,-0.14341,0.000062
 H,0,1.752969,2.085239,0.000027
 H,0,-0.727101,-2.14429,0.000001
 O,0,-2.28765,-0.092988,0.000047
 H,0,-2.687993,0.790722,-0.000219
 Recover connectivity data from disk.

 GradGradGradGradGradGradGradGradGradGradGradGradGradGradGradGradGradGrad
 Berny optimization.
 Initialization pass.
                           ----------------------------
                           !    Initial Parameters    !
                           ! (Angstroms and Degrees)  !
 --------------------------                            --------------------------
 ! Name  Definition              Value          Derivative Info.                !
 --------------------------------------------------------------------------------
 ! R1    R(1,2)                  1.3961         calculate D2E/DX2 analytically  !
 ! R2    R(1,6)                  1.3418         calculate D2E/DX2 analytically  !
 ! R3    R(1,8)                  1.0875         calculate D2E/DX2 analytically  !
 ! R4    R(2,3)                  1.3965         calculate D2E/DX2 analytically  !
 ! R5    R(2,9)                  1.0865         calculate D2E/DX2 analytically  !
 ! R6    R(3,4)                  1.3958         calculate D2E/DX2 analytically  !
 ! R7    R(3,7)                  1.0887         calculate D2E/DX2 analytically  !
 ! R8    R(4,5)                  1.4034         calculate D2E/DX2 analytically  !
 ! R9    R(4,11)                 1.3685         calculate D2E/DX2 analytically  !
 ! R10   R(5,6)                  1.3342         calculate D2E/DX2 analytically  !
 ! R11   R(5,10)                 1.0878         calculate D2E/DX2 analytically  !
 ! R12   R(11,12)                0.9702         calculate D2E/DX2 analytically  !
 ! A1    A(2,1,6)              122.9446         calculate D2E/DX2 analytically  !
 ! A2    A(2,1,8)              120.8021         calculate D2E/DX2 analytically  !
 ! A3    A(6,1,8)              116.2533         calculate D2E/DX2 analytically  !
 ! A4    A(1,2,3)              118.9627         calculate D2E/DX2 analytically  !
 ! A5    A(1,2,9)              120.4697         calculate D2E/DX2 analytically  !
 ! A6    A(3,2,9)              120.5676         calculate D2E/DX2 analytically  !
 ! A7    A(2,3,4)              118.2146         calculate D2E/DX2 analytically  !
 ! A8    A(2,3,7)              121.0055         calculate D2E/DX2 analytically  !
 ! A9    A(4,3,7)              120.7799         calculate D2E/DX2 analytically  !
 ! A10   A(3,4,5)              118.6843         calculate D2E/DX2 analytically  !
 ! A11   A(3,4,11)             124.005          calculate D2E/DX2 analytically  !
 ! A12   A(5,4,11)             117.3107         calculate D2E/DX2 analytically  !
 ! A13   A(4,5,6)              123.0858         calculate D2E/DX2 analytically  !
 ! A14   A(4,5,10)             119.2951         calculate D2E/DX2 analytically  !
 ! A15   A(6,5,10)             117.619          calculate D2E/DX2 analytically  !
 ! A16   A(1,6,5)              118.108          calculate D2E/DX2 analytically  !
 ! A17   A(4,11,12)            110.3735         calculate D2E/DX2 analytically  !
 ! D1    D(6,1,2,3)             -0.0091         calculate D2E/DX2 analytically  !
 ! D2    D(6,1,2,9)            179.9993         calculate D2E/DX2 analytically  !
 ! D3    D(8,1,2,3)           -179.9971         calculate D2E/DX2 analytically  !
 ! D4    D(8,1,2,9)              0.0113         calculate D2E/DX2 analytically  !
 ! D5    D(2,1,6,5)              0.0061         calculate D2E/DX2 analytically  !
 ! D6    D(8,1,6,5)            179.9946         calculate D2E/DX2 analytically  !
 ! D7    D(1,2,3,4)              0.0074         calculate D2E/DX2 analytically  !
 ! D8    D(1,2,3,7)           -179.9947         calculate D2E/DX2 analytically  !
 ! D9    D(9,2,3,4)            179.9991         calculate D2E/DX2 analytically  !
 ! D10   D(9,2,3,7)             -0.0031         calculate D2E/DX2 analytically  !
 ! D11   D(2,3,4,5)             -0.0035         calculate D2E/DX2 analytically  !
 ! D12   D(2,3,4,11)           179.9939         calculate D2E/DX2 analytically  !
 ! D13   D(7,3,4,5)            179.9987         calculate D2E/DX2 analytically  !
 ! D14   D(7,3,4,11)            -0.004          calculate D2E/DX2 analytically  !
 ! D15   D(3,4,5,6)              0.0006         calculate D2E/DX2 analytically  !
 ! D16   D(3,4,5,10)           179.9999         calculate D2E/DX2 analytically  !
 ! D17   D(11,4,5,6)          -179.9969         calculate D2E/DX2 analytically  !
 ! D18   D(11,4,5,10)            0.0024         calculate D2E/DX2 analytically  !
 ! D19   D(3,4,11,12)            0.0188         calculate D2E/DX2 analytically  !
 ! D20   D(5,4,11,12)         -179.9838         calculate D2E/DX2 analytically  !
 ! D21   D(4,5,6,1)             -0.0018         calculate D2E/DX2 analytically  !
 ! D22   D(10,5,6,1)           179.9989         calculate D2E/DX2 analytically  !
 --------------------------------------------------------------------------------
 Trust Radius=3.00D-01 FncErr=1.00D-07 GrdErr=1.00D-07 EigMax=2.50D+02 EigMin=1.00D-04
 Number of steps in this run=      2 maximum allowed number of steps=      2.
 GradGradGradGradGradGradGradGradGradGradGradGradGradGradGradGradGradGrad

                          Input orientation:                          
 ---------------------------------------------------------------------
 Center     Atomic      Atomic             Coordinates (Angstroms)
 Number     Number       Type             X           Y           Z
 ---------------------------------------------------------------------
      1          6           0        1.808951   -0.074530   -0.000036
      2          6           0        1.171449    1.167485    0.000047
      3          6           0       -0.224397    1.211159   -0.000022
      4          6           0       -0.922444    0.002435   -0.000012
      5          6           0       -0.193179   -1.196574   -0.000008
      6          7           0        1.140367   -1.237944   -0.000002
      7          1           0       -0.755763    2.161405   -0.000047
      8          1           0        2.894233   -0.143410    0.000062
      9          1           0        1.752969    2.085239    0.000027
     10          1           0       -0.727101   -2.144290    0.000001
     11          8           0       -2.287650   -0.092988    0.000047
     12          1           0       -2.687993    0.790722   -0.000219
 ---------------------------------------------------------------------
                    Distance matrix (angstroms):
                    1          2          3          4          5
     1  C    0.000000
     2  C    1.396070   0.000000
     3  C    2.405722   1.396529   0.000000
     4  C    2.732479   2.396191   1.395809   0.000000
     5  C    2.295105   2.729649   2.407935   1.403371   0.000000
     6  N    1.341841   2.405630   2.803692   2.407017   1.334188
     7  H    3.402523   2.168415   1.088723   2.165395   3.404780
     8  H    1.087466   2.164816   3.400104   3.819463   3.262096
     9  H    2.160494   1.086480   2.161942   3.390561   3.815467
    10  H    3.273449   3.817374   3.392897   2.155594   1.087768
    11  O    4.096643   3.681597   2.440863   1.368537   2.367427
    12  H    4.579429   3.877788   2.499214   1.933536   3.189583
                    6          7          8          9         10
     6  N    0.000000
     7  H    3.892413   0.000000
     8  H    2.067378   4.316786   0.000000
     9  H    3.379175   2.509888   2.503869   0.000000
    10  H    2.075789   4.305790   4.137340   4.903026   0.000000
    11  O    3.614170   2.725613   5.182128   4.590346   2.577431
    12  H    4.332647   2.369026   5.659845   4.625788   3.529787
                   11         12
    11  O    0.000000
    12  H    0.970164   0.000000
 Stoichiometry    C5H5NO
 Framework group  C1[X(C5H5NO)]
 Deg. of freedom    30
 Full point group                 C1      NOp   1
 Largest Abelian subgroup         C1      NOp   1
 Largest concise Abelian subgroup C1      NOp   1
                         Standard orientation:                         
 ---------------------------------------------------------------------
 Center     Atomic      Atomic             Coordinates (Angstroms)
 Number     Number       Type             X           Y           Z
 ---------------------------------------------------------------------
      1          6           0       -1.808951   -0.074530    0.000036
      2          6           0       -1.171449    1.167485   -0.000047
      3          6           0        0.224397    1.211159    0.000022
      4          6           0        0.922444    0.002435    0.000012
      5          6           0        0.193179   -1.196574    0.000008
      6          7           0       -1.140367   -1.237944    0.000002
      7          1           0        0.755763    2.161405    0.000047
      8          1           0       -2.894233   -0.143410   -0.000062
      9          1           0       -1.752969    2.085239   -0.000027
     10          1           0        0.727101   -2.144290   -0.000001
     11          8           0        2.287650   -0.092988   -0.000047
     12          1           0        2.687993    0.790722    0.000219
 ---------------------------------------------------------------------
 Rotational constants (GHZ):           5.8028609           2.6760433           1.8314521
 Standard basis: 6-31+G(d) (6D, 7F)
 There are   143 symmetry adapted cartesian basis functions of A   symmetry.
 There are   143 symmetry adapted basis functions of A   symmetry.
   143 basis functions,   244 primitive gaussians,   143 cartesian basis functions
    25 alpha electrons       25 beta electrons
       nuclear repulsion energy       273.4363133543 Hartrees.
 NAtoms=   12 NActive=   12 NUniq=   12 SFac= 1.00D+00 NAtFMM=   60 NAOKFM=F Big=F
 Integral buffers will be    131072 words long.
 Raffenetti 2 integral format.
 Two-electron integral symmetry is turned on.
 Nuclear repulsion after empirical dispersion term =      273.4303250596 Hartrees.
 One-electron integrals computed using PRISM.
 NBasis=   143 RedAO= T EigKep=  2.11D-05  NBF=   143
 NBsUse=   143 1.00D-06 EigRej= -1.00D+00 NBFU=   143
 Initial guess from the checkpoint file:  "molecule32vol.chk"
 B after Tr=     0.000000    0.000000    0.000000
         Rot=    1.000000    0.000000    0.000000    0.000000 Ang=   0.00 deg.
 Keep R1 ints in memory in canonical form, NReq=83990704.
 Requested convergence on RMS density matrix=1.00D-08 within1000 cycles.
 Requested convergence on MAX density matrix=1.00D-06.
 Requested convergence on             energy=1.00D-06.
 No special actions if energy rises.
 SCF Done:  E(RB3LYP) =  -323.521372082     A.U. after    1 cycles
            NFock=  1  Conv=0.24D-08     -V/T= 2.0096
 DoSCS=F DFT=T ScalE2(SS,OS)=  1.000000  1.000000
 Range of M.O.s used for correlation:     1   143
 NBasis=   143 NAE=    25 NBE=    25 NFC=     0 NFV=     0
 NROrb=    143 NOA=    25 NOB=    25 NVA=   118 NVB=   118

 **** Warning!!: The largest alpha MO coefficient is  0.69129405D+02

 Symmetrizing basis deriv contribution to polar:
 IMax=3 JMax=2 DiffMx= 0.00D+00
 G2DrvN: will do    13 centers at a time, making    1 passes.
 Calling FoFCou, ICntrl=  3107 FMM=F I1Cent=   0 AccDes= 0.00D+00.
 End of G2Drv F.D. properties file   721 does not exist.
 End of G2Drv F.D. properties file   722 does not exist.
 End of G2Drv F.D. properties file   788 does not exist.
          IDoAtm=111111111111
          Differentiating once with respect to electric field.
                with respect to dipole field.
          Differentiating once with respect to nuclear coordinates.
 Keep R1 ints in memory in canonical form, NReq=83890578.
          There are    39 degrees of freedom in the 1st order CPHF.  IDoFFX=6 NUNeed=     3.
     36 vectors produced by pass  0 Test12= 7.56D-15 2.56D-09 XBig12= 1.05D+02 6.19D+00.
 AX will form    36 AO Fock derivatives at one time.
     36 vectors produced by pass  1 Test12= 7.56D-15 2.56D-09 XBig12= 2.27D+01 1.19D+00.
     36 vectors produced by pass  2 Test12= 7.56D-15 2.56D-09 XBig12= 2.27D-01 6.55D-02.
     36 vectors produced by pass  3 Test12= 7.56D-15 2.56D-09 XBig12= 1.38D-03 6.35D-03.
     36 vectors produced by pass  4 Test12= 7.56D-15 2.56D-09 XBig12= 3.06D-06 2.90D-04.
     34 vectors produced by pass  5 Test12= 7.56D-15 2.56D-09 XBig12= 2.30D-09 8.14D-06.
      6 vectors produced by pass  6 Test12= 7.56D-15 2.56D-09 XBig12= 1.64D-12 2.68D-07.
      3 vectors produced by pass  7 Test12= 7.56D-15 2.56D-09 XBig12= 1.14D-15 5.99D-09.
 InvSVY:  IOpt=1 It=  1 EMax= 8.88D-15
 Solved reduced A of dimension   223 with    39 vectors.
 Isotropic polarizability for W=    0.000000       66.46 Bohr**3.
 End of Minotr F.D. properties file   721 does not exist.
 End of Minotr F.D. properties file   722 does not exist.
 End of Minotr F.D. properties file   788 does not exist.

 **********************************************************************

            Population analysis using the SCF Density.

 **********************************************************************

 Orbital symmetries:
       Occupied  (A) (A) (A) (A) (A) (A) (A) (A) (A) (A) (A) (A)
                 (A) (A) (A) (A) (A) (A) (A) (A) (A) (A) (A) (A)
                 (A)
       Virtual   (A) (A) (A) (A) (A) (A) (A) (A) (A) (A) (A) (A)
                 (A) (A) (A) (A) (A) (A) (A) (A) (A) (A) (A) (A)
                 (A) (A) (A) (A) (A) (A) (A) (A) (A) (A) (A) (A)
                 (A) (A) (A) (A) (A) (A) (A) (A) (A) (A) (A) (A)
                 (A) (A) (A) (A) (A) (A) (A) (A) (A) (A) (A) (A)
                 (A) (A) (A) (A) (A) (A) (A) (A) (A) (A) (A) (A)
                 (A) (A) (A) (A) (A) (A) (A) (A) (A) (A) (A) (A)
                 (A) (A) (A) (A) (A) (A) (A) (A) (A) (A) (A) (A)
                 (A) (A) (A) (A) (A) (A) (A) (A) (A) (A) (A) (A)
                 (A) (A) (A) (A) (A) (A) (A) (A) (A) (A)
 The electronic state is 1-A.
 Alpha  occ. eigenvalues --  -19.20694 -14.34474 -10.27294 -10.22910 -10.22659
 Alpha  occ. eigenvalues --  -10.22214 -10.21493  -1.08407  -0.94902  -0.81311
 Alpha  occ. eigenvalues --   -0.76795  -0.65961  -0.63936  -0.56316  -0.52535
 Alpha  occ. eigenvalues --   -0.50324  -0.45611  -0.43514  -0.42549  -0.41541
 Alpha  occ. eigenvalues --   -0.37659  -0.37486  -0.29454  -0.26581  -0.24702
 Alpha virt. eigenvalues --   -0.04003  -0.01551  -0.01356   0.00945   0.02865
 Alpha virt. eigenvalues --    0.04056   0.05290   0.05367   0.06381   0.08695
 Alpha virt. eigenvalues --    0.08946   0.09536   0.09777   0.12847   0.13136
 Alpha virt. eigenvalues --    0.13651   0.13653   0.14066   0.15103   0.15727
 Alpha virt. eigenvalues --    0.16088   0.18477   0.20399   0.20660   0.21099
 Alpha virt. eigenvalues --    0.23023   0.23853   0.24621   0.24654   0.25220
 Alpha virt. eigenvalues --    0.26110   0.26812   0.27643   0.29362   0.31963
 Alpha virt. eigenvalues --    0.32673   0.33765   0.34945   0.36759   0.37912
 Alpha virt. eigenvalues --    0.40607   0.56255   0.58351   0.64256   0.65427
 Alpha virt. eigenvalues --    0.67529   0.70074   0.70740   0.72234   0.73518
 Alpha virt. eigenvalues --    0.76287   0.76474   0.80187   0.86707   0.90567
 Alpha virt. eigenvalues --    0.92885   0.93649   0.95895   1.01056   1.01381
 Alpha virt. eigenvalues --    1.02219   1.04912   1.09231   1.10033   1.13601
 Alpha virt. eigenvalues --    1.16083   1.17282   1.17584   1.19731   1.22049
 Alpha virt. eigenvalues --    1.22745   1.26619   1.34502   1.36709   1.42716
 Alpha virt. eigenvalues --    1.43331   1.45331   1.45401   1.49758   1.51115
 Alpha virt. eigenvalues --    1.65756   1.71079   1.79248   1.80292   1.84260
 Alpha virt. eigenvalues --    1.89146   1.93850   1.95319   1.96152   1.99513
 Alpha virt. eigenvalues --    2.13441   2.14793   2.15552   2.21030   2.25286
 Alpha virt. eigenvalues --    2.27687   2.30824   2.34197   2.46145   2.48841
 Alpha virt. eigenvalues --    2.55281   2.59665   2.67986   2.68228   2.74467
 Alpha virt. eigenvalues --    2.76731   2.80703   2.85163   3.01696   3.10588
 Alpha virt. eigenvalues --    3.41468   4.17141   4.18282   4.23814   4.28837
 Alpha virt. eigenvalues --    4.36291   4.42140   4.72105
          Condensed to atoms (all electrons):
               1          2          3          4          5          6
     1  C    5.931444  -0.181547   0.211444  -0.287016   0.021288   0.157008
     2  C   -0.181547   5.770640  -0.007838   0.277150  -0.198910   0.161511
     3  C    0.211444  -0.007838   6.256222   0.195001  -0.688723  -0.070915
     4  C   -0.287016   0.277150   0.195001   5.994505  -0.671225   0.149704
     5  C    0.021288  -0.198910  -0.688723  -0.671225   7.292894   0.097068
     6  N    0.157008   0.161511  -0.070915   0.149704   0.097068   6.861599
     7  H   -0.012728   0.055345   0.226644   0.029916  -0.010486   0.001947
     8  H    0.442019  -0.142794   0.044625  -0.021027   0.030114  -0.088998
     9  H    0.031204   0.274989   0.000987  -0.002015  -0.011221   0.004934
    10  H    0.038058  -0.035724   0.061569  -0.118865   0.403599  -0.088444
    11  O    0.020674   0.020134   0.051187   0.112887  -0.246763   0.009002
    12  H   -0.007077   0.012508  -0.115709   0.011676   0.107598  -0.000981
               7          8          9         10         11         12
     1  C   -0.012728   0.442019   0.031204   0.038058   0.020674  -0.007077
     2  C    0.055345  -0.142794   0.274989  -0.035724   0.020134   0.012508
     3  C    0.226644   0.044625   0.000987   0.061569   0.051187  -0.115709
     4  C    0.029916  -0.021027  -0.002015  -0.118865   0.112887   0.011676
     5  C   -0.010486   0.030114  -0.011221   0.403599  -0.246763   0.107598
     6  N    0.001947  -0.088998   0.004934  -0.088444   0.009002  -0.000981
     7  H    0.545283  -0.000146  -0.004889  -0.000142  -0.014222   0.006960
     8  H   -0.000146   0.556519  -0.001664  -0.000008   0.000126  -0.000001
     9  H   -0.004889  -0.001664   0.519616   0.000022  -0.000444  -0.000018
    10  H   -0.000142  -0.000008   0.000022   0.543614   0.000928  -0.000382
    11  O   -0.014222   0.000126  -0.000444   0.000928   8.588145   0.147361
    12  H    0.006960  -0.000001  -0.000018  -0.000382   0.147361   0.366992
 Mulliken charges:
               1
     1  C   -0.364770
     2  C   -0.005464
     3  C   -0.164494
     4  C    0.329309
     5  C   -0.125233
     6  N   -0.193436
     7  H    0.176517
     8  H    0.181235
     9  H    0.188498
    10  H    0.195775
    11  O   -0.689013
    12  H    0.471073
 Sum of Mulliken charges =   0.00000
 Mulliken charges with hydrogens summed into heavy atoms:
               1
     1  C   -0.183535
     2  C    0.183035
     3  C    0.012024
     4  C    0.329309
     5  C    0.070542
     6  N   -0.193436
    11  O   -0.217939
 APT charges:
               1
     1  C    0.077637
     2  C   -0.022752
     3  C   -0.046218
     4  C    0.493938
     5  C    0.090312
     6  N   -0.294014
     7  H    0.031315
     8  H    0.019351
     9  H    0.035518
    10  H    0.034644
    11  O   -0.693916
    12  H    0.274186
 Sum of APT charges =   0.00000
 APT charges with hydrogens summed into heavy atoms:
               1
     1  C    0.096988
     2  C    0.012766
     3  C   -0.014903
     4  C    0.493938
     5  C    0.124956
     6  N   -0.294014
    11  O   -0.419730
 Electronic spatial extent (au):  <R**2>=            643.0577
 Charge=              0.0000 electrons
 Dipole moment (field-independent basis, Debye):
    X=              1.1481    Y=              3.5012    Z=              0.0004  Tot=              3.6847
 Quadrupole moment (field-independent basis, Debye-Ang):
   XX=            -38.0714   YY=            -39.1818   ZZ=            -43.6288
   XY=              0.6147   XZ=              0.0017   YZ=              0.0005
 Traceless Quadrupole moment (field-independent basis, Debye-Ang):
   XX=              2.2226   YY=              1.1122   ZZ=             -3.3348
   XY=              0.6147   XZ=              0.0017   YZ=              0.0005
 Octapole moment (field-independent basis, Debye-Ang**2):
  XXX=              8.2322  YYY=             10.0632  ZZZ=             -0.0001  XYY=             13.8588
  XXY=             19.6952  XXZ=              0.0035  XZZ=              4.1912  YZZ=             -1.0907
  YYZ=              0.0002  XYZ=              0.0013
 Hexadecapole moment (field-independent basis, Debye-Ang**3):
 XXXX=           -464.1095 YYYY=           -280.0154 ZZZZ=            -49.4370 XXXY=             31.2176
 XXXZ=              0.0134 YYYX=            -15.7588 YYYZ=              0.0010 ZZZX=              0.0007
 ZZZY=              0.0004 XXYY=           -128.9797 XXZZ=           -100.8366 YYZZ=            -61.6795
 XXYZ=              0.0035 YYXZ=              0.0010 ZZXY=              1.5150
 N-N= 2.734303250596D+02 E-N=-1.299491009286D+03  KE= 3.204489996152D+02
  Exact polarizability:  85.622  -0.908  75.029   0.000   0.000  38.731
 Approx polarizability: 137.110  -2.072 124.204   0.000   0.000  54.698
 Calling FoFJK, ICntrl=    100127 FMM=F ISym2X=0 I1Cent= 0 IOpClX= 0 NMat=1 NMatS=1 NMatT=0.
 Full mass-weighted force constant matrix:
 Low frequencies ---   -4.6943   -4.0695   -3.2830    0.0008    0.0008    0.0009
 Low frequencies ---  227.6191  324.5215  400.6701
 Diagonal vibrational polarizability:
        9.1524701       1.0877668      34.5152985
 Harmonic frequencies (cm**-1), IR intensities (KM/Mole), Raman scattering
 activities (A**4/AMU), depolarization ratios for plane and unpolarized
 incident light, reduced masses (AMU), force constants (mDyne/A),
 and normal coordinates:
                      1                      2                      3
                      A                      A                      A
 Frequencies --    227.6191               324.5214               400.6701
 Red. masses --      4.0103                 1.1071                 4.1932
 Frc consts  --      0.1224                 0.0687                 0.3966
 IR Inten    --      0.1775               120.2842                 8.6758
  Atom  AN      X      Y      Z        X      Y      Z        X      Y      Z
     1   6     0.00   0.00   0.25     0.00   0.00   0.00    -0.02   0.08   0.00
     2   6     0.00   0.00   0.00     0.00   0.00   0.00     0.09   0.02   0.00
     3   6     0.00   0.00  -0.24     0.00   0.00  -0.01     0.06  -0.20   0.00
     4   6     0.00   0.00  -0.12     0.00   0.00   0.01     0.02  -0.20   0.00
     5   6     0.00   0.00  -0.24     0.00   0.00   0.02    -0.07  -0.18   0.00
     6   7     0.00   0.00  -0.01     0.00   0.00   0.01    -0.11   0.03   0.00
     7   1     0.00   0.00  -0.35     0.00   0.00  -0.06     0.19  -0.27   0.00
     8   1     0.00   0.00   0.58     0.00   0.00   0.00    -0.02   0.17   0.00
     9   1     0.00   0.00   0.05     0.00   0.00  -0.02     0.22   0.10   0.00
    10   1     0.00   0.00  -0.40     0.00   0.00   0.04    -0.24  -0.28   0.00
    11   8     0.00   0.00   0.25     0.00   0.00  -0.08     0.05   0.31   0.00
    12   1     0.00   0.00   0.35     0.00   0.00   0.99    -0.39   0.52   0.00
                      4                      5                      6
                      A                      A                      A
 Frequencies --    423.4689               514.2374               551.5187
 Red. masses --      3.3644                 3.5332                 7.3384
 Frc consts  --      0.3555                 0.5505                 1.3151
 IR Inten    --      1.6157                 1.6903                 3.6299
  Atom  AN      X      Y      Z        X      Y      Z        X      Y      Z
     1   6     0.00   0.00  -0.03     0.00   0.00   0.17    -0.34   0.01   0.00
     2   6     0.00   0.00   0.26     0.00   0.00  -0.09    -0.21  -0.10   0.00
     3   6     0.00   0.00  -0.23     0.00   0.00  -0.02    -0.13  -0.18   0.00
     4   6     0.00   0.00  -0.01     0.00   0.00   0.38     0.27  -0.01   0.00
     5   6     0.00   0.00   0.20     0.00   0.00   0.02    -0.02   0.14   0.00
     6   7     0.00   0.00  -0.21     0.00   0.00  -0.18    -0.06   0.19   0.00
     7   1     0.00   0.00  -0.50     0.00   0.00  -0.53    -0.36  -0.05   0.00
     8   1     0.00   0.00  -0.12     0.00   0.00   0.25    -0.33  -0.14   0.00
     9   1     0.00   0.00   0.54     0.00   0.00  -0.46    -0.01   0.03   0.00
    10   1     0.00   0.00   0.48     0.00   0.00  -0.43    -0.24   0.02   0.00
    11   8     0.00   0.00   0.02     0.00   0.00  -0.10     0.40  -0.05   0.00
    12   1     0.00   0.00  -0.07     0.00   0.00  -0.19     0.41  -0.05   0.00
                      7                      8                      9
                      A                      A                      A
 Frequencies --    633.8047               712.2487               804.9205
 Red. masses --      7.7809                 2.4095                 1.5905
 Frc consts  --      1.8416                 0.7202                 0.6071
 IR Inten    --      4.1209                27.4310                40.8154
  Atom  AN      X      Y      Z        X      Y      Z        X      Y      Z
     1   6     0.07   0.13   0.00     0.00   0.00  -0.15     0.00   0.00  -0.09
     2   6    -0.25   0.26   0.00     0.00   0.00   0.17     0.00   0.00  -0.05
     3   6    -0.24  -0.19   0.00     0.00   0.00  -0.08     0.00   0.00  -0.12
     4   6    -0.06  -0.15   0.00     0.00   0.00   0.12     0.00   0.00   0.15
     5   6     0.26  -0.20   0.00     0.00   0.00  -0.13     0.00   0.00  -0.05
     6   7     0.32   0.27   0.00     0.00   0.00   0.18     0.00   0.00   0.05
     7   1    -0.03  -0.31   0.00     0.00   0.00  -0.52     0.00   0.00   0.48
     8   1     0.10  -0.28   0.00     0.00   0.00  -0.59     0.00   0.00   0.43
     9   1    -0.16   0.32   0.00     0.00   0.00  -0.10     0.00   0.00   0.73
    10   1     0.12  -0.29   0.00     0.00   0.00  -0.50     0.00   0.00   0.00
    11   8    -0.11  -0.08   0.00     0.00   0.00   0.00     0.00   0.00  -0.02
    12   1    -0.09  -0.09   0.00     0.00   0.00  -0.02     0.00   0.00  -0.02
                     10                     11                     12
                      A                      A                      A
 Frequencies --    839.0512               913.0906               937.4638
 Red. masses --      7.3155                 1.3088                 1.4105
 Frc consts  --      3.0344                 0.6429                 0.7304
 IR Inten    --      9.0541                 0.2111                 3.7204
  Atom  AN      X      Y      Z        X      Y      Z        X      Y      Z
     1   6     0.19   0.04   0.00     0.00   0.00   0.10     0.00   0.00   0.06
     2   6    -0.20   0.34   0.00     0.00   0.00   0.00     0.00   0.00   0.06
     3   6    -0.12   0.21   0.00     0.00   0.00  -0.10     0.00   0.00  -0.07
     4   6    -0.01  -0.02   0.00     0.00   0.00  -0.01     0.00   0.00   0.07
     5   6    -0.06  -0.24   0.00     0.00   0.00   0.08     0.00   0.00  -0.14
     6   7    -0.16  -0.29   0.00     0.00   0.00  -0.02     0.00   0.00   0.00
     7   1     0.01   0.15   0.00     0.00   0.00   0.62     0.00   0.00   0.38
     8   1     0.18   0.09   0.00     0.00   0.00  -0.57     0.00   0.00  -0.25
     9   1    -0.53   0.15   0.00     0.00   0.00  -0.02     0.00   0.00  -0.41
    10   1    -0.04  -0.23   0.00     0.00   0.00  -0.51     0.00   0.00   0.77
    11   8     0.31  -0.02   0.00     0.00   0.00   0.00     0.00   0.00  -0.01
    12   1     0.24   0.02   0.00     0.00   0.00   0.03     0.00   0.00  -0.02
                     13                     14                     15
                      A                      A                      A
 Frequencies --    977.9476              1029.4867              1066.9527
 Red. masses --      1.3614                 4.1460                 2.5080
 Frc consts  --      0.7671                 2.5889                 1.6822
 IR Inten    --      0.0316                 7.4542                 4.8472
  Atom  AN      X      Y      Z        X      Y      Z        X      Y      Z
     1   6     0.00   0.00   0.11    -0.17  -0.03   0.00     0.26   0.04   0.00
     2   6     0.00   0.00  -0.12     0.02  -0.13   0.00     0.03  -0.15   0.00
     3   6     0.00   0.00   0.05     0.11   0.31   0.00    -0.12  -0.03   0.00
     4   6     0.00   0.00   0.02    -0.02  -0.01   0.00    -0.02  -0.01   0.00
     5   6     0.00   0.00  -0.06     0.04  -0.30   0.00    -0.09   0.02   0.00
     6   7     0.00   0.00   0.00     0.05   0.17   0.00    -0.02   0.12   0.00
     7   1     0.00   0.00  -0.35    -0.09   0.43   0.00    -0.45   0.14   0.00
     8   1     0.00   0.00  -0.61    -0.17  -0.11   0.00     0.25   0.32   0.00
     9   1     0.00   0.00   0.65    -0.23  -0.28   0.00    -0.41  -0.45   0.00
    10   1     0.00   0.00   0.24    -0.31  -0.51   0.00    -0.30  -0.09   0.00
    11   8     0.00   0.00   0.00     0.02   0.00   0.00     0.04  -0.01   0.00
    12   1     0.00   0.00   0.00     0.02   0.00   0.00    -0.06   0.04   0.00
                     16                     17                     18
                      A                      A                      A
 Frequencies --   1140.7777              1183.3607              1236.6485
 Red. masses --      1.5335                 1.3754                 1.2915
 Frc consts  --      1.1758                 1.1348                 1.1637
 IR Inten    --     49.8217               127.0638                19.9556
  Atom  AN      X      Y      Z        X      Y      Z        X      Y      Z
     1   6     0.02  -0.09   0.00     0.00   0.06   0.00    -0.06   0.08   0.00
     2   6    -0.07   0.04   0.00    -0.05  -0.04   0.00    -0.02  -0.04   0.00
     3   6     0.09   0.03   0.00     0.04  -0.06   0.00     0.01   0.00   0.00
     4   6    -0.01  -0.06   0.00     0.04   0.09   0.00    -0.02  -0.02   0.00
     5   6    -0.07   0.09   0.00    -0.02  -0.05   0.00     0.10  -0.01   0.00
     6   7     0.03   0.05   0.00     0.01  -0.02   0.00    -0.02  -0.02   0.00
     7   1     0.58  -0.23   0.00     0.39  -0.26   0.00     0.11  -0.05   0.00
     8   1     0.04  -0.34   0.00     0.00   0.17   0.00    -0.10   0.57   0.00
     9   1    -0.49  -0.23   0.00    -0.30  -0.19   0.00    -0.38  -0.27   0.00
    10   1    -0.17   0.05   0.00    -0.10  -0.10   0.00     0.50   0.21   0.00
    11   8     0.03  -0.01   0.00    -0.05   0.06   0.00     0.02  -0.03   0.00
    12   1    -0.32   0.15   0.00     0.70  -0.30   0.00    -0.31   0.13   0.00
                     19                     20                     21
                      A                      A                      A
 Frequencies --   1292.6316              1323.8956              1375.5901
 Red. masses --      2.8403                 6.1048                 1.2163
 Frc consts  --      2.7961                 6.3041                 1.3560
 IR Inten    --     75.0032                44.9177                 9.1527
  Atom  AN      X      Y      Z        X      Y      Z        X      Y      Z
     1   6    -0.01   0.07   0.00    -0.01   0.27   0.00     0.01   0.05   0.00
     2   6    -0.10   0.06   0.00    -0.16  -0.14   0.00     0.02   0.02   0.00
     3   6     0.11  -0.03   0.00     0.15  -0.09   0.00     0.07  -0.03   0.00
     4   6     0.30   0.00   0.00    -0.17   0.21   0.00     0.00  -0.05   0.00
     5   6     0.00   0.02   0.00    -0.30  -0.10   0.00    -0.05  -0.04   0.00
     6   7     0.02  -0.10   0.00     0.29  -0.11   0.00    -0.04   0.03   0.00
     7   1    -0.50   0.33   0.00    -0.09   0.04   0.00    -0.32   0.18   0.00
     8   1    -0.01   0.03   0.00     0.04  -0.15   0.00     0.05  -0.56   0.00
     9   1    -0.32  -0.07   0.00     0.39   0.20   0.00    -0.24  -0.14   0.00
    10   1    -0.39  -0.21   0.00     0.07   0.08   0.00     0.56   0.29   0.00
    11   8    -0.14  -0.01   0.00     0.12  -0.04   0.00    -0.01   0.03   0.00
    12   1    -0.41   0.10   0.00    -0.51   0.26   0.00     0.23  -0.09   0.00
                     22                     23                     24
                      A                      A                      A
 Frequencies --   1496.6001              1515.9938              1633.4258
 Red. masses --      2.4004                 2.2828                 5.8399
 Frc consts  --      3.1677                 3.0911                 9.1803
 IR Inten    --     19.1419                54.6034                35.0032
  Atom  AN      X      Y      Z        X      Y      Z        X      Y      Z
     1   6    -0.08  -0.09   0.00    -0.09   0.13   0.00     0.03  -0.29   0.00
     2   6     0.04   0.11   0.00     0.19   0.05   0.00    -0.03   0.17   0.00
     3   6     0.07  -0.01   0.00    -0.05  -0.07   0.00     0.24  -0.26   0.00
     4   6    -0.11  -0.16   0.00    -0.12   0.07   0.00    -0.13   0.35   0.00
     5   6    -0.09   0.08   0.00     0.11   0.05   0.00     0.07  -0.12   0.00
     6   7     0.17  -0.04   0.00     0.01  -0.09   0.00    -0.12   0.14   0.00
     7   1    -0.42   0.26   0.00    -0.14  -0.05   0.00    -0.47   0.11   0.00
     8   1    -0.14   0.58   0.00    -0.06  -0.50   0.00    -0.04   0.38   0.00
     9   1    -0.22  -0.03   0.00    -0.43  -0.35   0.00    -0.25   0.05   0.00
    10   1    -0.15   0.07   0.00    -0.48  -0.27   0.00     0.02  -0.15   0.00
    11   8     0.02   0.05   0.00     0.04  -0.02   0.00     0.04  -0.04   0.00
    12   1     0.42  -0.15   0.00    -0.06   0.03   0.00    -0.28   0.12   0.00
                     25                     26                     27
                      A                      A                      A
 Frequencies --   1640.0122              3169.6774              3183.8035
 Red. masses --      5.4735                 1.0894                 1.0886
 Frc consts  --      8.6738                 6.4488                 6.5014
 IR Inten    --     20.8949                12.5103                20.8192
  Atom  AN      X      Y      Z        X      Y      Z        X      Y      Z
     1   6    -0.10  -0.12   0.00     0.01   0.00   0.00    -0.08  -0.01   0.00
     2   6     0.28   0.15   0.00    -0.01   0.02   0.00     0.02  -0.02   0.00
     3   6    -0.26  -0.01   0.00    -0.04  -0.07   0.00    -0.01  -0.02   0.00
     4   6     0.23   0.15   0.00     0.00   0.00   0.00     0.00   0.00   0.00
     5   6    -0.28  -0.16   0.00     0.00   0.00   0.00    -0.01   0.02   0.00
     6   7     0.14   0.03   0.00     0.00   0.00   0.00     0.00   0.00   0.00
     7   1     0.23  -0.28   0.00     0.46   0.83   0.00     0.10   0.18   0.00
     8   1    -0.13   0.13   0.00    -0.12  -0.01   0.00     0.88   0.06   0.00
     9   1    -0.30  -0.22   0.00     0.15  -0.24   0.00    -0.18   0.27   0.00
    10   1     0.42   0.19   0.00    -0.01   0.01   0.00     0.12  -0.23   0.00
    11   8    -0.02  -0.03   0.00     0.00   0.00   0.00     0.00   0.00   0.00
    12   1    -0.26   0.10   0.00     0.01   0.00   0.00     0.00   0.00   0.00
                     28                     29                     30
                      A                      A                      A
 Frequencies --   3188.6279              3207.2322              3744.5893
 Red. masses --      1.0917                 1.0967                 1.0665
 Frc consts  --      6.5395                 6.6464                 8.8106
 IR Inten    --     11.6761                16.5261                48.5476
  Atom  AN      X      Y      Z        X      Y      Z        X      Y      Z
     1   6    -0.02   0.00   0.00     0.04   0.01   0.00     0.00   0.00   0.00
     2   6     0.01  -0.01   0.00     0.04  -0.07   0.00     0.00   0.00   0.00
     3   6     0.00   0.00   0.00    -0.01  -0.02   0.00     0.00   0.00   0.00
     4   6     0.00   0.00   0.00     0.00   0.00   0.00     0.00   0.00   0.00
     5   6     0.04  -0.07   0.00     0.00   0.01   0.00     0.00   0.00   0.00
     6   7     0.00   0.00   0.00     0.00   0.00   0.00     0.00   0.00   0.00
     7   1     0.03   0.05   0.00     0.11   0.18   0.00     0.00   0.00   0.00
     8   1     0.20   0.01   0.00    -0.40  -0.03   0.00     0.00   0.00   0.00
     9   1    -0.10   0.15   0.00    -0.47   0.75   0.00     0.00   0.00   0.00
    10   1    -0.46   0.84   0.00     0.04  -0.08   0.00     0.00   0.00   0.00
    11   8     0.00   0.00   0.00     0.00   0.00   0.00    -0.03  -0.06   0.00
    12   1     0.00   0.00   0.00     0.00   0.00   0.00     0.43   0.90   0.00

 -------------------
 - Thermochemistry -
 -------------------
 Temperature   298.150 Kelvin.  Pressure   1.00000 Atm.
 Atom     1 has atomic number  6 and mass  12.00000
 Atom     2 has atomic number  6 and mass  12.00000
 Atom     3 has atomic number  6 and mass  12.00000
 Atom     4 has atomic number  6 and mass  12.00000
 Atom     5 has atomic number  6 and mass  12.00000
 Atom     6 has atomic number  7 and mass  14.00307
 Atom     7 has atomic number  1 and mass   1.00783
 Atom     8 has atomic number  1 and mass   1.00783
 Atom     9 has atomic number  1 and mass   1.00783
 Atom    10 has atomic number  1 and mass   1.00783
 Atom    11 has atomic number  8 and mass  15.99491
 Atom    12 has atomic number  1 and mass   1.00783
 Molecular mass:    95.03711 amu.
 Principal axes and moments of inertia in atomic units:
                           1         2         3
     Eigenvalues --   311.00887 674.40657 985.41544
           X            0.99995  -0.01033   0.00000
           Y            0.01033   0.99995   0.00000
           Z            0.00000   0.00000   1.00000
 This molecule is an asymmetric top.
 Rotational symmetry number  1.
 Rotational temperatures (Kelvin)      0.27849     0.12843     0.08790
[...]
   D10       -0.00005   0.00000   0.00000   0.00005   0.00005   0.00000
   D11       -0.00006   0.00000   0.00000   0.00006   0.00006   0.00000
   D12        3.14149   0.00000   0.00000   0.00011   0.00011   3.14159
   D13        3.14157   0.00000   0.00000   0.00002   0.00002  -3.14159
   D14       -0.00007   0.00000   0.00000   0.00007   0.00007   0.00000
   D15        0.00001   0.00000   0.00000  -0.00001  -0.00001   0.00000
   D16        3.14159   0.00000   0.00000   0.00000   0.00000   3.14159
   D17       -3.14154   0.00000   0.00000  -0.00005  -0.00005  -3.14159
   D18        0.00004   0.00000   0.00000  -0.00004  -0.00004   0.00000
   D19        0.00033   0.00000   0.00000  -0.00033  -0.00033   0.00000
   D20       -3.14131   0.00000   0.00000  -0.00028  -0.00028  -3.14159
   D21       -0.00003   0.00000   0.00000   0.00003   0.00003   0.00000
   D22        3.14157   0.00000   0.00000   0.00002   0.00002   3.14159
         Item               Value     Threshold  Converged?
 Maximum Force            0.000070     0.000450     YES
 RMS     Force            0.000019     0.000300     YES
 Maximum Displacement     0.000420     0.001800     YES
 RMS     Displacement     0.000109     0.001200     YES
 Predicted change in Energy=-3.812553D-08
 Optimization completed.
    -- Stationary point found.
                           ----------------------------
                           !   Optimized Parameters   !
                           ! (Angstroms and Degrees)  !
 --------------------------                            --------------------------
 ! Name  Definition              Value          Derivative Info.                !
 --------------------------------------------------------------------------------
 ! R1    R(1,2)                  1.3961         -DE/DX =    0.0                 !
 ! R2    R(1,6)                  1.3418         -DE/DX =    0.0                 !
 ! R3    R(1,8)                  1.0875         -DE/DX =    0.0                 !
 ! R4    R(2,3)                  1.3965         -DE/DX =   -0.0001              !
 ! R5    R(2,9)                  1.0865         -DE/DX =    0.0                 !
 ! R6    R(3,4)                  1.3958         -DE/DX =    0.0                 !
 ! R7    R(3,7)                  1.0887         -DE/DX =    0.0                 !
 ! R8    R(4,5)                  1.4034         -DE/DX =    0.0                 !
 ! R9    R(4,11)                 1.3685         -DE/DX =    0.0                 !
 ! R10   R(5,6)                  1.3342         -DE/DX =    0.0                 !
 ! R11   R(5,10)                 1.0878         -DE/DX =    0.0                 !
 ! R12   R(11,12)                0.9702         -DE/DX =   -0.0001              !
 ! A1    A(2,1,6)              122.9446         -DE/DX =    0.0                 !
 ! A2    A(2,1,8)              120.8021         -DE/DX =    0.0                 !
 ! A3    A(6,1,8)              116.2533         -DE/DX =    0.0                 !
 ! A4    A(1,2,3)              118.9627         -DE/DX =    0.0                 !
 ! A5    A(1,2,9)              120.4697         -DE/DX =    0.0                 !
 ! A6    A(3,2,9)              120.5676         -DE/DX =    0.0                 !
 ! A7    A(2,3,4)              118.2146         -DE/DX =    0.0                 !
 ! A8    A(2,3,7)              121.0055         -DE/DX =    0.0                 !
 ! A9    A(4,3,7)              120.7799         -DE/DX =    0.0                 !
 ! A10   A(3,4,5)              118.6843         -DE/DX =    0.0                 !
 ! A11   A(3,4,11)             124.005          -DE/DX =    0.0                 !
 ! A12   A(5,4,11)             117.3107         -DE/DX =    0.0                 !
 ! A13   A(4,5,6)              123.0858         -DE/DX =    0.0                 !
 ! A14   A(4,5,10)             119.2951         -DE/DX =    0.0                 !
 ! A15   A(6,5,10)             117.619          -DE/DX =    0.0                 !
 ! A16   A(1,6,5)              118.108          -DE/DX =    0.0                 !
 ! A17   A(4,11,12)            110.3735         -DE/DX =    0.0                 !
 ! D1    D(6,1,2,3)             -0.0091         -DE/DX =    0.0                 !
 ! D2    D(6,1,2,9)           -180.0007         -DE/DX =    0.0                 !
 ! D3    D(8,1,2,3)            180.0029         -DE/DX =    0.0                 !
 ! D4    D(8,1,2,9)              0.0113         -DE/DX =    0.0                 !
 ! D5    D(2,1,6,5)              0.0061         -DE/DX =    0.0                 !
 ! D6    D(8,1,6,5)           -180.0054         -DE/DX =    0.0                 !
 ! D7    D(1,2,3,4)              0.0074         -DE/DX =    0.0                 !
 ! D8    D(1,2,3,7)            180.0053         -DE/DX =    0.0                 !
 ! D9    D(9,2,3,4)            179.9991         -DE/DX =    0.0                 !
 ! D10   D(9,2,3,7)             -0.0031         -DE/DX =    0.0                 !
 ! D11   D(2,3,4,5)             -0.0035         -DE/DX =    0.0                 !
 ! D12   D(2,3,4,11)           179.9939         -DE/DX =    0.0                 !
 ! D13   D(7,3,4,5)           -180.0013         -DE/DX =    0.0                 !
 ! D14   D(7,3,4,11)            -0.004          -DE/DX =    0.0                 !
 ! D15   D(3,4,5,6)              0.0006         -DE/DX =    0.0                 !
 ! D16   D(3,4,5,10)           179.9999         -DE/DX =    0.0                 !
 ! D17   D(11,4,5,6)          -179.9969         -DE/DX =    0.0                 !
 ! D18   D(11,4,5,10)            0.0024         -DE/DX =    0.0                 !
 ! D19   D(3,4,11,12)            0.0188         -DE/DX =    0.0                 !
 ! D20   D(5,4,11,12)         -179.9838         -DE/DX =    0.0                 !
 ! D21   D(4,5,6,1)             -0.0018         -DE/DX =    0.0                 !
 ! D22   D(10,5,6,1)           179.9989         -DE/DX =    0.0                 !
 --------------------------------------------------------------------------------
 GradGradGradGradGradGradGradGradGradGradGradGradGradGradGradGradGradGrad


 ----------------------------------------------------------------------

 Electric dipole moment (input orientation):
 (Debye = 10**-18 statcoulomb cm , SI units = C m)
                  (au)            (Debye)         (10**-30 SI)
   Tot        0.144966D+01      0.368466D+01      0.122907D+02
   x         -0.451685D+00     -0.114807D+01     -0.382954D+01
   y          0.137749D+01      0.350124D+01      0.116789D+02
   z         -0.171012D-03     -0.434670D-03     -0.144990D-02

 Dipole polarizability, Alpha (input orientation).
 (esu units = cm**3 , SI units = C**2 m**2 J**-1)
 Alpha(0;0):
               (au)            (10**-24 esu)      (10**-40 SI)
   iso        0.664602D+02      0.984839D+01      0.109578D+02
   aniso      0.426232D+02      0.631610D+01      0.702761D+01
   xx         0.856216D+02      0.126878D+02      0.141171D+02
   yx         0.907794D+00      0.134521D+00      0.149675D+00
   yy         0.750285D+02      0.111181D+02      0.123705D+02
   zx         0.344561D-03      0.510587D-04      0.568104D-04
   zy        -0.850409D-04     -0.126018D-04     -0.140213D-04
   zz         0.387305D+02      0.573928D+01      0.638580D+01

 ----------------------------------------------------------------------

 Dipole orientation:
     6          3.04478894          0.99861815         -1.19894416
     6          2.65208164          0.86935942          1.40664876
     6          0.29482360          0.09643111          2.30694915
     6         -1.57256018         -0.51569249          0.54750931
     6         -0.99916716         -0.32736212         -2.03488993
     7          1.25304393          0.41124111         -2.89437075
     1         -0.08011472         -0.02671353          4.32613253
     1          4.85806153          1.59309683         -1.96164513
     1          4.15782151          1.36297486          2.71221820
     1         -2.44046511         -0.79981478         -3.42228657
     8         -3.95529625         -1.29719644          1.17999855
     1         -4.14404981         -1.35878670          3.00255968

 Electric dipole moment (dipole orientation):
 (Debye = 10**-18 statcoulomb cm , SI units = C m)
                  (au)            (Debye)         (10**-30 SI)
   Tot        0.144966D+01      0.368466D+01      0.122907D+02
   x          0.000000D+00      0.000000D+00      0.000000D+00
   y          0.000000D+00      0.000000D+00      0.000000D+00
   z          0.144966D+01      0.368466D+01      0.122907D+02

 Dipole polarizability, Alpha (dipole orientation).
 (esu units = cm**3 , SI units = C**2 m**2 J**-1)
 Alpha(0;0):
               (au)            (10**-24 esu)      (10**-40 SI)
   iso        0.664602D+02      0.984839D+01      0.109578D+02
   aniso      0.426232D+02      0.631610D+01      0.702761D+01
   xx         0.806261D+02      0.119476D+02      0.132934D+02
   yx         0.137377D+02      0.203572D+01      0.226504D+01
   yy         0.432352D+02      0.640679D+01      0.712852D+01
   zx        -0.228375D+01     -0.338417D+00     -0.376540D+00
   zy        -0.753220D+00     -0.111616D+00     -0.124189D+00
   zz         0.755194D+02      0.111908D+02      0.124515D+02

 ----------------------------------------------------------------------
 1\1\GINC-IP-172-31-28-242\Freq\RB3LYP\6-31+G(d)\C5H5N1O1\UBUNTU\19-Sep
 -2023\0\\#N Geom=AllCheck Guess=TCheck SCRF=Check GenChk RB3LYP/6-31+G
 (d) Freq\\Title Card Required\\0,1\C,1.808951,-0.07453,-0.000036\C,1.1
 71449,1.167485,0.000047\C,-0.224397,1.211159,-0.000022\C,-0.922444,0.0
 02435,-0.000012\C,-0.193179,-1.196574,-0.000008\N,1.140367,-1.237944,-
 0.000002\H,-0.755763,2.161405,-0.000047\H,2.894233,-0.14341,0.000062\H
 ,1.752969,2.085239,0.000027\H,-0.727101,-2.14429,0.000001\O,-2.28765,-
 0.092988,0.000047\H,-2.687993,0.790722,-0.000219\\Version=EM64L-G16Rev
 B.01\State=1-A\HF=-323.5213721\RMSD=2.394e-09\RMSF=3.701e-05\ZeroPoint
 =0.0926983\Thermal=0.0981316\Dipole=-0.4516849,1.3774922,-0.000171\Dip
 oleDeriv=0.2558053,0.0356641,0.0000177,-0.2083816,0.0123234,0.0000135,
 0.0001257,0.0000058,-0.0352178,-0.0581074,-0.0946597,-0.0000007,0.1926
 292,0.0952816,0.0000106,-0.0000556,-0.0000583,-0.1054307,-0.1099472,0.
 0860357,0.0000082,-0.2507443,0.1262677,0.0000074,0.0000502,0.0000127,-
 0.1549755,1.5153648,0.0704112,-0.0000369,-0.1436109,-0.16813,0.0000279
 ,-0.0000768,0.0000259,0.1345779,-0.0664152,-0.1685136,0.0000067,0.3620
 989,0.3652205,-0.0000216,-0.0000278,-0.0000082,-0.0278689,-0.226969,0.
 1955954,-0.0000166,0.0914653,-0.3637188,-0.0000138,-0.0000224,0.000012
 4,-0.2913528,-0.0103576,0.0984329,-0.0000091,0.0910713,-0.0400572,0.00
 00016,-0.0000036,-0.0000009,0.1443604,-0.1212008,-0.0198573,-0.0000026
 ,0.00484,0.0550177,-0.0000003,-0.00007,-0.0000044,0.1242364,0.0183652,
 -0.0781237,-0.0000044,-0.086431,-0.0494695,-0.0000067,0.000014,0.00003
 3,0.1376581,0.0136585,-0.0626386,0.0000003,-0.0876194,-0.0256171,0.000
 0014,0.000007,-0.000001,0.1158895,-1.5646471,-0.0169452,0.000019,0.022
 4217,-0.1286412,-0.0000816,0.000111,-0.0000736,-0.3884601,0.3544506,-0
 .0454013,0.0000184,0.0122608,0.1215229,0.0000617,-0.0000516,0.0000567,
 0.3465835\Polar=85.6215906,0.9077937,75.0285337,0.0003446,-0.000085,38
 .7305485\Quadrupole=1.6524483,0.8268769,-2.4793252,-0.4569801,0.001235
 7,-0.0003908\PG=C01 [X(C5H5N1O1)]\NImag=0\\0.76794372,-0.01180277,0.64
 613257,0.00002274,0.00000755,0.14626798,-0.18097465,0.04917196,0.00000
 472,0.69146707,0.11783018,-0.27656940,-0.00001309,0.04148279,0.7217450
 0,0.00000546,-0.00001338,-0.06586564,0.00000716,0.00000805,0.12746488,
 -0.02385074,0.07984585,-0.00000122,-0.34563667,-0.02323857,-0.00001415
 ,0.69992096,0.03133962,0.03332835,0.00000345,0.03779449,-0.12824209,-0
 .00000101,-0.03516349,0.71978761,0.00000276,0.00000142,0.00738812,-0.0
 0001433,-0.00000069,-0.05489180,0.00001415,-0.00000882,0.12306229,0.00
 548865,0.00733651,-0.00000067,-0.02629350,-0.03348154,-0.00000017,-0.1
 6766787,-0.11286973,-0.00000116,0.69305872,-0.00719659,-0.08195081,-0.
 00000018,-0.07924623,0.04530152,-0.00000017,-0.03745905,-0.29472113,0.
 00000557,0.00354805,0.70299522,-0.00000097,-0.00000052,-0.00803283,-0.
 00000204,-0.00000027,-0.00183912,0.00000274,0.00000450,-0.06183346,-0.
 00000181,-0.00001795,0.14554306,-0.06003713,-0.08739267,-0.00000003,-0
 .04910633,0.04169600,0.00000064,0.06591193,0.02067141,0.00000228,-0.14
 748448,0.01920573,-0.00000137,0.71251230,-0.03751250,0.02266635,-0.000
 00221,0.02197767,-0.02087017,-0.00000013,-0.02096983,-0.04761511,-0.00
 000157,0.09985936,-0.27561488,0.00000386,0.05822847,0.72128321,0.00000
 143,-0.00000212,0.00369567,-0.00000114,0.00000059,-0.00556870,0.000000
 68,0.00000031,0.00607746,-0.00000083,0.00000082,-0.07116902,-0.0000026
 7,-0.00000419,0.14366401,-0.17408991,-0.07724967,-0.00000156,0.0673102
 1,-0.04463262,-0.00000081,-0.05592463,-0.03010724,-0.00000202,-0.04497
 709,0.09694031,0.00000107,-0.35931750,-0.01122155,0.00000170,0.6069203
 5,-0.10496590,-0.28127859,0.00000232,0.02063942,-0.07580066,0.00000098
 ,-0.03643613,-0.01622726,-0.00000114,0.02664437,0.04932126,-0.00000013
 ,0.01801984,-0.12383794,0.00000201,0.10813537,0.45718210,-0.00000002,0
 .00000752,-0.06532844,-0.00000100,-0.00000208,0.02088596,0.00000105,-0
 .00000008,-0.00621663,0.00000008,-0.00000054,0.01764405,-0.00000044,0.
 00000215,-0.06107536,-0.00000014,-0.00000446,0.09459605,-0.00596032,-0
 .00219811,-0.00000106,-0.00977651,0.03026253,0.00000048,-0.12290028,0.
 11454552,-0.00000431,0.00857298,-0.01406206,0.00000029,-0.00086151,-0.
 00381525,-0.00000012,-0.00064062,-0.00022078,0.00000011,0.12727912,-0.
 00057993,0.00248526,0.00000018,-0.00059688,0.00353364,0.00000002,0.114
 66238,-0.27064606,0.00000504,0.01866839,-0.01942249,0.00000018,-0.0049
 4927,-0.00300699,0.00000035,-0.00083693,0.00008322,-0.00000010,-0.1254
 7763,0.28535655,-0.00000037,-0.00000022,0.00800881,-0.00000040,0.00000
 144,0.00324572,-0.00000304,0.00000503,-0.03539289,-0.00000080,-0.00000
 044,0.00551995,0.00000029,0.00000003,0.00660314,-0.00000007,-0.0000003
 6,-0.00322365,0.00000436,-0.00000523,0.02317782,-0.33216466,0.02991400
 ,-0.00002342,-0.00935611,-0.00134077,-0.00000148,0.00049436,0.00253828
 ,-0.00000044,0.00054923,0.00003139,-0.00000004,0.00147688,-0.00174858,
 -0.00000051,-0.01702548,-0.00992504,-0.00000034,-0.00057399,-0.0001436
 7,0.,0.35683100,0.03138289,-0.05874430,0.00000129,0.02858763,0.0025783
 5,0.00000194,0.00142152,-0.00497579,-0.00000047,-0.00037105,-0.0012412
 9,-0.00000002,-0.00365689,-0.00303847,0.00000020,-0.03686948,-0.002559
 27,-0.00000186,0.00159566,0.00002380,0.00000001,-0.02020475,0.06699523
 ,-0.00003087,0.00000191,-0.03719278,0.00000309,-0.00000114,0.00429580,
 0.00000015,-0.00000102,0.00653306,0.00000031,-0.00000054,0.00063474,-0
 .00000069,0.00000097,0.00934161,0.00000263,0.00000103,-0.00537079,0.00
 000021,0.,0.00009745,0.00002582,-0.00000125,0.02570579,0.01303788,0.01
 243994,-0.00000038,-0.13985391,-0.12675556,0.00000215,-0.01189579,-0.0
 2785699,0.00000027,-0.00453675,0.00246983,-0.00000016,-0.00128850,0.00
 083570,0.00000007,-0.00004270,0.00367636,0.00000031,0.00087491,0.00028
 880,-0.00000008,0.00033264,-0.00047120,0.,0.14416810,-0.01975761,-0.01
 566522,0.00000060,-0.12704939,-0.26177729,0.00000324,0.00275073,0.0054
 2032,0.00000004,0.00136011,0.00181889,0.00000003,0.00223334,0.00050160
 ,-0.00000004,0.00308818,-0.00555165,-0.00000035,-0.00046828,0.00084234
 ,-0.00000001,0.00059660,0.00038442,0.00000003,0.13728329,0.27384955,-0
 .00000082,-0.00000324,0.00110182,0.00000325,0.00000745,-0.03527041,-0.
 00000092,-0.00000139,0.00257331,-0.00000062,0.00000041,0.00786665,-0.0
 0000011,0.00000065,-0.00016153,0.00000103,0.00000004,0.00743641,0.0000
 0019,-0.00000007,-0.00402618,0.00000034,0.00000005,-0.00305444,-0.0000
 0222,-0.00000354,0.02493820,-0.00383758,0.00034187,-0.00000030,-0.0008
 0133,-0.00018038,0.,-0.00193741,0.00297588,-0.00000003,0.01023188,0.01
 431921,0.00000004,-0.11033004,-0.11079180,0.00000088,-0.02693386,-0.02
 965942,0.00000083,0.00059126,0.00096692,-0.00000002,-0.00048628,-0.000
 98529,0.00000004,0.00016060,-0.00026222,-0.00000003,0.13157919,0.00219
 695,0.00300072,-0.00000007,0.00116106,0.00020490,0.00000011,0.00383267
 ,-0.00314430,0.00000012,-0.01630144,-0.01969084,0.00000029,-0.11051544
 ,-0.28094607,0.00000218,-0.00394278,0.00931407,-0.00000003,-0.00064844
 ,-0.00103095,0.,0.00009979,0.00011215,0.00000001,-0.00006780,-0.000043
 89,-0.00000005,0.12406662,0.29066682,0.00000010,-0.00000057,0.01075873
 ,-0.00000016,0.00000040,-0.00005268,-0.00000011,0.00000023,0.00540726,
 0.00000075,0.00000025,0.00756329,0.00000078,0.00000259,-0.03836126,0.0
 0000027,-0.00000028,-0.00580524,-0.00000002,0.00000002,-0.00060250,-0.
 00000001,0.00000010,0.00053618,-0.00000004,0.00000008,-0.00159688,-0.0
 0000139,-0.00000253,0.02518851,-0.00624950,0.00005401,0.00000129,0.003
 64845,-0.00217812,0.,-0.04034628,-0.00481480,0.00000247,-0.30215676,-0
 .04466660,0.00001381,-0.04468019,0.00956168,0.00000125,0.00484481,0.00
 164709,-0.00000116,0.00403923,0.00014594,0.00000064,-0.00012318,-0.000
 24552,-0.00000051,-0.00128046,0.00019789,-0.00000012,0.00167141,-0.000
 01907,-0.00000011,0.49042658,-0.00042165,0.00618209,0.,0.00567273,-0.0
 0895223,0.00000093,-0.04416002,0.00314333,0.00000084,0.01003836,-0.108
 19801,0.00001251,0.04799699,0.00776360,-0.00000070,-0.00338085,-0.0101
 3055,-0.00000029,-0.00029140,0.00261238,-0.00000077,0.00009625,0.00053
 665,0.00000001,-0.00167409,0.00017757,-0.00000037,-0.00037305,0.001262
 49,-0.00000038,-0.14574792,0.53188440,0.00000124,0.00000256,-0.0013783
 5,0.00000122,-0.00000135,0.00798739,-0.00000051,-0.00000076,0.00768882
 ,-0.00000197,0.00001627,-0.03835178,0.00000074,-0.00000302,0.00504167,
 -0.00000394,0.00000029,0.00522682,0.00000022,-0.00000009,-0.00370421,0
 .00000003,0.00000002,-0.00116511,-0.00000003,-0.00000008,0.00019621,-0
 .00000004,-0.00000007,-0.00264001,0.00004237,-0.00014014,0.02385478,0.
 00069423,-0.00046091,-0.00000013,-0.00062671,0.00053606,0.00000072,0.0
 0383240,0.00094706,0.00000036,-0.02478500,0.04611602,-0.00001155,-0.00
 679543,-0.00440337,-0.00000074,-0.00012358,0.00244482,0.00000071,-0.00
 064426,-0.00214812,-0.00000053,0.00004559,-0.00018352,-0.00000016,0.00
 032397,0.00002735,0.00000005,0.00009216,0.00013788,-0.00000006,-0.1097
 9412,0.13224464,-0.00003931,0.13778076,-0.00051268,0.00041299,0.000000
 17,0.00040476,-0.00115158,-0.00000058,-0.00508606,0.00389213,-0.000000
 34,-0.00443140,0.00140259,-0.00000248,-0.00153751,0.00271487,0.0000005
 9,0.00007726,-0.00051474,0.00000012,0.00077824,-0.00083072,0.00000053,
 0.00008649,-0.00007149,0.,-0.00016830,0.00004336,0.00000005,-0.0004183
 3,0.00029489,0.00000009,0.18606543,-0.42628172,0.00012638,-0.17525791,
 0.42008942,-0.00000065,-0.00000092,0.00057693,-0.00000038,0.00000070,-
 0.00039141,0.00000117,-0.00000043,-0.00039555,0.00000689,-0.00000350,-
 0.00354554,0.00000058,0.00000085,0.00191231,0.00000185,-0.00000029,0.0
 0123083,-0.00000036,-0.00000028,0.00029654,0.00000007,-0.00000002,-0.0
 0036151,0.00000012,0.00000001,-0.00000318,0.,0.00000003,-0.00039538,-0
 .00005993,0.00012837,-0.00275623,0.00005064,-0.00012453,0.00383219\\0.
 00001265,0.00006960,-0.00002109,0.00009398,-0.00006139,0.00001742,-0.0
 0010506,0.00005046,-0.00000426,0.00001199,0.00000432,-0.00000128,0.000
 03857,-0.00005016,-0.00000124,-0.00004082,-0.00001725,0.00000670,0.000
 00842,-0.00002075,-0.00000170,-0.00001143,-0.00000747,0.00000540,-0.00
 001278,0.00000225,-0.00000223,-0.00000537,0.00001663,-0.00000052,0.000
 05829,-0.00003848,0.00000471,-0.00004843,0.00005224,-0.00000191\\\@


 Fatherhood is pretending the present you love most is soap-on-a-rope.
 -- Bill Cosby
 Job cpu time:       0 days  0 hours 15 minutes 32.6 seconds.
 Elapsed time:       0 days  0 hours  0 minutes 29.2 seconds.
 File lengths (MBytes):  RWF=     31 Int=      0 D2E=      0 Chk=      3 Scr=      1
 Normal termination of Gaussian 16 at Tue Sep 19 06:44:40 2023.
