 Entering Gaussian System, Link 0=/home/ubuntu/g16/g16
 Input=/home/ubuntu/ML substrates/MOLECULE_16.gjf
 Output=/home/ubuntu/ML substrates/MOLECULE_16.log
 Initial command:
 /home/ubuntu/g16/l1.exe "/home/ubuntu/Scratch/Gau-38219.inp" -scrdir="/home/ubuntu/Scratch/"
 Entering Link 1 = /home/ubuntu/g16/l1.exe PID=     38221.
  
 Copyright (c) 1988-2017, Gaussian, Inc.  All Rights Reserved.
  
 This is part of the Gaussian(R) 16 program.  It is based on
 the Gaussian(R) 09 system (copyright 2009, Gaussian, Inc.),
 the Gaussian(R) 03 system (copyright 2003, Gaussian, Inc.),
 the Gaussian(R) 98 system (copyright 1998, Gaussian, Inc.),
 the Gaussian(R) 94 system (copyright 1995, Gaussian, Inc.),
 the Gaussian 92(TM) system (copyright 1992, Gaussian, Inc.),
 the Gaussian 90(TM) system (copyright 1990, Gaussian, Inc.),
 the Gaussian 88(TM) system (copyright 1988, Gaussian, Inc.),
 the Gaussian 86(TM) system (copyright 1986, Carnegie Mellon
 University), and the Gaussian 82(TM) system (copyright 1983,
 Carnegie Mellon University). Gaussian is a federally registered
 trademark of Gaussian, Inc.
  
 This software contains proprietary and confidential information,
 including trade secrets, belonging to Gaussian, Inc.
  
 This software is provided under written license and may be
 used, copied, transmitted, or stored only in accord with that
 written license.
  
 The following legend is applicable only to US Government
 contracts under FAR:
  
                    RESTRICTED RIGHTS LEGEND
  
 Use, reproduction and disclosure by the US Government is
 subject to restrictions as set forth in subparagraphs (a)
 and (c) of the Commercial Computer Software - Restricted
 Rights clause in FAR 52.227-19.
  
 Gaussian, Inc.
 340 Quinnipiac St., Bldg. 40, Wallingford CT 06492
  
  
 ---------------------------------------------------------------
 Warning -- This program may not be used in any manner that
 competes with the business of Gaussian, Inc. or will provide
 assistance to any competitor of Gaussian, Inc.  The licensee
 of this program is prohibited from giving any competitor of
 Gaussian, Inc. access to this program.  By using this program,
 the user acknowledges that Gaussian, Inc. is engaged in the
 business of creating and licensing software in the field of
 computational chemistry and represents and warrants to the
 licensee that it is not a competitor of Gaussian, Inc. and that
 it will not use this program in any manner prohibited above.
 ---------------------------------------------------------------
  

 Cite this work as:
 Gaussian 16, Revision B.01,
 M. J. Frisch, G. W. Trucks, H. B. Schlegel, G. E. Scuseria, 
 M. A. Robb, J. R. Cheeseman, G. Scalmani, V. Barone, 
 G. A. Petersson, H. Nakatsuji, X. Li, M. Caricato, A. V. Marenich, 
 J. Bloino, B. G. Janesko, R. Gomperts, B. Mennucci, H. P. Hratchian, 
 J. V. Ortiz, A. F. Izmaylov, J. L. Sonnenberg, D. Williams-Young, 
 F. Ding, F. Lipparini, F. Egidi, J. Goings, B. Peng, A. Petrone, 
 T. Henderson, D. Ranasinghe, V. G. Zakrzewski, J. Gao, N. Rega, 
 G. Zheng, W. Liang, M. Hada, M. Ehara, K. Toyota, R. Fukuda, 
 J. Hasegawa, M. Ishida, T. Nakajima, Y. Honda, O. Kitao, H. Nakai, 
 T. Vreven, K. Throssell, J. A. Montgomery, Jr., J. E. Peralta, 
 F. Ogliaro, M. J. Bearpark, J. J. Heyd, E. N. Brothers, K. N. Kudin, 
 V. N. Staroverov, T. A. Keith, R. Kobayashi, J. Normand, 
 K. Raghavachari, A. P. Rendell, J. C. Burant, S. S. Iyengar, 
 J. Tomasi, M. Cossi, J. M. Millam, M. Klene, C. Adamo, R. Cammi, 
 J. W. Ochterski, R. L. Martin, K. Morokuma, O. Farkas, 
 J. B. Foresman, and D. J. Fox, Gaussian, Inc., Wallingford CT, 2016.
 
 ******************************************
 Gaussian 16:  EM64L-G16RevB.01 20-Dec-2017
                14-Sep-2023 
 ******************************************
 %nprocshared=30
 Will use up to   30 processors via shared memory.
 %mem=30GB
 %chk=MOLECULE_16.chk
 ----------------------------------------------------------------
 # opt freq b3lyp/6-31+g(d) nosymm empiricaldispersion=gd3 volume
 ----------------------------------------------------------------
 1/18=20,19=15,26=3,38=1/1,3;
 2/9=110,12=2,15=1,17=6,18=5,40=1/2;
 3/5=1,6=6,7=11,11=2,25=1,30=1,71=1,74=-5,124=31/1,2,3;
 4//1;
 5/5=2,38=5/2;
 6/7=2,8=2,9=2,10=2,28=1,44=1/1,4;
 7/30=1/1,2,3,16;
 1/18=20,19=15,26=3/3(2);
 2/9=110,15=1/2;
 99//99;
 2/9=110,15=1/2;
 3/5=1,6=6,7=11,11=2,25=1,30=1,71=1,74=-5,124=31/1,2,3;
 4/5=5,16=3,69=1/1;
 5/5=2,38=5/2;
 7/30=1/1,2,3,16;
 1/18=20,19=15,26=3/3(-5);
 2/9=110,15=1/2;
 6/7=2,8=2,9=2,10=2,19=2,28=1,44=1/1,4;
 99/9=1/99;
 -------------------
 Title Card Required
 -------------------
 Symbolic Z-matrix:
 Charge =  0 Multiplicity = 1
 C                    -1.78505  -0.98601   0.86196 
 C                    -0.49693  -1.12108   0.00153 
 C                    -0.17234   0.17764  -0.78286 
 C                    -0.64072   1.42154  -0.00564 
 C                    -2.18722   1.42742   0.14243 
 C                    -2.77243  -0.00908   0.19429 
 H                     0.34351  -1.38463   0.65811 
 H                     0.9029    0.23133  -0.99316 
 H                    -0.16885   1.41583   0.98747 
 H                    -2.46402   1.97581   1.0526 
 H                    -2.98682  -0.37255  -0.81928 
 H                    -2.6389    1.96987  -0.69837 
 H                    -0.30546   2.34042  -0.50214 
 H                    -0.67928   0.15823  -1.75785 
 H                    -0.62125  -1.95139  -0.70543 
 H                    -3.73029  -0.00821   0.7309 
 C                    -2.42566  -2.37076   1.15948 
 H                    -3.24781  -2.23347   1.87649 
 H                    -1.68035  -3.00618   1.66002 
 C                    -2.92966  -3.05859  -0.03331 
 C                    -3.33642  -3.60813  -1.03618 
 H                    -3.69887  -4.09688  -1.90924 
 H                    -1.50955  -0.5645    1.84092 
 

 GradGradGradGradGradGradGradGradGradGradGradGradGradGradGradGradGradGrad
 Berny optimization.
 Initialization pass.
                           ----------------------------
                           !    Initial Parameters    !
                           ! (Angstroms and Degrees)  !
 --------------------------                            --------------------------
 ! Name  Definition              Value          Derivative Info.                !
 --------------------------------------------------------------------------------
 ! R1    R(1,2)                  1.5549         estimate D2E/DX2                !
 ! R2    R(1,6)                  1.5411         estimate D2E/DX2                !
 ! R3    R(1,17)                 1.5545         estimate D2E/DX2                !
 ! R4    R(1,23)                 1.1009         estimate D2E/DX2                !
 ! R5    R(2,3)                  1.5515         estimate D2E/DX2                !
 ! R6    R(2,7)                  1.0986         estimate D2E/DX2                !
 ! R7    R(2,15)                 1.0976         estimate D2E/DX2                !
 ! R8    R(3,4)                  1.5397         estimate D2E/DX2                !
 ! R9    R(3,8)                  1.0969         estimate D2E/DX2                !
 ! R10   R(3,14)                 1.0991         estimate D2E/DX2                !
 ! R11   R(4,5)                  1.5536         estimate D2E/DX2                !
 ! R12   R(4,9)                  1.0995         estimate D2E/DX2                !
 ! R13   R(4,13)                 1.0969         estimate D2E/DX2                !
 ! R14   R(5,6)                  1.552          estimate D2E/DX2                !
 ! R15   R(5,10)                 1.0981         estimate D2E/DX2                !
 ! R16   R(5,12)                 1.0978         estimate D2E/DX2                !
 ! R17   R(6,11)                 1.0979         estimate D2E/DX2                !
 ! R18   R(6,16)                 1.0979         estimate D2E/DX2                !
 ! R19   R(17,18)                1.0995         estimate D2E/DX2                !
 ! R20   R(17,19)                1.0999         estimate D2E/DX2                !
 ! R21   R(17,20)                1.4662         estimate D2E/DX2                !
 ! R22   R(20,21)                1.2137         estimate D2E/DX2                !
 ! R23   R(21,22)                1.0642         estimate D2E/DX2                !
 ! A1    A(2,1,6)              110.2477         estimate D2E/DX2                !
 ! A2    A(2,1,17)             111.7107         estimate D2E/DX2                !
 ! A3    A(2,1,23)             108.5436         estimate D2E/DX2                !
 ! A4    A(6,1,17)             112.5554         estimate D2E/DX2                !
 ! A5    A(6,1,23)             107.6303         estimate D2E/DX2                !
 ! A6    A(17,1,23)            105.9025         estimate D2E/DX2                !
 ! A7    A(1,2,3)              112.3551         estimate D2E/DX2                !
 ! A8    A(1,2,7)              108.8967         estimate D2E/DX2                !
 ! A9    A(1,2,15)             109.166          estimate D2E/DX2                !
 ! A10   A(3,2,7)              110.0545         estimate D2E/DX2                !
 ! A11   A(3,2,15)             109.3471         estimate D2E/DX2                !
 ! A12   A(7,2,15)             106.8653         estimate D2E/DX2                !
 ! A13   A(2,3,4)              110.9404         estimate D2E/DX2                !
 ! A14   A(2,3,8)              110.0573         estimate D2E/DX2                !
 ! A15   A(2,3,14)             109.7061         estimate D2E/DX2                !
 ! A16   A(4,3,8)              110.8192         estimate D2E/DX2                !
 ! A17   A(4,3,14)             108.7687         estimate D2E/DX2                !
 ! A18   A(8,3,14)             106.4343         estimate D2E/DX2                !
 ! A19   A(3,4,5)              110.7309         estimate D2E/DX2                !
 ! A20   A(3,4,9)              108.7341         estimate D2E/DX2                !
 ! A21   A(3,4,13)             110.8113         estimate D2E/DX2                !
 ! A22   A(5,4,9)              109.9461         estimate D2E/DX2                !
 ! A23   A(5,4,13)             110.134          estimate D2E/DX2                !
 ! A24   A(9,4,13)             106.3798         estimate D2E/DX2                !
 ! A25   A(4,5,6)              112.0263         estimate D2E/DX2                !
 ! A26   A(4,5,10)             109.3788         estimate D2E/DX2                !
 ! A27   A(4,5,12)             109.7812         estimate D2E/DX2                !
 ! A28   A(6,5,10)             109.8464         estimate D2E/DX2                !
 ! A29   A(6,5,12)             109.1353         estimate D2E/DX2                !
 ! A30   A(10,5,12)            106.5199         estimate D2E/DX2                !
 ! A31   A(1,6,5)              111.0772         estimate D2E/DX2                !
 ! A32   A(1,6,11)             108.3727         estimate D2E/DX2                !
 ! A33   A(1,6,16)             110.3473         estimate D2E/DX2                !
 ! A34   A(5,6,11)             110.4384         estimate D2E/DX2                !
 ! A35   A(5,6,16)             110.1557         estimate D2E/DX2                !
 ! A36   A(11,6,16)            106.3261         estimate D2E/DX2                !
 ! A37   A(1,17,18)            108.768          estimate D2E/DX2                !
 ! A38   A(1,17,19)            108.8128         estimate D2E/DX2                !
 ! A39   A(1,17,20)            113.8183         estimate D2E/DX2                !
 ! A40   A(18,17,19)           106.3831         estimate D2E/DX2                !
 ! A41   A(18,17,20)           109.3936         estimate D2E/DX2                !
 ! A42   A(19,17,20)           109.3972         estimate D2E/DX2                !
 ! A43   L(17,20,21,11,-1)     178.8823         estimate D2E/DX2                !
 ! A44   L(20,21,22,14,-1)     180.5894         estimate D2E/DX2                !
 ! A45   L(17,20,21,11,-2)     179.3496         estimate D2E/DX2                !
 ! A46   L(20,21,22,14,-2)     180.0493         estimate D2E/DX2                !
 ! D1    D(6,1,2,3)             30.5526         estimate D2E/DX2                !
 ! D2    D(6,1,2,7)            152.7393         estimate D2E/DX2                !
 ! D3    D(6,1,2,15)           -90.9254         estimate D2E/DX2                !
 ! D4    D(17,1,2,3)           156.492          estimate D2E/DX2                !
 ! D5    D(17,1,2,7)           -81.3213         estimate D2E/DX2                !
 ! D6    D(17,1,2,15)           35.014          estimate D2E/DX2                !
 ! D7    D(23,1,2,3)           -87.1082         estimate D2E/DX2                !
 ! D8    D(23,1,2,7)            35.0785         estimate D2E/DX2                !
 ! D9    D(23,1,2,15)          151.4138         estimate D2E/DX2                !
 ! D10   D(2,1,6,5)            -64.6427         estimate D2E/DX2                !
 ! D11   D(2,1,6,11)            56.847          estimate D2E/DX2                !
 ! D12   D(2,1,6,16)           172.8924         estimate D2E/DX2                !
 ! D13   D(17,1,6,5)           169.8961         estimate D2E/DX2                !
 ! D14   D(17,1,6,11)          -68.6143         estimate D2E/DX2                !
 ! D15   D(17,1,6,16)           47.4311         estimate D2E/DX2                !
 ! D16   D(23,1,6,5)            53.5805         estimate D2E/DX2                !
 ! D17   D(23,1,6,11)          175.0701         estimate D2E/DX2                !
 ! D18   D(23,1,6,16)          -68.8844         estimate D2E/DX2                !
 ! D19   D(2,1,17,18)          172.496          estimate D2E/DX2                !
 ! D20   D(2,1,17,19)           56.9984         estimate D2E/DX2                !
 ! D21   D(2,1,17,20)          -65.2717         estimate D2E/DX2                !
 ! D22   D(6,1,17,18)          -62.842          estimate D2E/DX2                !
 ! D23   D(6,1,17,19)         -178.3397         estimate D2E/DX2                !
 ! D24   D(6,1,17,20)           59.3902         estimate D2E/DX2                !
 ! D25   D(23,1,17,18)          54.5028         estimate D2E/DX2                !
 ! D26   D(23,1,17,19)         -60.9949         estimate D2E/DX2                !
 ! D27   D(23,1,17,20)         176.735          estimate D2E/DX2                !
 ! D28   D(1,2,3,4)             31.3785         estimate D2E/DX2                !
 ! D29   D(1,2,3,8)            154.3922         estimate D2E/DX2                !
 ! D30   D(1,2,3,14)           -88.8199         estimate D2E/DX2                !
 ! D31   D(7,2,3,4)            -90.1493         estimate D2E/DX2                !
 ! D32   D(7,2,3,8)             32.8645         estimate D2E/DX2                !
 ! D33   D(7,2,3,14)           149.6523         estimate D2E/DX2                !
 ! D34   D(15,2,3,4)           152.7531         estimate D2E/DX2                !
 ! D35   D(15,2,3,8)           -84.2332         estimate D2E/DX2                !
 ! D36   D(15,2,3,14)           32.5547         estimate D2E/DX2                !
 ! D37   D(2,3,4,5)            -64.2282         estimate D2E/DX2                !
 ! D38   D(2,3,4,9)             56.6704         estimate D2E/DX2                !
 ! D39   D(2,3,4,13)           173.2519         estimate D2E/DX2                !
 ! D40   D(8,3,4,5)            173.1988         estimate D2E/DX2                !
 ! D41   D(8,3,4,9)            -65.9027         estimate D2E/DX2                !
 ! D42   D(8,3,4,13)            50.6788         estimate D2E/DX2                !
 ! D43   D(14,3,4,5)            56.5261         estimate D2E/DX2                !
 ! D44   D(14,3,4,9)           177.4247         estimate D2E/DX2                !
 ! D45   D(14,3,4,13)          -65.9938         estimate D2E/DX2                !
 ! D46   D(3,4,5,6)             30.2503         estimate D2E/DX2                !
 ! D47   D(3,4,5,10)           152.2912         estimate D2E/DX2                !
 ! D48   D(3,4,5,12)           -91.1682         estimate D2E/DX2                !
 ! D49   D(9,4,5,6)            -89.9272         estimate D2E/DX2                !
 ! D50   D(9,4,5,10)            32.1138         estimate D2E/DX2                !
 ! D51   D(9,4,5,12)           148.6543         estimate D2E/DX2                !
 ! D52   D(13,4,5,6)           153.1638         estimate D2E/DX2                !
 ! D53   D(13,4,5,10)          -84.7952         estimate D2E/DX2                !
 ! D54   D(13,4,5,12)           31.7454         estimate D2E/DX2                !
 ! D55   D(4,5,6,1)             31.9765         estimate D2E/DX2                !
 ! D56   D(4,5,6,11)           -88.2963         estimate D2E/DX2                !
 ! D57   D(4,5,6,16)           154.5523         estimate D2E/DX2                !
 ! D58   D(10,5,6,1)           -89.7969         estimate D2E/DX2                !
 ! D59   D(10,5,6,11)          149.9304         estimate D2E/DX2                !
 ! D60   D(10,5,6,16)           32.7789         estimate D2E/DX2                !
 ! D61   D(12,5,6,1)           153.7659         estimate D2E/DX2                !
 ! D62   D(12,5,6,11)           33.4931         estimate D2E/DX2                !
 ! D63   D(12,5,6,16)          -83.6583         estimate D2E/DX2                !
 --------------------------------------------------------------------------------
 Trust Radius=3.00D-01 FncErr=1.00D-07 GrdErr=1.00D-06 EigMax=2.50D+02 EigMin=1.00D-04
 Number of steps in this run=    138 maximum allowed number of steps=    138.
 GradGradGradGradGradGradGradGradGradGradGradGradGradGradGradGradGradGrad

                          Input orientation:                          
 ---------------------------------------------------------------------
 Center     Atomic      Atomic             Coordinates (Angstroms)
 Number     Number       Type             X           Y           Z
 ---------------------------------------------------------------------
      1          6           0       -1.785047   -0.986008    0.861959
      2          6           0       -0.496931   -1.121077    0.001528
      3          6           0       -0.172340    0.177642   -0.782860
      4          6           0       -0.640722    1.421540   -0.005642
      5          6           0       -2.187222    1.427418    0.142430
      6          6           0       -2.772429   -0.009075    0.194293
      7          1           0        0.343508   -1.384631    0.658112
      8          1           0        0.902895    0.231329   -0.993158
      9          1           0       -0.168851    1.415827    0.987467
     10          1           0       -2.464015    1.975809    1.052604
     11          1           0       -2.986815   -0.372548   -0.819284
     12          1           0       -2.638902    1.969870   -0.698373
     13          1           0       -0.305459    2.340415   -0.502139
     14          1           0       -0.679279    0.158229   -1.757847
     15          1           0       -0.621246   -1.951387   -0.705429
     16          1           0       -3.730290   -0.008214    0.730897
     17          6           0       -2.425662   -2.370763    1.159484
     18          1           0       -3.247813   -2.233473    1.876493
     19          1           0       -1.680353   -3.006185    1.660023
     20          6           0       -2.929658   -3.058590   -0.033308
     21          6           0       -3.336420   -3.608127   -1.036175
     22          1           0       -3.698874   -4.096878   -1.909244
     23          1           0       -1.509553   -0.564503    1.840923
 ---------------------------------------------------------------------
                    Distance matrix (angstroms):
                    1          2          3          4          5
     1  C    0.000000
     2  C    1.554937   0.000000
     3  C    2.580762   1.551546   0.000000
     4  C    2.803301   2.546690   1.539718   0.000000
     5  C    2.550312   3.061334   2.545162   1.553584   0.000000
     6  C    1.541136   2.540000   2.783910   2.575036   1.551989
     7  H    2.175132   1.098590   2.187052   3.046945   3.818133
     8  H    3.485456   2.185844   1.096922   2.185073   3.502715
     9  H    2.897698   2.741458   2.160364   1.099527   2.188160
    10  H    3.044619   3.816397   3.442979   2.179793   1.098073
    11  H    2.155727   2.726454   2.867979   3.063481   2.191830
    12  H    3.449771   3.825161   3.050106   2.184780   1.097825
    13  H    3.887806   3.503180   2.184974   1.096924   2.188622
    14  H    3.065189   2.182951   1.099074   2.160478   2.737843
    15  H    2.177865   1.097569   2.177218   3.444810   3.819355
    16  H    2.181107   3.496434   3.871048   3.483119   2.188239
    17  C    1.554495   2.573437   3.917209   4.350298   3.939217
    18  H    2.173737   3.510024   4.726962   4.868108   4.187356
    19  H    2.174622   2.775739   4.287019   4.843555   4.713474
    20  C    2.531251   3.110198   4.317155   5.031059   4.550424
    21  C    3.589593   3.914709   4.940407   5.798822   5.297781
    22  H    4.584737   4.770627   5.654795   6.590063   6.083774
    23  H    1.100879   2.172223   3.036965   2.847637   2.704046
                    6          7          8          9         10
     6  C    0.000000
     7  H    3.437491   0.000000
     8  H    3.869863   2.377169   0.000000
     9  H    3.072147   2.865929   2.544514   0.000000
    10  H    2.184395   4.396631   4.308647   2.363387   0.000000
    11  H    1.097913   3.781278   3.940145   3.795202   3.048289
    12  H    2.175064   4.689083   3.956482   3.041410   1.759699
    13  H    3.477220   3.955162   2.479811   1.758537   2.685056
    14  H    2.867075   3.043578   1.758797   3.062489   3.793088
    15  H    3.034743   1.763861   2.677694   3.795878   4.680742
    16  H    1.097926   4.300657   4.949359   3.844160   2.375562
    17  C    2.574764   2.981968   4.741734   4.411468   4.348055
    18  H    2.829087   3.886203   5.615917   4.856724   4.360182
    19  H    3.510507   2.780158   4.918743   4.721352   5.079700
    20  C    3.062036   3.740831   5.141337   5.355786   5.171190
    21  C    3.845167   4.621300   5.719708   6.274451   6.025316
    22  H    4.689702   5.503495   6.383484   7.158346   6.868402
    23  H    2.148196   2.346377   3.805952   2.539208   2.825886
                   11         12         13         14         15
    11  H    0.000000
    12  H    2.371199   0.000000
    13  H    3.827587   2.370816   0.000000
    14  H    2.547027   2.871350   2.545286   0.000000
    15  H    2.846333   4.409903   4.308203   2.358269   0.000000
    16  H    1.757429   2.673342   4.331963   3.940840   3.937653
    17  C    2.867626   4.726330   5.426919   4.237508   2.628630
    18  H    3.286088   4.966770   5.935974   5.052329   3.693880
    19  H    3.845757   5.589452   5.928862   4.764189   2.798155
    20  C    2.799258   5.080577   6.021252   4.287909   2.646963
    21  C    3.261631   5.631580   6.697542   4.665474   3.197867
    22  H    3.945336   6.276558   7.411744   5.219848   3.940063
    23  H    3.048910   3.761183   3.921521   3.763355   3.032564
                   16         17         18         19         20
    16  H    0.000000
    17  C    2.732651   0.000000
    18  H    2.548912   1.099492   0.000000
    19  H    3.748779   1.099903   1.760930   0.000000
    20  C    3.244968   1.466244   2.104609   2.104965   0.000000
    21  C    4.029522   2.679826   3.221981   3.220928   1.213750
    22  H    4.867084   3.744013   4.243529   4.243077   2.277909
    23  H    2.544266   2.136865   2.410036   2.454324   3.427814
                   21         22         23
    21  C    0.000000
    22  H    1.064190   0.000000
    23  H    4.569331   5.597727   0.000000
 Symmetry turned off by external request.
 Stoichiometry    C9H14
 Framework group  C1[X(C9H14)]
 Deg. of freedom    63
 Full point group                 C1      NOp   1
 Rotational constants (GHZ):           3.0135190           1.0042115           0.9308051
 Standard basis: 6-31+G(d) (6D, 7F)
   199 basis functions,   344 primitive gaussians,   199 cartesian basis functions
    34 alpha electrons       34 beta electrons
       nuclear repulsion energy       441.1918278741 Hartrees.
 NAtoms=   23 NActive=   23 NUniq=   23 SFac= 1.00D+00 NAtFMM=   60 NAOKFM=F Big=F
 Integral buffers will be    131072 words long.
 Raffenetti 2 integral format.
 Two-electron integral symmetry is turned off.
 Nuclear repulsion after empirical dispersion term =      441.1724334047 Hartrees.
 One-electron integrals computed using PRISM.
 NBasis=   199 RedAO= T EigKep=  2.76D-06  NBF=   199
 NBsUse=   199 1.00D-06 EigRej= -1.00D+00 NBFU=   199
 ExpMin= 4.38D-02 ExpMax= 3.05D+03 ExpMxC= 4.57D+02 IAcc=3 IRadAn=         5 AccDes= 0.00D+00
 Harris functional with IExCor=  402 and IRadAn=       5 diagonalized for initial guess.
 HarFok:  IExCor=  402 AccDes= 0.00D+00 IRadAn=         5 IDoV= 1 UseB2=F ITyADJ=14
 ICtDFT=  3500011 ScaDFX=  1.000000  1.000000  1.000000  1.000000
 FoFCou: FMM=F IPFlag=           0 FMFlag=      100000 FMFlg1=           0
         NFxFlg=           0 DoJE=T BraDBF=F KetDBF=T FulRan=T
         wScrn=  0.000000 ICntrl=       500 IOpCl=  0 I1Cent=   200000004 NGrid=           0
         NMat0=    1 NMatS0=      1 NMatT0=    0 NMatD0=    1 NMtDS0=    0 NMtDT0=    0
 Symmetry not used in FoFCou.
 Requested convergence on RMS density matrix=1.00D-08 within 128 cycles.
 Requested convergence on MAX density matrix=1.00D-06.
 Requested convergence on             energy=1.00D-06.
 No special actions if energy rises.
 SCF Done:  E(RB3LYP) =  -351.352943315     A.U. after   13 cycles
            NFock= 13  Conv=0.34D-08     -V/T= 2.0105

 **********************************************************************

            Population analysis using the SCF Density.

 **********************************************************************

 Alpha  occ. eigenvalues --  -10.21278 -10.19811 -10.19553 -10.18492 -10.18267
 Alpha  occ. eigenvalues --  -10.18193 -10.18159 -10.18104 -10.18031  -0.83822
 Alpha  occ. eigenvalues --   -0.78851  -0.73628  -0.73551  -0.68693  -0.61421
 Alpha  occ. eigenvalues --   -0.60355  -0.54195  -0.51940  -0.48951  -0.47166
 Alpha  occ. eigenvalues --   -0.45665  -0.44105  -0.42648  -0.40184  -0.37734
 Alpha  occ. eigenvalues --   -0.37035  -0.35845  -0.35457  -0.35154  -0.30800
 Alpha  occ. eigenvalues --   -0.30238  -0.30015  -0.26871  -0.26779
 Alpha virt. eigenvalues --   -0.00069   0.01180   0.01749   0.01864   0.03330
 Alpha virt. eigenvalues --    0.03428   0.03667   0.04584   0.04866   0.05643
 Alpha virt. eigenvalues --    0.06077   0.06563   0.07436   0.08446   0.09388
 Alpha virt. eigenvalues --    0.09516   0.10114   0.10475   0.10706   0.11870
 Alpha virt. eigenvalues --    0.12705   0.13394   0.13695   0.13981   0.15351
 Alpha virt. eigenvalues --    0.16389   0.16447   0.17010   0.17344   0.17976
 Alpha virt. eigenvalues --    0.18161   0.18681   0.18799   0.19115   0.19714
 Alpha virt. eigenvalues --    0.20400   0.21474   0.22514   0.22627   0.23265
 Alpha virt. eigenvalues --    0.24167   0.24477   0.24882   0.25779   0.25866
 Alpha virt. eigenvalues --    0.26853   0.28029   0.30328   0.31007   0.33032
 Alpha virt. eigenvalues --    0.33754   0.35749   0.36655   0.37640   0.38557
 Alpha virt. eigenvalues --    0.39033   0.39361   0.41055   0.41331   0.47252
 Alpha virt. eigenvalues --    0.55940   0.61394   0.63545   0.65804   0.66459
 Alpha virt. eigenvalues --    0.67414   0.68215   0.68889   0.69737   0.70725
 Alpha virt. eigenvalues --    0.71151   0.71637   0.73079   0.73956   0.75367
 Alpha virt. eigenvalues --    0.76376   0.76983   0.79156   0.82766   0.83305
 Alpha virt. eigenvalues --    0.86188   0.89040   0.91170   0.95436   0.95716
 Alpha virt. eigenvalues --    0.97685   0.98113   1.00211   1.01732   1.02628
 Alpha virt. eigenvalues --    1.04005   1.04541   1.05159   1.09586   1.11677
 Alpha virt. eigenvalues --    1.12898   1.13469   1.15251   1.16781   1.17508
 Alpha virt. eigenvalues --    1.17854   1.20891   1.23592   1.30488   1.35450
 Alpha virt. eigenvalues --    1.38105   1.39652   1.50820   1.51474   1.54419
 Alpha virt. eigenvalues --    1.55181   1.56579   1.57466   1.58332   1.69375
 Alpha virt. eigenvalues --    1.73168   1.74669   1.75950   1.78073   1.81190
 Alpha virt. eigenvalues --    1.83658   1.85736   1.89289   1.89978   1.92371
 Alpha virt. eigenvalues --    1.95947   1.97211   1.98397   1.99951   2.04352
 Alpha virt. eigenvalues --    2.07016   2.10084   2.11541   2.12557   2.19194
 Alpha virt. eigenvalues --    2.21034   2.23142   2.23671   2.30046   2.37267
 Alpha virt. eigenvalues --    2.38851   2.45957   2.46463   2.47173   2.50414
 Alpha virt. eigenvalues --    2.51937   2.60352   2.68179   2.68821   2.70266
 Alpha virt. eigenvalues --    2.74169   2.75949   2.79269   2.83644   2.86044
 Alpha virt. eigenvalues --    3.39242   4.16870   4.28364   4.30965   4.33786
 Alpha virt. eigenvalues --    4.39967   4.51160   4.63630   4.74985   4.80716
          Condensed to atoms (all electrons):
               1          2          3          4          5          6
     1  C    8.318994  -0.972021   0.333893  -0.157294   0.439158  -1.144131
     2  C   -0.972021   7.064860  -0.503077   0.030173  -0.041293   0.098037
     3  C    0.333893  -0.503077   6.292506  -0.121705  -0.032706  -0.104603
     4  C   -0.157294   0.030173  -0.121705   6.136307  -0.153221   0.069695
     5  C    0.439158  -0.041293  -0.032706  -0.153221   6.579725  -0.885667
     6  C   -1.144131   0.098037  -0.104603   0.069695  -0.885667   7.547556
     7  H   -0.026739   0.399243  -0.039487  -0.005270   0.009491   0.000199
     8  H    0.046131  -0.102269   0.428837  -0.062201   0.025611  -0.015948
     9  H    0.001582   0.002234  -0.059853   0.419164  -0.072398  -0.006695
    10  H    0.004292   0.002957   0.012610  -0.081308   0.458200  -0.085201
    11  H   -0.113058   0.016819  -0.014218   0.001514  -0.039146   0.433626
    12  H    0.011165   0.008879  -0.009444  -0.048975   0.460328  -0.109403
    13  H   -0.020436   0.031422  -0.072533   0.427053  -0.086478   0.037611
    14  H    0.035664  -0.133863   0.497102  -0.096918   0.025709  -0.025445
    15  H   -0.090524   0.470698  -0.083909   0.017146  -0.003202  -0.011883
    16  H   -0.017489   0.005702  -0.002802   0.022210  -0.036944   0.379114
    17  C   -1.607828   0.528896  -0.127755   0.047183  -0.315598   0.720476
    18  H   -0.020053   0.014535   0.002347  -0.002688   0.004533  -0.046924
    19  H   -0.045096  -0.016826   0.000002   0.002481   0.000217   0.025436
    20  C    0.430761  -0.186272   0.100292  -0.037224   0.118697  -0.289315
    21  C    0.135467  -0.230612  -0.041045  -0.000469   0.042662  -0.104730
    22  H   -0.004244   0.000119  -0.000578   0.000006   0.000077   0.001974
    23  H    0.331445  -0.057718   0.005512  -0.017192   0.011228  -0.054588
               7          8          9         10         11         12
     1  C   -0.026739   0.046131   0.001582   0.004292  -0.113058   0.011165
     2  C    0.399243  -0.102269   0.002234   0.002957   0.016819   0.008879
     3  C   -0.039487   0.428837  -0.059853   0.012610  -0.014218  -0.009444
     4  C   -0.005270  -0.062201   0.419164  -0.081308   0.001514  -0.048975
     5  C    0.009491   0.025611  -0.072398   0.458200  -0.039146   0.460328
     6  C    0.000199  -0.015948  -0.006695  -0.085201   0.433626  -0.109403
     7  H    0.535056  -0.007078   0.001693   0.000020  -0.000009   0.000004
     8  H   -0.007078   0.535804  -0.003026  -0.000130  -0.000005  -0.000077
     9  H    0.001693  -0.003026   0.537789  -0.007341  -0.000163   0.004290
    10  H    0.000020  -0.000130  -0.007341   0.533205   0.003991  -0.034314
    11  H   -0.000009  -0.000005  -0.000163   0.003991   0.505292  -0.006795
    12  H    0.000004  -0.000077   0.004290  -0.034314  -0.006795   0.531739
    13  H   -0.000070  -0.002284  -0.034094   0.001366  -0.000049  -0.007087
    14  H    0.004309  -0.034452   0.004818  -0.000009  -0.001317   0.001701
    15  H   -0.033602   0.001110   0.000008   0.000002   0.001776   0.000026
    16  H   -0.000135   0.000002  -0.000065  -0.007200  -0.034219   0.001116
    17  C   -0.014205  -0.008317   0.014944  -0.004352  -0.061494  -0.002265
    18  H   -0.000131   0.000002   0.000001  -0.000001   0.000099  -0.000002
    19  H    0.001936  -0.000004   0.000005   0.000000  -0.000089   0.000002
    20  C   -0.010305   0.003501  -0.000688   0.003477   0.002009  -0.000216
    21  C   -0.002981   0.001124   0.000063   0.000767   0.074289   0.001083
    22  H    0.000000   0.000000   0.000000   0.000000   0.000070   0.000000
    23  H   -0.007921  -0.000101  -0.001264   0.001698   0.005081   0.000021
              13         14         15         16         17         18
     1  C   -0.020436   0.035664  -0.090524  -0.017489  -1.607828  -0.020053
     2  C    0.031422  -0.133863   0.470698   0.005702   0.528896   0.014535
     3  C   -0.072533   0.497102  -0.083909  -0.002802  -0.127755   0.002347
     4  C    0.427053  -0.096918   0.017146   0.022210   0.047183  -0.002688
     5  C   -0.086478   0.025709  -0.003202  -0.036944  -0.315598   0.004533
     6  C    0.037611  -0.025445  -0.011883   0.379114   0.720476  -0.046924
     7  H   -0.000070   0.004309  -0.033602  -0.000135  -0.014205  -0.000131
     8  H   -0.002284  -0.034452   0.001110   0.000002  -0.008317   0.000002
     9  H   -0.034094   0.004818   0.000008  -0.000065   0.014944   0.000001
    10  H    0.001366  -0.000009   0.000002  -0.007200  -0.004352  -0.000001
    11  H   -0.000049  -0.001317   0.001776  -0.034219  -0.061494   0.000099
    12  H   -0.007087   0.001701   0.000026   0.001116  -0.002265  -0.000002
    13  H    0.535036  -0.002848  -0.000118  -0.000091  -0.000533   0.000000
    14  H   -0.002848   0.530616  -0.006811   0.000001  -0.004842   0.000001
    15  H   -0.000118  -0.006811   0.511355  -0.000052  -0.047125   0.000235
    16  H   -0.000091   0.000001  -0.000052   0.539607   0.010443   0.003172
    17  C   -0.000533  -0.004842  -0.047125   0.010443  11.445637   0.513694
    18  H    0.000000   0.000001   0.000235   0.003172   0.513694   0.518147
    19  H    0.000000   0.000008  -0.000814   0.000003   0.476174  -0.032688
    20  C    0.000140   0.003100   0.002736  -0.019566  -1.214229  -0.085806
    21  C   -0.000063  -0.000324   0.051542  -0.032717  -3.069730  -0.094641
    22  H    0.000000   0.000000   0.000060  -0.000005  -0.043420  -0.000042
    23  H    0.000035  -0.000176   0.004738  -0.003641  -0.062860  -0.003376
              19         20         21         22         23
     1  C   -0.045096   0.430761   0.135467  -0.004244   0.331445
     2  C   -0.016826  -0.186272  -0.230612   0.000119  -0.057718
     3  C    0.000002   0.100292  -0.041045  -0.000578   0.005512
     4  C    0.002481  -0.037224  -0.000469   0.000006  -0.017192
     5  C    0.000217   0.118697   0.042662   0.000077   0.011228
     6  C    0.025436  -0.289315  -0.104730   0.001974  -0.054588
     7  H    0.001936  -0.010305  -0.002981   0.000000  -0.007921
     8  H   -0.000004   0.003501   0.001124   0.000000  -0.000101
     9  H    0.000005  -0.000688   0.000063   0.000000  -0.001264
    10  H    0.000000   0.003477   0.000767   0.000000   0.001698
    11  H   -0.000089   0.002009   0.074289   0.000070   0.005081
    12  H    0.000002  -0.000216   0.001083   0.000000   0.000021
    13  H    0.000000   0.000140  -0.000063   0.000000   0.000035
    14  H    0.000008   0.003100  -0.000324   0.000000  -0.000176
    15  H   -0.000814   0.002736   0.051542   0.000060   0.004738
    16  H    0.000003  -0.019566  -0.032717  -0.000005  -0.003641
    17  C    0.476174  -1.214229  -3.069730  -0.043420  -0.062860
    18  H   -0.032688  -0.085806  -0.094641  -0.000042  -0.003376
    19  H    0.519739  -0.076150  -0.081694  -0.000042  -0.003341
    20  C   -0.076150   9.025746  -2.505579  -0.322828   0.060533
    21  C   -0.081694  -2.505579  11.749196   0.725025   0.032144
    22  H   -0.000042  -0.322828   0.725025   0.405876   0.000001
    23  H   -0.003341   0.060533   0.032144   0.000001   0.565643
 Mulliken charges:
               1
     1  C    0.130360
     2  C   -0.430621
     3  C   -0.459386
     4  C   -0.388465
     5  C   -0.508983
     6  C   -0.429193
     7  H    0.195983
     8  H    0.193769
     9  H    0.198994
    10  H    0.197271
    11  H    0.225995
    12  H    0.198225
    13  H    0.194021
    14  H    0.203978
    15  H    0.216608
    16  H    0.193553
    17  C   -1.172893
    18  H    0.229586
    19  H    0.230740
    20  C    0.997185
    21  C   -0.648780
    22  H    0.237953
    23  H    0.194101
 Sum of Mulliken charges =   0.00000
 Mulliken charges with hydrogens summed into heavy atoms:
               1
     1  C    0.324461
     2  C   -0.018031
     3  C   -0.061639
     4  C    0.004550
     5  C   -0.113486
     6  C   -0.009645
    17  C   -0.712566
    20  C    0.997185
    21  C   -0.410827
 Electronic spatial extent (au):  <R**2>=           2352.6904
 Charge=              0.0000 electrons
 Dipole moment (field-independent basis, Debye):
    X=              0.3475    Y=              0.5741    Z=              0.4098  Tot=              0.7863
 Quadrupole moment (field-independent basis, Debye-Ang):
   XX=            -60.1220   YY=            -60.9339   ZZ=            -54.2605
   XY=             -1.5813   XZ=              0.4475   YZ=              0.6978
 Traceless Quadrupole moment (field-independent basis, Debye-Ang):
   XX=             -1.6832   YY=             -2.4951   ZZ=              4.1783
   XY=             -1.5813   XZ=              0.4475   YZ=              0.6978
 Octapole moment (field-independent basis, Debye-Ang**2):
  XXX=            329.2153  YYY=            154.2050  ZZZ=            -12.4637  XYY=            110.6287
  XXY=             52.8115  XXZ=             -7.8799  XZZ=             92.4733  YZZ=             35.5259
  YYZ=            -14.1153  XYZ=             -9.2991
 Hexadecapole moment (field-independent basis, Debye-Ang**3):
 XXXX=          -1778.8480 YYYY=          -1469.0013 ZZZZ=           -276.3047 XXXY=           -470.1358
 XXXZ=             53.4783 YYYX=           -458.4235 YYYZ=             52.4149 ZZZX=             47.7325
 ZZZY=             14.7999 XXYY=           -531.2697 XXZZ=           -286.0538 YYZZ=           -230.4882
 XXYZ=             44.4618 YYXZ=             69.8461 ZZXY=           -102.8584
 N-N= 4.411724334047D+02 E-N=-1.693925150057D+03  KE= 3.477097736798D+02
 Evaluate density.
 Using the total density.
 Monte-Carlo method of calculating molar volume:
 based on  0.001 e/bohr**3 density envelope.
 Number of points per bohr**3 =   20 CutOff= 1.00D-04
 Using the SCF density.
 There are       388 points.  Will hold       388 in memory.
 LenV=  4026413276 MDV=  4026531840.
 Box volume = 7357.501 fraction occupied=0.170
 Integrated density= 6.2834065750053846D+01 error=-5.1659342499461545D+00
 Molar volume = 1251.534 bohr**3/mol (111.686 cm**3/mol)
 Recommended a0 for SCRF calculation =  4.39 angstrom (  8.30 bohr)
 Calling FoFJK, ICntrl=      2127 FMM=F ISym2X=0 I1Cent= 0 IOpClX= 0 NMat=1 NMatS=1 NMatT=0.
 -------------------------------------------------------------------
 Center     Atomic                   Forces (Hartrees/Bohr)
 Number     Number              X              Y              Z
 -------------------------------------------------------------------
      1        6          -0.000572944   -0.000357947   -0.002796068
      2        6          -0.001873719    0.002233885    0.000195711
      3        6          -0.001243470    0.000250517    0.002405318
      4        6          -0.001440211   -0.001920196   -0.001041122
      5        6           0.001786952   -0.002208886   -0.000127836
      6        6           0.002424486    0.000363942    0.001232429
      7        1          -0.000059249   -0.000047398   -0.000080367
      8        1           0.000029158   -0.000029925   -0.000071275
      9        1          -0.000027031    0.000113116   -0.000149207
     10        1          -0.000036768   -0.000003863   -0.000150448
     11        1          -0.000101434    0.000338328    0.000267895
     12        1          -0.000029677   -0.000044873    0.000131313
     13        1           0.000088843    0.000045840    0.000034928
     14        1           0.000167099   -0.000009563    0.000049908
     15        1           0.000514304    0.000199477    0.000128835
     16        1          -0.000100438   -0.000043211   -0.000158912
     17        6           0.001512059    0.003044180    0.000168118
     18        1          -0.000217059   -0.000646816   -0.000610746
     19        1          -0.000465297   -0.000502144   -0.000581257
     20        6          -0.002121950   -0.003022370   -0.004343901
     21        6           0.003039543    0.004114614    0.007763486
     22        1          -0.000864378   -0.001171079   -0.002002444
     23        1          -0.000408819   -0.000695630   -0.000264359
 -------------------------------------------------------------------
 Cartesian Forces:  Max     0.007763486 RMS     0.001643566

 GradGradGradGradGradGradGradGradGradGradGradGradGradGradGradGradGradGrad
 Berny optimization.
 FormGI is forming the generalized inverse of G from B-inverse, IUseBI=4.
 Internal  Forces:  Max     0.006821974 RMS     0.000864828
 Search for a local minimum.
 Step number   1 out of a maximum of  138
 All quantities printed in internal units (Hartrees-Bohrs-Radians)
 Mixed Optimization -- En-DIIS/RFO-DIIS
 Second derivative matrix not updated -- first step.
 ITU=  0
     Eigenvalues ---    0.00230   0.00230   0.00365   0.00576   0.00576
     Eigenvalues ---    0.00648   0.01896   0.01952   0.03385   0.03469
     Eigenvalues ---    0.03677   0.03961   0.04411   0.04552   0.04552
     Eigenvalues ---    0.04725   0.04757   0.04762   0.05156   0.05235
     Eigenvalues ---    0.05474   0.05773   0.06104   0.06409   0.07971
     Eigenvalues ---    0.08002   0.08027   0.08171   0.08211   0.08706
     Eigenvalues ---    0.09519   0.11994   0.12119   0.15104   0.16000
     Eigenvalues ---    0.16000   0.17695   0.19290   0.20852   0.22343
     Eigenvalues ---    0.25140   0.25943   0.26598   0.27273   0.27398
     Eigenvalues ---    0.27931   0.28007   0.33585   0.33693   0.33734
     Eigenvalues ---    0.33738   0.33785   0.33838   0.33896   0.33912
     Eigenvalues ---    0.33914   0.33924   0.33952   0.34025   0.34025
     Eigenvalues ---    0.36194   0.37974   0.98207
 RFO step:  Lambda=-2.98825212D-04 EMin= 2.30000000D-03
 Linear search not attempted -- first point.
 Iteration  1 RMS(Cart)=  0.01975959 RMS(Int)=  0.00017482
 Iteration  2 RMS(Cart)=  0.00025034 RMS(Int)=  0.00000963
 Iteration  3 RMS(Cart)=  0.00000003 RMS(Int)=  0.00000963
 Variable       Old X    -DE/DX   Delta X   Delta X   Delta X     New X
                                 (Linear)    (Quad)   (Total)
    R1        2.93840  -0.00208   0.00000  -0.00809  -0.00809   2.93032
    R2        2.91232  -0.00239   0.00000  -0.00908  -0.00908   2.90325
    R3        2.93757  -0.00191   0.00000  -0.00698  -0.00698   2.93059
    R4        2.08036  -0.00060   0.00000  -0.00180  -0.00180   2.07856
    R5        2.93200  -0.00215   0.00000  -0.00772  -0.00772   2.92428
    R6        2.07604  -0.00008   0.00000  -0.00024  -0.00024   2.07579
    R7        2.07410  -0.00029   0.00000  -0.00086  -0.00086   2.07325
    R8        2.90965  -0.00255   0.00000  -0.00879  -0.00880   2.90085
    R9        2.07288   0.00004   0.00000   0.00012   0.00012   2.07300
   R10        2.07695  -0.00012   0.00000  -0.00036  -0.00036   2.07659
   R11        2.93585  -0.00234   0.00000  -0.00782  -0.00782   2.92803
   R12        2.07781  -0.00015   0.00000  -0.00044  -0.00044   2.07737
   R13        2.07289   0.00005   0.00000   0.00015   0.00015   2.07303
   R14        2.93283  -0.00206   0.00000  -0.00730  -0.00729   2.92554
   R15        2.07506  -0.00012   0.00000  -0.00034  -0.00034   2.07471
   R16        2.07459  -0.00011   0.00000  -0.00033  -0.00033   2.07426
   R17        2.07475  -0.00034   0.00000  -0.00100  -0.00100   2.07375
   R18        2.07478   0.00001   0.00000   0.00003   0.00003   2.07481
   R19        2.07774  -0.00032   0.00000  -0.00094  -0.00094   2.07680
   R20        2.07851  -0.00029   0.00000  -0.00086  -0.00086   2.07766
   R21        2.77080  -0.00113   0.00000  -0.00313  -0.00313   2.76767
   R22        2.29365  -0.00682   0.00000  -0.00694  -0.00694   2.28671
   R23        2.01103   0.00247   0.00000   0.00651   0.00651   2.01754
    A1        1.92419  -0.00019   0.00000   0.00264   0.00260   1.92679
    A2        1.94972   0.00040   0.00000   0.00599   0.00594   1.95566
    A3        1.89444  -0.00001   0.00000  -0.00272  -0.00271   1.89174
    A4        1.96446   0.00024   0.00000   0.00556   0.00551   1.96998
    A5        1.87850   0.00009   0.00000  -0.00248  -0.00246   1.87604
    A6        1.84835  -0.00055   0.00000  -0.01018  -0.01015   1.83819
    A7        1.96097   0.00025   0.00000   0.00155   0.00157   1.96253
    A8        1.90061  -0.00007   0.00000  -0.00154  -0.00154   1.89906
    A9        1.90531   0.00017   0.00000   0.00427   0.00427   1.90958
   A10        1.92081  -0.00013   0.00000  -0.00151  -0.00151   1.91930
   A11        1.90847  -0.00016   0.00000  -0.00046  -0.00048   1.90799
   A12        1.86515  -0.00008   0.00000  -0.00248  -0.00247   1.86268
   A13        1.93628  -0.00002   0.00000   0.00073   0.00073   1.93701
   A14        1.92086   0.00009   0.00000  -0.00032  -0.00032   1.92054
   A15        1.91473  -0.00008   0.00000   0.00012   0.00012   1.91485
   A16        1.93416  -0.00007   0.00000  -0.00008  -0.00008   1.93408
   A17        1.89837   0.00014   0.00000   0.00059   0.00058   1.89895
   A18        1.85763  -0.00006   0.00000  -0.00110  -0.00110   1.85653
   A19        1.93262  -0.00010   0.00000   0.00076   0.00074   1.93336
   A20        1.89777   0.00009   0.00000   0.00015   0.00015   1.89792
   A21        1.93402  -0.00001   0.00000  -0.00007  -0.00007   1.93395
   A22        1.91892  -0.00007   0.00000  -0.00023  -0.00022   1.91870
   A23        1.92220   0.00016   0.00000   0.00049   0.00049   1.92269
   A24        1.85668  -0.00007   0.00000  -0.00118  -0.00118   1.85550
   A25        1.95523   0.00026   0.00000   0.00309   0.00309   1.95831
   A26        1.90902  -0.00005   0.00000  -0.00014  -0.00014   1.90888
   A27        1.91604  -0.00003   0.00000  -0.00022  -0.00022   1.91582
   A28        1.91718  -0.00008   0.00000  -0.00032  -0.00032   1.91686
   A29        1.90477  -0.00010   0.00000  -0.00122  -0.00122   1.90355
   A30        1.85912   0.00000   0.00000  -0.00142  -0.00142   1.85771
   A31        1.93866  -0.00003   0.00000  -0.00039  -0.00038   1.93828
   A32        1.89146   0.00020   0.00000   0.00189   0.00189   1.89335
   A33        1.92592   0.00002   0.00000   0.00108   0.00107   1.92700
   A34        1.92751  -0.00017   0.00000  -0.00176  -0.00176   1.92576
   A35        1.92258   0.00008   0.00000   0.00071   0.00071   1.92329
   A36        1.85574  -0.00009   0.00000  -0.00157  -0.00157   1.85417
   A37        1.89836   0.00054   0.00000   0.00407   0.00405   1.90241
   A38        1.89914   0.00054   0.00000   0.00463   0.00461   1.90375
   A39        1.98650   0.00163   0.00000   0.00646   0.00645   1.99296
   A40        1.85674  -0.00031   0.00000   0.00030   0.00028   1.85701
   A41        1.90928  -0.00131   0.00000  -0.00871  -0.00871   1.90056
   A42        1.90934  -0.00120   0.00000  -0.00701  -0.00702   1.90232
   A43        3.12208   0.00049   0.00000   0.01061   0.01061   3.13269
   A44        3.15188   0.00010   0.00000   0.01640   0.01640   3.16828
   A45        3.13024   0.00036   0.00000   0.00778   0.00778   3.13802
   A46        3.14245   0.00000   0.00000  -0.00058  -0.00058   3.14188
    D1        0.53324  -0.00006   0.00000  -0.00336  -0.00337   0.52988
    D2        2.66580  -0.00011   0.00000  -0.00533  -0.00533   2.66047
    D3       -1.58695  -0.00015   0.00000  -0.00677  -0.00678  -1.59373
    D4        2.73130   0.00041   0.00000   0.01038   0.01038   2.74168
    D5       -1.41933   0.00036   0.00000   0.00841   0.00842  -1.41091
    D6        0.61111   0.00032   0.00000   0.00697   0.00696   0.61807
    D7       -1.52032  -0.00005   0.00000  -0.00027  -0.00027  -1.52059
    D8        0.61223  -0.00010   0.00000  -0.00223  -0.00223   0.61001
    D9        2.64267  -0.00013   0.00000  -0.00368  -0.00368   2.63899
   D10       -1.12823   0.00028   0.00000   0.00586   0.00586  -1.12237
   D11        0.99217   0.00018   0.00000   0.00468   0.00468   0.99685
   D12        3.01754   0.00019   0.00000   0.00448   0.00448   3.02202
   D13        2.96525  -0.00028   0.00000  -0.00822  -0.00823   2.95701
   D14       -1.19755  -0.00038   0.00000  -0.00941  -0.00941  -1.20696
   D15        0.82783  -0.00037   0.00000  -0.00961  -0.00961   0.81822
   D16        0.93516   0.00021   0.00000   0.00260   0.00260   0.93776
   D17        3.05555   0.00010   0.00000   0.00142   0.00142   3.05697
   D18       -1.20226   0.00012   0.00000   0.00122   0.00122  -1.20104
   D19        3.01062  -0.00004   0.00000  -0.02058  -0.02060   2.99003
   D20        0.99481  -0.00026   0.00000  -0.02562  -0.02565   0.96916
   D21       -1.13921  -0.00022   0.00000  -0.02441  -0.02443  -1.16364
   D22       -1.09680   0.00020   0.00000  -0.00811  -0.00809  -1.10489
   D23       -3.11261  -0.00001   0.00000  -0.01315  -0.01314  -3.12575
   D24        1.03656   0.00003   0.00000  -0.01194  -0.01192   1.02464
   D25        0.95125   0.00010   0.00000  -0.01438  -0.01438   0.93688
   D26       -1.06456  -0.00012   0.00000  -0.01942  -0.01943  -1.08399
   D27        3.08461  -0.00008   0.00000  -0.01821  -0.01821   3.06640
   D28        0.54766   0.00003   0.00000   0.00040   0.00039   0.54805
   D29        2.69465  -0.00001   0.00000   0.00058   0.00057   2.69523
   D30       -1.55020  -0.00007   0.00000  -0.00087  -0.00088  -1.55108
   D31       -1.57340   0.00004   0.00000   0.00237   0.00237  -1.57103
   D32        0.57359   0.00000   0.00000   0.00255   0.00255   0.57614
   D33        2.61193  -0.00007   0.00000   0.00110   0.00110   2.61303
   D34        2.66604   0.00030   0.00000   0.00652   0.00652   2.67256
   D35       -1.47015   0.00026   0.00000   0.00670   0.00670  -1.46345
   D36        0.56819   0.00019   0.00000   0.00525   0.00525   0.57344
   D37       -1.12099   0.00018   0.00000   0.00467   0.00466  -1.11633
   D38        0.98908   0.00008   0.00000   0.00495   0.00495   0.99403
   D39        3.02382   0.00004   0.00000   0.00357   0.00357   3.02738
   D40        3.02289   0.00013   0.00000   0.00462   0.00462   3.02751
   D41       -1.15022   0.00004   0.00000   0.00491   0.00490  -1.14531
   D42        0.88451   0.00000   0.00000   0.00352   0.00352   0.88804
   D43        0.98657   0.00015   0.00000   0.00565   0.00564   0.99221
   D44        3.09664   0.00006   0.00000   0.00593   0.00593   3.10257
   D45       -1.15181   0.00002   0.00000   0.00455   0.00455  -1.14726
   D46        0.52797   0.00000   0.00000  -0.00291  -0.00291   0.52506
   D47        2.65798   0.00003   0.00000  -0.00135  -0.00135   2.65664
   D48       -1.59119  -0.00002   0.00000  -0.00327  -0.00327  -1.59445
   D49       -1.56953   0.00000   0.00000  -0.00343  -0.00343  -1.57296
   D50        0.56049   0.00003   0.00000  -0.00187  -0.00187   0.55862
   D51        2.59451  -0.00002   0.00000  -0.00379  -0.00379   2.59072
   D52        2.67321   0.00003   0.00000  -0.00215  -0.00215   2.67106
   D53       -1.47996   0.00006   0.00000  -0.00059  -0.00059  -1.48054
   D54        0.55406   0.00001   0.00000  -0.00250  -0.00251   0.55156
   D55        0.55810   0.00002   0.00000  -0.00153  -0.00152   0.55658
   D56       -1.54106  -0.00010   0.00000  -0.00248  -0.00248  -1.54354
   D57        2.69745   0.00007   0.00000   0.00007   0.00007   2.69752
   D58       -1.56725  -0.00003   0.00000  -0.00321  -0.00321  -1.57046
   D59        2.61678  -0.00015   0.00000  -0.00417  -0.00417   2.61261
   D60        0.57210   0.00002   0.00000  -0.00161  -0.00161   0.57049
   D61        2.68372   0.00008   0.00000  -0.00062  -0.00062   2.68310
   D62        0.58456  -0.00004   0.00000  -0.00158  -0.00158   0.58299
   D63       -1.46011   0.00013   0.00000   0.00097   0.00097  -1.45914
         Item               Value     Threshold  Converged?
 Maximum Force            0.006822     0.000450     NO 
 RMS     Force            0.000865     0.000300     NO 
 Maximum Displacement     0.114393     0.001800     NO 
 RMS     Displacement     0.019781     0.001200     NO 
 Predicted change in Energy=-1.504666D-04
 GradGradGradGradGradGradGradGradGradGradGradGradGradGradGradGradGradGrad

                          Input orientation:                          
 ---------------------------------------------------------------------
 Center     Atomic      Atomic             Coordinates (Angstroms)
 Number     Number       Type             X           Y           Z
 ---------------------------------------------------------------------
      1          6           0       -1.784244   -0.987016    0.846207
      2          6           0       -0.490859   -1.111156   -0.000127
      3          6           0       -0.163514    0.188874   -0.773046
      4          6           0       -0.641574    1.424499    0.002264
      5          6           0       -2.184786    1.423045    0.141093
      6          6           0       -2.767144   -0.010793    0.181968
      7          1           0        0.343634   -1.372563    0.664634
      8          1           0        0.913646    0.246497   -0.972498
      9          1           0       -0.175703    1.418817    0.997947
     10          1           0       -2.468999    1.966526    1.051705
     11          1           0       -2.976921   -0.366380   -0.834792
     12          1           0       -2.633626    1.968511   -0.699055
     13          1           0       -0.307013    2.346429   -0.489189
     14          1           0       -0.659590    0.172108   -1.753442
     15          1           0       -0.598871   -1.939121   -0.711790
     16          1           0       -3.728172   -0.014595    0.712900
     17          6           0       -2.418553   -2.369947    1.146431
     18          1           0       -3.234106   -2.239708    1.871485
     19          1           0       -1.669572   -3.010706    1.633507
     20          6           0       -2.940270   -3.060126   -0.035296
     21          6           0       -3.368375   -3.621290   -1.018200
     22          1           0       -3.759408   -4.135060   -1.868483
     23          1           0       -1.517456   -0.570226    1.828527
 ---------------------------------------------------------------------
                    Distance matrix (angstroms):
                    1          2          3          4          5
     1  C    0.000000
     2  C    1.550657   0.000000
     3  C    2.575163   1.547461   0.000000
     4  C    2.798811   2.540131   1.535062   0.000000
     5  C    2.542835   3.051476   2.538576   1.549445   0.000000
     6  C    1.536332   2.534844   2.780433   2.571071   1.548129
     7  H    2.170134   1.098462   2.182249   3.038573   3.805578
     8  H    3.479634   2.182054   1.096985   2.180954   3.496374
     9  H    2.898011   2.737926   2.156229   1.099297   2.184178
    10  H    3.038837   3.806772   3.435844   2.175914   1.097890
    11  H    2.152539   2.726144   2.868340   3.059698   2.186748
    12  H    3.441573   3.816320   3.045330   2.180841   1.097652
    13  H    3.882957   3.496838   2.180874   1.097001   2.185389
    14  H    3.060489   2.179300   1.098885   2.156690   2.735019
    15  H    2.176917   1.097114   2.172937   3.438843   3.814013
    16  H    2.177665   3.491568   3.867327   3.478949   2.185363
    17  C    1.550800   2.571995   3.913714   4.343339   3.930920
    18  H    2.173138   3.507416   4.724414   4.862265   4.184625
    19  H    2.174468   2.768829   4.277501   4.836194   4.706473
    20  C    2.532040   3.130389   4.337124   5.039571   4.549801
    21  C    3.595120   3.951880   4.984836   5.825529   5.309440
    22  H    4.602281   4.828889   5.729471   6.642987   6.116401
    23  H    1.099928   2.165752   3.029451   2.842769   2.695532
                    6          7          8          9         10
     6  C    0.000000
     7  H    3.429916   0.000000
     8  H    3.866162   2.372018   0.000000
     9  H    3.070045   2.858778   2.538439   0.000000
    10  H    2.180625   4.382949   4.300952   2.358407   0.000000
    11  H    1.097383   3.779784   3.940950   3.793769   3.042910
    12  H    2.170640   4.678301   3.952625   3.036999   1.758484
    13  H    3.472635   3.947854   2.476553   1.757635   2.681952
    14  H    2.867237   3.039664   1.757976   3.059178   3.789821
    15  H    3.036225   1.761775   2.670693   3.791837   4.675615
    16  H    1.097942   4.292553   4.945221   3.841349   2.371739
    17  C    2.572413   2.976001   4.737002   4.405356   4.337800
    18  H    2.835591   3.874100   5.610106   4.847856   4.353140
    19  H    3.508718   2.770419   4.906490   4.717653   5.074486
    20  C    3.061961   3.757898   5.163794   5.363893   5.164387
    21  C    3.851957   4.654860   5.770405   6.297674   6.026365
    22  H    4.711530   5.557250   6.468250   7.204507   6.886363
    23  H    2.141458   2.337102   3.797767   2.538988   2.818510
                   11         12         13         14         15
    11  H    0.000000
    12  H    2.363893   0.000000
    13  H    3.821934   2.366430   0.000000
    14  H    2.550276   2.869775   2.539748   0.000000
    15  H    2.853728   4.405676   4.301241   2.354998   0.000000
    16  H    1.755984   2.669150   4.327098   3.941306   3.940313
    17  C    2.872508   4.719565   5.420153   4.238544   2.636255
    18  H    3.301429   4.967631   5.930709   5.058169   3.702448
    19  H    3.846312   5.582369   5.921258   4.756236   2.791972
    20  C    2.810126   5.081515   6.030829   4.312871   2.682618
    21  C    3.283492   5.646910   6.727962   4.718895   3.254801
    22  H    3.985443   6.315737   7.472027   5.307900   4.018591
    23  H    3.043823   3.752292   3.917124   3.757325   3.028347
                   16         17         18         19         20
    16  H    0.000000
    17  C    2.729602   0.000000
    18  H    2.556862   1.098995   0.000000
    19  H    3.749937   1.099449   1.760352   0.000000
    20  C    3.233550   1.464587   2.096482   2.098098   0.000000
    21  C    4.016766   2.674631   3.205788   3.207849   1.210075
    22  H    4.862380   3.742088   4.225596   4.230310   2.277509
    23  H    2.537836   2.125141   2.394974   2.452980   3.420210
                   21         22         23
    21  C    0.000000
    22  H    1.067636   0.000000
    23  H    4.564948   5.603773   0.000000
 Symmetry turned off by external request.
 Stoichiometry    C9H14
 Framework group  C1[X(C9H14)]
 Deg. of freedom    63
 Full point group                 C1      NOp   1
 Rotational constants (GHZ):           3.0447331           0.9997376           0.9260800
 Standard basis: 6-31+G(d) (6D, 7F)
   199 basis functions,   344 primitive gaussians,   199 cartesian basis functions
    34 alpha electrons       34 beta electrons
       nuclear repulsion energy       441.5453291441 Hartrees.
 NAtoms=   23 NActive=   23 NUniq=   23 SFac= 1.00D+00 NAtFMM=   60 NAOKFM=F Big=F
 Integral buffers will be    131072 words long.
 Raffenetti 2 integral format.
 Two-electron integral symmetry is turned off.
 Nuclear repulsion after empirical dispersion term =      441.5259735518 Hartrees.
 One-electron integrals computed using PRISM.
 NBasis=   199 RedAO= T EigKep=  2.67D-06  NBF=   199
 NBsUse=   199 1.00D-06 EigRej= -1.00D+00 NBFU=   199
 Initial guess from the checkpoint file:  "MOLECULE_16.chk"
 B after Tr=    -0.000503   -0.002674   -0.003737
         Rot=    1.000000    0.000008   -0.000332    0.000455 Ang=   0.06 deg.
 ExpMin= 4.38D-02 ExpMax= 3.05D+03 ExpMxC= 4.57D+02 IAcc=3 IRadAn=         5 AccDes= 0.00D+00
 Harris functional with IExCor=  402 and IRadAn=       5 diagonalized for initial guess.
 HarFok:  IExCor=  402 AccDes= 0.00D+00 IRadAn=         5 IDoV= 1 UseB2=F ITyADJ=14
 ICtDFT=  3500011 ScaDFX=  1.000000  1.000000  1.000000  1.000000
 FoFCou: FMM=F IPFlag=           0 FMFlag=      100000 FMFlg1=           0
         NFxFlg=           0 DoJE=T BraDBF=F KetDBF=T FulRan=T
         wScrn=  0.000000 ICntrl=       500 IOpCl=  0 I1Cent=   200000004 NGrid=           0
         NMat0=    1 NMatS0=      1 NMatT0=    0 NMatD0=    1 NMtDS0=    0 NMtDT0=    0
 Symmetry not used in FoFCou.
 Requested convergence on RMS density matrix=1.00D-08 within 128 cycles.
 Requested convergence on MAX density matrix=1.00D-06.
 Requested convergence on             energy=1.00D-06.
 No special actions if energy rises.
 SCF Done:  E(RB3LYP) =  -351.353074687     A.U. after   11 cycles
            NFock= 11  Conv=0.49D-08     -V/T= 2.0103
 Calling FoFJK, ICntrl=      2127 FMM=F ISym2X=0 I1Cent= 0 IOpClX= 0 NMat=1 NMatS=1 NMatT=0.
 -------------------------------------------------------------------
 Center     Atomic                   Forces (Hartrees/Bohr)
 Number     Number              X              Y              Z
 -------------------------------------------------------------------
      1        6          -0.000235352   -0.000463614    0.000119101
      2        6          -0.000540490    0.000298284    0.000158306
      3        6          -0.000125886    0.000074031    0.000400195
      4        6          -0.000257587   -0.000257745   -0.000228581
      5        6           0.000282601   -0.000178787   -0.000025054
      6        6           0.000441681   -0.000103403    0.000301736
      7        1           0.000079829   -0.000201471    0.000015963
      8        1           0.000052184   -0.000055319   -0.000170505
      9        1           0.000132434    0.000116533    0.000077818
     10        1          -0.000086865    0.000139499    0.000006122
     11        1          -0.000214561   -0.000055766   -0.000139768
     12        1          -0.000118742    0.000132229    0.000021266
     13        1           0.000071209    0.000093524    0.000087829
     14        1           0.000050076    0.000025558   -0.000167078
     15        1           0.000079655   -0.000283052   -0.000087067
     16        1          -0.000114598   -0.000037118   -0.000127294
     17        6           0.000736781    0.001375807   -0.000326665
     18        1          -0.000124999   -0.000043834   -0.000010075
     19        1           0.000037525   -0.000084198    0.000000686
     20        6           0.000083255   -0.000222847    0.000446821
     21        6          -0.000656251   -0.000911342   -0.000522840
     22        1           0.000324546    0.000474507   -0.000081477
     23        1           0.000103558    0.000168523    0.000250561
 -------------------------------------------------------------------
 Cartesian Forces:  Max     0.001375807 RMS     0.000311361

 GradGradGradGradGradGradGradGradGradGradGradGradGradGradGradGradGradGrad
 Berny optimization.
 Using GEDIIS/GDIIS optimizer.
 FormGI is forming the generalized inverse of G from B-inverse, IUseBI=4.
 Internal  Forces:  Max     0.001023361 RMS     0.000183459
 Search for a local minimum.
 Step number   2 out of a maximum of  138
 All quantities printed in internal units (Hartrees-Bohrs-Radians)
 Mixed Optimization -- En-DIIS/RFO-DIIS
 Swapping is turned off.
 Update second derivatives using D2CorX and points    1    2
 DE= -1.31D-04 DEPred=-1.50D-04 R= 8.73D-01
 TightC=F SS=  1.41D+00  RLast= 7.44D-02 DXNew= 5.0454D-01 2.2312D-01
 Trust test= 8.73D-01 RLast= 7.44D-02 DXMaxT set to 3.00D-01
 ITU=  1  0
     Eigenvalues ---    0.00230   0.00237   0.00364   0.00576   0.00620
     Eigenvalues ---    0.00654   0.01892   0.01965   0.03382   0.03457
     Eigenvalues ---    0.03671   0.03898   0.04419   0.04552   0.04725
     Eigenvalues ---    0.04752   0.04758   0.04904   0.05123   0.05255
     Eigenvalues ---    0.05531   0.05747   0.06057   0.06375   0.07981
     Eigenvalues ---    0.08010   0.08020   0.08202   0.08242   0.08716
     Eigenvalues ---    0.09537   0.12004   0.12127   0.15107   0.15818
     Eigenvalues ---    0.16002   0.17816   0.19385   0.20871   0.21203
     Eigenvalues ---    0.24839   0.25268   0.25981   0.26735   0.27385
     Eigenvalues ---    0.27969   0.28116   0.33641   0.33699   0.33735
     Eigenvalues ---    0.33754   0.33797   0.33845   0.33898   0.33912
     Eigenvalues ---    0.33921   0.33932   0.34019   0.34025   0.34122
     Eigenvalues ---    0.36540   0.38443   1.00164
 En-DIIS/RFO-DIIS/Sim-DIIS IScMMF=       -3 using points:     2    1
 RFO step:  Lambda=-1.69578845D-04.
 DidBck=T Rises=F RFO-DIIS coefs:    0.53059    0.46941
 Iteration  1 RMS(Cart)=  0.02395155 RMS(Int)=  0.00174688
 Iteration  2 RMS(Cart)=  0.00178465 RMS(Int)=  0.00000437
 Iteration  3 RMS(Cart)=  0.00000512 RMS(Int)=  0.00000324
 Iteration  4 RMS(Cart)=  0.00000000 RMS(Int)=  0.00000324
 Variable       Old X    -DE/DX   Delta X   Delta X   Delta X     New X
                                 (Linear)    (Quad)   (Total)
    R1        2.93032  -0.00038   0.00380  -0.00948  -0.00568   2.92464
    R2        2.90325  -0.00017   0.00426  -0.00990  -0.00564   2.89760
    R3        2.93059  -0.00078   0.00328  -0.00974  -0.00647   2.92412
    R4        2.07856   0.00031   0.00084  -0.00102  -0.00017   2.07839
    R5        2.92428   0.00002   0.00362  -0.00789  -0.00427   2.92001
    R6        2.07579   0.00012   0.00011   0.00006   0.00018   2.07597
    R7        2.07325   0.00026   0.00040  -0.00020   0.00021   2.07345
    R8        2.90085  -0.00003   0.00413  -0.00928  -0.00515   2.89570
    R9        2.07300   0.00008  -0.00006   0.00033   0.00027   2.07327
   R10        2.07659   0.00013   0.00017  -0.00003   0.00013   2.07673
   R11        2.92803  -0.00006   0.00367  -0.00825  -0.00457   2.92345
   R12        2.07737   0.00013   0.00020  -0.00012   0.00009   2.07746
   R13        2.07303   0.00006  -0.00007   0.00031   0.00024   2.07327
   R14        2.92554   0.00006   0.00342  -0.00724  -0.00382   2.92172
   R15        2.07471   0.00010   0.00016  -0.00010   0.00006   2.07477
   R16        2.07426   0.00010   0.00015  -0.00008   0.00007   2.07434
   R17        2.07375   0.00019   0.00047  -0.00053  -0.00006   2.07369
   R18        2.07481   0.00004  -0.00001   0.00013   0.00012   2.07493
   R19        2.07680   0.00008   0.00044  -0.00075  -0.00031   2.07649
   R20        2.07766   0.00008   0.00040  -0.00068  -0.00028   2.07738
   R21        2.76767   0.00053   0.00147  -0.00192  -0.00045   2.76721
   R22        2.28671   0.00081   0.00326  -0.00641  -0.00315   2.28356
   R23        2.01754  -0.00028  -0.00306   0.00604   0.00298   2.02052
    A1        1.92679   0.00008  -0.00122   0.00229   0.00109   1.92787
    A2        1.95566  -0.00031  -0.00279   0.00355   0.00078   1.95644
    A3        1.89174   0.00009   0.00127  -0.00160  -0.00034   1.89140
    A4        1.96998   0.00013  -0.00259   0.00576   0.00319   1.97317
    A5        1.87604  -0.00007   0.00116  -0.00226  -0.00110   1.87493
    A6        1.83819   0.00010   0.00477  -0.00886  -0.00411   1.83409
    A7        1.96253  -0.00003  -0.00073   0.00199   0.00125   1.96378
    A8        1.89906   0.00003   0.00072  -0.00143  -0.00070   1.89836
    A9        1.90958  -0.00001  -0.00200   0.00430   0.00230   1.91187
   A10        1.91930   0.00004   0.00071  -0.00074  -0.00003   1.91927
   A11        1.90799   0.00006   0.00022  -0.00029  -0.00007   1.90792
   A12        1.86268  -0.00009   0.00116  -0.00413  -0.00297   1.85971
   A13        1.93701  -0.00001  -0.00034   0.00104   0.00070   1.93771
   A14        1.92054  -0.00001   0.00015  -0.00022  -0.00007   1.92047
   A15        1.91485   0.00003  -0.00005   0.00026   0.00020   1.91505
   A16        1.93408   0.00005   0.00004   0.00074   0.00077   1.93486
   A17        1.89895   0.00002  -0.00027   0.00050   0.00023   1.89918
   A18        1.85653  -0.00008   0.00051  -0.00245  -0.00194   1.85460
   A19        1.93336  -0.00001  -0.00035   0.00071   0.00036   1.93372
   A20        1.89792   0.00000  -0.00007   0.00028   0.00020   1.89812
   A21        1.93395   0.00004   0.00003   0.00046   0.00049   1.93445
   A22        1.91870   0.00004   0.00010   0.00017   0.00027   1.91897
   A23        1.92269   0.00000  -0.00023   0.00072   0.00049   1.92318
   A24        1.85550  -0.00008   0.00056  -0.00246  -0.00190   1.85359
   A25        1.95831  -0.00007  -0.00145   0.00313   0.00168   1.96000
   A26        1.90888   0.00004   0.00007   0.00020   0.00026   1.90914
   A27        1.91582   0.00005   0.00011   0.00018   0.00029   1.91611
   A28        1.91686   0.00005   0.00015   0.00009   0.00024   1.91711
   A29        1.90355   0.00002   0.00057  -0.00119  -0.00062   1.90293
   A30        1.85771  -0.00009   0.00066  -0.00273  -0.00206   1.85564
   A31        1.93828  -0.00001   0.00018  -0.00026  -0.00009   1.93819
   A32        1.89335   0.00006  -0.00089   0.00258   0.00169   1.89504
   A33        1.92700   0.00002  -0.00050   0.00147   0.00097   1.92796
   A34        1.92576  -0.00001   0.00082  -0.00156  -0.00074   1.92502
   A35        1.92329   0.00004  -0.00033   0.00090   0.00057   1.92386
   A36        1.85417  -0.00010   0.00074  -0.00322  -0.00249   1.85168
   A37        1.90241   0.00005  -0.00190   0.00485   0.00294   1.90536
   A38        1.90375  -0.00005  -0.00217   0.00426   0.00210   1.90585
   A39        1.99296   0.00035  -0.00303   0.00800   0.00497   1.99793
   A40        1.85701  -0.00001  -0.00013   0.00028   0.00015   1.85716
   A41        1.90056  -0.00015   0.00409  -0.00910  -0.00501   1.89555
   A42        1.90232  -0.00022   0.00330  -0.00879  -0.00550   1.89682
   A43        3.13269  -0.00068  -0.00498  -0.00235  -0.00733   3.12537
   A44        3.16828  -0.00102  -0.00770  -0.13738  -0.14508   3.02320
   A45        3.13802  -0.00044  -0.00365  -0.00053  -0.00418   3.13384
   A46        3.14188   0.00002   0.00027   0.00253   0.00280   3.14468
    D1        0.52988   0.00003   0.00158  -0.00429  -0.00271   0.52717
    D2        2.66047   0.00008   0.00250  -0.00491  -0.00241   2.65807
    D3       -1.59373  -0.00002   0.00318  -0.00827  -0.00508  -1.59881
    D4        2.74168   0.00002  -0.00487   0.00786   0.00298   2.74466
    D5       -1.41091   0.00007  -0.00395   0.00723   0.00328  -1.40763
    D6        0.61807  -0.00004  -0.00327   0.00387   0.00060   0.61868
    D7       -1.52059   0.00002   0.00012  -0.00191  -0.00179  -1.52238
    D8        0.61001   0.00007   0.00105  -0.00254  -0.00149   0.60852
    D9        2.63899  -0.00003   0.00173  -0.00589  -0.00416   2.63482
   D10       -1.12237  -0.00009  -0.00275   0.00557   0.00283  -1.11954
   D11        0.99685  -0.00007  -0.00220   0.00516   0.00296   0.99981
   D12        3.02202  -0.00014  -0.00210   0.00358   0.00148   3.02350
   D13        2.95701   0.00017   0.00386  -0.00542  -0.00156   2.95545
   D14       -1.20696   0.00019   0.00442  -0.00584  -0.00142  -1.20838
   D15        0.81822   0.00011   0.00451  -0.00741  -0.00290   0.81532
   D16        0.93776   0.00002  -0.00122   0.00359   0.00237   0.94012
   D17        3.05697   0.00004  -0.00067   0.00317   0.00250   3.05948
   D18       -1.20104  -0.00004  -0.00057   0.00160   0.00102  -1.20002
   D19        2.99003   0.00004   0.00967  -0.00198   0.00769   2.99772
   D20        0.96916   0.00005   0.01204  -0.00732   0.00473   0.97389
   D21       -1.16364   0.00012   0.01147  -0.00464   0.00684  -1.15680
   D22       -1.10489  -0.00001   0.00380   0.00856   0.01234  -1.09254
   D23       -3.12575   0.00000   0.00617   0.00322   0.00938  -3.11637
   D24        1.02464   0.00007   0.00560   0.00590   0.01149   1.03612
   D25        0.93688   0.00003   0.00675   0.00341   0.01016   0.94703
   D26       -1.08399   0.00004   0.00912  -0.00193   0.00719  -1.07680
   D27        3.06640   0.00011   0.00855   0.00075   0.00930   3.07570
   D28        0.54805   0.00003  -0.00019   0.00109   0.00091   0.54896
   D29        2.69523   0.00008  -0.00027   0.00259   0.00232   2.69755
   D30       -1.55108  -0.00001   0.00041  -0.00037   0.00004  -1.55103
   D31       -1.57103  -0.00002  -0.00111   0.00209   0.00098  -1.57006
   D32        0.57614   0.00003  -0.00120   0.00358   0.00239   0.57853
   D33        2.61303  -0.00005  -0.00052   0.00063   0.00011   2.61314
   D34        2.67256   0.00004  -0.00306   0.00768   0.00462   2.67719
   D35       -1.46345   0.00009  -0.00315   0.00918   0.00603  -1.45741
   D36        0.57344   0.00000  -0.00246   0.00622   0.00376   0.57719
   D37       -1.11633  -0.00001  -0.00219   0.00581   0.00362  -1.11271
   D38        0.99403   0.00003  -0.00232   0.00664   0.00431   0.99835
   D39        3.02738  -0.00004  -0.00167   0.00408   0.00241   3.02979
   D40        3.02751  -0.00002  -0.00217   0.00486   0.00269   3.03020
   D41       -1.14531   0.00002  -0.00230   0.00568   0.00338  -1.14194
   D42        0.88804  -0.00005  -0.00165   0.00313   0.00147   0.88951
   D43        0.99221   0.00003  -0.00265   0.00711   0.00446   0.99667
   D44        3.10257   0.00007  -0.00278   0.00793   0.00515   3.10772
   D45       -1.14726   0.00001  -0.00214   0.00538   0.00325  -1.14402
   D46        0.52506  -0.00003   0.00137  -0.00514  -0.00378   0.52128
   D47        2.65664   0.00001   0.00063  -0.00278  -0.00215   2.65448
   D48       -1.59445  -0.00004   0.00153  -0.00586  -0.00432  -1.59878
   D49       -1.57296  -0.00005   0.00161  -0.00605  -0.00444  -1.57740
   D50        0.55862   0.00000   0.00088  -0.00369  -0.00281   0.55581
   D51        2.59072  -0.00005   0.00178  -0.00676  -0.00499   2.58573
   D52        2.67106   0.00002   0.00101  -0.00358  -0.00257   2.66849
   D53       -1.48054   0.00007   0.00028  -0.00122  -0.00094  -1.48148
   D54        0.55156   0.00001   0.00118  -0.00429  -0.00311   0.54844
   D55        0.55658   0.00002   0.00071   0.00043   0.00114   0.55771
   D56       -1.54354  -0.00004   0.00116  -0.00160  -0.00044  -1.54398
   D57        2.69752   0.00006  -0.00003   0.00274   0.00271   2.70023
   D58       -1.57046  -0.00002   0.00151  -0.00201  -0.00051  -1.57097
   D59        2.61261  -0.00008   0.00196  -0.00404  -0.00208   2.61053
   D60        0.57049   0.00002   0.00076   0.00030   0.00106   0.57154
   D61        2.68310   0.00005   0.00029   0.00190   0.00219   2.68529
   D62        0.58299  -0.00001   0.00074  -0.00013   0.00061   0.58360
   D63       -1.45914   0.00009  -0.00046   0.00421   0.00375  -1.45539
         Item               Value     Threshold  Converged?
 Maximum Force            0.001023     0.000450     NO 
 RMS     Force            0.000183     0.000300     YES
 Maximum Displacement     0.161750     0.001800     NO 
 RMS     Displacement     0.024438     0.001200     NO 
 Predicted change in Energy=-8.670793D-05
 GradGradGradGradGradGradGradGradGradGradGradGradGradGradGradGradGradGrad

                          Input orientation:                          
 ---------------------------------------------------------------------
 Center     Atomic      Atomic             Coordinates (Angstroms)
 Number     Number       Type             X           Y           Z
 ---------------------------------------------------------------------
      1          6           0       -1.788319   -0.987418    0.848219
      2          6           0       -0.500705   -1.115542   -0.000815
      3          6           0       -0.173248    0.179097   -0.778203
      4          6           0       -0.643490    1.417061   -0.007244
      5          6           0       -2.183273    1.418883    0.142252
      6          6           0       -2.769822   -0.010873    0.189312
      7          1           0        0.335368   -1.376580    0.662256
      8          1           0        0.903213    0.232225   -0.983392
      9          1           0       -0.170312    1.416332    0.985055
     10          1           0       -2.460325    1.965521    1.053221
     11          1           0       -2.988237   -0.366283   -0.825652
     12          1           0       -2.637224    1.964594   -0.695037
     13          1           0       -0.310254    2.336431   -0.504643
     14          1           0       -0.672518    0.160308   -1.757020
     15          1           0       -0.609237   -1.946533   -0.709035
     16          1           0       -3.728523   -0.010512    0.724576
     17          6           0       -2.420641   -2.365269    1.158175
     18          1           0       -3.238890   -2.232690    1.879505
     19          1           0       -1.673126   -3.003534    1.650415
     20          6           0       -2.941201   -3.071391   -0.014310
     21          6           0       -3.364151   -3.637762   -0.994406
     22          1           0       -3.679804   -4.049465   -1.929328
     23          1           0       -1.516760   -0.569981    1.828852
 ---------------------------------------------------------------------
                    Distance matrix (angstroms):
                    1          2          3          4          5
     1  C    0.000000
     2  C    1.547650   0.000000
     3  C    2.571859   1.545203   0.000000
     4  C    2.797137   2.536634   1.532339   0.000000
     5  C    2.538634   3.045458   2.534661   1.547024   0.000000
     6  C    1.533345   2.530876   2.777475   2.568836   1.546110
     7  H    2.167043   1.098555   2.180308   3.034934   3.798495
     8  H    3.476589   2.180119   1.097130   2.179218   3.493083
     9  H    2.900808   2.737058   2.154029   1.099344   2.182277
    10  H    3.035370   3.800534   3.431640   2.174003   1.097923
    11  H    2.151153   2.725722   2.867726   3.057441   2.184404
    12  H    3.437536   3.812335   3.044026   2.178951   1.097691
    13  H    3.881093   3.493743   2.178922   1.097129   2.183705
    14  H    3.057704   2.177515   1.098956   2.154527   2.733794
    15  H    2.176046   1.097224   2.170984   3.436197   3.811601
    16  H    2.175782   3.487993   3.864489   3.477206   2.184049
    17  C    1.547378   2.567339   3.908214   4.338490   3.925334
    18  H    2.172191   3.504465   4.719989   4.859693   4.179278
    19  H    2.172904   2.768689   4.275156   4.832147   4.700274
    20  C    2.532989   3.127546   4.337138   5.042393   4.556482
    21  C    3.592052   3.943112   4.979660   5.824751   5.315649
    22  H    4.546275   4.736426   5.612642   6.541905   6.036048
    23  H    1.099836   2.162796   3.027025   2.842919   2.691549
                    6          7          8          9         10
     6  C    0.000000
     7  H    3.425060   0.000000
     8  H    3.863356   2.370413   0.000000
     9  H    3.070435   2.856618   2.535616   0.000000
    10  H    2.179050   4.374745   4.297150   2.355932   0.000000
    11  H    1.097348   3.779011   3.940365   3.794348   3.040750
    12  H    2.168438   4.673541   3.952081   3.034626   1.757185
    13  H    3.469998   3.945242   2.475760   1.756521   2.680918
    14  H    2.866391   3.038215   1.756872   3.057578   3.788470
    15  H    3.036764   1.759991   2.666414   3.790971   4.672926
    16  H    1.098005   4.287801   4.942576   3.842473   2.370873
    17  C    2.569787   2.969685   4.730887   4.403914   4.332244
    18  H    2.830769   3.871685   5.606158   4.850936   4.349010
    19  H    3.506221   2.767216   4.903528   4.715545   5.066343
    20  C    3.072068   3.750471   5.160670   5.368073   5.171204
    21  C    3.861184   4.641543   5.760843   6.297836   6.033776
[...]
 9309,0.02536242,-0.00274094,-0.04669636,-0.00480195,-0.01297505,-0.001
 64237,-0.02695268,-0.00071635,0.00107563,0.00038652,0.00005660,0.00014
 306,0.00025066,-0.00161130,-0.00427310,0.00372781,-0.00065385,-0.00021
 712,-0.00140745,0.00224803,-0.00449799,-0.00328885,-0.00028703,-0.0000
 4401,0.00031678,-0.00035409,0.00034221,-0.00008364,0.00032237,-0.00013
 883,0.00028982,-0.00060422,0.00064350,0.00059767,0.00215720,0.05788683
 ,-0.00064181,0.00047717,0.00027513,-0.00810350,0.00043709,-0.01327049,
 -0.10153561,-0.00314884,-0.24572733,-0.00781943,-0.00215852,-0.0170625
 2,-0.00051974,-0.00003367,0.00025751,-0.00007977,0.00002713,-0.0008917
 9,0.00138473,0.00234743,-0.00075765,0.00173595,0.00019120,0.00578511,0
 .00123574,-0.00355874,-0.00057439,-0.00002048,0.00009294,0.00034752,0.
 00070747,0.00050274,0.00062229,0.00070030,-0.00028365,-0.00010375,0.00
 001987,-0.00037803,0.00062606,0.11221512,0.00567570,0.26823839,0.00245
 650,0.02042849,0.02022477,-0.05366283,-0.02115365,-0.02070853,0.000073
 29,-0.00399348,-0.00471675,-0.00040530,-0.00032538,0.00099552,0.000181
 11,-0.00014987,0.00002805,0.00082687,-0.00067767,0.00109088,-0.0027625
 6,-0.01999012,-0.01673400,-0.00029347,0.00011924,-0.00002327,-0.000113
 84,0.00022306,0.00013289,0.00002681,-0.00011202,-0.00002199,-0.0000529
 3,-0.00009857,-0.00064177,0.00007589,0.00003302,-0.00005923,0.00024176
 ,-0.00024172,-0.00006628,0.00108212,0.00053563,0.00021849,0.05630190,-
 0.00055906,-0.00144271,-0.00182271,-0.01928693,-0.19210506,-0.12649270
 ,-0.00187437,-0.02161142,-0.01679927,-0.00235823,-0.00361958,0.0040821
 6,-0.00059047,0.00030761,0.00012723,-0.00020415,-0.00009369,-0.0003516
 9,0.00038880,0.00694415,0.00522891,-0.00045119,-0.00045980,0.00027114,
 -0.00011722,0.00041122,0.00010345,0.00011760,0.00005214,-0.00004372,0.
 00028282,-0.00007294,0.00021611,0.00005495,-0.00000121,0.00002498,0.00
 072083,-0.00147397,-0.00083679,0.00067969,0.00102708,0.00000917,0.0249
 0978,0.21149056,-0.00046997,-0.01185371,-0.01522024,-0.01980860,-0.126
 22055,-0.15675886,0.00060478,0.01570096,0.01100336,0.00104801,0.002753
 62,-0.00149092,0.00031986,0.00010890,-0.00005796,-0.00006038,0.0005313
 3,-0.00014516,-0.00246550,-0.01475547,-0.01304551,0.00030577,-0.000447
 60,-0.00008136,0.00014805,0.00015231,0.00014151,-0.00006300,0.00006329
 ,-0.00000316,0.00023853,-0.00021385,0.00027614,-0.00000246,-0.00004174
 ,0.00004463,-0.00024960,0.00093419,0.00045858,-0.00006459,0.00036206,0
 .00158889,0.01715816,0.13425287,0.17373396,-0.01863762,0.00084174,0.01
 214989,-0.00134826,0.00213296,-0.00365418,0.00079261,0.00026812,-0.000
 74024,0.00072934,-0.00260159,0.00050552,-0.00983722,-0.00012562,0.0049
 5054,-0.23965913,0.00155324,0.10921722,-0.00116592,0.00029088,0.000751
 91,0.00000601,-0.00003405,0.00005464,-0.00011190,0.00003498,-0.0000818
 0,0.00088087,-0.00011977,-0.00074289,0.00597551,0.00028794,-0.00243002
 ,-0.00032759,-0.00052836,0.00005235,-0.00073739,0.00001766,0.00001277,
 0.00013490,-0.00004732,0.00014851,-0.00014083,0.00016580,0.00010074,0.
 26170193,0.01848775,-0.00172378,-0.01228459,0.00257717,-0.00216704,0.0
 0332598,0.00014431,-0.00056814,0.00003161,-0.00033187,-0.00559544,0.00
 096842,-0.02845370,-0.00073894,0.01325979,0.00079985,-0.04673013,-0.00
 010250,0.00131904,-0.00018588,-0.00062651,0.00001066,0.00012683,0.0000
 4232,-0.00019377,-0.00003374,-0.00013796,-0.00035297,0.00147310,-0.000
 21757,0.00888081,-0.00005900,-0.00490166,0.00046135,-0.00036374,0.0004
 1303,-0.00180964,-0.00001302,0.00011439,0.00000084,0.00000823,0.000048
 61,-0.00001399,0.00003527,-0.00016024,-0.00146283,0.05557921,-0.013903
 00,0.00076520,0.00797383,-0.00136848,0.00219537,-0.00083535,-0.0001335
 3,-0.00000087,-0.00059339,-0.00066359,-0.00043689,0.00048984,-0.001742
 27,-0.00185693,-0.00011402,0.11085181,-0.00036352,-0.11389264,-0.00054
 567,0.00017645,0.00041470,0.00014522,0.00003457,0.00016529,0.00005174,
 0.00006235,0.00002010,-0.00057993,0.00009627,0.00141331,0.02786825,-0.
 00009284,-0.01576133,0.00006935,0.00019382,-0.00018584,0.00000197,-0.0
 0002186,0.00007748,-0.00000497,-0.00008044,0.00046892,-0.00040214,0.00
 013739,0.00009513,-0.11971563,0.00037350,0.11891768,-0.08842603,-0.028
 99755,0.00438299,-0.01275579,-0.02475598,0.00862641,-0.00419560,0.0013
 9650,0.00121793,-0.00059108,0.00038115,0.00001346,-0.00328542,0.002366
 53,-0.00308826,0.01066147,0.01789606,-0.00151845,-0.00025917,-0.000108
 78,-0.00019091,-0.00027841,-0.00127746,0.00080917,0.00015512,0.0000189
 1,0.00002976,0.00006053,0.00016153,0.00016118,0.00018509,-0.00004129,-
 0.00037737,0.00042824,0.00167524,-0.00023574,0.00015120,-0.00004296,-0
 .00001915,-0.00003220,-0.00002554,0.00018031,0.00090241,-0.00100357,-0
 .00028478,0.00062975,0.00118742,-0.00013845,0.53945578,-0.02909224,-0.
 13889427,0.01212120,-0.00382306,0.00165820,0.00359104,0.00138071,0.000
 27853,-0.00111617,0.00050741,0.00031536,-0.00013434,0.00306346,-0.0008
 1566,0.00257237,-0.00648634,-0.02537222,0.00461553,0.00100047,0.000235
 29,-0.00052677,0.00024482,0.00042814,-0.00032812,-0.00001054,0.0000369
 8,-0.00007236,-0.00001935,-0.00005078,-0.00004617,-0.00056928,0.000962
 66,-0.00043162,-0.00044605,-0.00101635,-0.00008031,-0.00003839,0.00012
 317,-0.00001007,-0.00005214,0.00002846,-0.00009484,0.00045222,0.000587
 02,-0.00129948,-0.00089742,0.00041538,-0.00014354,-0.05321236,0.455016
 48,0.00803594,0.02127884,-0.07827944,0.00886473,0.01770506,-0.00694623
 ,0.00363135,-0.00109962,-0.00104505,-0.00041191,-0.00067205,-0.0004305
 5,-0.00175475,0.00079182,-0.00118142,0.00607636,0.01413587,-0.00241652
 ,-0.00037034,-0.00049706,0.00021380,0.00029346,0.00094152,-0.00056628,
 0.00030770,0.00010656,0.00034754,-0.00015960,0.00022285,-0.00002221,0.
 00047094,0.00052719,-0.00043537,0.00022350,0.00072409,0.00016495,0.000
 05586,-0.00001579,0.00021577,-0.00004518,0.00014740,-0.00014432,0.0007
 4622,0.00101803,0.00029227,0.00073444,-0.00100429,0.00085842,-0.002095
 12,0.00911185,0.53181268,-0.01132918,0.00139742,0.00839297,0.00043322,
 -0.00383288,0.00033088,-0.00077837,0.00063459,0.00014736,0.00002116,0.
 00010198,0.00007080,-0.00010004,-0.00008002,-0.00019012,0.00064828,0.0
 0072045,-0.00063922,0.00011952,0.00014044,-0.00017242,-0.00007454,-0.0
 0032806,0.00022643,0.00001455,0.00002126,-0.00003218,0.00004420,-0.000
 05056,-0.00003415,-0.00001227,0.00004544,-0.00007749,0.00004185,0.0000
 2019,0.00000042,0.00003739,-0.00007475,-0.00002600,0.00000346,-0.00011
 318,0.00012732,0.00029698,0.00008564,-0.00026297,0.00053036,-0.0002250
 1,0.00014193,-0.19026118,0.02444091,0.12218345,0.20666481,-0.02336536,
 0.00186364,0.01993665,-0.00063427,-0.00559527,0.00087585,-0.00166836,0
 .00045054,0.00043604,-0.00009743,0.00031726,0.00008437,-0.00006480,0.0
 0005179,-0.00036113,-0.00115865,0.00134672,0.00028572,-0.00024451,-0.0
 0000118,-0.00012297,-0.00013691,-0.00052134,0.00031916,0.00001790,0.00
 000724,-0.00002175,0.00004449,-0.00002728,0.00000549,0.00006507,-0.000
 05109,-0.00003031,0.00005076,0.00011283,-0.00002606,0.00007494,-0.0000
 4448,-0.00001244,0.00003262,-0.00003665,0.00010165,0.00026304,-0.00002
 778,0.00005201,0.00078431,-0.00042218,-0.00006591,0.02566639,-0.048741
 45,-0.02099120,-0.02359823,0.05721456,0.00541631,-0.00010361,-0.004368
 23,-0.00007279,0.00117407,0.00077381,0.00037534,-0.00020158,0.00013571
 ,0.00003471,-0.00013364,0.00000068,-0.00018827,0.00015802,0.00022555,0
 .00054888,-0.00056926,-0.00048570,0.00034918,0.00009449,-0.00003925,-0
 .00000971,0.00013712,-0.00007723,-0.00002841,-0.00000551,-0.00000185,0
 .00000313,0.00002327,-0.00000488,-0.00002134,0.00000391,0.00009436,-0.
 00001044,-0.00005111,0.00001109,-0.00007264,0.00001913,0.00001009,-0.0
 0000405,-0.00003147,-0.00000054,-0.00033859,0.00006385,0.00010587,-0.0
 0061951,0.00061271,-0.00005355,0.12371001,-0.01981550,-0.15303052,-0.1
 3380551,0.02558312,0.16989872,0.00945708,-0.00878167,0.00716122,0.0009
 5418,-0.00041654,0.00046289,0.00011785,0.00010016,-0.00011010,0.000165
 22,0.00007118,-0.00008338,0.00044184,-0.00057769,0.00023797,-0.0011947
 9,-0.00188888,0.00054302,0.00007749,0.00008853,-0.00033763,0.00001073,
 0.00004128,-0.00002798,-0.00001108,-0.00001094,-0.00000241,-0.00001114
 ,-0.00002458,0.00000855,0.00001175,-0.00000253,0.00001513,-0.00005134,
 -0.00021129,0.00000624,0.00000383,0.00003105,0.00001926,-0.00000647,0.
 00003135,-0.00002267,0.00003854,0.00012588,-0.00008491,0.00023377,-0.0
 0018170,-0.00010289,-0.16506770,0.10221452,-0.07514394,-0.01732496,0.0
 1438087,-0.01054755,0.17966655,0.02041268,-0.01916625,0.01371770,0.000
 88411,0.00112353,-0.00048214,-0.00005213,-0.00016290,-0.00021081,0.000
 30404,0.00007091,-0.00003087,0.00143266,-0.00040750,0.00129596,-0.0047
 3542,-0.00459440,-0.00042444,-0.00074937,-0.00001655,0.00009394,-0.000
 03103,0.00008988,-0.00000971,-0.00008038,0.00000944,-0.00003630,-0.000
 02976,-0.00010775,-0.00005598,-0.00003002,0.00009539,0.00024414,-0.000
 23471,-0.00073406,0.00003869,-0.00011311,0.00003012,0.00002782,0.00003
 851,0.00011896,-0.00011686,-0.00020672,0.00018629,0.00018081,-0.000279
 62,0.00032878,-0.00030453,0.10116190,-0.13056815,0.06342620,0.00289920
 ,-0.00266082,0.00146693,-0.10787574,0.14623985,-0.00399326,0.00529630,
 -0.00333627,-0.00041017,-0.00002412,0.00014150,0.00011041,-0.00006703,
 -0.00009132,-0.00012554,-0.00009238,0.00012272,-0.00053645,0.00008250,
 -0.00005682,0.00144584,0.00096761,0.00093772,0.00032720,0.00017461,0.0
 0004573,-0.00001210,-0.00002523,0.00001124,0.00000877,0.00000806,-0.00
 000378,0.00004582,0.00008855,-0.00000904,0.00006371,-0.00038748,0.0002
 1315,0.00004479,0.00012548,-0.00000616,0.00002718,-0.00005599,-0.00003
 055,-0.00000135,-0.00008442,0.00007924,-0.00009658,-0.00006973,-0.0003
 3716,-0.00030913,0.00006669,0.00002112,-0.07561582,0.06465883,-0.09580
 533,0.01441004,-0.01254201,0.01058223,0.08603368,-0.06843429,0.1063407
 0,-0.00889662,-0.01123890,-0.01172961,-0.00107983,-0.00121319,-0.00141
 824,0.00029971,0.00009382,-0.00011757,-0.00007537,-0.00010189,-0.00004
 396,-0.00036536,0.00025835,-0.00026432,0.00107017,0.00154738,0.0007607
 6,-0.00002053,-0.00011150,-0.00017135,0.00006168,0.00011766,-0.0000920
 2,0.00003648,0.00001254,0.00007760,-0.00001105,0.00002500,-0.00000314,
 0.00025773,-0.00017831,-0.00003918,0.00004376,0.00013515,0.00001328,0.
 00002865,-0.00000676,0.00005013,0.00003029,0.00006629,0.00000284,-0.00
 104231,-0.00085914,0.00028227,0.00014264,-0.00014928,0.00001866,-0.093
 00796,-0.02938399,-0.05510222,0.01302255,0.01122278,0.01781368,-0.0092
 2478,-0.01364155,-0.02255948,0.25613562,-0.01384079,-0.02116057,-0.027
 59527,0.00010609,0.00112426,-0.00069046,0.00053796,-0.00005560,-0.0000
 9871,-0.00009540,-0.00011089,-0.00014615,-0.00037616,0.00035507,-0.000
 52749,-0.00017665,-0.00059180,-0.00029927,0.00004368,-0.00018275,-0.00
 021325,0.00002425,0.00015860,-0.00011847,0.00011346,0.00002045,0.00010
 721,-0.00004438,0.00001941,0.00003009,0.00009014,-0.00134872,-0.000241
 67,0.00007792,0.00020729,0.00005446,0.00004265,0.00000050,0.00010922,0
 .00002989,0.00012049,-0.00002075,-0.00066613,-0.00022976,0.00045478,0.
 00029078,0.00008158,0.00002181,-0.02998341,-0.10861426,-0.07387780,-0.
 00091523,-0.00461165,-0.00785736,0.00225011,0.01158689,0.01302751,0.21
 684685,0.38774502,-0.00564394,-0.01393881,0.00658430,0.00013822,0.0020
 8065,0.00093395,0.00060232,-0.00018046,0.00005576,-0.00011432,-0.00011
 404,0.00001004,-0.00055756,0.00023931,-0.00058231,0.00116940,0.0013693
 1,0.00167121,0.00010600,-0.00020662,-0.00026313,0.00009295,0.00021874,
 -0.00020254,-0.00005193,-0.00007855,-0.00004259,-0.00002267,-0.0000011
 3,0.00003904,0.00014713,0.00017359,-0.00056518,0.00006816,0.00035349,-
 0.00006831,0.00002365,0.00006049,-0.00004765,-0.00002746,0.00010829,-0
 .00012786,0.00054184,-0.00006610,0.00016285,0.00003714,-0.00012844,-0.
 00010878,-0.05343237,-0.07045149,-0.19840267,-0.00908100,-0.01289071,-
 0.02505404,-0.00836363,-0.00810753,-0.01905766,0.37118769,0.49887961,0
 .96013406,0.00074280,0.00134435,-0.00068891,0.00014415,0.00029935,0.00
 038160,0.00002352,0.00004783,-0.00018403,-0.00007896,0.00003879,0.0000
 8241,0.00017979,-0.00010859,0.00026231,-0.00031381,0.00012332,-0.00030
 487,0.00006194,-0.00014379,-0.00011490,-0.00003596,-0.00006802,0.00004
 967,0.00003826,0.00003349,0.00000949,0.00003333,0.00004946,-0.00002670
 ,-0.00011903,-0.00003126,0.00039168,-0.00002637,-0.00013192,0.00004722
 ,0.00004811,-0.00009204,0.00000034,0.00000647,-0.00001992,0.00007439,-
 0.00004184,-0.00034914,-0.00029972,0.00007651,-0.00007578,-0.00023287,
 0.00465643,-0.00093630,-0.00279645,-0.00116623,-0.00119439,-0.00107901
 ,0.00092015,-0.00001467,0.00010952,-0.15658443,-0.17279307,-0.29976158
 ,0.21849303,0.00080702,0.00167534,-0.00009497,0.00027818,-0.00020960,-
 0.00014710,-0.00010866,0.00012059,0.00008806,0.00007785,0.00000743,0.0
 0000220,0.00008527,0.00007698,-0.00006228,-0.00033598,0.00004975,0.000
 60440,-0.00004315,-0.00004634,-0.00006916,-0.00010135,-0.00008685,0.00
 005534,-0.00000098,0.00003872,-0.00001349,-0.00007199,-0.00008790,-0.0
 0003887,-0.00002888,-0.00018270,-0.00039937,-0.00002420,-0.00010090,0.
 00006272,-0.00005373,-0.00004950,0.00004077,0.00004384,-0.00001481,0.0
 0000659,-0.00002169,-0.00016493,0.00008239,-0.00003163,0.00001739,-0.0
 0008125,-0.00119146,0.00459727,-0.00381092,-0.00110957,0.00011618,-0.0
 0045496,-0.00000438,-0.00143347,-0.00134577,-0.17241282,-0.25985499,-0
 .40216240,0.24134480,0.36263553,0.00209974,0.00515463,-0.00410035,0.00
 089227,-0.00101976,-0.00043428,-0.00047666,0.00020310,0.00003611,0.000
 07366,0.00010156,-0.00010230,0.00035515,-0.00003674,0.00063758,-0.0008
 4789,0.00020486,-0.00089213,0.00010024,0.00025015,0.00024023,-0.000094
 23,-0.00018826,0.00018488,0.00006719,0.00008569,0.00008254,0.00002849,
 0.00013113,-0.00001882,0.00022971,-0.00017132,0.00086710,-0.00005743,-
 0.00033646,0.00007703,-0.00003125,-0.00004514,0.00005365,0.00001808,-0
 .00019428,0.00017138,-0.00032607,0.00050631,0.00028241,-0.00004815,0.0
 0013289,0.00002755,-0.00308691,-0.00401994,-0.00203242,-0.00149890,-0.
 00061023,-0.00004219,0.00021526,-0.00172135,-0.00043114,-0.30036446,-0
 .40394878,-0.72773052,0.41793342,0.56027784,1.01327331,0.00019267,0.00
 002622,0.00030227,-0.00000244,-0.00005468,-0.00001422,-0.00004090,-0.0
 0000408,0.00001434,0.00002298,-0.00000851,-0.00001766,-0.00001118,0.00
 000336,0.00000361,0.00001450,-0.00005073,-0.00000390,-0.00001365,0.000
 02040,0.00001801,-0.00000376,-0.00000029,0.00000284,-0.00000865,0.0000
 0141,0.00000587,-0.00000624,0.00000606,0.00001337,0.00003515,-0.000013
 02,-0.00003205,0.00000071,0.00001417,-0.00001393,-0.00001066,0.0000208
 4,-0.00000133,0.00000946,-0.00002099,0.00000463,-0.00001226,0.00003033
 ,0.00000773,-0.00004290,0.00002430,0.00004546,0.00580430,-0.00097236,-
 0.00156758,-0.00062603,-0.00056490,-0.00096658,0.00026581,0.00052827,0
 .00065118,-0.00042024,0.00122157,0.00168390,-0.06693128,-0.06698607,-0
 .11447268,0.06178433,0.00025048,0.00036371,0.00095364,-0.00006045,-0.0
 0004617,0.00002232,-0.00003489,-0.00000219,-0.00004282,-0.00000733,0.0
 0000064,0.00000748,0.00000670,-0.00002563,0.00003601,0.00000067,-0.000
 05543,-0.00011206,0.00003705,0.00001628,0.00003809,0.00002808,0.000005
 86,0.00000747,0.00000193,-0.00000104,0.00001469,0.00001458,0.00002745,
 0.00001734,-0.00001524,-0.00003236,0.00007205,0.00000079,-0.00001225,-
 0.00000955,0.00000985,0.00001304,-0.00001517,-0.00000311,-0.00002575,0
 .00003504,-0.00003215,0.00001676,-0.00005220,0.00000100,0.00000983,0.0
 0000888,-0.00103192,0.00500303,-0.00204789,-0.00002715,0.00011173,-0.0
 0005237,-0.00019164,-0.00056797,-0.00089669,0.00122072,0.00048593,0.00
 215719,-0.06698312,-0.10690499,-0.15323452,0.06668699,0.10142484,-0.00
 033543,-0.00046535,-0.00069914,-0.00000931,0.00005378,-0.00003944,0.00
 004356,-0.00002324,0.00005760,-0.00001101,0.00001903,-0.00001991,-0.00
 001145,-0.00002323,-0.00000699,0.00004883,0.00005556,0.00002542,0.0000
 0532,0.00000297,-0.00000479,0.00001840,0.00001877,-0.00001650,0.000001
 50,-0.00001051,-0.00000533,0.00000309,0.00000744,0.00000084,-0.0000020
 8,-0.00000540,0.00001894,0.00000052,0.00003336,-0.00001083,0.00001072,
 0.00001709,0.00000074,-0.00001701,0.00002326,-0.00002797,-0.00002609,-
 0.00000726,0.00005978,0.00002206,-0.00002707,-0.00001679,-0.00151137,-
 0.00189107,0.00270717,0.00031879,0.00023515,0.00045861,0.00001759,0.00
 015066,0.00024800,0.00121077,0.00151071,0.00216226,-0.11404387,-0.1526
 6677,-0.28092888,0.11431519,0.15310889,0.27597907,-0.06253028,-0.02325
 380,-0.05478962,0.00281964,0.01269960,0.02576402,0.00008167,0.00060190
 ,-0.00033364,0.00002940,-0.00036138,0.00026407,0.00067236,-0.00086779,
 0.00053898,-0.00646460,-0.00667351,-0.02176311,0.00132251,0.00032429,0
 .00036259,-0.00003656,-0.00002541,0.00001716,-0.00001897,-0.00078475,0
 .00014943,0.00003115,0.00042850,0.00014531,-0.00251910,0.00301689,-0.0
 0194519,-0.00013487,-0.00020494,0.00023597,0.00001352,0.00002707,-0.00
 004672,-0.00000090,-0.00004742,-0.00001266,-0.00397600,0.00009135,0.00
 390257,0.00017457,-0.00064298,0.00033902,-0.00492981,-0.00736469,-0.01
 217686,-0.00020553,0.00012464,-0.00048684,0.00052746,0.00041285,0.0003
 8173,-0.00040079,-0.00278413,0.00125804,-0.00012658,-0.00011042,-0.000
 70860,0.00000028,0.00012815,-0.00004874,0.07567143,-0.02303047,-0.0830
 5114,-0.08197204,0.00026505,-0.00128521,-0.00317839,0.00024839,0.00018
 651,0.00013069,-0.00063481,-0.00074507,0.00008550,-0.00014235,0.000951
 50,0.00079171,0.00671382,0.00693625,0.02112088,0.00032249,0.00050681,-
 0.00025689,0.00000619,0.00001805,-0.00008726,-0.00053871,-0.00086821,0
 .00075437,0.00005147,0.00002809,-0.00046174,0.00320511,-0.00266607,0.0
 0250054,0.00004200,0.00031131,-0.00029671,0.00005063,0.00009943,0.0000
 0033,0.00005416,0.00000820,-0.00015856,0.00071866,0.00024474,-0.000584
 71,-0.00054121,0.00052543,-0.00061702,-0.01023934,-0.01561284,-0.02612
 063,-0.00015288,0.00114867,-0.00006025,0.00083265,0.00053977,-0.000470
 97,-0.00224920,-0.00514449,0.00268562,-0.00033938,-0.00019821,-0.00152
 140,0.00009173,0.00019466,-0.00011677,0.02526598,0.09787181,-0.0539978
 5,-0.08383340,-0.24482525,-0.00337822,-0.00783283,-0.01561689,0.000283
 06,-0.00058781,0.00035816,-0.00009939,-0.00010670,-0.00108333,-0.00043
 993,-0.00044327,0.00032277,-0.00557693,-0.00409326,-0.01555352,0.00045
 374,0.00018491,0.00164744,0.00010281,0.00022900,-0.00009356,0.00078920
 ,0.00042970,0.00070169,-0.00001455,0.00083868,-0.00001126,-0.00252257,
 0.00224919,-0.00005664,0.00009971,-0.00003465,0.00032760,0.00013121,0.
 00009126,0.00048495,-0.00015123,0.00003254,0.00022817,0.00302443,0.000
 44837,-0.00110503,-0.00039620,0.00020088,0.00061832,0.00246349,0.00379
 099,0.00412575,-0.00053043,-0.00024048,0.00086129,0.00010629,-0.000708
 04,0.00042186,0.00048785,0.00144002,0.00049976,0.00019089,0.00012702,0
 .00077926,0.00002153,-0.00001581,0.00005814,0.05895308,0.08783369,0.26
 691032\\0.00002230,0.00003579,-0.00002528,-0.00001423,-0.00000394,0.00
 001158,-0.00000223,0.00000387,-0.00000158,-0.00000593,-0.00000320,0.00
 000221,0.00000441,-0.00000294,0.00000274,0.00000477,-0.00000772,0.0000
 0614,-0.00000005,0.00000060,-0.00000270,-0.00000018,0.00000100,0.00000
 056,-0.00000018,-0.00000090,-0.00000030,0.00000011,0.00000135,-0.00000
 234,0.00000124,0.00000225,0.00000246,0.00000074,-0.00000052,-0.0000012
 1,-0.00000157,-0.00000037,-0.00000038,-0.00000162,-0.00000049,0.000000
 65,0.00000087,0.00000315,-0.00000191,0.00000197,-0.00000110,0.00000185
 ,-0.00002729,-0.00003954,-0.00000444,0.00000387,0.00000466,0.00000098,
 0.00000154,0.00000450,-0.00000222,0.00001143,0.00000562,-0.00000403,0.
 00000813,0.00000518,0.00002002,-0.00000407,-0.00000109,-0.00000395,-0.
 00000403,-0.00000616,0.00000113\\\@


 Any fool can criticize, condemn, and complain -- and most do.
 -- Dale Carnegie
 Job cpu time:       0 days  0 hours 57 minutes 47.4 seconds.
 Elapsed time:       0 days  0 hours  1 minutes 55.6 seconds.
 File lengths (MBytes):  RWF=     99 Int=      0 D2E=      0 Chk=      5 Scr=      1
 Normal termination of Gaussian 16 at Thu Sep 14 12:00:23 2023.
