 Entering Gaussian System, Link 0=/home/ubuntu/g16/g16
 Input=/home/ubuntu/ML substrates/MOLECULE_23.gjf
 Output=/home/ubuntu/ML substrates/MOLECULE_23.log
 Initial command:
 /home/ubuntu/g16/l1.exe "/home/ubuntu/Scratch/Gau-13464.inp" -scrdir="/home/ubuntu/Scratch/"
 Entering Link 1 = /home/ubuntu/g16/l1.exe PID=     13466.
  
 Copyright (c) 1988-2017, Gaussian, Inc.  All Rights Reserved.
  
 This is part of the Gaussian(R) 16 program.  It is based on
 the Gaussian(R) 09 system (copyright 2009, Gaussian, Inc.),
 the Gaussian(R) 03 system (copyright 2003, Gaussian, Inc.),
 the Gaussian(R) 98 system (copyright 1998, Gaussian, Inc.),
 the Gaussian(R) 94 system (copyright 1995, Gaussian, Inc.),
 the Gaussian 92(TM) system (copyright 1992, Gaussian, Inc.),
 the Gaussian 90(TM) system (copyright 1990, Gaussian, Inc.),
 the Gaussian 88(TM) system (copyright 1988, Gaussian, Inc.),
 the Gaussian 86(TM) system (copyright 1986, Carnegie Mellon
 University), and the Gaussian 82(TM) system (copyright 1983,
 Carnegie Mellon University). Gaussian is a federally registered
 trademark of Gaussian, Inc.
  
 This software contains proprietary and confidential information,
 including trade secrets, belonging to Gaussian, Inc.
  
 This software is provided under written license and may be
 used, copied, transmitted, or stored only in accord with that
 written license.
  
 The following legend is applicable only to US Government
 contracts under FAR:
  
                    RESTRICTED RIGHTS LEGEND
  
 Use, reproduction and disclosure by the US Government is
 subject to restrictions as set forth in subparagraphs (a)
 and (c) of the Commercial Computer Software - Restricted
 Rights clause in FAR 52.227-19.
  
 Gaussian, Inc.
 340 Quinnipiac St., Bldg. 40, Wallingford CT 06492
  
  
 ---------------------------------------------------------------
 Warning -- This program may not be used in any manner that
 competes with the business of Gaussian, Inc. or will provide
 assistance to any competitor of Gaussian, Inc.  The licensee
 of this program is prohibited from giving any competitor of
 Gaussian, Inc. access to this program.  By using this program,
 the user acknowledges that Gaussian, Inc. is engaged in the
 business of creating and licensing software in the field of
 computational chemistry and represents and warrants to the
 licensee that it is not a competitor of Gaussian, Inc. and that
 it will not use this program in any manner prohibited above.
 ---------------------------------------------------------------
  

 Cite this work as:
 Gaussian 16, Revision B.01,
 M. J. Frisch, G. W. Trucks, H. B. Schlegel, G. E. Scuseria, 
 M. A. Robb, J. R. Cheeseman, G. Scalmani, V. Barone, 
 G. A. Petersson, H. Nakatsuji, X. Li, M. Caricato, A. V. Marenich, 
 J. Bloino, B. G. Janesko, R. Gomperts, B. Mennucci, H. P. Hratchian, 
 J. V. Ortiz, A. F. Izmaylov, J. L. Sonnenberg, D. Williams-Young, 
 F. Ding, F. Lipparini, F. Egidi, J. Goings, B. Peng, A. Petrone, 
 T. Henderson, D. Ranasinghe, V. G. Zakrzewski, J. Gao, N. Rega, 
 G. Zheng, W. Liang, M. Hada, M. Ehara, K. Toyota, R. Fukuda, 
 J. Hasegawa, M. Ishida, T. Nakajima, Y. Honda, O. Kitao, H. Nakai, 
 T. Vreven, K. Throssell, J. A. Montgomery, Jr., J. E. Peralta, 
 F. Ogliaro, M. J. Bearpark, J. J. Heyd, E. N. Brothers, K. N. Kudin, 
 V. N. Staroverov, T. A. Keith, R. Kobayashi, J. Normand, 
 K. Raghavachari, A. P. Rendell, J. C. Burant, S. S. Iyengar, 
 J. Tomasi, M. Cossi, J. M. Millam, M. Klene, C. Adamo, R. Cammi, 
 J. W. Ochterski, R. L. Martin, K. Morokuma, O. Farkas, 
 J. B. Foresman, and D. J. Fox, Gaussian, Inc., Wallingford CT, 2016.
 
 ******************************************
 Gaussian 16:  EM64L-G16RevB.01 20-Dec-2017
                15-Sep-2023 
 ******************************************
 %nprocshared=30
 Will use up to   30 processors via shared memory.
 %mem=30GB
 %chk=MOLECULE_23.chk
 ----------------------------------------------------------------
 # opt freq b3lyp/6-31+g(d) nosymm empiricaldispersion=gd3 volume
 ----------------------------------------------------------------
 1/18=20,19=15,26=3,38=1/1,3;
 2/9=110,12=2,15=1,17=6,18=5,40=1/2;
 3/5=1,6=6,7=11,11=2,25=1,30=1,71=1,74=-5,124=31/1,2,3;
 4//1;
 5/5=2,38=5/2;
 6/7=2,8=2,9=2,10=2,28=1,44=1/1,4;
 7/30=1/1,2,3,16;
 1/18=20,19=15,26=3/3(2);
 2/9=110,15=1/2;
 99//99;
 2/9=110,15=1/2;
 3/5=1,6=6,7=11,11=2,25=1,30=1,71=1,74=-5,124=31/1,2,3;
 4/5=5,16=3,69=1/1;
 5/5=2,38=5/2;
 7/30=1/1,2,3,16;
 1/18=20,19=15,26=3/3(-5);
 2/9=110,15=1/2;
 6/7=2,8=2,9=2,10=2,19=2,28=1,44=1/1,4;
 99/9=1/99;
 -----------
 molecule_11
 -----------
 Symbolic Z-matrix:
 Charge =  0 Multiplicity = 1
 C                    -0.20116  -0.63848  -0.32002 
 C                     1.18839  -0.65986  -0.33829 
 C                     1.90208   0.50562   0.00976 
 C                     1.18112   1.66218   0.36711 
 C                    -0.21684   1.6602    0.37815 
 C                    -0.92363   0.50072   0.03193 
 H                     1.72533  -1.55836  -0.61583 
 H                    -0.76425   2.55558   0.65446 
 B                     3.45402   0.50235  -0.00414 
 O                     4.1021   -0.67021  -0.36619 
 H                     5.07137  -0.72553  -0.38967 
 O                     4.114     1.67233   0.34642 
 H                     5.08416   1.71914   0.35137 
 H                    -2.00677   0.48188   0.03516 
 H                     1.7296    2.55851   0.63475 
 Cl                   -1.12096  -2.15883  -0.77372 
 

 GradGradGradGradGradGradGradGradGradGradGradGradGradGradGradGradGradGrad
 Berny optimization.
 Initialization pass.
                           ----------------------------
                           !    Initial Parameters    !
                           ! (Angstroms and Degrees)  !
 --------------------------                            --------------------------
 ! Name  Definition              Value          Derivative Info.                !
 --------------------------------------------------------------------------------
 ! R1    R(1,2)                  1.3898         estimate D2E/DX2                !
 ! R2    R(1,6)                  1.3941         estimate D2E/DX2                !
 ! R3    R(1,16)                 1.8339         estimate D2E/DX2                !
 ! R4    R(2,3)                  1.4103         estimate D2E/DX2                !
 ! R5    R(2,7)                  1.0829         estimate D2E/DX2                !
 ! R6    R(3,4)                  1.4089         estimate D2E/DX2                !
 ! R7    R(3,9)                  1.552          estimate D2E/DX2                !
 ! R8    R(4,5)                  1.398          estimate D2E/DX2                !
 ! R9    R(4,15)                 1.0844         estimate D2E/DX2                !
 ! R10   R(5,6)                  1.4014         estimate D2E/DX2                !
 ! R11   R(5,8)                  1.0852         estimate D2E/DX2                !
 ! R12   R(6,14)                 1.0833         estimate D2E/DX2                !
 ! R13   R(9,10)                 1.3878         estimate D2E/DX2                !
 ! R14   R(9,12)                 1.3883         estimate D2E/DX2                !
 ! R15   R(10,11)                0.9711         estimate D2E/DX2                !
 ! R16   R(12,13)                0.9713         estimate D2E/DX2                !
 ! A1    A(2,1,6)              122.2767         estimate D2E/DX2                !
 ! A2    A(2,1,16)             119.0411         estimate D2E/DX2                !
 ! A3    A(6,1,16)             118.6822         estimate D2E/DX2                !
 ! A4    A(1,2,3)              119.341          estimate D2E/DX2                !
 ! A5    A(1,2,7)              120.7889         estimate D2E/DX2                !
 ! A6    A(3,2,7)              119.8701         estimate D2E/DX2                !
 ! A7    A(2,3,4)              118.8183         estimate D2E/DX2                !
 ! A8    A(2,3,9)              120.1386         estimate D2E/DX2                !
 ! A9    A(4,3,9)              121.0431         estimate D2E/DX2                !
 ! A10   A(3,4,5)              120.8324         estimate D2E/DX2                !
 ! A11   A(3,4,15)             118.8361         estimate D2E/DX2                !
 ! A12   A(5,4,15)             120.3315         estimate D2E/DX2                !
 ! A13   A(4,5,6)              120.236          estimate D2E/DX2                !
 ! A14   A(4,5,8)              120.3483         estimate D2E/DX2                !
 ! A15   A(6,5,8)              119.4156         estimate D2E/DX2                !
 ! A16   A(1,6,5)              118.4957         estimate D2E/DX2                !
 ! A17   A(1,6,14)             120.3107         estimate D2E/DX2                !
 ! A18   A(5,6,14)             121.1936         estimate D2E/DX2                !
 ! A19   A(3,9,10)             118.105          estimate D2E/DX2                !
 ! A20   A(3,9,12)             118.1213         estimate D2E/DX2                !
 ! A21   A(10,9,12)            123.7737         estimate D2E/DX2                !
 ! A22   A(9,10,11)            121.368          estimate D2E/DX2                !
 ! A23   A(9,12,13)            121.1141         estimate D2E/DX2                !
 ! D1    D(6,1,2,3)              0.0132         estimate D2E/DX2                !
 ! D2    D(6,1,2,7)           -179.9858         estimate D2E/DX2                !
 ! D3    D(16,1,2,3)          -179.9858         estimate D2E/DX2                !
 ! D4    D(16,1,2,7)             0.0153         estimate D2E/DX2                !
 ! D5    D(2,1,6,5)             -0.0102         estimate D2E/DX2                !
 ! D6    D(2,1,6,14)           179.9864         estimate D2E/DX2                !
 ! D7    D(16,1,6,5)           179.9888         estimate D2E/DX2                !
 ! D8    D(16,1,6,14)           -0.0146         estimate D2E/DX2                !
 ! D9    D(1,2,3,4)             -0.0066         estimate D2E/DX2                !
 ! D10   D(1,2,3,9)            179.9902         estimate D2E/DX2                !
 ! D11   D(7,2,3,4)            179.9923         estimate D2E/DX2                !
 ! D12   D(7,2,3,9)             -0.0108         estimate D2E/DX2                !
 ! D13   D(2,3,4,5)             -0.0024         estimate D2E/DX2                !
 ! D14   D(2,3,4,15)          -179.9982         estimate D2E/DX2                !
 ! D15   D(9,3,4,5)           -179.9993         estimate D2E/DX2                !
 ! D16   D(9,3,4,15)             0.0049         estimate D2E/DX2                !
 ! D17   D(2,3,9,10)             0.0234         estimate D2E/DX2                !
 ! D18   D(2,3,9,12)          -179.9686         estimate D2E/DX2                !
 ! D19   D(4,3,9,10)          -179.9798         estimate D2E/DX2                !
 ! D20   D(4,3,9,12)             0.0282         estimate D2E/DX2                !
 ! D21   D(3,4,5,6)              0.0054         estimate D2E/DX2                !
 ! D22   D(3,4,5,8)           -179.9857         estimate D2E/DX2                !
 ! D23   D(15,4,5,6)          -179.9988         estimate D2E/DX2                !
 ! D24   D(15,4,5,8)             0.0101         estimate D2E/DX2                !
 ! D25   D(4,5,6,1)              0.0008         estimate D2E/DX2                !
 ! D26   D(4,5,6,14)          -179.9958         estimate D2E/DX2                !
 ! D27   D(8,5,6,1)            179.9919         estimate D2E/DX2                !
 ! D28   D(8,5,6,14)            -0.0047         estimate D2E/DX2                !
 ! D29   D(3,9,10,11)         -179.907          estimate D2E/DX2                !
 ! D30   D(12,9,10,11)           0.0846         estimate D2E/DX2                !
 ! D31   D(3,9,12,13)         -179.919          estimate D2E/DX2                !
 ! D32   D(10,9,12,13)           0.0894         estimate D2E/DX2                !
 --------------------------------------------------------------------------------
 Trust Radius=3.00D-01 FncErr=1.00D-07 GrdErr=1.00D-06 EigMax=2.50D+02 EigMin=1.00D-04
 Number of steps in this run=     81 maximum allowed number of steps=    100.
 GradGradGradGradGradGradGradGradGradGradGradGradGradGradGradGradGradGrad

                          Input orientation:                          
 ---------------------------------------------------------------------
 Center     Atomic      Atomic             Coordinates (Angstroms)
 Number     Number       Type             X           Y           Z
 ---------------------------------------------------------------------
      1          6           0       -0.201158   -0.638480   -0.320017
      2          6           0        1.188389   -0.659862   -0.338285
      3          6           0        1.902077    0.505621    0.009764
      4          6           0        1.181121    1.662180    0.367106
      5          6           0       -0.216837    1.660202    0.378149
      6          6           0       -0.923632    0.500716    0.031929
      7          1           0        1.725333   -1.558363   -0.615833
      8          1           0       -0.764254    2.555577    0.654459
      9          5           0        3.454016    0.502350   -0.004138
     10          8           0        4.102105   -0.670205   -0.366185
     11          1           0        5.071369   -0.725525   -0.389666
     12          8           0        4.114002    1.672329    0.346424
     13          1           0        5.084156    1.719142    0.351373
     14          1           0       -2.006774    0.481880    0.035160
     15          1           0        1.729595    2.558508    0.634750
     16         17           0       -1.120963   -2.158831   -0.773719
 ---------------------------------------------------------------------
                    Distance matrix (angstroms):
                    1          2          3          4          5
     1  C    0.000000
     2  C    1.389832   0.000000
     3  C    2.416882   1.410262   0.000000
     4  C    2.770536   2.426831   1.408936   0.000000
     5  C    2.402420   2.805465   2.441016   1.398003   0.000000
     6  C    1.394131   2.438162   2.825800   2.427206   1.401369
     7  H    2.155240   1.082888   2.163941   3.410899   3.888340
     8  H    3.386544   3.890682   3.424511   2.159911   1.085223
     9  B    3.842079   2.568162   1.552005   2.578581   3.868065
    10  O    4.303628   2.913868   2.522702   3.809184   4.963677
    11  H    5.273705   3.883875   3.423401   4.626864   5.852039
    12  O    4.940100   3.803571   2.523323   2.932971   4.330972
    13  H    5.826121   4.616523   3.422712   3.903482   5.301388
    14  H    2.154439   3.413518   3.909006   3.415548   2.170244
    15  H    3.854883   3.405526   2.152836   1.084371   2.159026
    16  Cl   1.833945   2.787403   4.105109   4.604476   4.090141
                    6          7          8          9         10
     6  C    0.000000
     7  H    3.417077   0.000000
     8  H    2.152998   4.973549   0.000000
     9  B    4.377797   2.758451   4.737435   0.000000
    10  O    5.175672   2.549548   5.926958   1.387798   0.000000
    11  H    6.133632   3.455536   6.775716   2.066915   0.971125
    12  O    5.181635   4.131471   4.967131   1.388282   2.448554
    13  H    6.138414   4.791578   5.915690   2.065025   2.681099
    14  H    1.083311   4.302907   2.495517   5.460970   6.229509
    15  H    3.411380   4.302627   2.493929   2.758549   4.129802
    16  Cl   2.785893   2.913227   4.938884   5.348324   5.446332
                   11         12         13         14         15
    11  H    0.000000
    12  O    2.684787   0.000000
    13  H    2.554545   0.971295   0.000000
    14  H    7.192942   6.243233   7.205005   0.000000
    15  H    4.796014   2.560047   3.469570   4.316520   0.000000
    16  Cl   6.367640   6.583112   7.403243   2.900397   5.688827
                   16
    16  Cl   0.000000
 Symmetry turned off by external request.
 Stoichiometry    C6H6BClO2
 Framework group  C1[X(C6H6BClO2)]
 Deg. of freedom    42
 Full point group                 C1      NOp   1
 Rotational constants (GHZ):           2.1008421           0.6536504           0.4985370
 Standard basis: 6-31+G(d) (6D, 7F)
   206 basis functions,   368 primitive gaussians,   206 cartesian basis functions
    40 alpha electrons       40 beta electrons
       nuclear repulsion energy       531.6436695199 Hartrees.
 NAtoms=   16 NActive=   16 NUniq=   16 SFac= 1.00D+00 NAtFMM=   60 NAOKFM=F Big=F
 Integral buffers will be    131072 words long.
 Raffenetti 2 integral format.
 Two-electron integral symmetry is turned off.
 Nuclear repulsion after empirical dispersion term =      531.6313547007 Hartrees.
 One-electron integrals computed using PRISM.
 NBasis=   206 RedAO= T EigKep=  3.26D-06  NBF=   206
 NBsUse=   206 1.00D-06 EigRej= -1.00D+00 NBFU=   206
 ExpMin= 3.15D-02 ExpMax= 2.52D+04 ExpMxC= 3.78D+03 IAcc=3 IRadAn=         5 AccDes= 0.00D+00
 Harris functional with IExCor=  402 and IRadAn=       5 diagonalized for initial guess.
 HarFok:  IExCor=  402 AccDes= 0.00D+00 IRadAn=         5 IDoV= 1 UseB2=F ITyADJ=14
 ICtDFT=  3500011 ScaDFX=  1.000000  1.000000  1.000000  1.000000
 FoFCou: FMM=F IPFlag=           0 FMFlag=      100000 FMFlg1=           0
         NFxFlg=           0 DoJE=T BraDBF=F KetDBF=T FulRan=T
         wScrn=  0.000000 ICntrl=       500 IOpCl=  0 I1Cent=   200000004 NGrid=           0
         NMat0=    1 NMatS0=      1 NMatT0=    0 NMatD0=    1 NMtDS0=    0 NMtDT0=    0
 Symmetry not used in FoFCou.
 Requested convergence on RMS density matrix=1.00D-08 within 128 cycles.
 Requested convergence on MAX density matrix=1.00D-06.
 Requested convergence on             energy=1.00D-06.
 No special actions if energy rises.
 SCF Done:  E(RB3LYP) =  -867.888711760     A.U. after   15 cycles
            NFock= 15  Conv=0.31D-08     -V/T= 2.0063

 **********************************************************************

            Population analysis using the SCF Density.

 **********************************************************************

 Alpha  occ. eigenvalues -- -101.54733 -19.18448 -19.18418 -10.26042 -10.21427
 Alpha  occ. eigenvalues --  -10.20907 -10.20854 -10.20422 -10.19077  -9.46152
 Alpha  occ. eigenvalues --   -7.22566  -7.21589  -7.21572  -6.81250  -1.05136
 Alpha  occ. eigenvalues --   -1.02082  -0.88314  -0.82826  -0.76260  -0.73876
 Alpha  occ. eigenvalues --   -0.63275  -0.61264  -0.57853  -0.56449  -0.52168
 Alpha  occ. eigenvalues --   -0.46505  -0.46028  -0.44420  -0.42873  -0.40926
 Alpha  occ. eigenvalues --   -0.40894  -0.38699  -0.36325  -0.35057  -0.34851
 Alpha  occ. eigenvalues --   -0.34164  -0.32790  -0.31026  -0.26797  -0.25295
 Alpha virt. eigenvalues --   -0.04793  -0.03353  -0.02108  -0.00187   0.01018
 Alpha virt. eigenvalues --    0.01241   0.03052   0.03275   0.03762   0.05689
 Alpha virt. eigenvalues --    0.06198   0.07422   0.07662   0.07806   0.09425
 Alpha virt. eigenvalues --    0.09908   0.11385   0.11740   0.12062   0.12389
 Alpha virt. eigenvalues --    0.13002   0.13679   0.13846   0.14485   0.15850
 Alpha virt. eigenvalues --    0.15962   0.16025   0.17343   0.17944   0.18850
 Alpha virt. eigenvalues --    0.19654   0.19767   0.19876   0.20951   0.22014
 Alpha virt. eigenvalues --    0.22368   0.22688   0.22935   0.23124   0.23521
 Alpha virt. eigenvalues --    0.24793   0.25199   0.26411   0.27642   0.28324
 Alpha virt. eigenvalues --    0.28558   0.29033   0.30888   0.32343   0.32601
 Alpha virt. eigenvalues --    0.34321   0.34579   0.35935   0.41347   0.42740
 Alpha virt. eigenvalues --    0.44466   0.45768   0.47779   0.53853   0.55485
 Alpha virt. eigenvalues --    0.60078   0.61936   0.62966   0.63418   0.64783
 Alpha virt. eigenvalues --    0.67318   0.67638   0.69723   0.69909   0.72033
 Alpha virt. eigenvalues --    0.72617   0.72992   0.73112   0.75822   0.77681
 Alpha virt. eigenvalues --    0.80433   0.81232   0.83524   0.87966   0.89605
 Alpha virt. eigenvalues --    0.90202   0.91698   0.92329   0.94045   0.95825
 Alpha virt. eigenvalues --    0.96904   0.97380   1.01062   1.04067   1.04464
 Alpha virt. eigenvalues --    1.07907   1.08286   1.10269   1.10999   1.11717
 Alpha virt. eigenvalues --    1.13197   1.17889   1.21281   1.21524   1.21759
 Alpha virt. eigenvalues --    1.25241   1.25785   1.27177   1.27366   1.29304
 Alpha virt. eigenvalues --    1.33246   1.34819   1.41490   1.43615   1.45465
 Alpha virt. eigenvalues --    1.46468   1.47137   1.48151   1.49965   1.53795
 Alpha virt. eigenvalues --    1.55829   1.65902   1.66854   1.69910   1.72448
 Alpha virt. eigenvalues --    1.73665   1.77436   1.79798   1.83677   1.86114
 Alpha virt. eigenvalues --    1.86586   1.94787   1.98001   2.06353   2.06717
 Alpha virt. eigenvalues --    2.09509   2.13181   2.14499   2.15261   2.18238
 Alpha virt. eigenvalues --    2.21593   2.23721   2.23787   2.29439   2.37128
 Alpha virt. eigenvalues --    2.37525   2.38164   2.51937   2.57940   2.61814
 Alpha virt. eigenvalues --    2.63643   2.65087   2.71813   2.74080   2.78943
 Alpha virt. eigenvalues --    2.79409   2.90146   2.91809   2.96338   3.13023
 Alpha virt. eigenvalues --    3.35894   3.69512   4.16283   4.23370   4.25050
 Alpha virt. eigenvalues --    4.31996   4.35093   4.37481   4.39746   4.45502
 Alpha virt. eigenvalues --    4.69938
          Condensed to atoms (all electrons):
               1          2          3          4          5          6
     1  C    8.798555  -6.008519   0.739228   1.849112  -0.347151   0.833702
     2  C   -6.008519  23.843552  -3.188131  -7.516246   1.743935  -3.364816
     3  C    0.739228  -3.188131   9.329499  -1.383296   0.075278   0.953548
     4  C    1.849112  -7.516246  -1.383296  15.380038  -2.669332   0.073312
     5  C   -0.347151   1.743935   0.075278  -2.669332   6.955624   0.107852
     6  C    0.833702  -3.364816   0.953548   0.073312   0.107852   7.798142
     7  H    0.025581   0.183220  -0.000886   0.033060  -0.017761   0.057631
     8  H    0.002226  -0.012977   0.018124   0.042011   0.271672  -0.027001
     9  B   -0.121311   0.073366   0.509175   0.063693  -0.064262  -0.039778
    10  O   -0.073070   0.510069  -0.105852  -0.443456   0.073569  -0.013609
    11  H   -0.005134   0.038299  -0.019923  -0.016007   0.002331  -0.000176
    12  O    0.126158  -0.521945  -0.055365   0.428755  -0.034165   0.021238
    13  H    0.003379  -0.012383  -0.012296   0.019783  -0.000371   0.001643
    14  H    0.051246   0.088997  -0.005558  -0.002999  -0.026709   0.190140
    15  H   -0.007588   0.040073   0.009811   0.223217  -0.008112   0.021544
    16  Cl  -0.174981   0.325670  -0.120563  -0.009215   0.047191  -0.218635
               7          8          9         10         11         12
     1  C    0.025581   0.002226  -0.121311  -0.073070  -0.005134   0.126158
     2  C    0.183220  -0.012977   0.073366   0.510069   0.038299  -0.521945
     3  C   -0.000886   0.018124   0.509175  -0.105852  -0.019923  -0.055365
     4  C    0.033060   0.042011   0.063693  -0.443456  -0.016007   0.428755
     5  C   -0.017761   0.271672  -0.064262   0.073569   0.002331  -0.034165
     6  C    0.057631  -0.027001  -0.039778  -0.013609  -0.000176   0.021238
     7  H    0.496752   0.000015  -0.010188   0.007857  -0.000212   0.001596
     8  H    0.000015   0.527129   0.000404   0.000022   0.000000   0.000154
     9  B   -0.010188   0.000404   3.278946   0.213176   0.001758   0.203876
    10  O    0.007857   0.000022   0.213176   8.734170   0.165232  -0.254401
    11  H   -0.000212   0.000000   0.001758   0.165232   0.330168  -0.007136
    12  O    0.001596   0.000154   0.203876  -0.254401  -0.007136   8.740116
    13  H   -0.000010   0.000000   0.001105  -0.006995   0.002707   0.164978
    14  H   -0.000146  -0.004903  -0.000284   0.000005   0.000000  -0.000003
    15  H   -0.000102  -0.003858  -0.009107   0.001227  -0.000010   0.007202
    16  Cl   0.001563   0.000219   0.002319   0.002530  -0.000027  -0.002499
              13         14         15         16
     1  C    0.003379   0.051246  -0.007588  -0.174981
     2  C   -0.012383   0.088997   0.040073   0.325670
     3  C   -0.012296  -0.005558   0.009811  -0.120563
     4  C    0.019783  -0.002999   0.223217  -0.009215
     5  C   -0.000371  -0.026709  -0.008112   0.047191
     6  C    0.001643   0.190140   0.021544  -0.218635
     7  H   -0.000010  -0.000146  -0.000102   0.001563
     8  H    0.000000  -0.004903  -0.003858   0.000219
     9  B    0.001105  -0.000284  -0.009107   0.002319
    10  O   -0.006995   0.000005   0.001227   0.002530
    11  H    0.002707   0.000000  -0.000010  -0.000027
    12  O    0.164978  -0.000003   0.007202  -0.002499
    13  H    0.332334   0.000000  -0.000207  -0.000025
    14  H    0.000000   0.507633  -0.000128   0.000043
    15  H   -0.000207  -0.000128   0.521280   0.000220
    16  Cl  -0.000025   0.000043   0.000220  17.011611
 Mulliken charges:
               1
     1  C    0.308568
     2  C   -0.222166
     3  C   -0.742793
     4  C   -0.072434
     5  C   -0.109587
     6  C   -0.394736
     7  H    0.222031
     8  H    0.186764
     9  B    0.897113
    10  O   -0.810472
    11  H    0.508130
    12  O   -0.818559
    13  H    0.506359
    14  H    0.202665
    15  H    0.204538
    16  Cl   0.134579
 Sum of Mulliken charges =   0.00000
 Mulliken charges with hydrogens summed into heavy atoms:
               1
     1  C    0.308568
     2  C   -0.000135
     3  C   -0.742793
     4  C    0.132104
     5  C    0.077177
     6  C   -0.192070
     9  B    0.897113
    10  O   -0.302342
    12  O   -0.312201
    16  Cl   0.134579
 Electronic spatial extent (au):  <R**2>=           2415.6224
 Charge=              0.0000 electrons
 Dipole moment (field-independent basis, Debye):
    X=              3.6449    Y=              1.8583    Z=              0.5337  Tot=              4.1259
 Quadrupole moment (field-independent basis, Debye-Ang):
   XX=            -34.9717   YY=            -67.2327   ZZ=            -68.3605
   XY=             -1.0777   XZ=             -1.0696   YZ=              0.0962
 Traceless Quadrupole moment (field-independent basis, Debye-Ang):
   XX=             21.8832   YY=            -10.3777   ZZ=            -11.5055
   XY=             -1.0777   XZ=             -1.0696   YZ=              0.0962
 Octapole moment (field-independent basis, Debye-Ang**2):
  XXX=            -13.8091  YYY=              7.9463  ZZZ=             27.1195  XYY=            -72.6588
  XXY=             15.9774  XXZ=              8.2385  XZZ=            -72.1595  YZZ=             -0.2762
  YYZ=             12.4006  XYZ=             -0.1715
 Hexadecapole moment (field-independent basis, Debye-Ang**3):
 XXXX=           -827.8464 YYYY=           -836.6846 ZZZZ=           -160.2942 XXXY=           -125.2685
 XXXZ=            -38.6891 YYYX=           -225.4184 YYYZ=           -103.4554 ZZZX=            -31.9298
 ZZZY=           -121.6902 XXYY=           -475.4969 XXZZ=           -386.3703 YYZZ=           -172.3746
 XXYZ=            -32.8145 YYXZ=            -11.0797 ZZXY=            -75.1498
 N-N= 5.316313547007D+02 E-N=-3.106943232207D+03  KE= 8.624242447481D+02
 Evaluate density.
 Using the total density.
 Monte-Carlo method of calculating molar volume:
 based on  0.001 e/bohr**3 density envelope.
 Number of points per bohr**3 =   20 CutOff= 1.00D-04
 Using the SCF density.
 There are       413 points.  Will hold       413 in memory.
 LenV=  4026402468 MDV=  4026531840.
 Box volume = 8829.808 fraction occupied=0.121
 Integrated density= 5.2439861312650635D+01 error=-2.7560138687349365D+01
 Molar volume = 1068.984 bohr**3/mol ( 95.395 cm**3/mol)
 Recommended a0 for SCRF calculation =  4.19 angstrom (  7.93 bohr)
 Calling FoFJK, ICntrl=      2127 FMM=F ISym2X=0 I1Cent= 0 IOpClX= 0 NMat=1 NMatS=1 NMatT=0.
 -------------------------------------------------------------------
 Center     Atomic                   Forces (Hartrees/Bohr)
 Number     Number              X              Y              Z
 -------------------------------------------------------------------
      1        6          -0.010562045   -0.017070646   -0.005095089
      2        6          -0.000021589    0.002615820    0.000800532
      3        6          -0.006791574   -0.000003800    0.000050148
      4        6          -0.001032846   -0.003297702   -0.000997200
      5        6           0.001648801   -0.002876795   -0.000899784
      6        6           0.002072407    0.000484604    0.000131955
      7        1          -0.000081136   -0.001342830   -0.000397403
      8        1          -0.000652941    0.000893410    0.000283279
      9        5           0.023648877   -0.000102924   -0.000214549
     10        8          -0.004109695    0.002287170    0.000739166
     11        1          -0.005227488    0.005589569    0.001721402
     12        8          -0.004056213   -0.002273297   -0.000676521
     13        1          -0.005385429   -0.005526089   -0.001616119
     14        1          -0.001213214   -0.000045967    0.000001215
     15        1          -0.000006267    0.001246215    0.000378007
     16       17           0.011770352    0.019423262    0.005790961
 -------------------------------------------------------------------
 Cartesian Forces:  Max     0.023648877 RMS     0.006115829

 GradGradGradGradGradGradGradGradGradGradGradGradGradGradGradGradGradGrad
 Berny optimization.
 FormGI is forming the generalized inverse of G from B-inverse, IUseBI=4.
 Internal  Forces:  Max     0.023438005 RMS     0.004018080
 Search for a local minimum.
 Step number   1 out of a maximum of   81
 All quantities printed in internal units (Hartrees-Bohrs-Radians)
 Mixed Optimization -- RFO/linear search
 Second derivative matrix not updated -- first step.
 ITU=  0
     Eigenvalues ---    0.00607   0.01546   0.01547   0.01984   0.02040
     Eigenvalues ---    0.02085   0.02091   0.02093   0.02123   0.02162
     Eigenvalues ---    0.02196   0.02376   0.02382   0.16000   0.16000
     Eigenvalues ---    0.16000   0.16000   0.16000   0.16000   0.22000
     Eigenvalues ---    0.23474   0.23506   0.23615   0.25000   0.25000
     Eigenvalues ---    0.25000   0.25000   0.27481   0.35371   0.35471
     Eigenvalues ---    0.35597   0.35648   0.41018   0.41671   0.44569
     Eigenvalues ---    0.45122   0.46175   0.46942   0.47619   0.47704
     Eigenvalues ---    0.53113   0.53148
 RFO step:  Lambda=-4.38902457D-03 EMin= 6.07325458D-03
 Linear search not attempted -- first point.
 Iteration  1 RMS(Cart)=  0.02515735 RMS(Int)=  0.00055096
 Iteration  2 RMS(Cart)=  0.00051436 RMS(Int)=  0.00000017
 Iteration  3 RMS(Cart)=  0.00000015 RMS(Int)=  0.00000014
 Variable       Old X    -DE/DX   Delta X   Delta X   Delta X     New X
                                 (Linear)    (Quad)   (Total)
    R1        2.62640  -0.00134   0.00000  -0.00274  -0.00274   2.62367
    R2        2.63453  -0.00183   0.00000  -0.00386  -0.00386   2.63067
    R3        3.46565  -0.02344   0.00000  -0.09744  -0.09744   3.36822
    R4        2.66501  -0.00212   0.00000  -0.00474  -0.00474   2.66027
    R5        2.04636   0.00118   0.00000   0.00326   0.00326   2.04962
    R6        2.66250  -0.00181   0.00000  -0.00410  -0.00410   2.65841
    R7        2.93286   0.00487   0.00000   0.01744   0.01744   2.95031
    R8        2.64184  -0.00172   0.00000  -0.00377  -0.00377   2.63807
    R9        2.04916   0.00112   0.00000   0.00312   0.00312   2.05228
   R10        2.64820  -0.00254   0.00000  -0.00557  -0.00557   2.64263
   R11        2.05077   0.00114   0.00000   0.00318   0.00318   2.05395
   R12        2.04716   0.00121   0.00000   0.00337   0.00337   2.05053
   R13        2.62256  -0.01166   0.00000  -0.02421  -0.02421   2.59834
   R14        2.62347  -0.01164   0.00000  -0.02422  -0.02422   2.59925
   R15        1.83516  -0.00558   0.00000  -0.01041  -0.01041   1.82475
   R16        1.83548  -0.00565   0.00000  -0.01056  -0.01056   1.82492
    A1        2.13413   0.00089   0.00000   0.00372   0.00372   2.13785
    A2        2.07766  -0.00047   0.00000  -0.00198  -0.00198   2.07568
    A3        2.07140  -0.00041   0.00000  -0.00174  -0.00174   2.06965
    A4        2.08289  -0.00035   0.00000  -0.00129  -0.00129   2.08160
    A5        2.10816  -0.00061   0.00000  -0.00411  -0.00411   2.10405
    A6        2.09213   0.00096   0.00000   0.00541   0.00541   2.09754
    A7        2.07377  -0.00049   0.00000  -0.00189  -0.00189   2.07188
    A8        2.09681   0.00029   0.00000   0.00113   0.00113   2.09795
    A9        2.11260   0.00019   0.00000   0.00075   0.00075   2.11335
   A10        2.10892   0.00051   0.00000   0.00210   0.00210   2.11102
   A11        2.07408   0.00042   0.00000   0.00309   0.00309   2.07717
   A12        2.10018  -0.00094   0.00000  -0.00519  -0.00519   2.09499
   A13        2.09851   0.00025   0.00000   0.00094   0.00094   2.09945
   A14        2.10047  -0.00003   0.00000   0.00010   0.00010   2.10057
   A15        2.08420  -0.00022   0.00000  -0.00104  -0.00104   2.08316
   A16        2.06814  -0.00082   0.00000  -0.00358  -0.00358   2.06456
   A17        2.09982   0.00038   0.00000   0.00164   0.00164   2.10146
   A18        2.11523   0.00043   0.00000   0.00194   0.00194   2.11717
   A19        2.06132  -0.00043   0.00000  -0.00168  -0.00168   2.05964
   A20        2.06161  -0.00057   0.00000  -0.00224  -0.00224   2.05936
   A21        2.16026   0.00100   0.00000   0.00392   0.00392   2.16418
   A22        2.11827  -0.01012   0.00000  -0.06158  -0.06158   2.05670
   A23        2.11384  -0.01008   0.00000  -0.06135  -0.06135   2.05249
    D1        0.00023   0.00000   0.00000  -0.00018  -0.00018   0.00005
    D2       -3.14134   0.00000   0.00000  -0.00019  -0.00019  -3.14154
    D3       -3.14134   0.00000   0.00000  -0.00018  -0.00018  -3.14152
    D4        0.00027   0.00000   0.00000  -0.00019  -0.00019   0.00008
    D5       -0.00018   0.00000   0.00000   0.00014   0.00014  -0.00004
    D6        3.14136   0.00000   0.00000   0.00018   0.00018   3.14153
    D7        3.14140   0.00000   0.00000   0.00013   0.00013   3.14153
    D8       -0.00025   0.00000   0.00000   0.00017   0.00017  -0.00008
    D9       -0.00012   0.00000   0.00000   0.00011   0.00011  -0.00001
   D10        3.14142   0.00000   0.00000   0.00010   0.00010   3.14153
   D11        3.14146   0.00000   0.00000   0.00011   0.00011   3.14157
   D12       -0.00019   0.00000   0.00000   0.00011   0.00011  -0.00008
   D13       -0.00004   0.00000   0.00000   0.00001   0.00001  -0.00003
   D14       -3.14156   0.00000   0.00000  -0.00006  -0.00006   3.14156
   D15       -3.14158   0.00000   0.00000   0.00001   0.00001  -3.14157
   D16        0.00009   0.00000   0.00000  -0.00006  -0.00006   0.00003
   D17        0.00041   0.00001   0.00000   0.00048   0.00048   0.00089
   D18       -3.14105   0.00000   0.00000   0.00021   0.00021  -3.14084
   D19       -3.14124   0.00001   0.00000   0.00047   0.00047  -3.14077
   D20        0.00049   0.00000   0.00000   0.00021   0.00021   0.00070
   D21        0.00009   0.00000   0.00000  -0.00006  -0.00006   0.00004
   D22       -3.14134   0.00000   0.00000  -0.00019  -0.00019  -3.14153
   D23       -3.14157   0.00000   0.00000   0.00002   0.00002  -3.14156
   D24        0.00018   0.00000   0.00000  -0.00011  -0.00011   0.00006
   D25        0.00001   0.00000   0.00000  -0.00001  -0.00001   0.00000
   D26       -3.14152   0.00000   0.00000  -0.00005  -0.00005  -3.14157
   D27        3.14145   0.00000   0.00000   0.00012   0.00012   3.14157
   D28       -0.00008   0.00000   0.00000   0.00008   0.00008  -0.00001
   D29       -3.13997  -0.00002   0.00000  -0.00066  -0.00066  -3.14063
   D30        0.00148  -0.00001   0.00000  -0.00037  -0.00037   0.00110
   D31       -3.14018  -0.00001   0.00000  -0.00035  -0.00035  -3.14053
   D32        0.00156  -0.00002   0.00000  -0.00063  -0.00063   0.00093
         Item               Value     Threshold  Converged?
 Maximum Force            0.023438     0.000450     NO 
 RMS     Force            0.004018     0.000300     NO 
 Maximum Displacement     0.123361     0.001800     NO 
 RMS     Displacement     0.025118     0.001200     NO 
 Predicted change in Energy=-2.236332D-03
 GradGradGradGradGradGradGradGradGradGradGradGradGradGradGradGradGradGrad

                          Input orientation:                          
 ---------------------------------------------------------------------
 Center     Atomic      Atomic             Coordinates (Angstroms)
 Number     Number       Type             X           Y           Z
 ---------------------------------------------------------------------
      1          6           0       -0.200495   -0.638031   -0.319836
      2          6           0        1.187567   -0.661418   -0.338522
      3          6           0        1.900219    0.501900    0.008726
      4          6           0        1.178328    1.655563    0.365003
      5          6           0       -0.217635    1.654142    0.376172
      6          6           0       -0.924569    0.497974    0.031054
      7          1           0        1.720082   -1.564304   -0.617103
      8          1           0       -0.765609    2.551058    0.652991
      9          5           0        3.461395    0.499999   -0.004787
     10          8           0        4.102597   -0.662073   -0.363997
     11          1           0        5.068190   -0.660769   -0.370738
     12          8           0        4.111435    1.661120    0.343273
     13          1           0        5.077052    1.653862    0.332110
     14          1           0       -2.009482    0.478480    0.034134
     15          1           0        1.723153    2.555763    0.633797
     16         17           0       -1.093682   -2.116028   -0.761006
 ---------------------------------------------------------------------
                    Distance matrix (angstroms):
                    1          2          3          4          5
     1  C    0.000000
     2  C    1.388384   0.000000
     3  C    2.412550   1.407752   0.000000
     4  C    2.762378   2.421453   1.406768   0.000000
     5  C    2.395574   2.801284   2.438848   1.396009   0.000000
     6  C    1.392090   2.437600   2.824879   2.423574   1.398422
     7  H    2.152897   1.084612   2.166405   3.409630   3.885838
     8  H    3.381721   3.888187   3.423560   2.159570   1.086906
     9  B    3.847572   2.574988   1.561235   2.585434   3.874589
    10  O    4.303386   2.915142   2.518774   3.801871   4.957530
    11  H    5.268980   3.880757   3.395855   4.586691   5.818645
    12  O    4.931384   3.795792   2.518966   2.933192   4.329200
    13  H    5.790536   4.575846   3.394681   3.898863   5.294870
    14  H    2.155070   3.414581   3.909854   3.414255   2.170227
    15  H    3.848397   3.403309   2.154163   1.086022   2.155446
    16  Cl   1.782383   2.738335   4.050862   4.544758   4.034205
                    6          7          8          9         10
     6  C    0.000000
     7  H    3.415739   0.000000
     8  H    2.151099   4.972726   0.000000
     9  B    4.386111   2.769196   4.744163   0.000000
    10  O    5.174376   2.560168   5.920972   1.374984   0.000000
    11  H    6.116966   3.476622   6.737735   2.015711   0.965617
    12  O    5.178004   4.128469   4.967240   1.375464   2.428484
    13  H    6.119327   4.746245   5.919849   2.013764   2.607236
    14  H    1.085093   4.301944   2.495152   5.471058   6.230319
    15  H    3.407084   4.305777   2.488840   2.766847   4.124538
    16  Cl   2.736597   2.870954   4.887608   5.306995   5.410445
                   11         12         13         14         15
    11  H    0.000000
    12  O    2.610817   0.000000
    13  H    2.419006   0.965709   0.000000
    14  H    7.180199   6.241781   7.189526   0.000000
    15  H    4.748099   2.566843   3.486127   4.313614   0.000000
    16  Cl   6.343403   6.525299   7.313339   2.863984   5.630778
                   16
    16  Cl   0.000000
 Symmetry turned off by external request.
 Stoichiometry    C6H6BClO2
 Framework group  C1[X(C6H6BClO2)]
 Deg. of freedom    42
 Full point group                 C1      NOp   1
 Rotational constants (GHZ):           2.1287838           0.6618801           0.5048976
 Standard basis: 6-31+G(d) (6D, 7F)
   206 basis functions,   368 primitive gaussians,   206 cartesian basis functions
    40 alpha electrons       40 beta electrons
       nuclear repulsion energy       534.9246563871 Hartrees.
 NAtoms=   16 NActive=   16 NUniq=   16 SFac= 1.00D+00 NAtFMM=   60 NAOKFM=F Big=F
 Integral buffers will be    131072 words long.
 Raffenetti 2 integral format.
 Two-electron integral symmetry is turned off.
 Nuclear repulsion after empirical dispersion term =      534.9123128622 Hartrees.
 One-electron integrals computed using PRISM.
 NBasis=   206 RedAO= T EigKep=  3.15D-06  NBF=   206
 NBsUse=   206 1.00D-06 EigRej= -1.00D+00 NBFU=   206
 Initial guess from the checkpoint file:  "MOLECULE_23.chk"
 B after Tr=     0.010071    0.015576    0.004622
         Rot=    1.000000   -0.000002   -0.000172    0.000578 Ang=  -0.07 deg.
 ExpMin= 3.15D-02 ExpMax= 2.52D+04 ExpMxC= 3.78D+03 IAcc=3 IRadAn=         5 AccDes= 0.00D+00
 Harris functional with IExCor=  402 and IRadAn=       5 diagonalized for initial guess.
 HarFok:  IExCor=  402 AccDes= 0.00D+00 IRadAn=         5 IDoV= 1 UseB2=F ITyADJ=14
 ICtDFT=  3500011 ScaDFX=  1.000000  1.000000  1.000000  1.000000
 FoFCou: FMM=F IPFlag=           0 FMFlag=      100000 FMFlg1=           0
         NFxFlg=           0 DoJE=T BraDBF=F KetDBF=T FulRan=T
         wScrn=  0.000000 ICntrl=       500 IOpCl=  0 I1Cent=   200000004 NGrid=           0
         NMat0=    1 NMatS0=      1 NMatT0=    0 NMatD0=    1 NMtDS0=    0 NMtDT0=    0
 Symmetry not used in FoFCou.
 Requested convergence on RMS density matrix=1.00D-08 within 128 cycles.
 Requested convergence on MAX density matrix=1.00D-06.
 Requested convergence on             energy=1.00D-06.
 No special actions if energy rises.
 SCF Done:  E(RB3LYP) =  -867.891347209     A.U. after   12 cycles
            NFock= 12  Conv=0.45D-08     -V/T= 2.0061
 Calling FoFJK, ICntrl=      2127 FMM=F ISym2X=0 I1Cent= 0 IOpClX= 0 NMat=1 NMatS=1 NMatT=0.
 -------------------------------------------------------------------
 Center     Atomic                   Forces (Hartrees/Bohr)
 Number     Number              X              Y              Z
 -------------------------------------------------------------------
      1        6          -0.006539601   -0.010457732   -0.003117052
      2        6           0.002448236    0.003386232    0.001007040
      3        6          -0.001204437   -0.000455050   -0.000121252
      4        6           0.000597532   -0.000346473   -0.000110205
      5        6          -0.000596838    0.000123602    0.000038640
      6        6           0.001318485    0.002840301    0.000850932
      7        1          -0.000325230   -0.000266815   -0.000075251
      8        1           0.000124829    0.000204476    0.000061912
      9        5           0.003050282    0.000212629    0.000023161
     10        8          -0.002015473   -0.001880785   -0.000542966
     11        1           0.001142120    0.001150887    0.000331679
     12        8          -0.001906746    0.001773477    0.000551836
     13        1           0.001138246   -0.001090605   -0.000331496
     14        1           0.000014725   -0.000117723   -0.000034297
     15        1          -0.000160397    0.000232782    0.000070352
     16       17           0.002914267    0.004690797    0.001396967
 -------------------------------------------------------------------
 Cartesian Forces:  Max     0.010457732 RMS     0.002308685

 GradGradGradGradGradGradGradGradGradGradGradGradGradGradGradGradGradGrad
 Berny optimization.
 Using GEDIIS/GDIIS optimizer.
 FormGI is forming the generalized inverse of G from B-inverse, IUseBI=4.
 Internal  Forces:  Max     0.005695949 RMS     0.001060757
 Search for a local minimum.
 Step number   2 out of a maximum of   81
 All quantities printed in internal units (Hartrees-Bohrs-Radians)
 Mixed Optimization -- RFO/linear search
 Update second derivatives using D2CorX and points    1    2
 DE= -2.64D-03 DEPred=-2.24D-03 R= 1.18D+00
 TightC=F SS=  1.41D+00  RLast= 1.38D-01 DXNew= 5.0454D-01 4.1414D-01
 Trust test= 1.18D+00 RLast= 1.38D-01 DXMaxT set to 4.14D-01
 ITU=  1  0
 Use linear search instead of GDIIS.
     Eigenvalues ---    0.00607   0.01546   0.01549   0.01984   0.02039
     Eigenvalues ---    0.02085   0.02091   0.02093   0.02123   0.02162
     Eigenvalues ---    0.02196   0.02376   0.02382   0.13796   0.16000
     Eigenvalues ---    0.16000   0.16000   0.16000   0.16026   0.20058
     Eigenvalues ---    0.22000   0.23474   0.24847   0.24997   0.25000
     Eigenvalues ---    0.25000   0.25062   0.27391   0.35370   0.35470
     Eigenvalues ---    0.35604   0.35649   0.41016   0.41639   0.44532
     Eigenvalues ---    0.45226   0.46205   0.46883   0.47661   0.49755
     Eigenvalues ---    0.53130   0.55156
 RFO step:  Lambda=-2.53830873D-04 EMin= 6.07325762D-03
 Quartic linear search produced a step of  0.19206.
 Iteration  1 RMS(Cart)=  0.00582196 RMS(Int)=  0.00004325
 Iteration  2 RMS(Cart)=  0.00004533 RMS(Int)=  0.00000446
 Iteration  3 RMS(Cart)=  0.00000000 RMS(Int)=  0.00000446
 Variable       Old X    -DE/DX   Delta X   Delta X   Delta X     New X
                                 (Linear)    (Quad)   (Total)
    R1        2.62367   0.00264  -0.00053   0.00723   0.00672   2.63038
    R2        2.63067   0.00233  -0.00074   0.00677   0.00604   2.63671
    R3        3.36822  -0.00570  -0.01871  -0.01373  -0.03245   3.33577
    R4        2.66027  -0.00018  -0.00091   0.00016  -0.00075   2.65952
    R5        2.04962   0.00008   0.00063  -0.00021   0.00042   2.05004
    R6        2.65841  -0.00039  -0.00079  -0.00072  -0.00152   2.65689
    R7        2.95031   0.00141   0.00335   0.00347   0.00682   2.95713
    R8        2.63807   0.00007  -0.00072   0.00052  -0.00021   2.63786
    R9        2.05228   0.00013   0.00060  -0.00002   0.00058   2.05286
   R10        2.64263   0.00019  -0.00107   0.00135   0.00028   2.64292
   R11        2.05395   0.00012   0.00061  -0.00006   0.00055   2.05451
   R12        2.05053  -0.00001   0.00065  -0.00054   0.00011   2.05064
   R13        2.59834   0.00027  -0.00465   0.00413  -0.00052   2.59783
   R14        2.59925   0.00027  -0.00465   0.00415  -0.00051   2.59874
   R15        1.82475   0.00114  -0.00200   0.00404   0.00204   1.82679
   R16        1.82492   0.00115  -0.00203   0.00408   0.00206   1.82698
    A1        2.13785  -0.00306   0.00071  -0.01458  -0.01385   2.12400
    A2        2.07568   0.00141  -0.00038   0.00676   0.00637   2.08205
    A3        2.06965   0.00165  -0.00033   0.00783   0.00749   2.07714
    A4        2.08160   0.00158  -0.00025   0.00876   0.00852   2.09012
    A5        2.10405  -0.00122  -0.00079  -0.00680  -0.00759   2.09646
    A6        2.09754  -0.00036   0.00104  -0.00196  -0.00093   2.09661
    A7        2.07188   0.00005  -0.00036  -0.00031  -0.00068   2.07120
    A8        2.09795   0.00015   0.00022   0.00096   0.00118   2.09913
    A9        2.11335  -0.00020   0.00014  -0.00064  -0.00050   2.11286
   A10        2.11102   0.00000   0.00040  -0.00161  -0.00122   2.10980
   A11        2.07717   0.00027   0.00059   0.00212   0.00272   2.07989
   A12        2.09499  -0.00027  -0.00100  -0.00051  -0.00150   2.09350
   A13        2.09945   0.00024   0.00018   0.00045   0.00063   2.10008
   A14        2.10057  -0.00034   0.00002  -0.00197  -0.00194   2.09863
   A15        2.08316   0.00010  -0.00020   0.00151   0.00132   2.08448
   A16        2.06456   0.00119  -0.00069   0.00729   0.00661   2.07117
   A17        2.10146  -0.00072   0.00031  -0.00455  -0.00424   2.09721
   A18        2.11717  -0.00047   0.00037  -0.00273  -0.00236   2.11480
   A19        2.05964  -0.00030  -0.00032  -0.00118  -0.00150   2.05814
   A20        2.05936  -0.00014  -0.00043  -0.00033  -0.00076   2.05860
   A21        2.16418   0.00044   0.00075   0.00151   0.00226   2.16644
   A22        2.05670  -0.00219  -0.01183  -0.00619  -0.01802   2.03868
   A23        2.05249  -0.00206  -0.01178  -0.00528  -0.01706   2.03543
    D1        0.00005   0.00000  -0.00004   0.00003  -0.00001   0.00004
    D2       -3.14154   0.00000  -0.00004   0.00003   0.00000  -3.14154
    D3       -3.14152   0.00000  -0.00003  -0.00006  -0.00009   3.14157
    D4        0.00008   0.00000  -0.00004  -0.00005  -0.00009  -0.00001
    D5       -0.00004   0.00000   0.00003  -0.00001   0.00002  -0.00002
    D6        3.14153   0.00000   0.00003  -0.00003   0.00000   3.14154
    D7        3.14153   0.00000   0.00003   0.00008   0.00010  -3.14155
    D8       -0.00008   0.00000   0.00003   0.00006   0.00009   0.00001
    D9       -0.00001   0.00000   0.00002  -0.00003  -0.00001  -0.00002
   D10        3.14153   0.00000   0.00002   0.00004   0.00006   3.14159
   D11        3.14157   0.00000   0.00002  -0.00004  -0.00001   3.14156
   D12       -0.00008   0.00000   0.00002   0.00003   0.00006  -0.00002
   D13       -0.00003   0.00000   0.00000   0.00001   0.00002  -0.00001
   D14        3.14156   0.00000  -0.00001   0.00006   0.00005  -3.14157
   D15       -3.14157   0.00000   0.00000  -0.00006  -0.00006   3.14156
   D16        0.00003   0.00000  -0.00001  -0.00001  -0.00002   0.00001
   D17        0.00089   0.00000   0.00009  -0.00043  -0.00034   0.00055
   D18       -3.14084   0.00000   0.00004   0.00010   0.00014  -3.14070
   D19       -3.14077   0.00000   0.00009  -0.00035  -0.00026  -3.14103
   D20        0.00070   0.00000   0.00004   0.00017   0.00021   0.00091
   D21        0.00004   0.00000  -0.00001   0.00001   0.00000   0.00003
   D22       -3.14153   0.00000  -0.00004   0.00003  -0.00001  -3.14154
   D23       -3.14156   0.00000   0.00000  -0.00004  -0.00004   3.14159
   D24        0.00006   0.00000  -0.00002  -0.00002  -0.00004   0.00002
   D25        0.00000   0.00000   0.00000  -0.00001  -0.00001  -0.00001
   D26       -3.14157   0.00000  -0.00001   0.00001   0.00000  -3.14157
   D27        3.14157   0.00000   0.00002  -0.00003  -0.00001   3.14156
   D28       -0.00001   0.00000   0.00001  -0.00001   0.00001   0.00000
   D29       -3.14063  -0.00001  -0.00013   0.00002  -0.00010  -3.14073
   D30        0.00110  -0.00001  -0.00007  -0.00053  -0.00061   0.00050
   D31       -3.14053  -0.00001  -0.00007  -0.00057  -0.00064  -3.14117
   D32        0.00093  -0.00001  -0.00012  -0.00002  -0.00014   0.00079
         Item               Value     Threshold  Converged?
 Maximum Force            0.005696     0.000450     NO 
 RMS     Force            0.001061     0.000300     NO 
 Maximum Displacement     0.028078     0.001800     NO 
 RMS     Displacement     0.005823     0.001200     NO 
 Predicted change in Energy=-2.152817D-04
 GradGradGradGradGradGradGradGradGradGradGradGradGradGradGradGradGradGrad

                          Input orientation:                          
 ---------------------------------------------------------------------
 Center     Atomic      Atomic             Coordinates (Angstroms)
 Number     Number       Type             X           Y           Z
 ---------------------------------------------------------------------
      1          6           0       -0.206503   -0.646387   -0.322274
      2          6           0        1.185279   -0.660035   -0.338098
      3          6           0        1.899158    0.502172    0.008751
      4          6           0        1.178276    1.655518    0.364925
      5          6           0       -0.217575    1.653108    0.375864
      6          6           0       -0.924465    0.496734    0.030749
      7          1           0        1.717668   -1.563230   -0.616786
      8          1           0       -0.764552    2.550906    0.652950
      9          5           0        3.463941    0.500312   -0.004937
     10          8           0        4.103196   -0.662545   -0.364029
     11          1           0        5.069748   -0.645910   -0.366297
     12          8           0        4.112933    1.661642    0.343323
     13          1           0        5.079347    1.639172    0.327991
     14          1           0       -2.009474    0.479576    0.034594
     15          1           0        1.721162    2.557149    0.634080
     16         17           0       -1.089595   -2.110942   -0.759534
 ---------------------------------------------------------------------
                    Distance matrix (angstroms):
                    1          2          3          4          5
     1  C    0.000000
     2  C    1.391939   0.000000
     3  C    2.421275   1.407357   0.000000
     4  C    2.772836   2.419933   1.405966   0.000000
     5  C    2.403164   2.797923   2.437209   1.395896   0.000000
     6  C    1.395284   2.434170   2.823714   2.424041   1.398570
     7  H    2.151690   1.084834   2.165669   3.408085   3.882699
     8  H    3.388976   3.885120   3.421645   2.158531   1.087198
     9  B    3.858468   2.578701   1.564844   2.587579   3.876533
    10  O    4.309932   2.918033   2.520579   3.802625   4.957697
    11  H    5.276434   3.884597   3.392845   4.579827   5.813095
    12  O    4.942423   3.798115   2.521331   2.934744   4.330639
    13  H    5.795414   4.570973   3.392386   3.901280   5.297157
    14  H    2.155423   3.412339   3.908782   3.413752   2.168996
    15  H    3.859163   3.403318   2.155376   1.086327   2.154685
    16  Cl   1.765212   2.730896   4.043671   4.538047   4.027111
                    6          7          8          9         10
     6  C    0.000000
     7  H    3.412274   0.000000
     8  H    2.152284   4.969885   0.000000
     9  B    4.388552   2.771648   4.745303   0.000000
    10  O    5.174665   2.562395   5.920767   1.374711   0.000000
    11  H    6.115053   3.484345   6.730345   2.005747   0.966697
    12  O    5.179778   4.130243   4.967546   1.375197   2.429463
    13  H    6.118764   4.738024   5.923513   2.004340   2.594160
    14  H    1.085151   4.299876   2.494514   5.473597   6.231218
    15  H    3.407148   4.306065   2.485794   2.770595   4.127558
    16  Cl   2.729797   2.863755   4.881966   5.303089   5.405494
                   11         12         13         14         15
    11  H    0.000000
    12  O    2.596893   0.000000
    13  H    2.388248   0.966796   0.000000
    14  H    7.179332   6.243113   7.189028   0.000000
    15  H    4.740608   2.570416   3.494821   4.311999   0.000000
    16  Cl   6.343379   6.520352   7.300816   2.861399   5.624375
                   16
    16  Cl   0.000000
 Symmetry turned off by external request.
 Stoichiometry    C6H6BClO2
 Framework group  C1[X(C6H6BClO2)]
 Deg. of freedom    42
 Full point group                 C1      NOp   1
 Rotational constants (GHZ):           2.1317734           0.6623706           0.5053512
 Standard basis: 6-31+G(d) (6D, 7F)
   206 basis functions,   368 primitive gaussians,   206 cartesian basis functions
    40 alpha electrons       40 beta electrons
       nuclear repulsion energy       535.2288852396 Hartrees.
 NAtoms=   16 NActive=   16 NUniq=   16 SFac= 1.00D+00 NAtFMM=   60 NAOKFM=F Big=F
 Integral buffers will be    131072 words long.
 Raffenetti 2 integral format.
 Two-electron integral symmetry is turned off.
 Nuclear repulsion after empirical dispersion term =      535.2165398678 Hartrees.
 One-electron integrals computed using PRISM.
 NBasis=   206 RedAO= T EigKep=  3.18D-06  NBF=   206
 NBsUse=   206 1.00D-06 EigRej= -1.00D+00 NBFU=   206
 Initial guess from the checkpoint file:  "MOLECULE_23.chk"
 B after Tr=     0.001043    0.000932    0.000245
         Rot=    1.000000    0.000003   -0.000004    0.000008 Ang=   0.00 deg.
 ExpMin= 3.15D-02 ExpMax= 2.52D+04 ExpMxC= 3.78D+03 IAcc=3 IRadAn=         5 AccDes= 0.00D+00
 Harris functional with IExCor=  402 and IRadAn=       5 diagonalized for initial guess.
 HarFok:  IExCor=  402 AccDes= 0.00D+00 IRadAn=         5 IDoV= 1 UseB2=F ITyADJ=14
 ICtDFT=  3500011 ScaDFX=  1.000000  1.000000  1.000000  1.000000
 FoFCou: FMM=F IPFlag=           0 FMFlag=      100000 FMFlg1=           0
         NFxFlg=           0 DoJE=T BraDBF=F KetDBF=T FulRan=T
         wScrn=  0.000000 ICntrl=       500 IOpCl=  0 I1Cent=   200000004 NGrid=           0
         NMat0=    1 NMatS0=      1 NMatT0=    0 NMatD0=    1 NMtDS0=    0 NMtDT0=    0
 Symmetry not used in FoFCou.
 Requested convergence on RMS density matrix=1.00D-08 within 128 cycles.
 Requested convergence on MAX density matrix=1.00D-06.
 Requested convergence on             energy=1.00D-06.
 No special actions if energy rises.
 SCF Done:  E(RB3LYP) =  -867.891577890     A.U. after   11 cycles
            NFock= 11  Conv=0.49D-08     -V/T= 2.0061
 Calling FoFJK, ICntrl=      2127 FMM=F ISym2X=0 I1Cent= 0 IOpClX= 0 NMat=1 NMatS=1 NMatT=0.
 -------------------------------------------------------------------
 Center     Atomic                   Forces (Hartrees/Bohr)
 Number     Number              X              Y              Z
 -------------------------------------------------------------------
      1        6          -0.001339207   -0.002005466   -0.000598793
      2        6           0.000825824    0.001670887    0.000500861
      3        6           0.000201993   -0.000718348   -0.000233158
      4        6           0.000239941    0.000202109    0.000056756
      5        6          -0.000616198   -0.000232099   -0.000065724
      6        6           0.001095979    0.001247951    0.000369337
      7        1           0.000011321   -0.000174241   -0.000051066
      8        1          -0.000008092   -0.000104833   -0.000031158
      9        5          -0.001244649   -0.000001039    0.000048639
     10        8          -0.000014998   -0.000810517   -0.000250980
     11        1           0.000513755    0.000014492   -0.000008156
     12        8          -0.000062027    0.000736968    0.000206839
     13        1           0.000483812    0.000003541    0.000002519
     14        1          -0.000156508    0.000001381    0.000002570
     15        1          -0.000070380   -0.000016359   -0.000004568
     16       17           0.000139435    0.000185572    0.000056083
 -------------------------------------------------------------------
 Cartesian Forces:  Max     0.002005466 RMS     0.000602701

 GradGradGradGradGradGradGradGradGradGradGradGradGradGradGradGradGradGrad
 Berny optimization.
 Using GEDIIS/GDIIS optimizer.
 FormGI is forming the generalized inverse of G from B-inverse, IUseBI=4.
 Internal  Forces:  Max     0.001021033 RMS     0.000303989
 Search for a local minimum.
 Step number   3 out of a maximum of   81
 All quantities printed in internal units (Hartrees-Bohrs-Radians)
 Mixed Optimization -- En-DIIS/RFO-DIIS
 Update second derivatives using D2CorX and points    1    2    3
 DE= -2.31D-04 DEPred=-2.15D-04 R= 1.07D+00
 TightC=F SS=  1.41D+00  RLast= 4.82D-02 DXNew= 6.9649D-01 1.4464D-01
 Trust test= 1.07D+00 RLast= 4.82D-02 DXMaxT set to 4.14D-01
 ITU=  1  1  0
 Use linear search instead of GDIIS.
     Eigenvalues ---    0.00607   0.01546   0.01551   0.01985   0.02039
     Eigenvalues ---    0.02084   0.02091   0.02092   0.02123   0.02161
     Eigenvalues ---    0.02196   0.02376   0.02382   0.13849   0.16000
     Eigenvalues ---    0.16000   0.16000   0.16021   0.16039   0.18846
     Eigenvalues ---    0.22001   0.23476   0.24989   0.24997   0.25000
     Eigenvalues ---    0.25017   0.25454   0.27757   0.35380   0.35476
     Eigenvalues ---    0.35609   0.35655   0.40941   0.41489   0.44510
     Eigenvalues ---    0.45386   0.46109   0.46895   0.47663   0.50301
     Eigenvalues ---    0.53131   0.54950
 RFO step:  Lambda=-1.53041925D-05 EMin= 6.07325449D-03
 Quartic linear search produced a step of  0.13241.
 Iteration  1 RMS(Cart)=  0.00099007 RMS(Int)=  0.00000175
 Iteration  2 RMS(Cart)=  0.00000231 RMS(Int)=  0.00000111
 Iteration  3 RMS(Cart)=  0.00000000 RMS(Int)=  0.00000111
 Variable       Old X    -DE/DX   Delta X   Delta X   Delta X     New X
                                 (Linear)    (Quad)   (Total)
    R1        2.63038   0.00074   0.00089   0.00098   0.00187   2.63225
    R2        2.63671   0.00062   0.00080   0.00078   0.00159   2.63829
    R3        3.33577  -0.00024  -0.00430   0.00086  -0.00344   3.33233
    R4        2.65952  -0.00061  -0.00010  -0.00154  -0.00164   2.65788
    R5        2.05004   0.00016   0.00006   0.00052   0.00057   2.05061
    R6        2.65689   0.00011  -0.00020   0.00034   0.00014   2.65703
    R7        2.95713  -0.00032   0.00090  -0.00176  -0.00085   2.95627
    R8        2.63786   0.00014  -0.00003   0.00026   0.00023   2.63809
    R9        2.05286  -0.00005   0.00008  -0.00017  -0.00009   2.05277
   R10        2.64292  -0.00051   0.00004  -0.00137  -0.00133   2.64158
   R11        2.05451  -0.00009   0.00007  -0.00029  -0.00022   2.05429
   R12        2.05064   0.00016   0.00001   0.00053   0.00054   2.05118
   R13        2.59783   0.00097  -0.00007   0.00190   0.00183   2.59966
   R14        2.59874   0.00088  -0.00007   0.00168   0.00161   2.60035
   R15        1.82679   0.00051   0.00027   0.00067   0.00094   1.82773
   R16        1.82698   0.00048   0.00027   0.00060   0.00088   1.82786
    A1        2.12400  -0.00102  -0.00183  -0.00293  -0.00476   2.11924
    A2        2.08205   0.00047   0.00084   0.00135   0.00219   2.08424
    A3        2.07714   0.00055   0.00099   0.00158   0.00257   2.07971
    A4        2.09012   0.00055   0.00113   0.00177   0.00290   2.09302
    A5        2.09646  -0.00036  -0.00101  -0.00115  -0.00216   2.09430
    A6        2.09661  -0.00019  -0.00012  -0.00062  -0.00074   2.09587
    A7        2.07120   0.00003  -0.00009   0.00005  -0.00005   2.07116
    A8        2.09913  -0.00003   0.00016  -0.00015   0.00001   2.09913
    A9        2.11286  -0.00001  -0.00007   0.00010   0.00004   2.11289
   A10        2.10980  -0.00013  -0.00016  -0.00068  -0.00084   2.10896
   A11        2.07989   0.00012   0.00036   0.00054   0.00090   2.08079
   A12        2.09350   0.00001  -0.00020   0.00014  -0.00006   2.09344
   A13        2.10008   0.00003   0.00008  -0.00007   0.00001   2.10009
   A14        2.09863   0.00005  -0.00026   0.00066   0.00041   2.09904
   A15        2.08448  -0.00008   0.00017  -0.00059  -0.00042   2.08406
   A16        2.07117   0.00053   0.00087   0.00186   0.00274   2.07391
   A17        2.09721  -0.00026  -0.00056  -0.00080  -0.00136   2.09585
   A18        2.11480  -0.00027  -0.00031  -0.00106  -0.00138   2.11343
   A19        2.05814   0.00010  -0.00020   0.00056   0.00037   2.05851
   A20        2.05860  -0.00005  -0.00010  -0.00018  -0.00029   2.05832
   A21        2.16644  -0.00004   0.00030  -0.00038  -0.00008   2.16636
   A22        2.03868  -0.00001  -0.00239   0.00101  -0.00138   2.03730
   A23        2.03543   0.00003  -0.00226   0.00116  -0.00110   2.03433
    D1        0.00004   0.00000   0.00000  -0.00003  -0.00003   0.00001
    D2       -3.14154   0.00000   0.00000  -0.00007  -0.00007   3.14158
    D3        3.14157   0.00000  -0.00001   0.00003   0.00002   3.14159
    D4       -0.00001   0.00000  -0.00001   0.00000  -0.00002  -0.00003
    D5       -0.00002   0.00000   0.00000   0.00002   0.00002   0.00000
    D6        3.14154   0.00000   0.00000   0.00005   0.00005   3.14159
    D7       -3.14155   0.00000   0.00001  -0.00004  -0.00003  -3.14158
    D8        0.00001   0.00000   0.00001  -0.00001   0.00000   0.00001
    D9       -0.00002   0.00000   0.00000   0.00001   0.00001  -0.00001
   D10        3.14159   0.00000   0.00001  -0.00005  -0.00004   3.14154
   D11        3.14156   0.00000   0.00000   0.00004   0.00004  -3.14158
   D12       -0.00002   0.00000   0.00001  -0.00001  -0.00001  -0.00003
   D13       -0.00001   0.00000   0.00000   0.00002   0.00002   0.00001
   D14       -3.14157   0.00000   0.00001  -0.00004  -0.00003   3.14158
   D15        3.14156   0.00000  -0.00001   0.00008   0.00007  -3.14155
   D16        0.00001   0.00000   0.00000   0.00002   0.00002   0.00002
   D17        0.00055   0.00001  -0.00004   0.00068   0.00064   0.00119
   D18       -3.14070  -0.00001   0.00002  -0.00039  -0.00038  -3.14108
   D19       -3.14103   0.00001  -0.00003   0.00063   0.00059  -3.14044
   D20        0.00091  -0.00001   0.00003  -0.00045  -0.00042   0.00048
   D21        0.00003   0.00000   0.00000  -0.00003  -0.00003   0.00000
   D22       -3.14154   0.00000   0.00000  -0.00006  -0.00006   3.14158
   D23        3.14159   0.00000  -0.00001   0.00003   0.00002  -3.14157
   D24        0.00002   0.00000  -0.00001   0.00000   0.00000   0.00001
   D25       -0.00001   0.00000   0.00000   0.00001   0.00001   0.00000
   D26       -3.14157   0.00000   0.00000  -0.00002  -0.00002   3.14159
   D27        3.14156   0.00000   0.00000   0.00004   0.00004  -3.14159
   D28        0.00000   0.00000   0.00000   0.00000   0.00000   0.00000
   D29       -3.14073  -0.00001  -0.00001  -0.00085  -0.00087   3.14159
   D30        0.00050   0.00000  -0.00008   0.00030   0.00022   0.00071
   D31       -3.14117   0.00000  -0.00008   0.00041   0.00033  -3.14084
   D32        0.00079  -0.00001  -0.00002  -0.00074  -0.00076   0.00003
         Item               Value     Threshold  Converged?
 Maximum Force            0.001021     0.000450     NO 
 RMS     Force            0.000304     0.000300     NO 
 Maximum Displacement     0.003939     0.001800     NO 
 RMS     Displacement     0.000991     0.001200     YES
 Predicted change in Energy=-1.103547D-05
 GradGradGradGradGradGradGradGradGradGradGradGradGradGradGradGradGradGrad

                          Input orientation:                          
 ---------------------------------------------------------------------
 Center     Atomic      Atomic             Coordinates (Angstroms)
 Number     Number       Type             X           Y           Z
 ---------------------------------------------------------------------
      1          6           0       -0.207700   -0.648471   -0.322907
      2          6           0        1.185112   -0.658836   -0.337545
      3          6           0        1.899019    0.502384    0.009041
      4          6           0        1.178507    1.656070    0.365159
      5          6           0       -0.217466    1.653031    0.375750
      6          6           0       -0.923403    0.496921    0.030660
      7          1           0        1.717987   -1.562144   -0.616112
      8          1           0       -0.765240    2.550273    0.652613
      9          5           0        3.463349    0.499883   -0.004558
     10          8           0        4.103037   -0.663628   -0.364463
     11          1           0        5.070061   -0.645555   -0.366892
     12          8           0        4.112850    1.662003    0.343487
     13          1           0        5.079695    1.638454    0.327712
     14          1           0       -2.008713    0.480705    0.034692
     15          1           0        1.720842    2.557935    0.634450
     16         17           0       -1.089392   -2.111785   -0.759815
 ---------------------------------------------------------------------
                    Distance matrix (angstroms):
                    1          2          3          4          5
     1  C    0.000000
     2  C    1.392927   0.000000
     3  C    2.423410   1.406490   0.000000
     4  C    2.775952   2.419220   1.406040   0.000000
     5  C    2.405230   2.796559   2.436795   1.396016   0.000000
     6  C    1.396124   2.432526   2.822510   2.423539   1.397865
     7  H    2.151520   1.085137   2.164685   3.407467   3.881639
     8  H    3.390347   3.883640   3.421448   2.158791   1.087084
     9  B    3.859620   2.577572   1.564392   2.587270   3.875924
    10  O    4.310964   2.918054   2.521267   3.803450   4.957981
    11  H    5.277945   3.885083   3.393317   4.580128   5.813171
    12  O    4.944646   3.797598   2.521433   2.934430   4.330446
    13  H    5.797403   4.570327   3.392479   3.901408   5.297399
    14  H    2.155589   3.411397   3.907876   3.413072   2.167772
    15  H    3.862233   3.402851   2.155963   1.086280   2.154718
    16  Cl   1.763394   2.731802   4.044208   4.539346   4.027854
                    6          7          8          9         10
     6  C    0.000000
     7  H    3.411012   0.000000
     8  H    2.151301   4.968707   0.000000
     9  B    4.386895   2.769881   4.745202   0.000000
    10  O    5.173790   2.561078   5.921464   1.375678   0.000000
    11  H    6.114320   3.484055   6.730783   2.006199   0.967195
    12  O    5.178719   4.129324   4.967932   1.376048   2.431018
    13  H    6.117886   4.736635   5.924546   2.004824   2.594716
    14  H    1.085439   4.299427   2.492220   5.472237   6.230756
    15  H    3.406519   4.305689   2.486160   2.771325   4.129304
    16  Cl   2.730888   2.864286   4.882091   5.302705   5.405071
                   11         12         13         14         15
    11  H    0.000000
    12  O    2.597251   0.000000
    13  H    2.387314   0.967260   0.000000
    14  H    7.179051   6.242144   7.188308   0.000000
    15  H    4.741551   2.570809   3.495916   4.310936   0.000000
    16  Cl   6.343744   6.520895   7.301003   2.863110   5.625626
                   16
    16  Cl   0.000000
 Symmetry turned off by external request.
 Stoichiometry    C6H6BClO2
 Framework group  C1[X(C6H6BClO2)]
 Deg. of freedom    42
 Full point group                 C1      NOp   1
 Rotational constants (GHZ):           2.1308542           0.6623667           0.5052973
 Standard basis: 6-31+G(d) (6D, 7F)
   206 basis functions,   368 primitive gaussians,   206 cartesian basis functions
    40 alpha electrons       40 beta electrons
       nuclear repulsion energy       535.1964551670 Hartrees.
 NAtoms=   16 NActive=   16 NUniq=   16 SFac= 1.00D+00 NAtFMM=   60 NAOKFM=F Big=F
 Integral buffers will be    131072 words long.
 Raffenetti 2 integral format.
 Two-electron integral symmetry is turned off.
 Nuclear repulsion after empirical dispersion term =      535.1841086344 Hartrees.
 One-electron integrals computed using PRISM.
 NBasis=   206 RedAO= T EigKep=  3.19D-06  NBF=   206
 NBsUse=   206 1.00D-06 EigRej= -1.00D+00 NBFU=   206
 Initial guess from the checkpoint file:  "MOLECULE_23.chk"
 B after Tr=    -0.000043   -0.000578   -0.000160
         Rot=    1.000000   -0.000002    0.000017   -0.000022 Ang=   0.00 deg.
 Requested convergence on RMS density matrix=1.00D-08 within 128 cycles.
 Requested convergence on MAX density matrix=1.00D-06.
 Requested convergence on             energy=1.00D-06.
 No special actions if energy rises.
 SCF Done:  E(RB3LYP) =  -867.891590453     A.U. after   10 cycles
            NFock= 10  Conv=0.70D-08     -V/T= 2.0061
 Calling FoFJK, ICntrl=      2127 FMM=F ISym2X=0 I1Cent= 0 IOpClX= 0 NMat=1 NMatS=1 NMatT=0.
 -------------------------------------------------------------------
 Center     Atomic                   Forces (Hartrees/Bohr)
 Number     Number              X              Y              Z
 -------------------------------------------------------------------
      1        6          -0.000186979   -0.000209164   -0.000062155
      2        6           0.000092953    0.000259544    0.000080507
      3        6           0.000181568   -0.000183574   -0.000031864
      4        6           0.000045249    0.000177406    0.000057030
      5        6          -0.000088698   -0.000022642   -0.000009181
      6        6           0.000208521    0.000125265    0.000036464
      7        1           0.000002989   -0.000036238   -0.000010777
      8        1          -0.000013152   -0.000030357   -0.000010171
      9        5          -0.000578746   -0.000004664   -0.000073335
     10        8           0.000158687   -0.000114390   -0.000008783
     11        1           0.000051250   -0.000035545   -0.000012874
     12        8           0.000142413    0.000102715    0.000047601
     13        1           0.000054188    0.000046450    0.000020305
     14        1          -0.000041613    0.000000440    0.000000539
     15        1          -0.000006175   -0.000027810   -0.000009168
     16       17          -0.000022455   -0.000047434   -0.000014137
 -------------------------------------------------------------------
 Cartesian Forces:  Max     0.000578746 RMS     0.000126495

 GradGradGradGradGradGradGradGradGradGradGradGradGradGradGradGradGradGrad
 Berny optimization.
 Using GEDIIS/GDIIS optimizer.
 FormGI is forming the generalized inverse of G from B-inverse, IUseBI=4.
 Internal  Forces:  Max     0.000235834 RMS     0.000065724
 Search for a local minimum.
 Step number   4 out of a maximum of   81
 All quantities printed in internal units (Hartrees-Bohrs-Radians)
 Mixed Optimization -- En-DIIS/RFO-DIIS
 Swapping is turned off.
 Update second derivatives using D2CorX and points    1    2    3    4
 DE= -1.26D-05 DEPred=-1.10D-05 R= 1.14D+00
 TightC=F SS=  1.41D+00  RLast= 9.90D-03 DXNew= 6.9649D-01 2.9702D-02
 Trust test= 1.14D+00 RLast= 9.90D-03 DXMaxT set to 4.14D-01
 ITU=  1  1  1  0
     Eigenvalues ---    0.00607   0.01546   0.01560   0.01985   0.02039
     Eigenvalues ---    0.02084   0.02091   0.02092   0.02123   0.02161
     Eigenvalues ---    0.02196   0.02375   0.02382   0.14044   0.16000
     Eigenvalues ---    0.16000   0.16001   0.16009   0.16027   0.17803
     Eigenvalues ---    0.22015   0.23464   0.23912   0.24996   0.25000
     Eigenvalues ---    0.25017   0.25267   0.27456   0.35370   0.35467
     Eigenvalues ---    0.35580   0.35635   0.41014   0.41797   0.43956
     Eigenvalues ---    0.45425   0.46198   0.46917   0.47670   0.47842
     Eigenvalues ---    0.53131   0.53983
 En-DIIS/RFO-DIIS/Sim-DIIS IScMMF=       -3 using points:     4    3
 RFO step:  Lambda=-1.26973883D-06.
 DidBck=F Rises=F RFO-DIIS coefs:    1.12525   -0.12525
 Iteration  1 RMS(Cart)=  0.00046225 RMS(Int)=  0.00000032
 Iteration  2 RMS(Cart)=  0.00000036 RMS(Int)=  0.00000019
 Variable       Old X    -DE/DX   Delta X   Delta X   Delta X     New X
                                 (Linear)    (Quad)   (Total)
    R1        2.63225   0.00010   0.00023   0.00005   0.00029   2.63254
    R2        2.63829   0.00004   0.00020  -0.00005   0.00015   2.63844
    R3        3.33233   0.00005  -0.00043   0.00029  -0.00014   3.33219
    R4        2.65788  -0.00007  -0.00021  -0.00004  -0.00024   2.65764
    R5        2.05061   0.00003   0.00007   0.00006   0.00014   2.05075
    R6        2.65703   0.00010   0.00002   0.00025   0.00026   2.65729
    R7        2.95627  -0.00017  -0.00011  -0.00058  -0.00069   2.95559
    R8        2.63809   0.00005   0.00003   0.00009   0.00012   2.63820
    R9        2.05277  -0.00003  -0.00001  -0.00007  -0.00009   2.05269
   R10        2.64158  -0.00004  -0.00017   0.00001  -0.00015   2.64143
   R11        2.05429  -0.00002  -0.00003  -0.00004  -0.00006   2.05423
   R12        2.05118   0.00004   0.00007   0.00009   0.00016   2.05134
   R13        2.59966   0.00023   0.00023   0.00031   0.00054   2.60020
   R14        2.60035   0.00024   0.00020   0.00035   0.00055   2.60091
   R15        1.82773   0.00005   0.00012  -0.00001   0.00011   1.82785
   R16        1.82786   0.00005   0.00011   0.00000   0.00011   1.82797
    A1        2.11924  -0.00016  -0.00060  -0.00034  -0.00093   2.11831
    A2        2.08424   0.00007   0.00027   0.00015   0.00042   2.08466
    A3        2.07971   0.00009   0.00032   0.00019   0.00051   2.08022
    A4        2.09302   0.00010   0.00036   0.00021   0.00058   2.09359
    A5        2.09430  -0.00007  -0.00027  -0.00017  -0.00044   2.09386
    A6        2.09587  -0.00003  -0.00009  -0.00004  -0.00013   2.09574
    A7        2.07116   0.00002  -0.00001   0.00008   0.00007   2.07123
    A8        2.09913   0.00001   0.00000   0.00004   0.00004   2.09917
    A9        2.11289  -0.00002   0.00000  -0.00012  -0.00011   2.11278
   A10        2.10896  -0.00007  -0.00011  -0.00028  -0.00039   2.10857
   A11        2.08079   0.00003   0.00011   0.00004   0.00015   2.08094
   A12        2.09344   0.00005  -0.00001   0.00024   0.00024   2.09367
   A13        2.10009   0.00001   0.00000   0.00007   0.00007   2.10016
   A14        2.09904   0.00002   0.00005   0.00013   0.00018   2.09921
   A15        2.08406  -0.00004  -0.00005  -0.00020  -0.00025   2.08381
   A16        2.07391   0.00011   0.00034   0.00025   0.00060   2.07451
   A17        2.09585  -0.00005  -0.00017  -0.00012  -0.00029   2.09556
   A18        2.11343  -0.00005  -0.00017  -0.00013  -0.00031   2.11312
   A19        2.05851   0.00010   0.00005   0.00043   0.00047   2.05898
   A20        2.05832   0.00003  -0.00004   0.00015   0.00011   2.05843
   A21        2.16636  -0.00013  -0.00001  -0.00057  -0.00058   2.16577
   A22        2.03730   0.00007  -0.00017   0.00045   0.00028   2.03758
   A23        2.03433   0.00009  -0.00014   0.00060   0.00046   2.03480
    D1        0.00001   0.00000   0.00000  -0.00001  -0.00001  -0.00001
    D2        3.14158   0.00000  -0.00001   0.00006   0.00005  -3.14155
    D3        3.14159   0.00000   0.00000  -0.00005  -0.00005   3.14154
    D4       -0.00003   0.00000   0.00000   0.00002   0.00001  -0.00001
    D5        0.00000   0.00000   0.00000   0.00000   0.00000   0.00000
    D6        3.14159   0.00000   0.00001  -0.00002  -0.00002   3.14158
    D7       -3.14158   0.00000   0.00000   0.00004   0.00004  -3.14154
    D8        0.00001   0.00000   0.00000   0.00002   0.00002   0.00003
    D9       -0.00001   0.00000   0.00000   0.00005   0.00005   0.00004
   D10        3.14154   0.00000  -0.00001   0.00014   0.00013  -3.14151
   D11       -3.14158   0.00000   0.00001  -0.00002  -0.00002   3.14158
   D12       -0.00003   0.00000   0.00000   0.00007   0.00006   0.00004
   D13        0.00001   0.00000   0.00000  -0.00007  -0.00007  -0.00006
   D14        3.14158   0.00000   0.00000   0.00002   0.00002  -3.14159
   D15       -3.14155   0.00000   0.00001  -0.00016  -0.00015   3.14149
   D16        0.00002   0.00000   0.00000  -0.00007  -0.00007  -0.00005
   D17        0.00119  -0.00001   0.00008  -0.00118  -0.00110   0.00010
   D18       -3.14108   0.00001  -0.00005   0.00098   0.00093  -3.14014
   D19       -3.14044  -0.00001   0.00007  -0.00108  -0.00101  -3.14145
   D20        0.00048   0.00001  -0.00005   0.00107   0.00102   0.00150
   D21        0.00000   0.00000   0.00000   0.00006   0.00005   0.00005
   D22        3.14158   0.00000  -0.00001   0.00006   0.00005  -3.14155
   D23       -3.14157   0.00000   0.00000  -0.00004  -0.00003   3.14158
   D24        0.00001   0.00000   0.00000  -0.00003  -0.00003  -0.00002
   D25        0.00000   0.00000   0.00000  -0.00002  -0.00002  -0.00002
   D26        3.14159   0.00000   0.00000   0.00000   0.00000   3.14159
   D27       -3.14159   0.00000   0.00000  -0.00002  -0.00002   3.14158
   D28        0.00000   0.00000   0.00000   0.00000   0.00000   0.00000
   D29        3.14159   0.00001  -0.00011   0.00111   0.00100  -3.14060
   D30        0.00071  -0.00002   0.00003  -0.00119  -0.00116  -0.00045
   D31       -3.14084  -0.00002   0.00004  -0.00139  -0.00135   3.14099
   D32        0.00003   0.00001  -0.00010   0.00091   0.00081   0.00084
         Item               Value     Threshold  Converged?
 Maximum Force            0.000236     0.000450     YES
 RMS     Force            0.000066     0.000300     YES
 Maximum Displacement     0.001819     0.001800     NO 
 RMS     Displacement     0.000462     0.001200     YES
 Predicted change in Energy=-6.349025D-07
 GradGradGradGradGradGradGradGradGradGradGradGradGradGradGradGradGradGrad

                          Input orientation:                          
 ---------------------------------------------------------------------
 Center     Atomic      Atomic             Coordinates (Angstroms)
[...]

 Dipole orientation:
     6          0.85398255         -0.65681865         -0.93263632
     6          1.59578646         -1.53831666          1.43442006
     6          0.63732255         -0.39789297          3.63528884
     6         -1.06534986          1.62673450          3.38428666
     6         -1.79372715          2.49234192          1.00094688
     6         -0.83656364          1.35349841         -1.18171593
     1          2.91247732         -3.10396669          1.57804986
     1         -3.11103020          4.05885760          0.82605454
     5          1.46076087         -1.37605730          6.29998927
     8          3.13316438         -3.36423321          6.40604510
     1          3.61835712         -3.94309101          8.07053701
     8          0.46450854         -0.19591541          8.39270385
     1          0.99800447         -0.83112138         10.02162207
     1         -1.38742330          2.00811182         -3.04612860
     1         -1.81622863          2.52016005          5.07292359
    17          2.07166991         -2.10540555         -3.67531761

 Electric dipole moment (dipole orientation):
 (Debye = 10**-18 statcoulomb cm , SI units = C m)
                  (au)            (Debye)         (10**-30 SI)
   Tot        0.153071D+01      0.389067D+01      0.129779D+02
   x          0.000000D+00      0.000000D+00      0.000000D+00
   y          0.000000D+00      0.000000D+00      0.000000D+00
   z          0.153071D+01      0.389067D+01      0.129779D+02

 Dipole polarizability, Alpha (dipole orientation).
 (esu units = cm**3 , SI units = C**2 m**2 J**-1)
 Alpha(0;0):
               (au)            (10**-24 esu)      (10**-40 SI)
   iso        0.101479D+03      0.150376D+02      0.167316D+02
   aniso      0.696085D+02      0.103149D+02      0.114769D+02
   xx         0.797174D+02      0.118129D+02      0.131436D+02
   yx        -0.265469D+02     -0.393385D+01     -0.437700D+01
   yy         0.889604D+02      0.131826D+02      0.146676D+02
   zx        -0.177746D+01     -0.263393D+00     -0.293064D+00
   zy         0.212299D+01      0.314595D+00      0.350034D+00
   zz         0.135759D+03      0.201175D+02      0.223837D+02

 ----------------------------------------------------------------------
 1\1\GINC-IP-172-31-13-49\Freq\RB3LYP\6-31+G(d)\C6H6B1Cl1O2\UBUNTU\15-S
 ep-2023\0\\#N Geom=AllCheck Guess=TCheck SCRF=Check GenChk RB3LYP/6-31
 +G(d) Freq\\molecule_11\\0,1\C,-0.2079851593,-0.648874895,-0.322960587
 2\C,1.1849832156,-0.6585594094,-0.3377230547\C,1.8989857956,0.50251587
 81,0.0086263086\C,1.1786555813,1.6564018737,0.365014011\C,-0.217375817
 8,1.6530347901,0.3758122395\C,-0.923139936,0.4968715057,0.0308736401\H
 ,1.7178914865,-1.5618802525,-0.6164670045\H,-0.765468571,2.550028532,0
 .652712582\B,3.4629482181,0.5000278102,-0.0055209934\O,4.1032366619,-0
 .6638017155,-0.3644239297\H,5.0703215721,-0.6457887699,-0.3663364786\O
 ,4.1128463948,1.6619819069,0.3434864267\H,5.0797652908,1.6384299824,0.
 3285665142\H,-2.0085351636,0.4807935443,0.0351892522\H,1.7210182218,2.
 558245857,0.6341361924\Cl,-1.0896027907,-2.1121876381,-0.7597141187\\V
 ersion=EM64L-G16RevB.01\HF=-867.891591\RMSD=4.687e-09\RMSF=3.318e-05\Z
 eroPoint=0.1151322\Thermal=0.1241836\Dipole=1.382751,0.6313519,0.18017
 84\DipoleDeriv=0.3081506,0.5791158,0.1729023,0.5902031,0.8303889,0.258
 5134,0.1762639,0.2586083,0.0394128,-0.0581288,-0.2119178,-0.0646449,-0
 .0530501,-0.1297259,-0.0124503,-0.0163121,-0.0111456,-0.0904351,-0.680
 9653,-0.0478146,-0.0098434,0.0359724,-0.1060403,0.0056398,0.015676,0.0
 064131,-0.1239458,0.0489694,0.1079902,0.0313899,-0.0624976,0.0020021,0
 .0378991,-0.0202521,0.0364447,-0.10978,-0.0165952,-0.0809148,-0.025497
 4,-0.0971853,0.0567248,0.0557144,-0.0304742,0.0555875,-0.1069264,-0.00
 55831,-0.0790146,-0.0247659,-0.0867287,-0.1748158,-0.0226595,-0.027095
 9,-0.0227069,-0.1045979,0.0970568,0.0411238,0.0127244,0.038806,0.00644
 19,-0.0363647,0.012003,-0.0363791,0.1139561,0.0060187,0.065867,0.02111
 91,0.0721604,-0.061162,-0.0611263,0.0230137,-0.061084,0.1194789,2.1454
 732,0.082915,0.0114592,-0.0055612,1.4671307,0.2991186,-0.0150863,0.298
 371,0.5759322,-0.9116265,0.3351183,0.1053022,0.4930583,-0.9768641,-0.1
 407103,0.1532277,-0.1391747,-0.5715657,0.1499793,-0.0501449,-0.0136527
 ,-0.1188427,0.3252752,-0.008698,-0.034679,-0.009252,0.3545093,-0.91998
 01,-0.4046976,-0.1199837,-0.4974389,-1.0137322,-0.1435404,-0.1486565,-
 0.1446366,-0.5717249,0.1499892,0.05038,0.0170338,0.1178194,0.3305411,-
 0.0089187,0.037621,-0.0083399,0.3538037,-0.0565471,-0.0055288,-0.00003
 99,-0.0119572,0.0887047,-0.014564,-0.0019789,-0.0146184,0.1326115,0.06
 45841,-0.0615964,-0.0181697,-0.0574141,-0.0275113,-0.0460714,-0.016858
 5,-0.0459944,0.1119858,-0.3207951,-0.3208806,-0.0953332,-0.3573438,-0.
 6173577,-0.1617818,-0.1064118,-0.1620931,-0.1227146\Polar=129.1078461,
 10.9150219,112.8733023,2.7108897,16.7523384,62.4560053\Quadrupole=16.1
 961269,-7.7687542,-8.4273727,-0.5359073,-0.6992032,0.0413369\PG=C01 [X
 (C6H6B1Cl1O2)]\NImag=0\\0.61587633,-0.06486907,0.50031076,-0.02389735,
 0.11595767,0.15542361,-0.32758916,-0.01638263,-0.00273649,0.68043941,0
 .04711503,-0.10876998,-0.01430974,-0.04208935,0.66677976,0.01655943,-0
 .01377213,-0.06722846,-0.01742573,0.16151604,0.18500553,-0.02778981,-0
 .02133450,-0.00616845,-0.17035341,-0.10594944,-0.03121950,0.61922753,-
 0.07403649,0.02728560,0.00635710,-0.05645652,-0.25018954,-0.05648584,-
 0.00102613,0.60412523,-0.02217079,0.00591779,0.01039327,-0.01618803,-0
 .05607266,-0.07940315,-0.00441733,0.14212808,0.17923086,-0.05467247,0.
 02933894,0.00932152,0.06252102,0.01811730,0.00501858,-0.17377002,0.059
 14529,0.01887306,0.68845779,0.02924341,-0.01549509,-0.00297675,-0.0202
 4760,-0.05199641,-0.01766861,0.10445743,-0.24811396,-0.05657663,0.0410
 7662,0.65995248,0.00929227,-0.00297849,-0.00750344,-0.00661530,-0.0179
 9497,0.00139104,0.03262882,-0.05618770,-0.08201785,0.00781761,0.157490
 12,0.18764429,0.06614075,-0.02731896,-0.00880080,-0.05124978,-0.025736
 00,-0.00742386,-0.02788717,0.06671211,0.02057833,-0.33812889,-0.030747
 72,-0.00701733,0.68524755,0.02600786,-0.05348852,-0.01829613,-0.026063
 78,-0.01440219,-0.00269586,0.02598177,0.02808113,0.00512144,0.03049978
 ,-0.12378710,-0.01845843,-0.03028256,0.66873038,0.00737926,-0.01784335
 ,0.00059905,-0.00752459,-0.00269766,-0.00556014,0.00821409,0.00477154,
 0.01185067,0.01158816,-0.01793895,-0.06931298,-0.01388115,0.16309857,0
 .18181295,-0.18093173,0.12753054,0.03971582,-0.02502959,0.02570427,0.0
 0807702,-0.00108839,0.00121126,0.00033545,-0.02497258,-0.02898960,-0.0
 0852691,-0.18270204,-0.11974233,-0.03529711,0.75218201,0.06405220,-0.2
 4038768,-0.05484425,0.06952919,0.02955091,0.00623672,0.00060233,-0.056
 28172,-0.01561420,-0.07294963,0.02906211,0.00727965,-0.05501585,-0.265
 19392,-0.06176373,0.00779374,0.61308844,0.02044451,-0.05538438,-0.0784
 7404,0.02137664,0.00660937,0.00888456,0.00015089,-0.01561549,-0.009600
 57,-0.02186914,0.00690543,0.00940191,-0.01565001,-0.06121892,-0.078625
 46,-0.00291418,0.14671606,0.17408600,-0.01238738,0.02693837,0.00831535
 ,-0.12803892,0.11721808,0.03634959,0.01262512,-0.01362691,-0.00422442,
 -0.00150410,-0.00341653,-0.00096348,-0.00051623,-0.00082895,-0.0002536
 4,-0.00546452,-0.00156374,-0.00037744,0.13575589,-0.00317539,0.0025302
 3,-0.00033942,0.11921000,-0.25356847,-0.06637904,0.01217369,-0.0169910
 5,-0.00591899,-0.00375672,-0.00167667,-0.00264776,-0.00060024,0.000067
 57,0.00025725,-0.00090715,0.00163468,-0.00130192,-0.12436021,0.2682741
 1,-0.00082803,-0.00059545,0.00356113,0.03695758,-0.06635813,-0.0586907
 7,0.00360180,-0.00570628,0.00040946,-0.00106696,-0.00265059,0.00635876
 ,-0.00018270,0.00025941,-0.00068205,-0.00017850,-0.00129728,0.00555559
 ,-0.03868963,0.07456755,0.04905625,-0.00069677,-0.00248987,-0.00068910
 ,-0.00068653,-0.00094668,-0.00028712,-0.00584659,-0.00126708,-0.000275
 55,-0.01038265,0.02795274,0.00859905,-0.13045822,0.11624147,0.03607777
 ,0.01160985,-0.01505962,-0.00464319,0.00008079,0.00012075,0.00002764,0
 .13520450,-0.00320956,-0.00091917,-0.00244412,-0.00083828,0.00005969,0
 .00021857,-0.00026397,0.00202955,-0.00147159,-0.00191486,0.00418600,0.
 00032669,0.11584420,-0.24785293,-0.06517609,0.01492762,-0.01766477,-0.
 00641851,0.00007436,-0.00008593,0.00027335,-0.12453271,0.26078958,-0.0
 0090732,-0.00245092,0.00648879,-0.00025324,0.00021926,-0.00056798,0.00
 002736,-0.00146371,0.00644024,-0.00046701,0.00007428,0.00318899,0.0359
 5771,-0.06517869,-0.05643806,0.00445902,-0.00616425,0.00115661,0.00001
 342,0.00027298,-0.00090581,-0.03872754,0.07249830,0.04773619,0.0010239
 5,-0.00623498,-0.00185070,-0.01332986,-0.00882882,-0.00256174,-0.19856
 178,0.00005862,0.00120976,-0.01247683,0.00943894,0.00298279,0.00204428
 ,0.00205962,0.00065494,0.00277948,0.00111538,0.00031004,0.00048958,0.0
 0112221,0.00031311,0.00081305,-0.00048595,-0.00015167,0.53093725,-0.00
 417763,-0.00159600,-0.00233779,-0.01983861,0.00554133,0.00150650,0.000
 25137,-0.06731502,-0.00198420,0.01934529,0.00689255,0.00155854,0.00467
 847,-0.00323257,-0.00278092,0.00002019,-0.00338172,-0.00083548,-0.0020
 4632,-0.00246733,0.00016179,0.00122788,0.00002291,-0.00008996,0.001129
 97,0.55314006,-0.00122401,-0.00232312,0.00553153,-0.00590076,0.0014048
 1,0.00161375,0.00123983,-0.00197813,-0.06139274,0.00598498,0.00165541,
 0.00165362,0.00145328,-0.00275976,0.00494934,-0.00002459,-0.00084417,-
 0.00088708,-0.00065217,0.00013853,-0.00290151,0.00036838,-0.00007596,0
 .00025984,-0.00272016,0.12381569,0.18399938,0.00173887,0.00214236,0.00
 063174,-0.00235060,0.00185585,0.00059225,-0.01972301,0.02634771,0.0082
 2565,-0.00371851,-0.00413262,-0.00121363,-0.00165518,0.00067131,0.0002
 1522,-0.00091212,0.00057115,0.00018012,-0.00154478,0.00038657,0.000134
 11,-0.00068647,0.00014205,0.00004786,-0.13851124,0.11526170,0.03578329
 ,0.65310235,0.00016785,-0.00097712,-0.00022942,-0.00082407,-0.00367608
 ,-0.00127358,0.01180477,-0.00082350,-0.00241599,-0.00067668,0.00147816
 ,0.00013530,0.00037904,0.00071600,0.00028272,0.00041566,0.00028770,0.0
 0012998,-0.00014912,0.00079843,0.00031877,0.00017410,-0.00007620,0.000
 01220,0.07611410,-0.24306396,-0.06039520,-0.10736797,0.32231695,0.0000
 3217,-0.00024589,-0.00030061,-0.00022500,-0.00129369,0.00014562,0.0038
 0903,-0.00253366,0.00600261,-0.00016893,0.00016439,0.00110305,0.000128
 25,0.00028157,-0.00014163,0.00013332,0.00012730,-0.00011454,-0.0000304
 7,0.00030659,-0.00012263,0.00005751,0.00001250,-0.00011787,0.02387238,
 -0.06068132,-0.06509646,-0.03746847,0.08999253,0.05687737,0.00003506,-
 0.00010531,-0.00003151,0.00054044,0.00019046,0.00004846,0.00203595,0.0
 0336607,0.00104190,-0.00116746,-0.00064177,-0.00018111,0.00002873,0.00
 055552,0.00016463,0.00008405,-0.00004993,-0.00001552,0.00008828,-0.000
 01317,-0.00000601,-0.00010970,-0.00002429,-0.00000694,-0.01867402,-0.0
 0701714,-0.00198649,-0.50427665,0.00751522,0.00607022,0.51724663,0.000
 15715,0.00041469,0.00014657,-0.00064045,-0.00027537,0.00001124,0.00000
 518,-0.00287273,-0.00232039,0.00080087,0.00043127,-0.00003118,0.000048
 43,-0.00027884,0.00008054,-0.00014700,-0.00005983,-0.00004948,0.000324
 30,0.00044595,0.00016414,0.00005205,0.00000022,0.00001506,0.03314426,0
 .00084241,0.00004538,-0.02853798,-0.02860467,-0.00561204,-0.00118233,0
 .03105928,0.00004772,0.00014841,-0.00002718,-0.00020209,0.00000465,-0.
 00029060,0.00002897,-0.00234928,0.00404472,0.00025874,-0.00002027,0.00
 050410,0.00000939,0.00007582,-0.00052277,-0.00004451,-0.00004990,0.000
 09283,0.00009662,0.00016692,-0.00005601,0.00001632,0.00001567,-0.00004
 614,0.01021974,0.00035457,-0.00011962,-0.00490155,-0.00588768,-0.01116
 073,-0.00425594,0.00711786,0.00986477,-0.00094603,0.00120761,0.0003768
 1,-0.00371470,0.00352460,0.00111011,-0.01994759,-0.02615985,-0.0077488
 4,-0.00213414,-0.00200962,-0.00059205,0.00094318,-0.00047100,-0.000151
 34,-0.00087960,-0.00131186,-0.00039260,0.00016015,-0.00008046,-0.00002
 616,-0.00025667,0.00017558,0.00005515,-0.13979307,-0.11644883,-0.03475
 615,0.01585294,0.00843282,0.00262344,0.00325663,-0.00266174,-0.0008674
 6,0.65381184,-0.00018806,0.00144264,0.00047143,0.00076286,0.00137747,0
 .00010535,-0.01171118,-0.00070784,-0.00216162,0.00067312,-0.00399908,-
 0.00139483,-0.00057513,0.00045018,0.00022403,-0.00044091,-0.00021853,-
 0.00001098,0.00065646,0.00052594,0.00011940,-0.00033483,0.00011722,0.0
 0003839,-0.07705875,-0.24209651,-0.05898186,-0.00905299,-0.05272556,-0
 .02312494,-0.00393743,0.00266680,0.00218620,0.10628171,0.32136759,-0.0
 0005120,0.00046222,0.00003717,0.00027179,0.00008663,0.00103346,-0.0033
 4466,-0.00204289,0.00610210,0.00022672,-0.00137642,0.00015837,-0.00018
 363,0.00022155,-0.00019752,-0.00012874,-0.00000563,-0.00017175,0.00019
 982,0.00012662,0.00014897,-0.00009979,0.00003449,0.00001103,-0.0227499
 0,-0.05866343,-0.06426381,-0.00269399,-0.02325452,0.01639808,-0.001258
 92,0.00217377,-0.00374270,0.02739613,0.08810506,0.05604491,0.00012547,
 -0.00046045,-0.00014507,-0.00119704,0.00057227,0.00018757,0.00201295,-
 0.00339403,-0.00101541,0.00056634,-0.00018308,-0.00006144,-0.00003732,
 0.00010293,0.00003094,0.00005949,0.00009182,0.00002814,-0.00003013,-0.
 00009300,-0.00002605,-0.00001600,-0.00000149,-0.00000010,-0.01901931,0
 .00706488,0.00231194,0.00334076,0.00396608,0.00114523,0.00094904,-0.00
 129335,-0.00038723,-0.50365483,-0.00494086,0.00244171,0.51692858,-0.00
 008754,-0.00035075,0.00005953,-0.00078443,0.00041187,-0.00001996,-0.00
 009068,-0.00285835,-0.00231633,0.00055821,-0.00025513,0.00002418,0.000
 00640,0.00020186,0.00006066,0.00013670,0.00000438,-0.00002317,-0.00007
 768,-0.00003091,-0.00008588,0.00003707,-0.00001302,-0.00001322,-0.0331
 2799,0.00098056,0.00058579,0.00268837,0.00263771,0.00213313,0.00124962
 ,-0.00358078,-0.00162835,0.03117033,-0.02890318,-0.00616880,-0.0014090
 4,0.03125435,-0.00003118,0.00006022,-0.00052378,-0.00022771,-0.0000311
 8,0.00049382,0.00000024,-0.00228679,0.00404262,0.00016385,0.00002811,-
 0.00033688,0.00000109,0.00006034,0.00001890,0.00004224,-0.00002190,0.0
 0007080,-0.00002119,-0.00008546,0.00022706,0.00001160,-0.00001296,0.00
 002557,-0.00995521,0.00025867,0.00010132,0.00075578,0.00212105,-0.0037
 9648,0.00038636,-0.00160835,0.00124797,0.01346019,-0.00587276,-0.01140
 587,-0.00450287,0.00718921,0.00993607,-0.01290061,-0.00371530,-0.00099
 228,0.00069930,0.00290391,0.00092453,0.00068742,0.00001246,-0.00001180
 ,0.00084627,-0.00272967,-0.00077467,-0.01006282,0.00192917,0.00070294,
 -0.34382674,-0.00150707,0.00214859,-0.00051687,-0.00013573,-0.00003548
 ,0.00078509,-0.00033046,-0.00014205,0.00010088,-0.00000092,-0.00000738
 ,-0.00010077,0.00004283,0.00001450,-0.00000078,-0.00002692,-0.00000811
 ,-0.00009501,-0.00003090,-0.00000820,0.00000054,0.00002460,0.00000734,
 0.36361194,0.02677677,0.00321972,-0.00021625,0.00197089,-0.00407290,-0
 .00300991,-0.00008823,-0.00103395,0.00004313,-0.00197732,-0.00375851,-
 0.00331783,-0.02694581,0.00493835,0.00058619,-0.00438309,-0.05635546,-
 0.00604516,0.00132434,0.00029263,0.00003033,0.00029584,0.00031785,0.00
 133167,-0.00001683,-0.00032614,0.00012681,0.00003981,0.00010398,0.0000
 0688,-0.00000105,0.00002423,0.00000592,-0.00004036,0.00010708,0.000016
 66,0.00000083,0.00002037,0.00001040,0.00339463,0.05639039,0.00826062,0
 .00004382,0.00312765,0.00064364,-0.00301648,0.00486579,-0.00004302,0.0
 0004190,-0.00115992,-0.00054593,-0.00331191,0.00622645,-0.00806080,0.0
 0034174,0.00392868,0.00127367,-0.00607057,-0.03817317,0.00040741,0.000
 04266,0.00016515,0.00004884,0.00133754,-0.00367280,-0.00001196,0.00012
 668,-0.00070494,0.00001389,0.00000680,0.00008226,-0.00000030,0.0000061
 3,0.00000652,-0.00001118,0.00001649,0.00005836,0.00000020,0.00001016,-
 0.00001079,-0.00184101,0.00962696,0.02752063,-0.00087221,0.00095662,0.
 00029514,-0.00135535,0.00332026,0.00107776,0.01241375,0.01383026,0.004
 10416,-0.13042534,-0.11743280,-0.03486343,-0.01086852,-0.02731912,-0.0
 0816813,-0.00544005,0.00120939,0.00047285,0.00058497,0.00079098,0.0002
 3775,0.00065113,0.00034989,0.00006728,0.00025791,0.00182370,0.00053109
 ,0.00020244,-0.00058799,-0.00017981,-0.00002141,0.00005904,0.00002011,
 -0.00145909,0.00027256,0.00008905,0.00007901,-0.00029050,-0.00008975,-
 0.00054013,-0.00129786,-0.00038910,0.13660027,0.00094926,0.00020585,0.
 00014968,0.00366799,-0.00206203,-0.00274491,-0.01297534,-0.01771276,-0
 .00581847,-0.11653343,-0.25173815,-0.06367613,0.00246257,0.00451717,0.
 00021572,0.00062625,0.00189999,-0.00156784,-0.00084503,-0.00082975,-0.
 00034091,-0.00038589,0.00038694,0.00133125,-0.00140038,-0.00261773,0.0
 0006247,0.00016175,0.00055100,0.00013753,0.00010228,-0.00004081,-0.000
 08565,-0.00028712,0.00097441,0.00036371,0.00001621,0.00044635,0.000166
 88,0.00020565,0.00011129,0.00001718,0.12442969,0.26600515,0.00029357,0
 .00014879,-0.00026976,0.00118300,-0.00274272,0.00603569,-0.00402875,-0
 .00604842,0.00002455,-0.03459038,-0.06366895,-0.05771241,0.00087055,0.
 00046887,0.00387180,0.00029602,-0.00157160,0.00656754,-0.00025864,-0.0
 0035495,0.00021192,-0.00015672,0.00132493,-0.00358524,-0.00044855,0.00
 003232,-0.00276811,0.00004856,0.00014293,0.00013780,0.00003295,-0.0000
 8531,0.00021245,-0.00008359,0.00036618,-0.00010130,0.00000382,0.000168
 90,-0.00005291,0.00006745,0.00003006,0.00005736,0.03683910,0.07153628,
 0.04821903,-0.06615426,-0.04520337,-0.01334465,-0.01930524,-0.03697175
 ,-0.01102735,-0.00403495,0.00528324,0.00168387,0.00096155,-0.00163814,
 -0.00051121,-0.00083831,0.00065830,0.00024801,0.00453248,0.00249251,0.
 00075032,0.00021816,-0.00068215,-0.00023244,-0.00000481,0.00008788,0.0
 0002806,0.00191971,-0.00127400,-0.00040108,-0.00075803,0.00059336,0.00
 018664,-0.00001480,-0.00010151,-0.00003072,-0.00114402,-0.00037567,-0.
 00010621,-0.00010755,-0.00000346,-0.00000077,0.00131228,0.00094745,0.0
 0025503,0.00019262,-0.00019446,-0.00006838,0.08322516,-0.04472580,-0.1
 1342517,-0.02714809,-0.01097521,-0.01470806,-0.00554459,-0.00183706,0.
 00337890,-0.00053937,-0.00174680,-0.00118246,-0.00012715,0.00709102,0.
 00053344,-0.00137652,-0.02375617,-0.03598459,-0.01188951,0.00037857,0.
 00108059,0.00113978,-0.00108521,-0.00129793,-0.00043264,0.00297061,-0.
 00132283,-0.00047671,-0.00117707,0.00105715,0.00032913,-0.00000674,-0.
 00017182,-0.00005489,-0.00132182,-0.00037862,-0.00007901,-0.00003971,0
 .00003466,0.00002454,-0.00003626,0.00002107,0.00078090,-0.00011412,-0.
 00009691,0.00025271,0.07638178,0.16246258,-0.01319967,-0.02714518,-0.0
 3083493,-0.00313369,-0.00532354,0.00227184,-0.00047932,-0.00060044,0.0
 0503313,-0.00054487,-0.00012865,-0.00074703,0.00220168,-0.00132152,0.0
 0444922,-0.00721802,-0.01211226,0.00023078,0.00008887,0.00114842,-0.00
 233551,-0.00032809,-0.00044281,0.00002663,0.00088711,-0.00044165,0.000
 02550,-0.00035084,0.00031412,0.00010416,-0.00000179,-0.00005392,-0.000
 00761,-0.00039244,-0.00008554,-0.00010951,-0.00001139,0.00002417,-0.00
 003742,-0.00004437,0.00077416,-0.00231724,-0.00004407,0.00025321,-0.00
 084839,0.02257089,0.04514141,0.02509638\\0.00000097,-0.00003246,-0.000
 01367,0.00000120,0.00000564,0.00000813,-0.00003945,0.00001370,0.000054
 18,0.00002651,-0.00003709,-0.00000383,-0.00002807,-0.00000347,-0.00000
 528,0.00000287,0.00003359,0.00001047,-0.00000473,-0.00000213,-0.000001
 24,0.00000767,0.00000276,0.00000072,0.00009579,0.00006104,-0.00013723,
 -0.00005025,-0.00002263,0.00003519,0.00002377,0.00000066,0.00000784,-0
 .00005376,-0.00001362,0.00004480,0.00002448,-0.00000844,0.00000008,0.0
 0000004,-0.00000656,-0.00000149,-0.00000407,0.00001004,0.00000320,-0.0
 0000298,-0.00000101,-0.00000188\\\@


 THE MOST BEAUTIFUL EXPERIENCE WE CAN HAVE IS THE MYSTERIOUS.
 IT IS THE FUNDAMENTAL EMOTION WHICH STANDS AT AT THE CRADLE 
 OF TRUE ART AND TRUE SCIENCE.

                                    -- ALBERT EINSTEIN
 Job cpu time:       0 days  0 hours 34 minutes 46.7 seconds.
 Elapsed time:       0 days  0 hours  1 minutes  9.6 seconds.
 File lengths (MBytes):  RWF=     84 Int=      0 D2E=      0 Chk=      5 Scr=      1
 Normal termination of Gaussian 16 at Fri Sep 15 03:44:38 2023.
