 Entering Gaussian System, Link 0=/home/ubuntu/g16/g16
 Input=/home/ubuntu/ML substrates/MOLECULE_11.gjf
 Output=/home/ubuntu/ML substrates/MOLECULE_11.log
 Initial command:
 /home/ubuntu/g16/l1.exe "/home/ubuntu/Scratch/Gau-22475.inp" -scrdir="/home/ubuntu/Scratch/"
 Entering Link 1 = /home/ubuntu/g16/l1.exe PID=     22479.
  
 Copyright (c) 1988-2017, Gaussian, Inc.  All Rights Reserved.
  
 This is part of the Gaussian(R) 16 program.  It is based on
 the Gaussian(R) 09 system (copyright 2009, Gaussian, Inc.),
 the Gaussian(R) 03 system (copyright 2003, Gaussian, Inc.),
 the Gaussian(R) 98 system (copyright 1998, Gaussian, Inc.),
 the Gaussian(R) 94 system (copyright 1995, Gaussian, Inc.),
 the Gaussian 92(TM) system (copyright 1992, Gaussian, Inc.),
 the Gaussian 90(TM) system (copyright 1990, Gaussian, Inc.),
 the Gaussian 88(TM) system (copyright 1988, Gaussian, Inc.),
 the Gaussian 86(TM) system (copyright 1986, Carnegie Mellon
 University), and the Gaussian 82(TM) system (copyright 1983,
 Carnegie Mellon University). Gaussian is a federally registered
 trademark of Gaussian, Inc.
  
 This software contains proprietary and confidential information,
 including trade secrets, belonging to Gaussian, Inc.
  
 This software is provided under written license and may be
 used, copied, transmitted, or stored only in accord with that
 written license.
  
 The following legend is applicable only to US Government
 contracts under FAR:
  
                    RESTRICTED RIGHTS LEGEND
  
 Use, reproduction and disclosure by the US Government is
 subject to restrictions as set forth in subparagraphs (a)
 and (c) of the Commercial Computer Software - Restricted
 Rights clause in FAR 52.227-19.
  
 Gaussian, Inc.
 340 Quinnipiac St., Bldg. 40, Wallingford CT 06492
  
  
 ---------------------------------------------------------------
 Warning -- This program may not be used in any manner that
 competes with the business of Gaussian, Inc. or will provide
 assistance to any competitor of Gaussian, Inc.  The licensee
 of this program is prohibited from giving any competitor of
 Gaussian, Inc. access to this program.  By using this program,
 the user acknowledges that Gaussian, Inc. is engaged in the
 business of creating and licensing software in the field of
 computational chemistry and represents and warrants to the
 licensee that it is not a competitor of Gaussian, Inc. and that
 it will not use this program in any manner prohibited above.
 ---------------------------------------------------------------
  

 Cite this work as:
 Gaussian 16, Revision B.01,
 M. J. Frisch, G. W. Trucks, H. B. Schlegel, G. E. Scuseria, 
 M. A. Robb, J. R. Cheeseman, G. Scalmani, V. Barone, 
 G. A. Petersson, H. Nakatsuji, X. Li, M. Caricato, A. V. Marenich, 
 J. Bloino, B. G. Janesko, R. Gomperts, B. Mennucci, H. P. Hratchian, 
 J. V. Ortiz, A. F. Izmaylov, J. L. Sonnenberg, D. Williams-Young, 
 F. Ding, F. Lipparini, F. Egidi, J. Goings, B. Peng, A. Petrone, 
 T. Henderson, D. Ranasinghe, V. G. Zakrzewski, J. Gao, N. Rega, 
 G. Zheng, W. Liang, M. Hada, M. Ehara, K. Toyota, R. Fukuda, 
 J. Hasegawa, M. Ishida, T. Nakajima, Y. Honda, O. Kitao, H. Nakai, 
 T. Vreven, K. Throssell, J. A. Montgomery, Jr., J. E. Peralta, 
 F. Ogliaro, M. J. Bearpark, J. J. Heyd, E. N. Brothers, K. N. Kudin, 
 V. N. Staroverov, T. A. Keith, R. Kobayashi, J. Normand, 
 K. Raghavachari, A. P. Rendell, J. C. Burant, S. S. Iyengar, 
 J. Tomasi, M. Cossi, J. M. Millam, M. Klene, C. Adamo, R. Cammi, 
 J. W. Ochterski, R. L. Martin, K. Morokuma, O. Farkas, 
 J. B. Foresman, and D. J. Fox, Gaussian, Inc., Wallingford CT, 2016.
 
 ******************************************
 Gaussian 16:  EM64L-G16RevB.01 20-Dec-2017
                14-Sep-2023 
 ******************************************
 %nprocshared=30
 Will use up to   30 processors via shared memory.
 %mem=30GB
 %chk=MOLECULE_11.chk
 ----------------------------------------------------------------
 # opt freq b3lyp/6-31+g(d) nosymm empiricaldispersion=gd3 volume
 ----------------------------------------------------------------
 1/18=20,19=15,26=3,38=1/1,3;
 2/9=110,12=2,15=1,17=6,18=5,40=1/2;
 3/5=1,6=6,7=11,11=2,25=1,30=1,71=1,74=-5,124=31/1,2,3;
 4//1;
 5/5=2,38=5/2;
 6/7=2,8=2,9=2,10=2,28=1,44=1/1,4;
 7/30=1/1,2,3,16;
 1/18=20,19=15,26=3/3(2);
 2/9=110,15=1/2;
 99//99;
 2/9=110,15=1/2;
 3/5=1,6=6,7=11,11=2,25=1,30=1,71=1,74=-5,124=31/1,2,3;
 4/5=5,16=3,69=1/1;
 5/5=2,38=5/2;
 7/30=1/1,2,3,16;
 1/18=20,19=15,26=3/3(-5);
 2/9=110,15=1/2;
 6/7=2,8=2,9=2,10=2,19=2,28=1,44=1/1,4;
 99/9=1/99;
 -----------
 molecule_11
 -----------
 Symbolic Z-matrix:
 Charge =  0 Multiplicity = 1
 C                    -0.18979  -0.70115   0.5795 
 C                     1.19816  -0.60388   0.64364 
 C                     1.88544   0.42069  -0.04149 
 C                     1.1328    1.34495  -0.79302 
 C                    -0.25829   1.25238  -0.86002 
 C                    -0.93537   0.22671  -0.17361 
 H                    -0.72511  -1.48552   1.10283 
 H                     1.76934  -1.31969   1.22488 
 H                     1.65233   2.13598  -1.32308 
 H                    -0.81136   1.9785   -1.44562 
 B                     3.43265   0.52856   0.03044 
 O                     4.05162   1.55754  -0.66757 
 H                     5.01695   1.66479  -0.65117 
 O                     4.12093  -0.40828   0.78891 
 H                     5.08894  -0.38173   0.86463 
 C                    -2.42023   0.08405  -0.2131 
 O                    -2.98917  -0.84008   0.40471 
 C                    -3.23816   1.07757  -1.01392 
 H                    -3.08741   2.09943  -0.64527 
 H                    -2.94988   1.0639   -2.07197 
 H                    -4.29326   0.8151   -0.92525 
 

 GradGradGradGradGradGradGradGradGradGradGradGradGradGradGradGradGradGrad
 Berny optimization.
 Initialization pass.
                           ----------------------------
                           !    Initial Parameters    !
                           ! (Angstroms and Degrees)  !
 --------------------------                            --------------------------
 ! Name  Definition              Value          Derivative Info.                !
 --------------------------------------------------------------------------------
 ! R1    R(1,2)                  1.3928         estimate D2E/DX2                !
 ! R2    R(1,6)                  1.4085         estimate D2E/DX2                !
 ! R3    R(1,7)                  1.0843         estimate D2E/DX2                !
 ! R4    R(2,3)                  1.4112         estimate D2E/DX2                !
 ! R5    R(2,8)                  1.0847         estimate D2E/DX2                !
 ! R6    R(3,4)                  1.4091         estimate D2E/DX2                !
 ! R7    R(3,11)                 1.5526         estimate D2E/DX2                !
 ! R8    R(4,5)                  1.3958         estimate D2E/DX2                !
 ! R9    R(4,9)                  1.0847         estimate D2E/DX2                !
 ! R10   R(5,6)                  1.4077         estimate D2E/DX2                !
 ! R11   R(5,10)                 1.0845         estimate D2E/DX2                !
 ! R12   R(6,16)                 1.4922         estimate D2E/DX2                !
 ! R13   R(11,12)                1.3889         estimate D2E/DX2                !
 ! R14   R(11,14)                1.388          estimate D2E/DX2                !
 ! R15   R(12,13)                0.9714         estimate D2E/DX2                !
 ! R16   R(14,15)                0.9713         estimate D2E/DX2                !
 ! R17   R(16,17)                1.2488         estimate D2E/DX2                !
 ! R18   R(16,18)                1.5157         estimate D2E/DX2                !
 ! R19   R(18,19)                1.0967         estimate D2E/DX2                !
 ! R20   R(18,20)                1.0967         estimate D2E/DX2                !
 ! R21   R(18,21)                1.0909         estimate D2E/DX2                !
 ! A1    A(2,1,6)              120.4039         estimate D2E/DX2                !
 ! A2    A(2,1,7)              121.351          estimate D2E/DX2                !
 ! A3    A(6,1,7)              118.2452         estimate D2E/DX2                !
 ! A4    A(1,2,3)              120.9082         estimate D2E/DX2                !
 ! A5    A(1,2,8)              120.2213         estimate D2E/DX2                !
 ! A6    A(3,2,8)              118.8705         estimate D2E/DX2                !
 ! A7    A(2,3,4)              118.3605         estimate D2E/DX2                !
 ! A8    A(2,3,11)             120.8821         estimate D2E/DX2                !
 ! A9    A(4,3,11)             120.7575         estimate D2E/DX2                !
 ! A10   A(3,4,5)              120.9602         estimate D2E/DX2                !
 ! A11   A(3,4,9)              118.8904         estimate D2E/DX2                !
 ! A12   A(5,4,9)              120.1494         estimate D2E/DX2                !
 ! A13   A(4,5,6)              120.2841         estimate D2E/DX2                !
 ! A14   A(4,5,10)             119.3271         estimate D2E/DX2                !
 ! A15   A(6,5,10)             120.3888         estimate D2E/DX2                !
 ! A16   A(1,6,5)              119.0832         estimate D2E/DX2                !
 ! A17   A(1,6,16)             118.5482         estimate D2E/DX2                !
 ! A18   A(5,6,16)             122.3686         estimate D2E/DX2                !
 ! A19   A(3,11,12)            118.1823         estimate D2E/DX2                !
 ! A20   A(3,11,14)            118.1999         estimate D2E/DX2                !
 ! A21   A(12,11,14)           123.6177         estimate D2E/DX2                !
 ! A22   A(11,12,13)           121.0752         estimate D2E/DX2                !
 ! A23   A(11,14,15)           121.2191         estimate D2E/DX2                !
 ! A24   A(6,16,17)            120.731          estimate D2E/DX2                !
 ! A25   A(6,16,18)            119.2281         estimate D2E/DX2                !
 ! A26   A(17,16,18)           120.0409         estimate D2E/DX2                !
 ! A27   A(16,18,19)           111.0364         estimate D2E/DX2                !
 ! A28   A(16,18,20)           111.082          estimate D2E/DX2                !
 ! A29   A(16,18,21)           108.7404         estimate D2E/DX2                !
 ! A30   A(19,18,20)           107.444          estimate D2E/DX2                !
 ! A31   A(19,18,21)           109.2567         estimate D2E/DX2                !
 ! A32   A(20,18,21)           109.2481         estimate D2E/DX2                !
 ! D1    D(6,1,2,3)             -0.0362         estimate D2E/DX2                !
 ! D2    D(6,1,2,8)            179.9687         estimate D2E/DX2                !
 ! D3    D(7,1,2,3)            179.9857         estimate D2E/DX2                !
 ! D4    D(7,1,2,8)             -0.0095         estimate D2E/DX2                !
 ! D5    D(2,1,6,5)              0.0161         estimate D2E/DX2                !
 ! D6    D(2,1,6,16)          -179.9711         estimate D2E/DX2                !
 ! D7    D(7,1,6,5)            179.9949         estimate D2E/DX2                !
 ! D8    D(7,1,6,16)             0.0077         estimate D2E/DX2                !
 ! D9    D(1,2,3,4)              0.0218         estimate D2E/DX2                !
 ! D10   D(1,2,3,11)           179.9994         estimate D2E/DX2                !
 ! D11   D(8,2,3,4)           -179.9831         estimate D2E/DX2                !
 ! D12   D(8,2,3,11)            -0.0054         estimate D2E/DX2                !
 ! D13   D(2,3,4,5)              0.0125         estimate D2E/DX2                !
 ! D14   D(2,3,4,9)           -179.9989         estimate D2E/DX2                !
 ! D15   D(11,3,4,5)          -179.9652         estimate D2E/DX2                !
 ! D16   D(11,3,4,9)             0.0234         estimate D2E/DX2                !
 ! D17   D(2,3,11,12)          179.8887         estimate D2E/DX2                !
 ! D18   D(2,3,11,14)           -0.128          estimate D2E/DX2                !
 ! D19   D(4,3,11,12)           -0.1341         estimate D2E/DX2                !
 ! D20   D(4,3,11,14)          179.8492         estimate D2E/DX2                !
 ! D21   D(3,4,5,6)             -0.0323         estimate D2E/DX2                !
 ! D22   D(3,4,5,10)           179.9459         estimate D2E/DX2                !
 ! D23   D(9,4,5,6)            179.9793         estimate D2E/DX2                !
 ! D24   D(9,4,5,10)            -0.0425         estimate D2E/DX2                !
 ! D25   D(4,5,6,1)              0.0178         estimate D2E/DX2                !
 ! D26   D(4,5,6,16)          -179.9955         estimate D2E/DX2                !
 ! D27   D(10,5,6,1)          -179.9602         estimate D2E/DX2                !
 ! D28   D(10,5,6,16)            0.0265         estimate D2E/DX2                !
 ! D29   D(1,6,16,17)           -0.2119         estimate D2E/DX2                !
 ! D30   D(1,6,16,18)          179.7393         estimate D2E/DX2                !
 ! D31   D(5,6,16,17)          179.8013         estimate D2E/DX2                !
 ! D32   D(5,6,16,18)           -0.2474         estimate D2E/DX2                !
 ! D33   D(3,11,12,13)         179.9462         estimate D2E/DX2                !
 ! D34   D(14,11,12,13)         -0.0361         estimate D2E/DX2                !
 ! D35   D(3,11,14,15)        -179.9714         estimate D2E/DX2                !
 ! D36   D(12,11,14,15)          0.0109         estimate D2E/DX2                !
 ! D37   D(6,16,18,19)         -59.7755         estimate D2E/DX2                !
 ! D38   D(6,16,18,20)          59.7284         estimate D2E/DX2                !
 ! D39   D(6,16,18,21)         179.9851         estimate D2E/DX2                !
 ! D40   D(17,16,18,19)        120.1761         estimate D2E/DX2                !
 ! D41   D(17,16,18,20)       -120.3201         estimate D2E/DX2                !
 ! D42   D(17,16,18,21)         -0.0633         estimate D2E/DX2                !
 --------------------------------------------------------------------------------
 Trust Radius=3.00D-01 FncErr=1.00D-07 GrdErr=1.00D-06 EigMax=2.50D+02 EigMin=1.00D-04
 Number of steps in this run=    105 maximum allowed number of steps=    126.
 GradGradGradGradGradGradGradGradGradGradGradGradGradGradGradGradGradGrad

                          Input orientation:                          
 ---------------------------------------------------------------------
 Center     Atomic      Atomic             Coordinates (Angstroms)
 Number     Number       Type             X           Y           Z
 ---------------------------------------------------------------------
      1          6           0       -0.189785   -0.701152    0.579502
      2          6           0        1.198156   -0.603879    0.643637
      3          6           0        1.885443    0.420686   -0.041489
      4          6           0        1.132798    1.344949   -0.793018
      5          6           0       -0.258291    1.252378   -0.860021
      6          6           0       -0.935373    0.226706   -0.173608
      7          1           0       -0.725111   -1.485521    1.102826
      8          1           0        1.769338   -1.319692    1.224883
      9          1           0        1.652334    2.135984   -1.323084
     10          1           0       -0.811362    1.978502   -1.445622
     11          5           0        3.432651    0.528558    0.030435
     12          8           0        4.051621    1.557542   -0.667567
     13          1           0        5.016948    1.664788   -0.651166
     14          8           0        4.120929   -0.408279    0.788910
     15          1           0        5.088938   -0.381728    0.864626
     16          6           0       -2.420234    0.084049   -0.213102
     17          8           0       -2.989170   -0.840077    0.404713
     18          6           0       -3.238160    1.077570   -1.013922
     19          1           0       -3.087411    2.099430   -0.645271
     20          1           0       -2.949882    1.063896   -2.071973
     21          1           0       -4.293258    0.815104   -0.925253
 ---------------------------------------------------------------------
                    Distance matrix (angstroms):
                    1          2          3          4          5
     1  C    0.000000
     2  C    1.392823   0.000000
     3  C    2.439410   1.411203   0.000000
     4  C    2.796349   2.422020   1.409089   0.000000
     5  C    2.427591   2.797841   2.440758   1.395775   0.000000
     6  C    1.408544   2.430989   2.830563   2.431351   1.407695
     7  H    1.084286   2.164972   3.429005   3.880414   3.400997
     8  H    2.153432   1.084658   2.155480   3.402561   3.882480
     9  H    3.881054   3.403104   2.153851   1.084723   2.155383
    10  H    3.415850   3.882249   3.416305   2.146402   1.084469
    11  B    3.864674   2.579030   1.552631   2.575634   3.865214
    12  O    4.964515   3.812251   2.525221   2.929242   4.324986
    13  H    5.849982   4.626720   3.424298   3.899877   5.295455
    14  O    4.325723   2.932911   2.524707   3.808573   4.965312
    15  H    5.296059   3.903380   3.424514   4.623877   5.851288
    16  C    2.493926   3.781533   4.322225   3.814473   2.541160
    17  O    2.808275   4.200782   5.054747   4.816588   3.665463
    18  C    3.872395   5.025502   5.256275   4.384697   2.988957
    19  H    4.211836   5.228312   5.283182   4.289666   2.961002
    20  H    4.214718   5.230892   5.283650   4.287539   2.957873
    21  H    4.626209   5.884773   6.254035   5.453467   4.059116
                    6          7          8          9         10
     6  C    0.000000
     7  H    2.145977   0.000000
     8  H    3.415053   2.502933   0.000000
     9  H    3.415094   4.965137   4.295058   0.000000
    10  H    2.168453   4.301335   4.966859   2.471763   0.000000
    11  B    4.383193   4.742734   2.758504   2.754153   4.721518
    12  O    5.185097   5.933944   4.131423   2.553601   4.942791
    13  H    6.142171   6.780278   4.793084   3.463254   5.890567
    14  O    5.186120   4.974243   2.559439   4.126470   5.917546
    15  H    6.143325   5.922691   3.468329   4.789070   6.761765
    16  C    1.492221   2.658695   4.646590   4.693432   2.774261
    17  O    2.385490   2.455590   4.852433   5.778043   4.013848
    18  C    2.594788   4.167190   5.986163   5.013258   2.624384
    19  H    2.891510   4.635534   6.227028   4.788105   2.415695
    20  H    2.891872   4.639879   6.230713   4.784412   2.408752
    21  H    3.490927   4.705067   6.777574   6.103528   3.707813
                   11         12         13         14         15
    11  B    0.000000
    12  O    1.388934   0.000000
    13  H    2.065332   0.971405   0.000000
    14  O    1.388047   2.447566   2.678484   0.000000
    15  H    2.065861   2.680375   2.547751   0.971329   0.000000
    16  C    5.874790   6.653016   7.615925   6.635754   7.600402
    17  O    6.576704   7.514725   8.455008   7.133552   8.104161
    18  C    6.774350   7.313771   8.283914   7.721019   8.660199
    19  H    6.740581   7.159603   8.116008   7.765671   8.676901
    20  H    6.741175   7.158009   8.114810   7.768418   8.679635
    21  H    7.790065   8.381803   9.352915   8.673728   9.626093
                   16         17         18         19         20
    16  C    0.000000
    17  O    1.248756   0.000000
    18  C    1.515718   2.398310   0.000000
    19  H    2.166485   3.122950   1.096735   0.000000
    20  H    2.167032   3.124201   1.096706   1.768254   0.000000
    21  H    2.133031   2.491802   1.090863   1.783802   1.783683
                   21
    21  H    0.000000
 Symmetry turned off by external request.
 Stoichiometry    C8H9BO3
 Framework group  C1[X(C8H9BO3)]
 Deg. of freedom    57
 Full point group                 C1      NOp   1
 Rotational constants (GHZ):           2.6675647           0.4407043           0.3791140
 Standard basis: 6-31+G(d) (6D, 7F)
   246 basis functions,   420 primitive gaussians,   246 cartesian basis functions
    43 alpha electrons       43 beta electrons
       nuclear repulsion energy       623.6959279797 Hartrees.
 NAtoms=   21 NActive=   21 NUniq=   21 SFac= 1.00D+00 NAtFMM=   60 NAOKFM=F Big=F
 Integral buffers will be    131072 words long.
 Raffenetti 2 integral format.
 Two-electron integral symmetry is turned off.
 Nuclear repulsion after empirical dispersion term =      623.6795120286 Hartrees.
 One-electron integrals computed using PRISM.
 NBasis=   246 RedAO= T EigKep=  1.86D-06  NBF=   246
 NBsUse=   246 1.00D-06 EigRej= -1.00D+00 NBFU=   246
 ExpMin= 3.15D-02 ExpMax= 5.48D+03 ExpMxC= 8.25D+02 IAcc=3 IRadAn=         5 AccDes= 0.00D+00
 Harris functional with IExCor=  402 and IRadAn=       5 diagonalized for initial guess.
 HarFok:  IExCor=  402 AccDes= 0.00D+00 IRadAn=         5 IDoV= 1 UseB2=F ITyADJ=14
 ICtDFT=  3500011 ScaDFX=  1.000000  1.000000  1.000000  1.000000
 FoFCou: FMM=F IPFlag=           0 FMFlag=      100000 FMFlg1=           0
         NFxFlg=           0 DoJE=T BraDBF=F KetDBF=T FulRan=T
         wScrn=  0.000000 ICntrl=       500 IOpCl=  0 I1Cent=   200000004 NGrid=           0
         NMat0=    1 NMatS0=      1 NMatT0=    0 NMatD0=    1 NMtDS0=    0 NMtDT0=    0
 Symmetry not used in FoFCou.
 Requested convergence on RMS density matrix=1.00D-08 within 128 cycles.
 Requested convergence on MAX density matrix=1.00D-06.
 Requested convergence on             energy=1.00D-06.
 No special actions if energy rises.
 SCF Done:  E(RB3LYP) =  -560.950077052     A.U. after   16 cycles
            NFock= 16  Conv=0.60D-08     -V/T= 2.0098

 **********************************************************************

            Population analysis using the SCF Density.

 **********************************************************************

 Alpha  occ. eigenvalues --  -19.18510 -19.18475 -19.14541 -10.28516 -10.21180
 Alpha  occ. eigenvalues --  -10.20949 -10.20437 -10.20206 -10.20124 -10.19504
 Alpha  occ. eigenvalues --  -10.19020  -6.81252  -1.05185  -1.02937  -1.02115
 Alpha  occ. eigenvalues --   -0.86495  -0.77927  -0.75683  -0.73639  -0.64337
 Alpha  occ. eigenvalues --   -0.61739  -0.58829  -0.56560  -0.55711  -0.50332
 Alpha  occ. eigenvalues --   -0.46540  -0.45909  -0.45338  -0.44717  -0.43108
 Alpha  occ. eigenvalues --   -0.42332  -0.41541  -0.40766  -0.38922  -0.37955
 Alpha  occ. eigenvalues --   -0.35790  -0.35062  -0.34650  -0.34446  -0.34205
 Alpha  occ. eigenvalues --   -0.26617  -0.26234  -0.25677
 Alpha virt. eigenvalues --   -0.07806  -0.03389  -0.01832   0.00169   0.00282
 Alpha virt. eigenvalues --    0.01034   0.02360   0.02877   0.03824   0.04737
 Alpha virt. eigenvalues --    0.05561   0.05594   0.06564   0.07818   0.08499
 Alpha virt. eigenvalues --    0.09308   0.09400   0.10012   0.10171   0.11308
 Alpha virt. eigenvalues --    0.11900   0.12391   0.12581   0.13033   0.14426
 Alpha virt. eigenvalues --    0.14894   0.15039   0.15509   0.16174   0.16630
 Alpha virt. eigenvalues --    0.17037   0.18174   0.18269   0.18932   0.19957
 Alpha virt. eigenvalues --    0.20005   0.20553   0.21399   0.22049   0.22466
 Alpha virt. eigenvalues --    0.22618   0.22975   0.23382   0.23862   0.23961
 Alpha virt. eigenvalues --    0.24356   0.24944   0.25802   0.26852   0.28375
 Alpha virt. eigenvalues --    0.28631   0.29352   0.30209   0.31051   0.31653
 Alpha virt. eigenvalues --    0.31684   0.31920   0.31976   0.33291   0.34732
 Alpha virt. eigenvalues --    0.34781   0.35634   0.36292   0.38583   0.41336
 Alpha virt. eigenvalues --    0.42632   0.44245   0.45525   0.45849   0.47784
 Alpha virt. eigenvalues --    0.48323   0.50385   0.56906   0.60903   0.62907
 Alpha virt. eigenvalues --    0.65160   0.67276   0.68801   0.68947   0.69428
 Alpha virt. eigenvalues --    0.69918   0.71439   0.72647   0.72942   0.75170
 Alpha virt. eigenvalues --    0.76163   0.77481   0.78105   0.79105   0.80306
 Alpha virt. eigenvalues --    0.83257   0.83838   0.89079   0.90298   0.91249
 Alpha virt. eigenvalues --    0.94036   0.94364   0.96312   0.98493   1.01641
 Alpha virt. eigenvalues --    1.01868   1.03805   1.06692   1.08004   1.09180
 Alpha virt. eigenvalues --    1.11058   1.11885   1.12825   1.13349   1.15645
 Alpha virt. eigenvalues --    1.16642   1.18509   1.21679   1.21859   1.24136
 Alpha virt. eigenvalues --    1.24771   1.25946   1.26728   1.27323   1.28554
 Alpha virt. eigenvalues --    1.29920   1.33748   1.34160   1.35421   1.36513
 Alpha virt. eigenvalues --    1.38991   1.41972   1.42827   1.44364   1.45812
 Alpha virt. eigenvalues --    1.46418   1.48236   1.49745   1.50032   1.53854
 Alpha virt. eigenvalues --    1.57728   1.65580   1.68548   1.69756   1.71341
 Alpha virt. eigenvalues --    1.73239   1.73622   1.75751   1.75827   1.77539
 Alpha virt. eigenvalues --    1.79660   1.81111   1.85604   1.86329   1.87203
 Alpha virt. eigenvalues --    1.92061   1.97396   2.01249   2.02874   2.04429
 Alpha virt. eigenvalues --    2.07140   2.08493   2.10245   2.11382   2.13635
 Alpha virt. eigenvalues --    2.15020   2.18417   2.22977   2.23694   2.23788
 Alpha virt. eigenvalues --    2.28156   2.30244   2.31545   2.35004   2.36472
 Alpha virt. eigenvalues --    2.38472   2.43692   2.44819   2.51784   2.54458
 Alpha virt. eigenvalues --    2.57210   2.60287   2.65674   2.66800   2.70725
 Alpha virt. eigenvalues --    2.73520   2.78460   2.81129   2.88350   2.91052
 Alpha virt. eigenvalues --    2.96222   2.97735   3.04624   3.12320   3.21174
 Alpha virt. eigenvalues --    3.40155   3.70175   4.18228   4.20074   4.24257
 Alpha virt. eigenvalues --    4.28249   4.33634   4.35809   4.37089   4.39865
 Alpha virt. eigenvalues --    4.46730   4.60426   4.75096
          Condensed to atoms (all electrons):
               1          2          3          4          5          6
     1  C   21.778511 -13.716303   2.426536   1.220293  -4.058401  -2.254335
     2  C  -13.716303  25.740691  -3.476406  -6.329395   2.092003   0.466435
     3  C    2.426536  -3.476406  12.174896  -5.485200   3.786683  -1.960927
     4  C    1.220293  -6.329395  -5.485200  33.867398 -20.140156  -0.522010
     5  C   -4.058401   2.092003   3.786683 -20.140156  27.791866   0.506410
     6  C   -2.254335   0.466435  -1.960927  -0.522010   0.506410  13.685448
     7  H    0.379017  -0.087595   0.036784  -0.028680   0.026152  -0.020443
     8  H    0.021102   0.240731   0.011744   0.023925  -0.011298  -0.003485
     9  H    0.010661   0.005187   0.014524   0.138960   0.109959   0.006463
    10  H    0.062923  -0.020999   0.030765   0.129461   0.073887   0.013940
    11  B   -0.256676   0.202177   0.409703   0.240472  -0.275600   0.075761
    12  O    0.164113  -0.608689  -0.055960   0.563014  -0.088774  -0.006331
    13  H    0.006683  -0.026712  -0.027332   0.036706   0.006650  -0.001831
    14  O   -0.038198   0.519425  -0.042076  -0.649500   0.203919  -0.020106
    15  H    0.002048   0.035855  -0.026280  -0.027878   0.010660  -0.002882
    16  C   -0.707959   1.483805  -1.274908   3.992145  -3.227463  -4.817149
    17  O    0.136353   0.119305   0.004741   0.038662  -0.137032  -0.483387
    18  C    0.406630  -0.273705   0.158196  -0.541490  -0.016365   0.407108
    19  H   -0.024830  -0.003571   0.001552   0.040020   0.035363  -0.023118
    20  H   -0.024863  -0.003724   0.001662   0.041976   0.036334  -0.028148
    21  H   -0.016826  -0.003000   0.000445  -0.010715  -0.006829   0.092733
               7          8          9         10         11         12
     1  C    0.379017   0.021102   0.010661   0.062923  -0.256676   0.164113
     2  C   -0.087595   0.240731   0.005187  -0.020999   0.202177  -0.608689
     3  C    0.036784   0.011744   0.014524   0.030765   0.409703  -0.055960
     4  C   -0.028680   0.023925   0.138960   0.129461   0.240472   0.563014
     5  C    0.026152  -0.011298   0.109959   0.073887  -0.275600  -0.088774
     6  C   -0.020443  -0.003485   0.006463   0.013940   0.075761  -0.006331
     7  H    0.490247  -0.003216   0.000014  -0.000130   0.000759   0.000029
     8  H   -0.003216   0.517963  -0.000113   0.000016  -0.010636   0.001161
     9  H    0.000014  -0.000113   0.521530  -0.003808  -0.010590   0.008214
    10  H   -0.000130   0.000016  -0.003808   0.541445   0.001345   0.000129
    11  B    0.000759  -0.010636  -0.010590   0.001345   3.288947   0.205611
    12  O    0.000029   0.001161   0.008214   0.000129   0.205611   8.720132
    13  H    0.000000  -0.000008  -0.000239   0.000000   0.002928   0.169211
    14  O    0.000057   0.008645   0.001321   0.000033   0.206596  -0.248696
    15  H    0.000000  -0.000226  -0.000008   0.000000   0.003654  -0.006550
    16  C   -0.031870  -0.002204  -0.007791  -0.004303   0.014616   0.000324
    17  O    0.005887   0.000068   0.000031  -0.000339   0.000266   0.000000
    18  C    0.012066   0.000351   0.002380  -0.004261  -0.000933   0.000250
    19  H   -0.000004   0.000000  -0.000002  -0.001001   0.000002   0.000000
    20  H   -0.000004   0.000000  -0.000002  -0.001000   0.000005   0.000000
    21  H   -0.000007   0.000000   0.000000   0.000112  -0.000012   0.000000
              13         14         15         16         17         18
     1  C    0.006683  -0.038198   0.002048  -0.707959   0.136353   0.406630
     2  C   -0.026712   0.519425   0.035855   1.483805   0.119305  -0.273705
     3  C   -0.027332  -0.042076  -0.026280  -1.274908   0.004741   0.158196
     4  C    0.036706  -0.649500  -0.027878   3.992145   0.038662  -0.541490
     5  C    0.006650   0.203919   0.010660  -3.227463  -0.137032  -0.016365
     6  C   -0.001831  -0.020106  -0.002882  -4.817149  -0.483387   0.407108
     7  H    0.000000   0.000057   0.000000  -0.031870   0.005887   0.012066
     8  H   -0.000008   0.008645  -0.000226  -0.002204   0.000068   0.000351
     9  H   -0.000239   0.001321  -0.000008  -0.007791   0.000031   0.002380
    10  H    0.000000   0.000033   0.000000  -0.004303  -0.000339  -0.004261
    11  B    0.002928   0.206596   0.003654   0.014616   0.000266  -0.000933
    12  O    0.169211  -0.248696  -0.006550   0.000324   0.000000   0.000250
    13  H    0.330683  -0.006854   0.002616  -0.000129   0.000000   0.000006
    14  O   -0.006854   8.714764   0.171334  -0.006865  -0.000001   0.000473
    15  H    0.002616   0.171334   0.330337  -0.000296   0.000000   0.000005
    16  C   -0.000129  -0.006865  -0.000296  11.413458   0.566347  -1.526270
    17  O    0.000000  -0.000001   0.000000   0.566347   8.270536  -0.087389
    18  C    0.000006   0.000473   0.000005  -1.526270  -0.087389   7.044010
    19  H    0.000000   0.000000   0.000000  -0.090308   0.003030   0.396276
    20  H    0.000000   0.000000   0.000000  -0.086407   0.003036   0.394506
    21  H    0.000000   0.000000   0.000000  -0.183096   0.001053   0.472789
              19         20         21
     1  C   -0.024830  -0.024863  -0.016826
     2  C   -0.003571  -0.003724  -0.003000
     3  C    0.001552   0.001662   0.000445
     4  C    0.040020   0.041976  -0.010715
     5  C    0.035363   0.036334  -0.006829
     6  C   -0.023118  -0.028148   0.092733
     7  H   -0.000004  -0.000004  -0.000007
     8  H    0.000000   0.000000   0.000000
     9  H   -0.000002  -0.000002   0.000000
    10  H   -0.001001  -0.001000   0.000112
    11  B    0.000002   0.000005  -0.000012
    12  O    0.000000   0.000000   0.000000
    13  H    0.000000   0.000000   0.000000
    14  O    0.000000   0.000000   0.000000
    15  H    0.000000   0.000000   0.000000
    16  C   -0.090308  -0.086407  -0.183096
    17  O    0.003030   0.003036   0.001053
    18  C    0.396276   0.394506   0.472789
    19  H    0.489593  -0.030061  -0.021463
    20  H   -0.030061   0.489846  -0.021490
    21  H   -0.021463  -0.021490   0.453328
 Mulliken charges:
               1
     1  C    0.483521
     2  C   -0.355514
     3  C   -0.709142
     4  C   -0.598009
     5  C   -0.717966
     6  C    0.889855
     7  H    0.220938
     8  H    0.205479
     9  H    0.203309
    10  H    0.181785
    11  B    0.901607
    12  O   -0.817188
    13  H    0.507623
    14  O   -0.814270
    15  H    0.507611
    16  C    0.496324
    17  O   -0.441166
    18  C   -0.844632
    19  H    0.228523
    20  H    0.228335
    21  H    0.242976
 Sum of Mulliken charges =   0.00000
 Mulliken charges with hydrogens summed into heavy atoms:
               1
     1  C    0.704459
     2  C   -0.150035
     3  C   -0.709142
     4  C   -0.394700
     5  C   -0.536180
     6  C    0.889855
    11  B    0.901607
    12  O   -0.309565
    14  O   -0.306659
    16  C    0.496324
    17  O   -0.441166
    18  C   -0.144797
 Electronic spatial extent (au):  <R**2>=           2853.1331
 Charge=              0.0000 electrons
 Dipole moment (field-independent basis, Debye):
    X=              4.7615    Y=              2.3792    Z=             -1.2649  Tot=              5.4711
 Quadrupole moment (field-independent basis, Debye-Ang):
   XX=            -47.6953   YY=            -70.7413   ZZ=            -70.9399
   XY=             -4.1630   XZ=              5.8430   YZ=             -1.4800
 Traceless Quadrupole moment (field-independent basis, Debye-Ang):
   XX=             15.4302   YY=             -7.6158   ZZ=             -7.8144
   XY=             -4.1630   XZ=              5.8430   YZ=             -1.4800
 Octapole moment (field-independent basis, Debye-Ang**2):
  XXX=            124.3889  YYY=            -74.5346  ZZZ=             27.3704  XYY=            -30.5588
  XXY=             19.0072  XXZ=              1.2653  XZZ=            -36.1219  YZZ=            -24.8402
  YYZ=              7.9631  XYZ=              0.4698
 Hexadecapole moment (field-independent basis, Debye-Ang**3):
 XXXX=          -1772.3033 YYYY=           -468.6307 ZZZZ=           -283.8435 XXXY=            -17.7429
 XXXZ=              1.3192 YYYX=           -100.9014 YYYZ=            115.3305 ZZZX=            -73.5988
 ZZZY=            122.5073 XXYY=           -562.5167 XXZZ=           -539.2384 YYZZ=           -118.5279
 XXYZ=             42.7500 YYXZ=            -23.6818 ZZXY=            -35.0703
 N-N= 6.236795120286D+02 E-N=-2.555199430168D+03  KE= 5.555288573236D+02
 Evaluate density.
 Using the total density.
 Monte-Carlo method of calculating molar volume:
 based on  0.001 e/bohr**3 density envelope.
 Number of points per bohr**3 =   20 CutOff= 1.00D-04
 Using the SCF density.
 There are       385 points.  Will hold       385 in memory.
 LenV=  4026374828 MDV=  4026531840.
 Box volume = 7182.768 fraction occupied=0.210
 Integrated density= 6.8794715721657084D+01 error=-1.7205284278342916D+01
 Molar volume = 1511.180 bohr**3/mol (134.856 cm**3/mol)
 Recommended a0 for SCRF calculation =  4.65 angstrom (  8.78 bohr)
 Calling FoFJK, ICntrl=      2127 FMM=F ISym2X=0 I1Cent= 0 IOpClX= 0 NMat=1 NMatS=1 NMatT=0.
 -------------------------------------------------------------------
 Center     Atomic                   Forces (Hartrees/Bohr)
 Number     Number              X              Y              Z
 -------------------------------------------------------------------
      1        6           0.001019639    0.001833615   -0.001237086
      2        6          -0.001286437    0.002845576   -0.002239845
      3        6          -0.006219089   -0.000198359   -0.000463905
      4        6          -0.000461119   -0.002958412    0.002123388
      5        6           0.000832653   -0.001796275    0.001448174
      6        6           0.003486041   -0.000817928    0.000926231
      7        1          -0.000101511   -0.000700368    0.000498611
      8        1           0.000019876   -0.001057418    0.000775672
      9        1          -0.000108306    0.001040580   -0.000766536
     10        1          -0.000214449    0.000699535   -0.000564989
     11        5           0.024061116    0.001732475    0.001109822
     12        8          -0.004058826   -0.002319953    0.001326658
     13        1          -0.005216815   -0.004993082    0.003156526
     14        8          -0.004288013    0.001716237   -0.001691455
     15        1          -0.005510311    0.004256423   -0.003692233
     16        6          -0.015763392   -0.022871292    0.015165688
     17        8           0.014664685    0.023908666   -0.016000970
     18        6          -0.000948542   -0.000418774    0.000200053
     19        1           0.000321806    0.000176263    0.000053362
     20        1           0.000349298    0.000010090   -0.000143685
     21        1          -0.000578305   -0.000087597    0.000016520
 -------------------------------------------------------------------
 Cartesian Forces:  Max     0.024061116 RMS     0.006783544

 GradGradGradGradGradGradGradGradGradGradGradGradGradGradGradGradGradGrad
 Berny optimization.
 FormGI is forming the generalized inverse of G from B-inverse, IUseBI=4.
 Internal  Forces:  Max     0.032291258 RMS     0.004169694
 Search for a local minimum.
 Step number   1 out of a maximum of  105
 All quantities printed in internal units (Hartrees-Bohrs-Radians)
 Mixed Optimization -- RFO/linear search
 Second derivative matrix not updated -- first step.
 ITU=  0
     Eigenvalues ---    0.00558   0.00599   0.00683   0.00869   0.01521
     Eigenvalues ---    0.01536   0.01656   0.01965   0.02018   0.02033
     Eigenvalues ---    0.02064   0.02070   0.02089   0.02107   0.02367
     Eigenvalues ---    0.02379   0.07165   0.07350   0.16000   0.16000
     Eigenvalues ---    0.16000   0.16000   0.16000   0.16000   0.16000
     Eigenvalues ---    0.16000   0.16000   0.22000   0.22961   0.24000
     Eigenvalues ---    0.25000   0.25000   0.25000   0.25000   0.25000
     Eigenvalues ---    0.25000   0.27429   0.30783   0.33207   0.34046
     Eigenvalues ---    0.34049   0.34713   0.35430   0.35437   0.35460
     Eigenvalues ---    0.35481   0.40669   0.41208   0.44095   0.44190
     Eigenvalues ---    0.45253   0.46610   0.47505   0.47660   0.53091
     Eigenvalues ---    0.53106   0.83698
 RFO step:  Lambda=-3.38662099D-03 EMin= 5.58034908D-03
 Linear search not attempted -- first point.
 Iteration  1 RMS(Cart)=  0.01950792 RMS(Int)=  0.00046957
 Iteration  2 RMS(Cart)=  0.00044620 RMS(Int)=  0.00000126
 Iteration  3 RMS(Cart)=  0.00000013 RMS(Int)=  0.00000126
 Variable       Old X    -DE/DX   Delta X   Delta X   Delta X     New X
                                 (Linear)    (Quad)   (Total)
    R1        2.63205  -0.00160   0.00000  -0.00338  -0.00338   2.62868
    R2        2.66176  -0.00194   0.00000  -0.00432  -0.00432   2.65744
    R3        2.04900   0.00080   0.00000   0.00223   0.00223   2.05123
    R4        2.66679  -0.00174   0.00000  -0.00396  -0.00396   2.66283
    R5        2.04971   0.00112   0.00000   0.00314   0.00314   2.05285
    R6        2.66279  -0.00226   0.00000  -0.00511  -0.00511   2.65769
    R7        2.93405   0.00501   0.00000   0.01803   0.01803   2.95208
    R8        2.63763  -0.00147   0.00000  -0.00316  -0.00316   2.63447
    R9        2.04983   0.00108   0.00000   0.00302   0.00302   2.05285
   R10        2.66016  -0.00185   0.00000  -0.00412  -0.00412   2.65604
   R11        2.04935   0.00088   0.00000   0.00247   0.00247   2.05181
   R12        2.81989   0.00189   0.00000   0.00565   0.00565   2.82554
   R13        2.62471  -0.01181   0.00000  -0.02467  -0.02467   2.60003
   R14        2.62303  -0.01183   0.00000  -0.02465  -0.02465   2.59838
   R15        1.83569  -0.00568   0.00000  -0.01063  -0.01063   1.82505
   R16        1.83555  -0.00566   0.00000  -0.01060  -0.01060   1.82495
   R17        2.35981  -0.03229   0.00000  -0.03843  -0.03843   2.32138
   R18        2.86429   0.00019   0.00000   0.00060   0.00060   2.86489
   R19        2.07253   0.00023   0.00000   0.00066   0.00066   2.07319
   R20        2.07247   0.00023   0.00000   0.00067   0.00067   2.07314
   R21        2.06143   0.00058   0.00000   0.00166   0.00166   2.06309
    A1        2.10144  -0.00005   0.00000  -0.00030  -0.00030   2.10115
    A2        2.11797  -0.00032   0.00000  -0.00196  -0.00196   2.11601
    A3        2.06377   0.00037   0.00000   0.00226   0.00226   2.06603
    A4        2.11025   0.00068   0.00000   0.00289   0.00289   2.11314
    A5        2.09826  -0.00103   0.00000  -0.00569  -0.00569   2.09257
    A6        2.07468   0.00035   0.00000   0.00280   0.00280   2.07748
    A7        2.06578  -0.00081   0.00000  -0.00337  -0.00337   2.06241
    A8        2.10979   0.00043   0.00000   0.00180   0.00180   2.11159
    A9        2.10762   0.00038   0.00000   0.00158   0.00158   2.10919
   A10        2.11115   0.00036   0.00000   0.00144   0.00144   2.11259
   A11        2.07503   0.00055   0.00000   0.00377   0.00377   2.07880
   A12        2.09700  -0.00091   0.00000  -0.00521  -0.00521   2.09180
   A13        2.09935   0.00030   0.00000   0.00128   0.00127   2.10063
   A14        2.08265  -0.00043   0.00000  -0.00235  -0.00235   2.08030
   A15        2.10118   0.00013   0.00000   0.00108   0.00108   2.10226
   A16        2.07839  -0.00049   0.00000  -0.00194  -0.00194   2.07646
   A17        2.06906   0.00100   0.00000   0.00397   0.00397   2.07303
   A18        2.13574  -0.00052   0.00000  -0.00203  -0.00203   2.13370
   A19        2.06267  -0.00057   0.00000  -0.00225  -0.00225   2.06042
   A20        2.06298  -0.00065   0.00000  -0.00257  -0.00257   2.06041
   A21        2.15754   0.00122   0.00000   0.00481   0.00481   2.16235
   A22        2.11316  -0.01003   0.00000  -0.06136  -0.06136   2.05180
   A23        2.11567  -0.01006   0.00000  -0.06157  -0.06157   2.05410
   A24        2.10715  -0.00050   0.00000  -0.00198  -0.00198   2.10517
   A25        2.08092   0.00113   0.00000   0.00447   0.00447   2.08539
   A26        2.09511  -0.00063   0.00000  -0.00249  -0.00249   2.09262
   A27        1.93795  -0.00028   0.00000  -0.00213  -0.00213   1.93582
   A28        1.93875  -0.00032   0.00000  -0.00242  -0.00242   1.93633
   A29        1.89788   0.00028   0.00000   0.00256   0.00256   1.90044
   A30        1.87525   0.00004   0.00000  -0.00133  -0.00134   1.87391
   A31        1.90689   0.00014   0.00000   0.00169   0.00169   1.90858
   A32        1.90674   0.00015   0.00000   0.00170   0.00171   1.90844
    D1       -0.00063   0.00001   0.00000   0.00047   0.00047  -0.00016
    D2        3.14105   0.00001   0.00000   0.00033   0.00033   3.14138
    D3        3.14134   0.00000   0.00000  -0.00002  -0.00002   3.14132
    D4       -0.00016   0.00000   0.00000  -0.00016  -0.00015  -0.00032
    D5        0.00028  -0.00001   0.00000  -0.00031  -0.00031  -0.00003
    D6       -3.14109  -0.00001   0.00000  -0.00056  -0.00056   3.14153
    D7        3.14150   0.00000   0.00000   0.00016   0.00016  -3.14152
    D8        0.00013   0.00000   0.00000  -0.00009  -0.00009   0.00004
    D9        0.00038  -0.00001   0.00000  -0.00024  -0.00024   0.00014
   D10        3.14158   0.00000   0.00000   0.00007   0.00007  -3.14154
   D11       -3.14130   0.00000   0.00000  -0.00011  -0.00011  -3.14141
   D12       -0.00009   0.00000   0.00000   0.00020   0.00020   0.00011
   D13        0.00022   0.00000   0.00000  -0.00013  -0.00013   0.00008
   D14       -3.14157   0.00000   0.00000   0.00017   0.00017  -3.14141
   D15       -3.14099  -0.00001   0.00000  -0.00044  -0.00044  -3.14143
   D16        0.00041   0.00000   0.00000  -0.00014  -0.00014   0.00026
   D17        3.13965   0.00000   0.00000   0.00039   0.00039   3.14004
   D18       -0.00223   0.00001   0.00000   0.00110   0.00110  -0.00113
   D19       -0.00234   0.00000   0.00000   0.00070   0.00071  -0.00163
   D20        3.13896   0.00002   0.00000   0.00142   0.00142   3.14038
   D21       -0.00056   0.00001   0.00000   0.00029   0.00029  -0.00028
   D22        3.14065   0.00002   0.00000   0.00073   0.00073   3.14138
   D23        3.14123   0.00000   0.00000  -0.00002  -0.00002   3.14121
   D24       -0.00074   0.00001   0.00000   0.00042   0.00042  -0.00032
   D25        0.00031   0.00000   0.00000  -0.00007  -0.00007   0.00025
   D26       -3.14151   0.00000   0.00000   0.00020   0.00020  -3.14131
   D27       -3.14090  -0.00001   0.00000  -0.00051  -0.00051  -3.14141
   D28        0.00046  -0.00001   0.00000  -0.00025  -0.00025   0.00022
   D29       -0.00370   0.00002   0.00000   0.00106   0.00106  -0.00263
   D30        3.13704   0.00003   0.00000   0.00274   0.00274   3.13978
   D31        3.13812   0.00001   0.00000   0.00080   0.00080   3.13893
   D32       -0.00432   0.00003   0.00000   0.00248   0.00248  -0.00184
   D33        3.14065   0.00001   0.00000   0.00066   0.00066   3.14132
   D34       -0.00063   0.00000   0.00000  -0.00009  -0.00009  -0.00072
   D35       -3.14109  -0.00001   0.00000  -0.00064  -0.00064   3.14145
   D36        0.00019   0.00000   0.00000   0.00011   0.00011   0.00030
   D37       -1.04328   0.00018   0.00000   0.00223   0.00223  -1.04105
   D38        1.04246  -0.00018   0.00000  -0.00245  -0.00244   1.04001
   D39        3.14133  -0.00001   0.00000  -0.00018  -0.00018   3.14115
   D40        2.09747   0.00019   0.00000   0.00390   0.00389   2.10136
   D41       -2.09998  -0.00016   0.00000  -0.00078  -0.00078  -2.10076
   D42       -0.00110   0.00001   0.00000   0.00148   0.00148   0.00038
         Item               Value     Threshold  Converged?
 Maximum Force            0.032291     0.000450     NO 
 RMS     Force            0.004170     0.000300     NO 
 Maximum Displacement     0.101284     0.001800     NO 
 RMS     Displacement     0.019458     0.001200     NO 
 Predicted change in Energy=-1.712362D-03
 GradGradGradGradGradGradGradGradGradGradGradGradGradGradGradGradGradGrad

                          Input orientation:                          
 ---------------------------------------------------------------------
 Center     Atomic      Atomic             Coordinates (Angstroms)
 Number     Number       Type             X           Y           Z
 ---------------------------------------------------------------------
      1          6           0       -0.188004   -0.700724    0.580426
      2          6           0        1.198135   -0.602111    0.642659
      3          6           0        1.885912    0.420622   -0.040396
      4          6           0        1.132155    1.342227   -0.789007
      5          6           0       -0.257255    1.249107   -0.855257
      6          6           0       -0.934006    0.225107   -0.170491
      7          1           0       -0.720503   -1.487595    1.105320
      8          1           0        1.766511   -1.321525    1.225313
      9          1           0        1.646848    2.136787   -1.321794
     10          1           0       -0.809424    1.976922   -1.442027
     11          5           0        3.442663    0.529371    0.030869
     12          8           0        4.052322    1.550519   -0.660947
     13          1           0        5.014936    1.611191   -0.611753
     14          8           0        4.122249   -0.401404    0.780840
     15          1           0        5.084434   -0.329349    0.821178
     16          6           0       -2.422069    0.085270   -0.212498
     17          8           0       -2.982501   -0.823237    0.395411
     18          6           0       -3.242254    1.075926   -1.015155
     19          1           0       -3.089435    2.098653   -0.648727
     20          1           0       -2.951189    1.060091   -2.072781
     21          1           0       -4.298407    0.813965   -0.926748
 ---------------------------------------------------------------------
                    Distance matrix (angstroms):
                    1          2          3          4          5
     1  C    0.000000
     2  C    1.391035   0.000000
     3  C    2.438025   1.409108   0.000000
     4  C    2.791382   2.415465   1.406387   0.000000
     5  C    2.422359   2.790864   2.437940   1.394102   0.000000
     6  C    1.406257   2.427247   2.829679   2.428896   1.405515
     7  H    1.085464   2.163170   3.427441   3.876687   3.398234
     8  H    2.149745   1.086321   2.156699   3.399333   3.877183
     9  H    3.877705   3.400291   2.155076   1.086323   2.152032
    10  H    3.412663   3.876547   3.413425   2.144528   1.085774
    11  B    3.872583   2.586976   1.562172   2.582902   3.872033
    12  O    4.958778   3.805206   2.520930   2.930387   4.324473
    13  H    5.816943   4.586962   3.396276   3.896120   5.290217
    14  O    4.325280   2.934250   2.520191   3.800702   4.957929
    15  H    5.290981   3.899947   3.396367   4.583380   5.816837
    16  C    2.497511   3.782811   4.324439   3.813765   2.540487
    17  O    2.803293   4.193774   5.043665   4.798173   3.644961
    18  C    3.876959   5.028042   5.260956   4.388338   2.994291
    19  H    4.214929   5.229250   5.285823   4.291116   2.964055
    20  H    4.216061   5.230050   5.285551   4.289682   2.962325
    21  H    4.632631   5.888996   6.259883   5.457933   4.065140
                    6          7          8          9         10
     6  C    0.000000
     7  H    2.146305   0.000000
     8  H    3.410737   2.495439   0.000000
     9  H    3.411865   4.963001   4.296742   0.000000
    10  H    2.168221   4.301135   4.962851   2.464403   0.000000
    11  B    4.391851   4.749163   2.768031   2.763772   4.727057
    12  O    5.182734   5.927031   4.126929   2.562564   4.942517
    13  H    6.124201   6.741369   4.746356   3.482014   5.894597
    14  O    5.182978   4.973665   2.567816   4.122026   5.909228
    15  H    6.124740   5.926175   3.486596   4.742483   6.721498
    16  C    1.495209   2.665685   4.646566   4.689919   2.773214
    17  O    2.369726   2.462109   4.846663   5.756857   3.992410
    18  C    2.601031   4.174600   5.987921   5.012262   2.629197
    19  H    2.895645   4.642165   6.228150   4.784020   2.417146
    20  H    2.895675   4.644028   6.229463   4.781757   2.413626
    21  H    3.498267   4.714645   6.780480   6.103440   3.713622
                   11         12         13         14         15
    11  B    0.000000
    12  O    1.375877   0.000000
    13  H    2.013787   0.965777   0.000000
    14  O    1.375004   2.427683   2.605138   0.000000
    15  H    2.014298   2.606886   2.413258   0.965721   0.000000
    16  C    5.886556   6.653255   7.602425   6.637143   7.588674
    17  O    6.576106   7.499290   8.420202   7.127691   8.093246
    18  C    6.788299   7.318575   8.284348   7.722953   8.641796
    19  H    6.752244   7.162772   8.119101   7.765458   8.652626
    20  H    6.751915   7.161213   8.117725   7.766122   8.653137
    21  H    7.805267   8.387362   9.352707   8.677582   9.612497
                   16         17         18         19         20
    16  C    0.000000
    17  O    1.228423   0.000000
    18  C    1.516035   2.379914   0.000000
    19  H    2.165499   3.104690   1.097083   0.000000
    20  H    2.165848   3.104815   1.097061   1.767951   0.000000
    21  H    2.135836   2.481964   1.091741   1.785870   1.785767
                   21
    21  H    0.000000
 Symmetry turned off by external request.
 Stoichiometry    C8H9BO3
 Framework group  C1[X(C8H9BO3)]
 Deg. of freedom    57
 Full point group                 C1      NOp   1
 Rotational constants (GHZ):           2.6985152           0.4405389           0.3796094
 Standard basis: 6-31+G(d) (6D, 7F)
   246 basis functions,   420 primitive gaussians,   246 cartesian basis functions
    43 alpha electrons       43 beta electrons
       nuclear repulsion energy       625.0280329510 Hartrees.
 NAtoms=   21 NActive=   21 NUniq=   21 SFac= 1.00D+00 NAtFMM=   60 NAOKFM=F Big=F
 Integral buffers will be    131072 words long.
 Raffenetti 2 integral format.
 Two-electron integral symmetry is turned off.
 Nuclear repulsion after empirical dispersion term =      625.0115841067 Hartrees.
 One-electron integrals computed using PRISM.
 NBasis=   246 RedAO= T EigKep=  1.83D-06  NBF=   246
 NBsUse=   246 1.00D-06 EigRej= -1.00D+00 NBFU=   246
 Initial guess from the checkpoint file:  "MOLECULE_11.chk"
 B after Tr=     0.001692    0.002346   -0.000524
         Rot=    1.000000   -0.000093    0.000072    0.000209 Ang=  -0.03 deg.
 ExpMin= 3.15D-02 ExpMax= 5.48D+03 ExpMxC= 8.25D+02 IAcc=3 IRadAn=         5 AccDes= 0.00D+00
 Harris functional with IExCor=  402 and IRadAn=       5 diagonalized for initial guess.
 HarFok:  IExCor=  402 AccDes= 0.00D+00 IRadAn=         5 IDoV= 1 UseB2=F ITyADJ=14
 ICtDFT=  3500011 ScaDFX=  1.000000  1.000000  1.000000  1.000000
 FoFCou: FMM=F IPFlag=           0 FMFlag=      100000 FMFlg1=           0
         NFxFlg=           0 DoJE=T BraDBF=F KetDBF=T FulRan=T
         wScrn=  0.000000 ICntrl=       500 IOpCl=  0 I1Cent=   200000004 NGrid=           0
         NMat0=    1 NMatS0=      1 NMatT0=    0 NMatD0=    1 NMtDS0=    0 NMtDT0=    0
 Symmetry not used in FoFCou.
 Requested convergence on RMS density matrix=1.00D-08 within 128 cycles.
 Requested convergence on MAX density matrix=1.00D-06.
 Requested convergence on             energy=1.00D-06.
 No special actions if energy rises.
 SCF Done:  E(RB3LYP) =  -560.952008156     A.U. after   13 cycles
            NFock= 13  Conv=0.44D-08     -V/T= 2.0095
 Calling FoFJK, ICntrl=      2127 FMM=F ISym2X=0 I1Cent= 0 IOpClX= 0 NMat=1 NMatS=1 NMatT=0.
 -------------------------------------------------------------------
 Center     Atomic                   Forces (Hartrees/Bohr)
 Number     Number              X              Y              Z
 -------------------------------------------------------------------
      1        6          -0.000724697    0.000200866   -0.000237638
      2        6           0.000433698    0.000582823   -0.000376823
      3        6          -0.001286923   -0.000043094   -0.000075425
      4        6           0.000723868   -0.000452078    0.000387157
      5        6          -0.000441315   -0.000206298    0.000124711
      6        6           0.002380259    0.000934164   -0.000395130
      7        1           0.000122010   -0.000140553    0.000120543
      8        1          -0.000143803   -0.000234142    0.000152413
      9        1          -0.000169028    0.000215293   -0.000161938
     10        1          -0.000010127    0.000078573   -0.000062624
     11        5           0.003248204    0.000240660    0.000077771
     12        8          -0.002143166    0.001247719   -0.001093828
     13        1           0.001164320   -0.000789832    0.000690337
     14        8          -0.002035984   -0.001595632    0.000994680
     15        1           0.001117643    0.000966712   -0.000605906
     16        6          -0.004699532   -0.005824872    0.003612838
     17        8           0.002257666    0.003134842   -0.002001645
     18        6           0.000060896    0.001504315   -0.001019705
     19        1          -0.000006435    0.000126819   -0.000157816
     20        1           0.000009009    0.000156034   -0.000068152
     21        1           0.000143437   -0.000102319    0.000096181
 -------------------------------------------------------------------
 Cartesian Forces:  Max     0.005824872 RMS     0.001453535

 GradGradGradGradGradGradGradGradGradGradGradGradGradGradGradGradGradGrad
 Berny optimization.
 Using GEDIIS/GDIIS optimizer.
 FormGI is forming the generalized inverse of G from B-inverse, IUseBI=4.
 Internal  Forces:  Max     0.004339298 RMS     0.000703402
 Search for a local minimum.
 Step number   2 out of a maximum of  105
 All quantities printed in internal units (Hartrees-Bohrs-Radians)
 Mixed Optimization -- En-DIIS/RFO-DIIS
 Update second derivatives using D2CorX and points    1    2
 DE= -1.93D-03 DEPred=-1.71D-03 R= 1.13D+00
 TightC=F SS=  1.41D+00  RLast= 1.06D-01 DXNew= 5.0454D-01 3.1827D-01
 Trust test= 1.13D+00 RLast= 1.06D-01 DXMaxT set to 3.18D-01
 ITU=  1  0
 Use linear search instead of GDIIS.
     Eigenvalues ---    0.00558   0.00599   0.00684   0.00869   0.01519
     Eigenvalues ---    0.01540   0.01656   0.01965   0.02018   0.02033
     Eigenvalues ---    0.02064   0.02069   0.02089   0.02106   0.02367
     Eigenvalues ---    0.02379   0.07196   0.07337   0.14162   0.16000
     Eigenvalues ---    0.16000   0.16000   0.16000   0.16000   0.16000
     Eigenvalues ---    0.16000   0.16045   0.21997   0.22955   0.23965
     Eigenvalues ---    0.24917   0.25000   0.25000   0.25000   0.25000
     Eigenvalues ---    0.25303   0.27168   0.30794   0.32992   0.34045
     Eigenvalues ---    0.34049   0.34719   0.35427   0.35436   0.35460
     Eigenvalues ---    0.35481   0.40670   0.41187   0.44085   0.44156
     Eigenvalues ---    0.45252   0.46616   0.47575   0.48843   0.53099
     Eigenvalues ---    0.54819   0.79634
 RFO step:  Lambda=-1.10096590D-04 EMin= 5.58032588D-03
 Quartic linear search produced a step of  0.13218.
 Iteration  1 RMS(Cart)=  0.00511070 RMS(Int)=  0.00002696
 Iteration  2 RMS(Cart)=  0.00003562 RMS(Int)=  0.00000148
 Iteration  3 RMS(Cart)=  0.00000000 RMS(Int)=  0.00000148
 Variable       Old X    -DE/DX   Delta X   Delta X   Delta X     New X
                                 (Linear)    (Quad)   (Total)
    R1        2.62868   0.00039  -0.00045   0.00128   0.00083   2.62951
    R2        2.65744  -0.00037  -0.00057  -0.00050  -0.00107   2.65637
    R3        2.05123   0.00010   0.00029   0.00008   0.00038   2.05161
    R4        2.66283  -0.00016  -0.00052   0.00000  -0.00052   2.66231
    R5        2.05285   0.00016   0.00042   0.00018   0.00059   2.05344
    R6        2.65769  -0.00023  -0.00068  -0.00005  -0.00072   2.65696
    R7        2.95208   0.00135   0.00238   0.00361   0.00599   2.95807
    R8        2.63447   0.00053  -0.00042   0.00164   0.00122   2.63569
    R9        2.05285   0.00016   0.00040   0.00018   0.00058   2.05343
   R10        2.65604  -0.00014  -0.00054   0.00008  -0.00046   2.65557
   R11        2.05181   0.00009   0.00033   0.00003   0.00035   2.05217
   R12        2.82554   0.00230   0.00075   0.00725   0.00799   2.83353
   R13        2.60003   0.00011  -0.00326   0.00286  -0.00040   2.59963
   R14        2.59838   0.00018  -0.00326   0.00303  -0.00022   2.59816
   R15        1.82505   0.00115  -0.00141   0.00356   0.00215   1.82721
   R16        1.82495   0.00116  -0.00140   0.00358   0.00218   1.82713
   R17        2.32138  -0.00434  -0.00508  -0.00192  -0.00700   2.31439
   R18        2.86489   0.00160   0.00008   0.00581   0.00589   2.87078
   R19        2.07319   0.00006   0.00009   0.00014   0.00023   2.07342
   R20        2.07314   0.00007   0.00009   0.00015   0.00024   2.07338
   R21        2.06309  -0.00011   0.00022  -0.00053  -0.00031   2.06278
    A1        2.10115   0.00001  -0.00004  -0.00001  -0.00005   2.10110
    A2        2.11601  -0.00021  -0.00026  -0.00118  -0.00144   2.11457
    A3        2.06603   0.00020   0.00030   0.00119   0.00149   2.06751
    A4        2.11314   0.00026   0.00038   0.00090   0.00128   2.11442
    A5        2.09257  -0.00041  -0.00075  -0.00191  -0.00266   2.08990
    A6        2.07748   0.00015   0.00037   0.00101   0.00138   2.07886
    A7        2.06241  -0.00030  -0.00045  -0.00100  -0.00145   2.06096
    A8        2.11159   0.00012   0.00024   0.00034   0.00058   2.11217
    A9        2.10919   0.00018   0.00021   0.00066   0.00087   2.11006
   A10        2.11259   0.00008   0.00019   0.00024   0.00043   2.11302
   A11        2.07880   0.00025   0.00050   0.00136   0.00186   2.08066
   A12        2.09180  -0.00032  -0.00069  -0.00160  -0.00229   2.08951
   A13        2.10063   0.00010   0.00017   0.00037   0.00054   2.10117
   A14        2.08030  -0.00009  -0.00031  -0.00029  -0.00060   2.07970
   A15        2.10226  -0.00001   0.00014  -0.00008   0.00007   2.10232
   A16        2.07646  -0.00015  -0.00026  -0.00050  -0.00075   2.07570
   A17        2.07303  -0.00004   0.00052  -0.00061  -0.00008   2.07294
   A18        2.13370   0.00019  -0.00027   0.00111   0.00084   2.13454
   A19        2.06042  -0.00035  -0.00030  -0.00131  -0.00161   2.05881
   A20        2.06041  -0.00034  -0.00034  -0.00126  -0.00160   2.05881
   A21        2.16235   0.00069   0.00064   0.00257   0.00321   2.16556
   A22        2.05180  -0.00195  -0.00811  -0.00664  -0.01475   2.03704
   A23        2.05410  -0.00200  -0.00814  -0.00697  -0.01511   2.03899
   A24        2.10517   0.00057  -0.00026   0.00279   0.00253   2.10770
   A25        2.08539  -0.00188   0.00059  -0.00898  -0.00840   2.07699
   A26        2.09262   0.00131  -0.00033   0.00619   0.00586   2.09848
   A27        1.93582   0.00024  -0.00028   0.00198   0.00169   1.93751
   A28        1.93633   0.00017  -0.00032   0.00144   0.00112   1.93745
   A29        1.90044  -0.00030   0.00034  -0.00242  -0.00208   1.89836
   A30        1.87391  -0.00021  -0.00018  -0.00126  -0.00144   1.87247
   A31        1.90858   0.00004   0.00022   0.00012   0.00034   1.90892
   A32        1.90844   0.00006   0.00023   0.00016   0.00039   1.90883
    D1       -0.00016   0.00000   0.00006   0.00000   0.00006  -0.00011
    D2        3.14138   0.00000   0.00004   0.00009   0.00014   3.14151
    D3        3.14132   0.00000   0.00000   0.00010   0.00009   3.14142
    D4       -0.00032   0.00000  -0.00002   0.00019   0.00017  -0.00015
    D5       -0.00003   0.00000  -0.00004  -0.00003  -0.00007  -0.00010
    D6        3.14153   0.00000  -0.00007  -0.00007  -0.00014   3.14139
    D7       -3.14152   0.00000   0.00002  -0.00013  -0.00011   3.14156
    D8        0.00004   0.00000  -0.00001  -0.00016  -0.00018  -0.00013
    D9        0.00014   0.00000  -0.00003   0.00007   0.00003   0.00017
   D10       -3.14154   0.00000   0.00001   0.00008   0.00009  -3.14144
   D11       -3.14141   0.00000  -0.00001  -0.00003  -0.00004  -3.14145
   D12        0.00011   0.00000   0.00003  -0.00001   0.00002   0.00012
   D13        0.00008   0.00000  -0.00002  -0.00010  -0.00012  -0.00003
   D14       -3.14141   0.00000   0.00002  -0.00024  -0.00021   3.14156
   D15       -3.14143   0.00000  -0.00006  -0.00011  -0.00017   3.14158
   D16        0.00026  -0.00001  -0.00002  -0.00025  -0.00027  -0.00001
   D17        3.14004   0.00001   0.00005   0.00113   0.00118   3.14121
   D18       -0.00113   0.00000   0.00015  -0.00022  -0.00007  -0.00121
   D19       -0.00163   0.00001   0.00009   0.00114   0.00123  -0.00040
   D20        3.14038   0.00000   0.00019  -0.00020  -0.00002   3.14036
   D21       -0.00028   0.00000   0.00004   0.00006   0.00010  -0.00017
   D22        3.14138   0.00000   0.00010  -0.00001   0.00008   3.14146
   D23        3.14121   0.00000   0.00000   0.00020   0.00020   3.14142
   D24       -0.00032   0.00000   0.00006   0.00013   0.00018  -0.00014
   D25        0.00025   0.00000  -0.00001   0.00000  -0.00001   0.00024
   D26       -3.14131   0.00000   0.00003   0.00004   0.00007  -3.14125
   D27       -3.14141   0.00000  -0.00007   0.00008   0.00001  -3.14139
   D28        0.00022   0.00000  -0.00003   0.00012   0.00009   0.00030
   D29       -0.00263   0.00003   0.00014   0.00444   0.00458   0.00194
   D30        3.13978   0.00000   0.00036  -0.00213  -0.00177   3.13802
   D31        3.13893   0.00003   0.00011   0.00441   0.00451  -3.13975
   D32       -0.00184   0.00000   0.00033  -0.00217  -0.00184  -0.00368
   D33        3.14132  -0.00001   0.00009  -0.00062  -0.00053   3.14078
   D34       -0.00072   0.00001  -0.00001   0.00081   0.00080   0.00008
   D35        3.14145   0.00001  -0.00008   0.00066   0.00057  -3.14116
   D36        0.00030  -0.00001   0.00002  -0.00077  -0.00076  -0.00045
   D37       -1.04105   0.00002   0.00029   0.00337   0.00367  -1.03738
   D38        1.04001   0.00002  -0.00032   0.00402   0.00370   1.04371
   D39        3.14115   0.00001  -0.00002   0.00356   0.00354  -3.13850
   D40        2.10136  -0.00001   0.00051  -0.00315  -0.00264   2.09872
   D41       -2.10076  -0.00001  -0.00010  -0.00250  -0.00261  -2.10337
   D42        0.00038  -0.00002   0.00020  -0.00297  -0.00277  -0.00240
         Item               Value     Threshold  Converged?
 Maximum Force            0.004339     0.000450     NO 
 RMS     Force            0.000703     0.000300     NO 
 Maximum Displacement     0.022565     0.001800     NO 
 RMS     Displacement     0.005115     0.001200     NO 
 Predicted change in Energy=-8.619024D-05
 GradGradGradGradGradGradGradGradGradGradGradGradGradGradGradGradGradGrad

                          Input orientation:                          
 ---------------------------------------------------------------------
 Center     Atomic      Atomic             Coordinates (Angstroms)
 Number     Number       Type             X           Y           Z
 ---------------------------------------------------------------------
      1          6           0       -0.188138   -0.702679    0.580744
      2          6           0        1.198354   -0.602333    0.642179
      3          6           0        1.885921    0.420305   -0.040661
      4          6           0        1.130612    1.340548   -0.788663
      5          6           0       -0.259367    1.245921   -0.854424
      6          6           0       -0.935337    0.221752   -0.169644
      7          1           0       -0.718117   -1.490774    1.106759
      8          1           0        1.765659   -1.322561    1.225457
      9          1           0        1.642223    2.136754   -1.322582
     10          1           0       -0.812045    1.973507   -1.441345
     11          5           0        3.445783    0.530236    0.030381
     12          8           0        4.052465    1.553115   -0.661070
     13          1           0        5.016336    1.604484   -0.604153
     14          8           0        4.124148   -0.400923    0.780763
     15          1           0        5.086852   -0.317408    0.813556
     16          6           0       -2.427444    0.079543   -0.211007
     17          8           0       -2.987808   -0.823031    0.398330
     18          6           0       -3.240511    1.078490   -1.016521
     19          1           0       -3.082025    2.100714   -0.650733
     20          1           0       -2.948424    1.061695   -2.073981
     21          1           0       -4.298018    0.822457   -0.928950
 ---------------------------------------------------------------------
                    Distance matrix (angstroms):
                    1          2          3          4          5
     1  C    0.000000
     2  C    1.391475   0.000000
     3  C    2.439049   1.408832   0.000000
     4  C    2.790905   2.413852   1.406003   0.000000
     5  C    2.421120   2.789411   2.438465   1.394747   0.000000
     6  C    1.405689   2.427099   2.831176   2.429616   1.405269
     7  H    1.085663   2.162874   3.427800   3.876442   3.397969
     8  H    2.148775   1.086635   2.157568   3.398840   3.876046
     9  H    3.877531   3.399985   2.156132   1.086628   2.151464
    10  H    3.411755   3.875271   3.413704   2.144888   1.085961
    11  B    3.876643   2.589970   1.565344   2.586012   3.875980
    12  O    4.961191   3.806620   2.522316   2.932353   4.327083
    13  H    5.814940   4.582616   3.394010   3.899046   5.293793
    14  O    4.327456   2.935990   2.521669   3.802247   4.959953
    15  H    5.294162   3.902687   3.394093   4.579057   5.814482
    16  C    2.500646   3.786726   4.330156   3.818845   2.544599
    17  O    2.808187   4.199063   5.048944   4.801188   3.646142
    18  C    3.878247   5.027919   5.259830   4.384895   2.990239
    19  H    4.213090   5.224914   5.279815   4.282894   2.956275
    20  H    4.216605   5.228985   5.283622   4.285830   2.958427
    21  H    4.636414   5.891399   6.260343   5.455101   4.061476
                    6          7          8          9         10
     6  C    0.000000
     7  H    2.146889   0.000000
     8  H    3.409779   2.492294   0.000000
     9  H    3.411790   4.963050   4.298209   0.000000
    10  H    2.168195   4.301500   4.961900   2.462556   0.000000
    11  B    4.396520   4.751961   2.771981   2.768436   4.730551
    12  O    5.185769   5.928653   4.130130   2.566613   4.944595
    13  H    6.125615   6.737344   4.741515   3.490572   5.899754
    14  O    5.185498   4.974091   2.570921   4.125993   5.911149
    15  H    6.125695   5.929623   3.494326   4.738298   6.717876
    16  C    1.499439   2.669120   4.648810   4.693602   2.776751
    17  O    2.372089   2.469666   4.850683   5.758390   3.992365
    18  C    2.600966   4.179941   5.987758   5.005465   2.622780
    19  H    2.893132   4.644957   6.224062   4.771917   2.407085
    20  H    2.895604   4.648276   6.228447   4.774347   2.407436
    21  H    3.499288   4.723436   6.783123   6.096621   3.706680
                   11         12         13         14         15
    11  B    0.000000
    12  O    1.375663   0.000000
    13  H    2.005812   0.966916   0.000000
    14  O    1.374885   2.429462   2.595314   0.000000
    15  H    2.006233   2.596792   2.389255   0.966876   0.000000
    16  C    5.895438   6.660570   7.608539   6.643629   7.594204
    17  O    6.584665   7.505588   8.424021   7.134729   8.101124
    18  C    6.789927   7.317042   8.283854   7.723800   8.639600
    19  H    6.748526   7.155482   8.113684   7.761205   8.644189
    20  H    6.752531   7.158929   8.117415   7.765957   8.649015
    21  H    7.808468   8.386668   9.352768   8.680591   9.613085
                   16         17         18         19         20
    16  C    0.000000
    17  O    1.224720   0.000000
    18  C    1.519153   2.383578   0.000000
    19  H    2.169555   3.107683   1.097206   0.000000
    20  H    2.169497   3.109029   1.097186   1.767214   0.000000
    21  H    2.136917   2.487158   1.091579   1.786053   1.785982
                   21
    21  H    0.000000
 Symmetry turned off by external request.
 Stoichiometry    C8H9BO3
 Framework group  C1[X(C8H9BO3)]
 Deg. of freedom    57
 Full point group                 C1      NOp   1
 Rotational constants (GHZ):           2.6967863           0.4400413           0.3792049
 Standard basis: 6-31+G(d) (6D, 7F)
   246 basis functions,   420 primitive gaussians,   246 cartesian basis functions
    43 alpha electrons       43 beta electrons
       nuclear repulsion energy       624.8172609355 Hartrees.
 NAtoms=   21 NActive=   21 NUniq=   21 SFac= 1.00D+00 NAtFMM=   60 NAOKFM=F Big=F
 Integral buffers will be    131072 words long.
 Raffenetti 2 integral format.
 Two-electron integral symmetry is turned off.
 Nuclear repulsion after empirical dispersion term =      624.8008071380 Hartrees.
 One-electron integrals computed using PRISM.
 NBasis=   246 RedAO= T EigKep=  1.83D-06  NBF=   246
 NBsUse=   246 1.00D-06 EigRej= -1.00D+00 NBFU=   246
 Initial guess from the checkpoint file:  "MOLECULE_11.chk"
 B after Tr=    -0.001029   -0.001068    0.000760
         Rot=    1.000000    0.000056   -0.000063   -0.000079 Ang=   0.01 deg.
 ExpMin= 3.15D-02 ExpMax= 5.48D+03 ExpMxC= 8.25D+02 IAcc=3 IRadAn=         5 AccDes= 0.00D+00
 Harris functional with IExCor=  402 and IRadAn=       5 diagonalized for initial guess.
 HarFok:  IExCor=  402 AccDes= 0.00D+00 IRadAn=         5 IDoV= 1 UseB2=F ITyADJ=14
 ICtDFT=  3500011 ScaDFX=  1.000000  1.000000  1.000000  1.000000
 FoFCou: FMM=F IPFlag=           0 FMFlag=      100000 FMFlg1=           0
         NFxFlg=           0 DoJE=T BraDBF=F KetDBF=T FulRan=T
         wScrn=  0.000000 ICntrl=       500 IOpCl=  0 I1Cent=   200000004 NGrid=           0
         NMat0=    1 NMatS0=      1 NMatT0=    0 NMatD0=    1 NMtDS0=    0 NMtDT0=    0
 Symmetry not used in FoFCou.
 Requested convergence on RMS density matrix=1.00D-08 within 128 cycles.
 Requested convergence on MAX density matrix=1.00D-06.
 Requested convergence on             energy=1.00D-06.
 No special actions if energy rises.
 SCF Done:  E(RB3LYP) =  -560.952098505     A.U. after   12 cycles
            NFock= 12  Conv=0.69D-08     -V/T= 2.0095
 Calling FoFJK, ICntrl=      2127 FMM=F ISym2X=0 I1Cent= 0 IOpClX= 0 NMat=1 NMatS=1 NMatT=0.
 -------------------------------------------------------------------
 Center     Atomic                   Forces (Hartrees/Bohr)
 Number     Number              X              Y              Z
 -------------------------------------------------------------------
      1        6          -0.000383058    0.000048800   -0.000095074
      2        6           0.000291023    0.000016221    0.000023143
      3        6           0.000005756   -0.000056878    0.000005494
      4        6           0.000148755   -0.000031111    0.000049146
      5        6          -0.000189898   -0.000016395   -0.000015739
      6        6           0.000832874    0.000306893   -0.000397295
      7        1           0.000069804   -0.000040252    0.000036781
      8        1          -0.000053415   -0.000019816    0.000007557
      9        1          -0.000085988    0.000012011   -0.000012314
     10        1           0.000136556   -0.000023860    0.000013408
     11        5          -0.000504741    0.000023393    0.000042220
     12        8          -0.000230976    0.000473700   -0.000393605
     13        1           0.000398290   -0.000040211    0.000061325
     14        8          -0.000186719   -0.000563367    0.000362414
     15        1           0.000397955    0.000104205   -0.000043260
     16        6          -0.000765177   -0.000260250    0.001004701
     17        8           0.000214330    0.000015604   -0.000300587
     18        6           0.000001668    0.000304579   -0.000505807
     19        1           0.000021630   -0.000169820    0.000094233
     20        1          -0.000014580   -0.000081787    0.000078365
     21        1          -0.000104089   -0.000001659   -0.000015105
 -------------------------------------------------------------------
 Cartesian Forces:  Max     0.001004701 RMS     0.000282043

 GradGradGradGradGradGradGradGradGradGradGradGradGradGradGradGradGradGrad
 Berny optimization.
 Using GEDIIS/GDIIS optimizer.
 FormGI is forming the generalized inverse of G from B-inverse, IUseBI=4.
 Internal  Forces:  Max     0.000651036 RMS     0.000156677
 Search for a local minimum.
 Step number   3 out of a maximum of  105
 All quantities printed in internal units (Hartrees-Bohrs-Radians)
 Mixed Optimization -- En-DIIS/RFO-DIIS
 Swapping is turned off.
 Update second derivatives using D2CorX and points    1    2    3
 DE= -9.03D-05 DEPred=-8.62D-05 R= 1.05D+00
 TightC=F SS=  1.41D+00  RLast= 3.04D-02 DXNew= 5.3527D-01 9.1236D-02
 Trust test= 1.05D+00 RLast= 3.04D-02 DXMaxT set to 3.18D-01
 ITU=  1  1  0
     Eigenvalues ---    0.00558   0.00599   0.00706   0.00869   0.01519
     Eigenvalues ---    0.01545   0.01655   0.01965   0.02018   0.02033
     Eigenvalues ---    0.02064   0.02069   0.02089   0.02106   0.02367
     Eigenvalues ---    0.02379   0.07184   0.07343   0.13532   0.16000
     Eigenvalues ---    0.16000   0.16000   0.16000   0.16000   0.16000
     Eigenvalues ---    0.16034   0.16307   0.22032   0.22949   0.23945
     Eigenvalues ---    0.24269   0.25000   0.25000   0.25000   0.25036
     Eigenvalues ---    0.25657   0.27549   0.30267   0.32199   0.34048
     Eigenvalues ---    0.34085   0.34744   0.35432   0.35438   0.35479
     Eigenvalues ---    0.35487   0.40674   0.41177   0.44037   0.44164
     Eigenvalues ---    0.45262   0.46627   0.47578   0.49518   0.53099
     Eigenvalues ---    0.53737   0.80227
 En-DIIS/RFO-DIIS/Sim-DIIS IScMMF=       -3 using points:     3    2
 RFO step:  Lambda=-2.47734773D-05.
 DidBck=T Rises=F RFO-DIIS coefs:    0.67139    0.32861
 Iteration  1 RMS(Cart)=  0.00690783 RMS(Int)=  0.00004750
 Iteration  2 RMS(Cart)=  0.00007022 RMS(Int)=  0.00002428
 Iteration  3 RMS(Cart)=  0.00000000 RMS(Int)=  0.00002428
 Variable       Old X    -DE/DX   Delta X   Delta X   Delta X     New X
                                 (Linear)    (Quad)   (Total)
    R1        2.62951   0.00012  -0.00027   0.00061   0.00034   2.62985
    R2        2.65637  -0.00008   0.00035  -0.00072  -0.00037   2.65600
    R3        2.05161   0.00001  -0.00012   0.00023   0.00011   2.05171
    R4        2.66231  -0.00010   0.00017  -0.00053  -0.00035   2.66195
    R5        2.05344  -0.00001  -0.00020   0.00027   0.00007   2.05352
    R6        2.65696   0.00001   0.00024  -0.00034  -0.00010   2.65686
    R7        2.95807  -0.00012  -0.00197   0.00240   0.00043   2.95850
    R8        2.63569   0.00006  -0.00040   0.00066   0.00026   2.63595
    R9        2.05343  -0.00003  -0.00019   0.00021   0.00002   2.05345
   R10        2.65557  -0.00007   0.00015  -0.00043  -0.00028   2.65530
   R11        2.05217  -0.00009  -0.00012  -0.00010  -0.00021   2.05196
   R12        2.83353   0.00065  -0.00263   0.00579   0.00316   2.83669
   R13        2.59963   0.00056   0.00013   0.00085   0.00098   2.60061
   R14        2.59816   0.00059   0.00007   0.00099   0.00106   2.59922
   R15        1.82721   0.00040  -0.00071   0.00168   0.00097   1.82818
   R16        1.82713   0.00040  -0.00072   0.00170   0.00099   1.82812
   R17        2.31439  -0.00026   0.00230  -0.00389  -0.00159   2.31280
   R18        2.87078   0.00027  -0.00194   0.00363   0.00169   2.87247
   R19        2.07342  -0.00012  -0.00008  -0.00028  -0.00035   2.07306
   R20        2.07338  -0.00008  -0.00008  -0.00013  -0.00021   2.07317
   R21        2.06278   0.00010   0.00010   0.00019   0.00029   2.06307
    A1        2.10110   0.00004   0.00002   0.00019   0.00020   2.10130
    A2        2.11457  -0.00011   0.00047  -0.00138  -0.00090   2.11367
    A3        2.06751   0.00007  -0.00049   0.00119   0.00070   2.06822
    A4        2.11442  -0.00007  -0.00042   0.00027  -0.00015   2.11427
    A5        2.08990  -0.00002   0.00088  -0.00148  -0.00061   2.08930
    A6        2.07886   0.00009  -0.00045   0.00121   0.00076   2.07962
    A7        2.06096   0.00002   0.00048  -0.00059  -0.00012   2.06084
    A8        2.11217  -0.00002  -0.00019   0.00017  -0.00003   2.11214
    A9        2.11006   0.00001  -0.00028   0.00043   0.00014   2.11020
   A10        2.11302   0.00004  -0.00014   0.00043   0.00029   2.11331
   A11        2.08066   0.00006  -0.00061   0.00134   0.00073   2.08139
   A12        2.08951  -0.00011   0.00075  -0.00177  -0.00102   2.08849
   A13        2.10117  -0.00007  -0.00018  -0.00010  -0.00028   2.10089
   A14        2.07970  -0.00007   0.00020  -0.00083  -0.00063   2.07907
   A15        2.10232   0.00014  -0.00002   0.00093   0.00091   2.10323
   A16        2.07570   0.00004   0.00025  -0.00020   0.00005   2.07575
   A17        2.07294  -0.00042   0.00003  -0.00182  -0.00179   2.07116
   A18        2.13454   0.00038  -0.00027   0.00201   0.00174   2.13628
   A19        2.05881  -0.00004   0.00053  -0.00094  -0.00041   2.05840
   A20        2.05881  -0.00002   0.00052  -0.00084  -0.00032   2.05850
   A21        2.16556   0.00006  -0.00105   0.00178   0.00072   2.16628
   A22        2.03704  -0.00013   0.00485  -0.00813  -0.00329   2.03376
   A23        2.03899  -0.00016   0.00496  -0.00850  -0.00353   2.03546
   A24        2.10770  -0.00003  -0.00083   0.00105   0.00009   2.10779
   A25        2.07699  -0.00014   0.00276  -0.00433  -0.00171   2.07529
   A26        2.09848   0.00017  -0.00192   0.00342   0.00136   2.09983
   A27        1.93751  -0.00019  -0.00056  -0.00060  -0.00115   1.93636
   A28        1.93745  -0.00006  -0.00037   0.00016  -0.00021   1.93724
   A29        1.89836   0.00008   0.00068  -0.00039   0.00029   1.89865
   A30        1.87247   0.00014   0.00047   0.00034   0.00082   1.87329
   A31        1.90892   0.00003  -0.00011   0.00026   0.00015   1.90906
   A32        1.90883   0.00000  -0.00013   0.00025   0.00012   1.90895
    D1       -0.00011   0.00000  -0.00002  -0.00001  -0.00003  -0.00014
    D2        3.14151   0.00000  -0.00004  -0.00009  -0.00013   3.14138
[...]
 56627,0.01115942,0.00085501,-0.00041049,0.00084956,0.00014624,-0.00043
 061,-0.00061461,0.00044012,-0.00083553,-0.00238582,-0.10100286,0.18305
 376,0.00213370,0.00450519,0.00344962,0.00041768,-0.00041360,-0.0002906
 6,-0.00048847,0.00269498,0.00537262,0.00043597,0.00116543,0.00322541,-
 0.07753347,0.11281957,-0.12675837,-0.00859668,0.00895275,-0.00546246,-
 0.00063115,0.00070513,0.00005922,0.00002103,-0.00061432,-0.00083729,0.
 00013821,-0.00243688,-0.00235343,0.08523982,-0.12544074,0.12521139,0.0
 0137140,-0.00094989,0.00021443,-0.01053359,-0.00857652,0.00510436,-0.1
 9744543,-0.00934338,-0.00623116,-0.01255189,0.00631768,-0.00598532,0.0
 0126147,0.00102859,-0.00126069,0.00705616,-0.00034623,0.00103057,0.000
 55588,0.00022985,-0.00011633,0.00025478,0.00137365,-0.00072213,0.00023
 545,-0.00096998,0.00099903,0.00066016,-0.00038502,0.00033345,0.5278677
 3,-0.00387362,-0.00089737,0.00493503,-0.01737682,0.00374224,-0.0032028
 3,-0.00940348,-0.06682422,0.00274103,0.01533934,0.00684289,-0.00242982
 ,0.00368622,-0.00015587,0.00525468,0.00061986,-0.00248025,0.00114824,-
 0.00091060,0.00001599,-0.00008482,-0.00132818,-0.00267139,-0.00013007,
 0.00176647,-0.00265857,0.00008121,0.00107114,0.00007054,0.00014786,0.0
 1554505,0.43593727,0.00235571,0.00521841,0.00275843,0.01154486,-0.0023
 6124,0.00449736,-0.00620093,0.00274924,-0.06444746,-0.01259034,-0.0032
 9715,0.00270220,-0.00320906,0.00499760,0.00256338,0.00032250,0.0010542
 6,-0.00173494,0.00071862,0.00002562,0.00007161,0.00125334,0.00012857,-
 0.00264985,-0.00099814,-0.00018739,-0.00274777,-0.00073297,0.00000680,
 0.00005449,0.02562143,-0.21121989,0.30269357,-0.00139800,-0.00091195,0
 .00056557,-0.00405660,0.00298944,-0.00268537,-0.01807285,-0.02365333,0
 .01493444,-0.00240952,-0.00162402,0.00090484,0.00119933,-0.00014886,0.
 00025237,-0.00224952,-0.00070747,0.00029731,-0.00051205,-0.00004193,-0
 .00000993,0.00018524,-0.00013185,0.00010663,-0.00147505,-0.00035850,0.
 00014581,-0.00021096,0.00012977,-0.00011424,-0.13259210,-0.09812910,0.
 06350148,0.64194311,-0.00034265,0.00022906,-0.00044933,0.00016207,0.00
 150041,-0.00028655,-0.01113342,-0.00093549,0.00442881,0.00023310,-0.00
 269884,0.00240778,-0.00020932,0.00035665,-0.00049566,-0.00134345,-0.00
 003871,-0.00007100,-0.00010172,-0.00004718,-0.00004382,0.00048113,0.00
 045192,-0.00022641,0.00011499,0.00062904,-0.00063386,-0.00028780,0.000
 07030,-0.00008878,-0.06510355,-0.19676685,0.10387543,0.12450121,0.2519
 1463,0.00014835,-0.00050483,0.00004457,-0.00061610,-0.00001299,0.00103
 755,0.00577058,0.00321049,0.00477360,-0.00045820,0.00222573,-0.0011195
 9,0.00029725,-0.00048986,0.00009420,0.00076263,-0.00000926,0.00012251,
 0.00003396,-0.00003799,-0.00006238,-0.00034222,-0.00028576,0.00025545,
 -0.00020416,-0.00066663,0.00024751,0.00019152,-0.00004826,0.00004119,0
 .03931753,0.10066657,-0.11622379,-0.03181108,-0.15076623,0.13688633,0.
 00001601,-0.00043831,0.00037878,-0.00112831,0.00048984,-0.00051200,0.0
 0216102,-0.00287649,0.00184490,0.00054492,-0.00012987,0.00017137,-0.00
 004747,0.00009018,-0.00005786,0.00015766,0.00002056,-0.00001107,-0.000
 09397,0.00002493,-0.00002485,-0.00001449,-0.00009967,0.00004919,0.0000
 8630,0.00001867,0.00000397,-0.00002200,-0.00000476,-0.00000182,-0.0179
 6116,0.00463494,-0.00513253,-0.50077736,-0.03882568,-0.01918390,0.5131
 4198,-0.00000124,-0.00040865,-0.00012308,-0.00079967,0.00044911,-0.000
 07205,-0.00002462,-0.00085453,0.00417182,0.00054181,-0.00024497,0.0000
 4277,-0.00000987,0.00009115,-0.00015576,0.00021903,0.00003482,0.000076
 02,-0.00005806,-0.00000603,-0.00002011,-0.00005567,0.00002704,0.000143
 49,-0.00024108,0.00027209,-0.00029308,0.00002439,0.00000188,0.00002503
 ,-0.02916357,-0.00089957,-0.00216797,-0.00851800,-0.02431641,0.0098713
 0,0.03440402,0.02687550,0.00005813,-0.00016549,-0.00045006,0.00043258,
 0.00005310,0.00045926,-0.00023838,0.00389805,0.00196902,-0.00031809,-0
 .00002204,-0.00027328,0.00001400,-0.00014559,-0.00001110,-0.00015579,0
 .00005652,0.00005288,0.00003591,-0.00001208,-0.00001352,0.00001707,0.0
 0013921,0.00013012,0.00019332,-0.00026882,0.00011877,-0.00002320,0.000
 02223,0.00001434,0.01961426,0.00110721,0.00108849,-0.04138146,0.006931
 36,-0.01878224,0.02380440,-0.01062207,0.01788844,0.00117570,0.00021019
 ,0.00001271,-0.00248391,0.00146898,-0.00138575,-0.02032923,0.02048326,
 -0.01758808,-0.00378249,-0.00362616,0.00217425,-0.00147960,0.00062787,
 -0.00055801,-0.00239089,0.00090423,-0.00092414,-0.00015774,-0.00006921
 ,0.00003483,-0.00144492,0.00013186,-0.00021878,0.00020836,0.00012628,-
 0.00008116,-0.00063871,0.00009130,-0.00011886,-0.14482119,0.09599817,-
 0.07987565,0.01584833,-0.00592690,0.00359966,0.00306509,0.00260500,-0.
 00117777,0.65552455,0.00029548,0.00036681,-0.00064052,-0.00036285,-0.0
 0247311,0.00230178,0.00790456,0.00336683,0.00299460,-0.00087975,0.0010
 1719,0.00005006,0.00015347,0.00039957,-0.00061082,0.00101050,-0.000015
 55,0.00034604,0.00022393,0.00003552,-0.00000055,-0.00033339,0.00064451
 ,-0.00067910,-0.00049599,0.00040447,-0.00027780,0.00007488,-0.00007217
 ,-0.00001534,0.06302778,-0.17480947,0.10026540,0.00878879,-0.03057025,
 0.04045057,0.00365871,0.00099778,-0.00363407,-0.05419560,0.22736205,-0
 .00004995,-0.00064824,-0.00007598,-0.00004421,0.00248345,-0.00110025,-
 0.00837338,0.00420495,0.00251051,0.00016350,-0.00021758,0.00137480,-0.
 00021160,-0.00056491,-0.00006121,-0.00100280,0.00033588,-0.00001926,-0
 .00017979,-0.00002884,0.00000910,0.00012627,-0.00062690,0.00025102,0.0
 0037491,-0.00021778,0.00028610,-0.00010670,-0.00001375,-0.00010329,-0.
 05571477,0.10345077,-0.12748356,-0.00717745,0.03902251,-0.00578604,-0.
 00195209,-0.00373503,-0.00190166,0.10027302,-0.15018977,0.14924761,-0.
 00004301,-0.00008435,0.00006048,0.00058024,0.00023266,-0.00008207,0.00
 194558,0.00286311,-0.00238743,-0.00114970,-0.00069074,0.00035169,-0.00
 000339,0.00048826,-0.00030101,0.00017205,-0.00003800,0.00004084,-0.000
 01549,-0.00000018,-0.00000487,0.00006407,-0.00002379,0.00003261,-0.000
 02221,0.00007814,-0.00008285,-0.00011000,-0.00002775,0.00001282,-0.019
 48442,-0.00733823,0.00350125,0.00345693,-0.00294855,0.00292564,0.00094
 115,0.00115371,-0.00092404,-0.49954786,-0.02823231,-0.02671452,0.51327
 757,-0.00000930,0.00012011,-0.00010792,-0.00039686,-0.00032076,-0.0000
 4966,0.00001620,-0.00040783,0.00391255,0.00057331,0.00045547,0.0000468
 2,0.00007798,-0.00033875,-0.00017410,-0.00019965,-0.00000982,0.0000140
 2,-0.00001809,0.00001238,0.00001573,0.00022818,0.00030517,-0.00026954,
 0.00003573,0.00005107,0.00014391,0.00004419,-0.00000257,-0.00001745,0.
 02648757,0.00207550,0.00100687,-0.00188847,0.00023791,-0.00362174,-0.0
 0099000,-0.00205340,0.00268466,-0.05858850,-0.02692507,0.00697215,0.03
 457024,0.02680087,0.00000478,-0.00011560,0.00005858,0.00038061,0.00001
 208,-0.00030716,-0.00029790,0.00418684,0.00183296,-0.00057551,-0.00007
 527,0.00044317,-0.00000025,-0.00013393,-0.00048804,0.00015963,0.000029
 52,0.00002935,0.00000822,0.00001748,0.00002427,-0.00015199,-0.00029406
 ,0.00010754,-0.00005181,0.00014794,0.00012932,-0.00003997,-0.00002443,
 -0.00001822,-0.02129679,-0.00226135,-0.00044417,0.00215077,-0.00372250
 ,-0.00152185,0.00064706,0.00289047,-0.00031138,-0.00446445,0.00990484,
 -0.01736403,0.02357719,-0.01057281,0.01782761,-0.03158879,0.01073078,-
 0.01121290,0.00454054,0.00311668,-0.00254175,0.00451802,0.00032638,0.0
 0030463,0.00532590,-0.00147817,0.00083825,-0.01416050,-0.01344665,0.00
 843057,-0.17462306,0.00822476,-0.01528552,-0.00000976,-0.00197374,0.00
 180207,0.00024090,-0.00036166,0.00027260,0.00083385,0.00046477,-0.0002
 9313,0.00041048,0.00228616,-0.00123984,-0.00957569,-0.00061567,-0.0003
 7805,0.00321303,0.00200884,-0.00116728,-0.00011300,-0.00025715,0.00017
 903,0.00336992,-0.00159992,0.00149670,-0.00013323,0.00021960,-0.000176
 35,0.57016981,0.01776688,0.01274955,-0.00538882,0.00554830,-0.00085547
 ,0.00642955,-0.00032439,-0.00279356,0.00121261,-0.00246698,-0.00104358
 ,0.00624556,-0.02523779,0.00024179,-0.00225564,0.02024903,-0.09451900,
 0.01328109,0.00105423,-0.00339193,-0.00012876,0.00163573,0.00014177,0.
 00017029,-0.00106248,0.00016753,0.00002749,-0.00025632,-0.00204104,-0.
 00147611,-0.00094232,-0.00058046,-0.00038813,0.00022805,0.00016787,-0.
 00005142,-0.00000741,-0.00000929,-0.00000444,0.00052718,-0.00019459,0.
 00020329,-0.00001288,0.00007552,-0.00003836,0.13823539,0.63398191,-0.0
 1636112,-0.00607161,0.00590462,-0.00431792,0.00619790,0.00223910,0.000
 78180,0.00127470,-0.00195351,0.00156786,0.00634107,0.00331810,0.017064
 19,-0.00111558,0.00295993,-0.02409871,0.01210995,-0.09027852,-0.000411
 82,-0.00042416,-0.00344027,-0.00118996,-0.00002255,0.00006049,0.000825
 38,0.00017484,0.00029620,0.00061370,-0.00122704,-0.00306744,-0.0001423
 7,-0.00035700,-0.00073870,0.00013772,0.00012133,-0.00000797,-0.0000040
 5,-0.00002866,0.00000627,-0.00006104,-0.00000266,0.00000928,-0.0000059
 1,-0.00001587,0.00003595,-0.06745024,-0.28909229,0.42637689,-0.0009002
 0,-0.00254092,0.00177194,0.00121433,-0.00121022,0.00106206,-0.00235915
 ,-0.00153176,0.00088515,-0.00330405,-0.00130620,0.00080235,-0.00545337
 ,0.00596001,-0.00516785,-0.03918213,-0.04543974,0.02765578,-0.00265716
 ,-0.00056884,0.00017998,-0.00008910,0.00013945,-0.00012289,-0.00096235
 ,-0.00013439,0.00003425,0.00028871,-0.00062086,0.00042126,0.00440470,0
 .00007367,0.00035720,-0.00161101,-0.00091025,0.00051019,0.00003493,0.0
 0013508,-0.00009512,-0.00162964,0.00081174,-0.00075398,0.00006110,-0.0
 0012494,0.00010016,-0.21863704,-0.19856211,0.13073958,0.24785910,0.005
 67445,-0.00533889,0.00448714,-0.00177528,0.00025858,-0.00079980,-0.000
 35957,0.00011198,-0.00005472,-0.00148787,-0.00030450,-0.00117069,0.000
 55725,0.00477453,-0.00136951,-0.03845199,-0.00391753,0.01301370,0.0000
 9465,0.00183681,-0.00147025,-0.00040048,0.00010613,-0.00002349,-0.0003
 4014,-0.00016669,-0.00012820,0.00045997,0.00055750,0.00010532,0.002272
 04,0.00007723,0.00027243,-0.00070925,-0.00031316,0.00016632,0.00003721
 ,0.00004786,-0.00003572,-0.00091424,0.00052980,-0.00046399,0.00002824,
 -0.00008764,0.00004661,-0.19046211,-0.41746094,0.23861682,0.23490347,0
 .45614488,-0.00424787,0.00369599,-0.00307441,0.00147497,-0.00074682,0.
 00008790,0.00002642,-0.00016755,0.00021086,0.00093513,-0.00115290,-0.0
 0077144,-0.00121125,-0.00084652,0.00333413,0.02254168,0.01233238,0.012
 07345,-0.00030946,-0.00152896,0.00092034,0.00027240,0.00002875,0.00013
 228,0.00018469,-0.00010837,-0.00019966,-0.00037099,-0.00000026,0.00060
 320,-0.00125176,0.00006018,-0.00001538,0.00036268,0.00014671,-0.000064
 86,-0.00002330,-0.00002622,0.00001118,0.00051007,-0.00029678,0.0002840
 3,-0.00001207,0.00003171,-0.00005224,0.12480754,0.23782369,-0.22871989
 ,-0.15042338,-0.29376785,0.22474068,-0.00464497,-0.00251125,0.00122630
 ,-0.00055138,0.00138379,-0.00098731,-0.00055128,0.00014527,-0.00020337
 ,0.00040190,0.00037409,-0.00007608,-0.00274413,0.00023443,-0.00030496,
 -0.01343518,0.01935534,-0.01703488,0.00005211,0.00010443,-0.00008259,-
 0.00045841,-0.00002978,0.00000028,-0.00006300,-0.00005250,0.00002832,-
 0.00216263,0.00018533,-0.00049984,0.00094860,0.00015843,-0.00004229,-0
 .00037564,-0.00026409,0.00016130,0.00000621,0.00003878,-0.00003019,-0.
 00038750,0.00012559,-0.00012452,0.00000398,-0.00003309,0.00002411,-0.1
 3640957,0.04009917,-0.03406978,0.01949693,-0.01221633,0.00838881,0.571
 84149,-0.00317303,0.00078400,0.00034361,0.00038899,0.00061764,-0.00100
 637,0.00024781,-0.00012154,0.00044324,-0.00008299,-0.00054716,-0.00080
 484,0.00070711,-0.00084565,-0.00032792,0.00153970,0.01030756,0.0043149
 3,-0.00035162,0.00020347,-0.00010094,-0.00017734,-0.00007767,-0.000130
 40,-0.00000300,0.00003304,0.00000527,-0.00042952,0.00076585,0.00058483
 ,-0.00051239,-0.00000956,0.00009302,0.00017550,0.00012046,-0.00010311,
 -0.00000771,-0.00000956,0.00002401,0.00016449,-0.00007710,0.00003507,-
 0.00001498,0.00000558,-0.00000180,0.03596321,-0.11227547,0.02120291,0.
 00604344,-0.03091564,0.04180751,0.05375539,0.51359762,0.00171448,0.000
 40556,0.00154150,-0.00026170,-0.00091106,-0.00016629,-0.00027863,0.000
 43459,0.00010569,0.00025898,-0.00076101,-0.00105086,-0.00064715,-0.000
 37018,-0.00117639,-0.00398158,0.00603884,0.01117372,0.00025217,-0.0000
 5697,0.00017815,0.00010792,-0.00011625,-0.00013686,-0.00000783,0.00000
 046,0.00003951,-0.00005231,0.00064693,0.00115046,0.00045005,0.00015781
 ,0.00011257,-0.00016095,-0.00014591,0.00004787,0.00000388,0.00002854,0
 .00000366,-0.00015330,0.00003128,-0.00008874,0.00001093,-0.00000351,0.
 00000879,-0.03103156,0.02160189,-0.10692039,-0.00498918,0.04003248,-0.
 00447599,-0.03525075,0.01646351,0.51342034,0.00057240,-0.00042320,-0.0
 0002181,-0.00030695,-0.00013124,0.00033302,-0.00000100,0.00012135,-0.0
 0019653,0.00007611,0.00009361,0.00041061,-0.00109048,0.00037637,-0.000
 19746,-0.00123500,-0.00107524,-0.00156605,0.00008540,-0.00006134,0.000
 02109,0.00000395,0.00001669,0.00003104,-0.00000632,-0.00000593,0.00000
 173,-0.00176260,0.00005334,0.00050526,0.00000946,-0.00001489,-0.000066
 60,0.00001306,-0.00001815,0.00000363,-0.00000086,-0.00000072,0.0000046
 4,0.00002317,-0.00001323,0.00002221,0.00000130,0.00000710,-0.00000060,
 0.00528535,0.01483693,0.01122506,-0.00017822,0.00084218,-0.00301567,-0
 .05489846,-0.03352594,-0.01395386,0.05422781,0.00035723,0.00011031,0.0
 0033912,-0.00024223,-0.00012549,-0.00009773,-0.00008210,0.00020021,-0.
 00016819,0.00033604,0.00023668,-0.00001924,-0.00051443,-0.00001980,0.0
 0062529,0.00018369,0.00059466,0.00123370,-0.00015094,0.00007459,-0.000
 04034,0.00001968,-0.00001699,-0.00002018,0.00001987,0.00000367,0.00000
 914,-0.00008300,0.00040792,-0.00054483,0.00005823,-0.00000674,-0.00004
 535,-0.00001463,0.00000289,0.00001037,0.00000064,0.00000186,-0.0000041
 5,-0.00004123,0.00002619,-0.00000994,-0.00000186,-0.00000217,0.0000032
 7,-0.00687610,-0.01837440,-0.00834460,0.00295310,-0.00139575,0.0041957
 4,-0.03483361,-0.27595185,-0.08548385,0.03952922,0.29883699,0.00010635
 ,0.00001190,-0.00027994,0.00003674,0.00007306,0.00010916,-0.00007242,-
 0.00012701,-0.00003098,-0.00025403,0.00041950,-0.00000201,-0.00011192,
 -0.00068546,0.00067069,-0.00006898,-0.00123505,-0.00083102,0.00003077,
 0.00000915,-0.00000242,0.00000843,0.00002697,0.00001502,0.00002123,-0.
 00000539,0.00000569,0.00024592,0.00008941,-0.00038188,0.00004891,-0.00
 002258,-0.00000979,-0.00002199,0.00000645,-0.00000646,0.00000072,-0.00
 000106,0.00000051,-0.00003874,0.00002566,-0.00002051,-0.00000115,-0.00
 000173,0.00000456,0.00504971,0.01818692,0.00801176,-0.00140676,0.00130
 544,-0.00482975,-0.01381033,-0.08130264,-0.07084936,0.01512227,0.09059
 050,0.07809523,0.00056365,-0.00004441,0.00047048,-0.00028748,-0.000385
 97,-0.00001306,-0.00003282,0.00023840,-0.00005553,0.00013937,-0.000324
 26,-0.00026661,-0.00110405,0.00004214,-0.00040080,-0.00148906,0.000995
 93,0.00141722,0.00007073,-0.00002514,0.00005455,0.00001218,-0.00002293
 ,-0.00002551,-0.00000183,-0.00000500,0.00000469,-0.00165512,-0.0005119
 6,-0.00044293,0.00001029,0.00006376,0.00004058,0.00000753,-0.00000794,
 0.00001604,-0.00000021,-0.00000429,-0.00000070,0.00001565,-0.00001842,
 0.00000342,0.00000161,0.00000184,-0.00000618,0.00795751,-0.00560004,-0
 .01712486,-0.00040109,0.00328329,0.00010965,-0.06850155,0.00255399,0.0
 6648384,0.00059559,-0.00029063,-0.00486701,0.06961067,0.00010480,-0.00
 034728,-0.00008526,-0.00015948,0.00004805,0.00012638,0.00005542,0.0001
 0094,-0.00016576,0.00032174,-0.00009692,0.00033446,-0.00014416,0.00062
 974,-0.00052257,0.00024534,-0.00058502,-0.00150208,-0.00006685,0.00000
 418,-0.00001425,-0.00000649,0.00000761,0.00003265,-0.00001435,0.000002
 57,-0.00000654,-0.00036680,-0.00024776,-0.00016075,-0.00002695,0.00001
 304,-0.00001751,0.00001787,-0.00000965,0.00000596,-0.00000059,0.000001
 66,-0.00000112,0.00002656,-0.00002041,0.00001449,0.00000036,0.00000376
 ,-0.00000047,-0.00941680,0.00150225,0.02224359,0.00274235,-0.00556976,
 0.00013599,0.00150341,-0.04107466,-0.00235454,0.00853551,0.00049755,-0
 .03124516,-0.00216213,0.04562521,-0.00034026,0.00015332,0.00018630,0.0
 0019852,-0.00005522,-0.00008467,0.00010304,-0.00016958,0.00010025,-0.0
 0025354,-0.00018979,0.00026714,0.00030004,0.00088898,0.00003323,-0.000
 46780,0.00093331,0.00061803,0.00014062,-0.00005090,0.00008257,-0.00001
 713,-0.00001638,-0.00001783,-0.00002708,0.00000639,0.00000227,-0.00017
 121,-0.00080932,0.00014888,-0.00006186,-0.00003840,-0.00003016,0.00002
 011,0.00000702,0.00001146,-0.00000052,-0.00000469,0.00000006,0.0000518
 0,-0.00002273,0.00003354,0.00000197,0.00000554,-0.00000166,0.00776272,
 -0.00182599,-0.01454361,-0.00264997,0.00288009,-0.00042597,0.06807765,
 -0.00631261,-0.29211345,0.00307796,-0.00015671,-0.01003330,-0.07593635
 ,0.00511786,0.31592325,-0.00079479,-0.00054821,0.00029275,-0.00011642,
 0.00028696,-0.00020327,-0.00013973,0.00004719,-0.00004498,0.00011456,-
 0.00004604,0.00002487,0.00055385,0.00031318,-0.00019104,-0.00020778,0.
 00260416,-0.00207306,0.00000966,0.00005285,-0.00004470,-0.00010485,-0.
 00000372,-0.00000404,-0.00003221,-0.00001247,0.00000499,0.00013458,0.0
 0006217,0.00000810,0.00032938,0.00003354,0.00000960,-0.00012592,-0.000
 07787,0.00004467,0.00000356,0.00001212,-0.00000860,-0.00013710,0.00005
 604,-0.00005426,0.00000375,-0.00001305,0.00000925,-0.02061468,-0.00570
 818,0.00228249,0.00400472,-0.00103549,0.00125173,-0.30756752,-0.063261
 13,0.02148655,-0.00141372,-0.00032695,-0.00001772,-0.00551159,-0.00118
 876,0.00019125,0.33161223,0.00104665,0.00054543,-0.00005930,0.00015048
 ,-0.00030235,0.00009945,-0.00005442,-0.00006516,0.00001850,-0.00006759
 ,0.00032929,-0.00009559,-0.00028391,-0.00067296,0.00058247,0.00085104,
 -0.00267769,0.00313826,-0.00000787,0.00003882,0.00002300,0.00010357,-0
 .00000225,-0.00001340,0.00003007,0.00000733,0.00000520,-0.00016169,0.0
 0023523,-0.00049728,-0.00002067,-0.00001439,-0.00000901,0.00000672,0.0
 0001539,-0.00000924,0.00000079,0.00000166,-0.00000075,-0.00000352,0.00
 000695,-0.00000583,-0.00000113,0.00000466,0.00000152,0.02491138,0.0045
 1154,-0.00158109,-0.00081206,0.00102519,-0.00161640,-0.06752280,-0.064
 52936,0.00436140,-0.02914243,-0.00510031,0.00388110,0.00222376,-0.0004
 8510,-0.00034018,0.06875364,0.06712806,-0.00087638,-0.00021411,0.00039
 690,-0.00010317,0.00011357,-0.00027878,0.00002956,0.00002781,-0.000050
 56,0.00004009,-0.00009275,0.00028022,0.00024580,0.00063985,-0.00028488
 ,-0.00078779,0.00330749,-0.00100872,-0.00000019,0.00002873,0.00004987,
 -0.00008277,-0.00002369,-0.00002469,-0.00002618,0.00000108,0.00000715,
 0.00017282,-0.00047535,-0.00005775,0.00004916,-0.00000383,-0.00001652,
 -0.00001725,-0.00001739,0.00001295,-0.00000029,0.00000034,0.00000026,-
 0.00001060,-0.00000007,-0.00000148,0.00000051,0.00000037,0.00000666,-0
 .02016720,-0.00453241,0.00045172,0.00108924,-0.00164216,0.00023155,0.0
 2461011,0.00477273,-0.05080394,-0.01173996,-0.00207202,0.00036480,0.03
 053907,0.00806465,-0.00015634,-0.02296458,-0.00788283,0.05088158\\0.00
 001482,0.00000760,-0.00000374,-0.00000177,0.00001316,-0.00000694,-0.00
 005104,0.00000290,0.00001867,-0.00000037,0.00000216,0.00000255,0.00002
 220,0.00001516,-0.00001375,-0.00002127,-0.00001072,0.00000919,-0.00000
 263,-0.00000492,0.00000316,-0.00000180,-0.00000450,0.00000478,-0.00000
 554,0.00000128,-0.00000382,0.00000180,-0.00000444,0.00000324,0.0000819
 1,-0.00003760,-0.00004234,-0.00007028,0.00003179,-0.00001071,0.0000507
 3,0.00000506,0.00000492,-0.00006466,-0.00001703,0.00003030,0.00004965,
 0.00000115,0.00000572,0.00004923,0.00000018,0.00000311,-0.00003106,-0.
 00003006,0.00001873,-0.00000426,0.00001826,-0.00001418,-0.00000229,0.0
 0000458,-0.00001084,-0.00000733,0.00001158,-0.00000101,-0.00000604,-0.
 00000559,0.00000297\\\@


 MY GROUP MEETINGS AREN'T VERY STRUCTURED.
     -- PROF. M. S. GORDON, OCT. 5, 1984
 Job cpu time:       0 days  1 hours  6 minutes 21.9 seconds.
 Elapsed time:       0 days  0 hours  2 minutes 12.8 seconds.
 File lengths (MBytes):  RWF=    141 Int=      0 D2E=      0 Chk=      6 Scr=      1
 Normal termination of Gaussian 16 at Thu Sep 14 11:32:34 2023.
