 Entering Gaussian System, Link 0=/home/ubuntu/g16/g16
 Input=/home/ubuntu/ML substrates/MOLECULE_24.gjf
 Output=/home/ubuntu/ML substrates/MOLECULE_24.log
 Initial command:
 /home/ubuntu/g16/l1.exe "/home/ubuntu/Scratch/Gau-15977.inp" -scrdir="/home/ubuntu/Scratch/"
 Entering Link 1 = /home/ubuntu/g16/l1.exe PID=     15979.
  
 Copyright (c) 1988-2017, Gaussian, Inc.  All Rights Reserved.
  
 This is part of the Gaussian(R) 16 program.  It is based on
 the Gaussian(R) 09 system (copyright 2009, Gaussian, Inc.),
 the Gaussian(R) 03 system (copyright 2003, Gaussian, Inc.),
 the Gaussian(R) 98 system (copyright 1998, Gaussian, Inc.),
 the Gaussian(R) 94 system (copyright 1995, Gaussian, Inc.),
 the Gaussian 92(TM) system (copyright 1992, Gaussian, Inc.),
 the Gaussian 90(TM) system (copyright 1990, Gaussian, Inc.),
 the Gaussian 88(TM) system (copyright 1988, Gaussian, Inc.),
 the Gaussian 86(TM) system (copyright 1986, Carnegie Mellon
 University), and the Gaussian 82(TM) system (copyright 1983,
 Carnegie Mellon University). Gaussian is a federally registered
 trademark of Gaussian, Inc.
  
 This software contains proprietary and confidential information,
 including trade secrets, belonging to Gaussian, Inc.
  
 This software is provided under written license and may be
 used, copied, transmitted, or stored only in accord with that
 written license.
  
 The following legend is applicable only to US Government
 contracts under FAR:
  
                    RESTRICTED RIGHTS LEGEND
  
 Use, reproduction and disclosure by the US Government is
 subject to restrictions as set forth in subparagraphs (a)
 and (c) of the Commercial Computer Software - Restricted
 Rights clause in FAR 52.227-19.
  
 Gaussian, Inc.
 340 Quinnipiac St., Bldg. 40, Wallingford CT 06492
  
  
 ---------------------------------------------------------------
 Warning -- This program may not be used in any manner that
 competes with the business of Gaussian, Inc. or will provide
 assistance to any competitor of Gaussian, Inc.  The licensee
 of this program is prohibited from giving any competitor of
 Gaussian, Inc. access to this program.  By using this program,
 the user acknowledges that Gaussian, Inc. is engaged in the
 business of creating and licensing software in the field of
 computational chemistry and represents and warrants to the
 licensee that it is not a competitor of Gaussian, Inc. and that
 it will not use this program in any manner prohibited above.
 ---------------------------------------------------------------
  

 Cite this work as:
 Gaussian 16, Revision B.01,
 M. J. Frisch, G. W. Trucks, H. B. Schlegel, G. E. Scuseria, 
 M. A. Robb, J. R. Cheeseman, G. Scalmani, V. Barone, 
 G. A. Petersson, H. Nakatsuji, X. Li, M. Caricato, A. V. Marenich, 
 J. Bloino, B. G. Janesko, R. Gomperts, B. Mennucci, H. P. Hratchian, 
 J. V. Ortiz, A. F. Izmaylov, J. L. Sonnenberg, D. Williams-Young, 
 F. Ding, F. Lipparini, F. Egidi, J. Goings, B. Peng, A. Petrone, 
 T. Henderson, D. Ranasinghe, V. G. Zakrzewski, J. Gao, N. Rega, 
 G. Zheng, W. Liang, M. Hada, M. Ehara, K. Toyota, R. Fukuda, 
 J. Hasegawa, M. Ishida, T. Nakajima, Y. Honda, O. Kitao, H. Nakai, 
 T. Vreven, K. Throssell, J. A. Montgomery, Jr., J. E. Peralta, 
 F. Ogliaro, M. J. Bearpark, J. J. Heyd, E. N. Brothers, K. N. Kudin, 
 V. N. Staroverov, T. A. Keith, R. Kobayashi, J. Normand, 
 K. Raghavachari, A. P. Rendell, J. C. Burant, S. S. Iyengar, 
 J. Tomasi, M. Cossi, J. M. Millam, M. Klene, C. Adamo, R. Cammi, 
 J. W. Ochterski, R. L. Martin, K. Morokuma, O. Farkas, 
 J. B. Foresman, and D. J. Fox, Gaussian, Inc., Wallingford CT, 2016.
 
 ******************************************
 Gaussian 16:  EM64L-G16RevB.01 20-Dec-2017
                15-Sep-2023 
 ******************************************
 %nprocshared=30
 Will use up to   30 processors via shared memory.
 %mem=30GB
 %chk=MOLECULE_24.chk
 ----------------------------------------------------------------
 # opt freq b3lyp/6-31+g(d) nosymm empiricaldispersion=gd3 volume
 ----------------------------------------------------------------
 1/18=20,19=15,26=3,38=1/1,3;
 2/9=110,12=2,15=1,17=6,18=5,40=1/2;
 3/5=1,6=6,7=11,11=2,25=1,30=1,71=1,74=-5,124=31/1,2,3;
 4//1;
 5/5=2,38=5/2;
 6/7=2,8=2,9=2,10=2,28=1,44=1/1,4;
 7/30=1/1,2,3,16;
 1/18=20,19=15,26=3/3(2);
 2/9=110,15=1/2;
 99//99;
 2/9=110,15=1/2;
 3/5=1,6=6,7=11,11=2,25=1,30=1,71=1,74=-5,124=31/1,2,3;
 4/5=5,16=3,69=1/1;
 5/5=2,38=5/2;
 7/30=1/1,2,3,16;
 1/18=20,19=15,26=3/3(-5);
 2/9=110,15=1/2;
 6/7=2,8=2,9=2,10=2,19=2,28=1,44=1/1,4;
 99/9=1/99;
 -----------
 molecule_11
 -----------
 Symbolic Z-matrix:
 Charge =  0 Multiplicity = 1
 C                    -0.21709  -0.66044   0.38095 
 C                     1.18004  -0.65137   0.37771 
 C                     1.90226   0.50013   0.00029 
 C                     1.18091   1.65215  -0.37714 
 C                    -0.21629   1.6625   -0.38026 
 C                    -0.88263   0.50131   0.0004 
 H                     1.72655  -1.54147   0.66974 
 H                    -0.7844    2.53902  -0.66722 
 B                     3.45031   0.49951  -0.00037 
 O                     4.10974   1.66241  -0.38191 
 H                     5.07997   1.70481  -0.39625 
 O                     4.10911  -0.66362   0.38124 
 H                     5.07927  -0.70739   0.39469 
 H                     1.72783   2.54189  -0.66901 
 H                    -0.78583  -1.53635   0.66799 
 F                    -2.2763    0.50178   0.00028 
 

 GradGradGradGradGradGradGradGradGradGradGradGradGradGradGradGradGradGrad
 Berny optimization.
 Initialization pass.
                           ----------------------------
                           !    Initial Parameters    !
                           ! (Angstroms and Degrees)  !
 --------------------------                            --------------------------
 ! Name  Definition              Value          Derivative Info.                !
 --------------------------------------------------------------------------------
 ! R1    R(1,2)                  1.3972         estimate D2E/DX2                !
 ! R2    R(1,6)                  1.3919         estimate D2E/DX2                !
 ! R3    R(1,15)                 1.0831         estimate D2E/DX2                !
 ! R4    R(2,3)                  1.4107         estimate D2E/DX2                !
 ! R5    R(2,7)                  1.0845         estimate D2E/DX2                !
 ! R6    R(3,4)                  1.4107         estimate D2E/DX2                !
 ! R7    R(3,9)                  1.548          estimate D2E/DX2                !
 ! R8    R(4,5)                  1.3972         estimate D2E/DX2                !
 ! R9    R(4,14)                 1.0844         estimate D2E/DX2                !
 ! R10   R(5,6)                  1.3919         estimate D2E/DX2                !
 ! R11   R(5,8)                  1.0832         estimate D2E/DX2                !
 ! R12   R(6,16)                 1.3937         estimate D2E/DX2                !
 ! R13   R(9,10)                 1.3902         estimate D2E/DX2                !
 ! R14   R(9,12)                 1.3902         estimate D2E/DX2                !
 ! R15   R(10,11)                0.9713         estimate D2E/DX2                !
 ! R16   R(12,13)                0.9712         estimate D2E/DX2                !
 ! A1    A(2,1,6)              118.1698         estimate D2E/DX2                !
 ! A2    A(2,1,15)             122.0697         estimate D2E/DX2                !
 ! A3    A(6,1,15)             119.7605         estimate D2E/DX2                !
 ! A4    A(1,2,3)              121.1893         estimate D2E/DX2                !
 ! A5    A(1,2,7)              119.8644         estimate D2E/DX2                !
 ! A6    A(3,2,7)              118.9463         estimate D2E/DX2                !
 ! A7    A(2,3,4)              118.4506         estimate D2E/DX2                !
 ! A8    A(2,3,9)              120.7806         estimate D2E/DX2                !
 ! A9    A(4,3,9)              120.7688         estimate D2E/DX2                !
 ! A10   A(3,4,5)              121.1979         estimate D2E/DX2                !
 ! A11   A(3,4,14)             118.9574         estimate D2E/DX2                !
 ! A12   A(5,4,14)             119.8447         estimate D2E/DX2                !
 ! A13   A(4,5,6)              118.1596         estimate D2E/DX2                !
 ! A14   A(4,5,8)              122.0751         estimate D2E/DX2                !
 ! A15   A(6,5,8)              119.7653         estimate D2E/DX2                !
 ! A16   A(1,6,5)              122.8328         estimate D2E/DX2                !
 ! A17   A(1,6,16)             118.5841         estimate D2E/DX2                !
 ! A18   A(5,6,16)             118.5831         estimate D2E/DX2                !
 ! A19   A(3,9,10)             118.3015         estimate D2E/DX2                !
 ! A20   A(3,9,12)             118.3025         estimate D2E/DX2                !
 ! A21   A(10,9,12)            123.396          estimate D2E/DX2                !
 ! A22   A(9,10,11)            120.9574         estimate D2E/DX2                !
 ! A23   A(9,12,13)            120.9897         estimate D2E/DX2                !
 ! D1    D(6,1,2,3)              0.0019         estimate D2E/DX2                !
 ! D2    D(6,1,2,7)            179.9727         estimate D2E/DX2                !
 ! D3    D(15,1,2,3)           179.9962         estimate D2E/DX2                !
 ! D4    D(15,1,2,7)            -0.033          estimate D2E/DX2                !
 ! D5    D(2,1,6,5)              0.0015         estimate D2E/DX2                !
 ! D6    D(2,1,6,16)           179.9893         estimate D2E/DX2                !
 ! D7    D(15,1,6,5)          -179.9929         estimate D2E/DX2                !
 ! D8    D(15,1,6,16)           -0.0051         estimate D2E/DX2                !
 ! D9    D(1,2,3,4)             -0.005          estimate D2E/DX2                !
 ! D10   D(1,2,3,9)           -179.977          estimate D2E/DX2                !
 ! D11   D(7,2,3,4)           -179.9761         estimate D2E/DX2                !
 ! D12   D(7,2,3,9)              0.0519         estimate D2E/DX2                !
 ! D13   D(2,3,4,5)              0.005          estimate D2E/DX2                !
 ! D14   D(2,3,4,14)          -179.986          estimate D2E/DX2                !
 ! D15   D(9,3,4,5)            179.977          estimate D2E/DX2                !
 ! D16   D(9,3,4,14)            -0.014          estimate D2E/DX2                !
 ! D17   D(2,3,9,10)           179.9816         estimate D2E/DX2                !
 ! D18   D(2,3,9,12)            -0.0514         estimate D2E/DX2                !
 ! D19   D(4,3,9,10)             0.0103         estimate D2E/DX2                !
 ! D20   D(4,3,9,12)           179.9773         estimate D2E/DX2                !
 ! D21   D(3,4,5,6)             -0.0018         estimate D2E/DX2                !
 ! D22   D(3,4,5,8)            179.988          estimate D2E/DX2                !
 ! D23   D(14,4,5,6)           179.9892         estimate D2E/DX2                !
 ! D24   D(14,4,5,8)            -0.021          estimate D2E/DX2                !
 ! D25   D(4,5,6,1)             -0.0015         estimate D2E/DX2                !
 ! D26   D(4,5,6,16)          -179.9893         estimate D2E/DX2                !
 ! D27   D(8,5,6,1)           -179.9916         estimate D2E/DX2                !
 ! D28   D(8,5,6,16)             0.0206         estimate D2E/DX2                !
 ! D29   D(3,9,10,11)          179.9939         estimate D2E/DX2                !
 ! D30   D(12,9,10,11)           0.0287         estimate D2E/DX2                !
 ! D31   D(3,9,12,13)          179.9751         estimate D2E/DX2                !
 ! D32   D(10,9,12,13)          -0.0597         estimate D2E/DX2                !
 --------------------------------------------------------------------------------
 Trust Radius=3.00D-01 FncErr=1.00D-07 GrdErr=1.00D-06 EigMax=2.50D+02 EigMin=1.00D-04
 Number of steps in this run=     81 maximum allowed number of steps=    100.
 GradGradGradGradGradGradGradGradGradGradGradGradGradGradGradGradGradGrad

                          Input orientation:                          
 ---------------------------------------------------------------------
 Center     Atomic      Atomic             Coordinates (Angstroms)
 Number     Number       Type             X           Y           Z
 ---------------------------------------------------------------------
      1          6           0       -0.217093   -0.660435    0.380951
      2          6           0        1.180043   -0.651374    0.377710
      3          6           0        1.902261    0.500130    0.000287
      4          6           0        1.180910    1.652145   -0.377137
      5          6           0       -0.216293    1.662500   -0.380260
      6          6           0       -0.882626    0.501310    0.000400
      7          1           0        1.726553   -1.541474    0.669743
      8          1           0       -0.784400    2.539021   -0.667221
      9          5           0        3.450308    0.499508   -0.000372
     10          8           0        4.109740    1.662408   -0.381905
     11          1           0        5.079971    1.704813   -0.396252
     12          8           0        4.109111   -0.663621    0.381243
     13          1           0        5.079268   -0.707386    0.394694
     14          1           0        1.727830    2.541885   -0.669005
     15          1           0       -0.785825   -1.536351    0.667985
     16          9           0       -2.276301    0.501777    0.000277
 ---------------------------------------------------------------------
                    Distance matrix (angstroms):
                    1          2          3          4          5
     1  C    0.000000
     2  C    1.397169   0.000000
     3  C    2.446115   1.410677   0.000000
     4  C    2.806624   2.424045   1.410650   0.000000
     5  C    2.444477   2.806828   2.446261   1.397245   0.000000
     6  C    1.391907   2.392832   2.784887   2.392726   1.391856
     7  H    2.153460   1.084543   2.155735   3.404833   3.891350
     8  H    3.414238   3.889671   3.438138   2.175578   1.083227
     9  B    3.865321   2.573243   1.548047   2.573070   3.865337
    10  O    4.969812   3.809689   2.523871   2.928852   4.326033
    11  H    5.852976   4.621696   3.421454   3.899464   5.296457
    12  O    4.326205   2.929096   2.523813   3.809498   4.969894
    13  H    5.296587   3.899664   3.421553   4.621721   5.853194
    14  H    3.891014   3.404789   2.155723   1.084410   2.153208
    15  H    1.083085   2.175335   3.437860   3.889323   3.414064
    16  F    2.394992   3.663131   4.178562   3.663072   2.394936
                    6          7          8          9         10
     6  C    0.000000
     7  H    3.380651   0.000000
     8  H    2.146540   4.974213   0.000000
     9  B    4.332934   2.754268   4.747321   0.000000
    10  O    5.139847   4.129213   4.980207   1.390235   0.000000
    11  H    6.095762   4.787498   5.929602   2.065256   0.971263
    12  O    5.139995   2.555473   5.941603   1.390151   2.448021
    13  H    6.095949   3.465841   6.785973   2.065474   2.675633
    14  H    3.380315   4.297216   2.512232   2.754143   2.555269
    15  H    2.146416   2.512384   4.288524   4.747236   5.941455
    16  F    1.393675   4.543776   2.611836   5.726609   6.501896
                   11         12         13         14         15
    11  H    0.000000
    12  O    2.675172   0.000000
    13  H    2.538563   0.971237   0.000000
    14  H    3.465824   4.129018   4.787625   0.000000
    15  H    6.785669   4.980389   5.929687   4.973732   0.000000
    16  F    7.464534   6.502059   7.464719   4.543462   2.611765
                   16
    16  F    0.000000
 Symmetry turned off by external request.
 Stoichiometry    C6H6BFO2
 Framework group  C1[X(C6H6BFO2)]
 Deg. of freedom    42
 Full point group                 C1      NOp   1
 Rotational constants (GHZ):           3.5879043           0.7210606           0.6003986
 Standard basis: 6-31+G(d) (6D, 7F)
   202 basis functions,   344 primitive gaussians,   202 cartesian basis functions
    36 alpha electrons       36 beta electrons
       nuclear repulsion energy       470.6463159505 Hartrees.
 NAtoms=   16 NActive=   16 NUniq=   16 SFac= 1.00D+00 NAtFMM=   60 NAOKFM=F Big=F
 Integral buffers will be    131072 words long.
 Raffenetti 2 integral format.
 Two-electron integral symmetry is turned off.
 Nuclear repulsion after empirical dispersion term =      470.6354185484 Hartrees.
 One-electron integrals computed using PRISM.
 NBasis=   202 RedAO= T EigKep=  4.09D-06  NBF=   202
 NBsUse=   202 1.00D-06 EigRej= -1.00D+00 NBFU=   202
 ExpMin= 3.15D-02 ExpMax= 7.00D+03 ExpMxC= 1.05D+03 IAcc=3 IRadAn=         5 AccDes= 0.00D+00
 Harris functional with IExCor=  402 and IRadAn=       5 diagonalized for initial guess.
 HarFok:  IExCor=  402 AccDes= 0.00D+00 IRadAn=         5 IDoV= 1 UseB2=F ITyADJ=14
 ICtDFT=  3500011 ScaDFX=  1.000000  1.000000  1.000000  1.000000
 FoFCou: FMM=F IPFlag=           0 FMFlag=      100000 FMFlg1=           0
         NFxFlg=           0 DoJE=T BraDBF=F KetDBF=T FulRan=T
         wScrn=  0.000000 ICntrl=       500 IOpCl=  0 I1Cent=   200000004 NGrid=           0
         NMat0=    1 NMatS0=      1 NMatT0=    0 NMatD0=    1 NMtDS0=    0 NMtDT0=    0
 Symmetry not used in FoFCou.
 Requested convergence on RMS density matrix=1.00D-08 within 128 cycles.
 Requested convergence on MAX density matrix=1.00D-06.
 Requested convergence on             energy=1.00D-06.
 No special actions if energy rises.
 SCF Done:  E(RB3LYP) =  -507.535138420     A.U. after   14 cycles
            NFock= 14  Conv=0.32D-08     -V/T= 2.0094

 **********************************************************************

            Population analysis using the SCF Density.

 **********************************************************************

 Alpha  occ. eigenvalues --  -24.71792 -19.18136 -19.18135 -10.28467 -10.20696
 Alpha  occ. eigenvalues --  -10.20695 -10.20523 -10.20521 -10.18319  -6.80837
 Alpha  occ. eigenvalues --   -1.21109  -1.04828  -1.01749  -0.86531  -0.76199
 Alpha  occ. eigenvalues --   -0.75309  -0.62861  -0.62473  -0.58140  -0.56402
 Alpha  occ. eigenvalues --   -0.54182  -0.48207  -0.48198  -0.45844  -0.45307
 Alpha  occ. eigenvalues --   -0.43708  -0.42052  -0.40346  -0.39973  -0.36127
 Alpha  occ. eigenvalues --   -0.35737  -0.35085  -0.34461  -0.33864  -0.26602
 Alpha  occ. eigenvalues --   -0.25529
 Alpha virt. eigenvalues --   -0.03835  -0.03184  -0.02127   0.01192   0.01225
 Alpha virt. eigenvalues --    0.03006   0.03656   0.03671   0.04410   0.07042
 Alpha virt. eigenvalues --    0.07583   0.08160   0.08754   0.09326   0.10286
 Alpha virt. eigenvalues --    0.11707   0.11843   0.11981   0.13653   0.14338
 Alpha virt. eigenvalues --    0.14437   0.14843   0.14998   0.15068   0.16470
 Alpha virt. eigenvalues --    0.18146   0.18173   0.18468   0.18742   0.19843
 Alpha virt. eigenvalues --    0.20659   0.21923   0.22460   0.22672   0.22845
 Alpha virt. eigenvalues --    0.23114   0.24021   0.24194   0.25190   0.26114
 Alpha virt. eigenvalues --    0.27098   0.29006   0.29617   0.29998   0.31626
 Alpha virt. eigenvalues --    0.32783   0.33303   0.33890   0.35225   0.37159
 Alpha virt. eigenvalues --    0.38788   0.39080   0.40598   0.42697   0.44575
 Alpha virt. eigenvalues --    0.45826   0.47288   0.49330   0.57101   0.59197
 Alpha virt. eigenvalues --    0.62117   0.66861   0.67348   0.67399   0.68357
 Alpha virt. eigenvalues --    0.71076   0.73382   0.73891   0.76387   0.76596
 Alpha virt. eigenvalues --    0.77214   0.80492   0.82816   0.86123   0.88715
 Alpha virt. eigenvalues --    0.89804   0.91179   0.93975   0.98536   1.00299
 Alpha virt. eigenvalues --    1.01220   1.04475   1.07379   1.08052   1.08821
 Alpha virt. eigenvalues --    1.11192   1.11414   1.13595   1.15578   1.21435
 Alpha virt. eigenvalues --    1.22060   1.23427   1.23848   1.24910   1.26475
 Alpha virt. eigenvalues --    1.27117   1.29015   1.31272   1.33209   1.37159
 Alpha virt. eigenvalues --    1.42224   1.43528   1.45410   1.45733   1.48878
 Alpha virt. eigenvalues --    1.49768   1.55224   1.63126   1.64477   1.65921
 Alpha virt. eigenvalues --    1.68170   1.71845   1.72154   1.73171   1.73941
 Alpha virt. eigenvalues --    1.77568   1.79585   1.82323   1.82998   1.83579
 Alpha virt. eigenvalues --    1.83980   1.87886   1.91474   1.97917   1.99417
 Alpha virt. eigenvalues --    2.01478   2.07077   2.07999   2.12460   2.13732
 Alpha virt. eigenvalues --    2.16032   2.17800   2.21810   2.22064   2.25752
 Alpha virt. eigenvalues --    2.29088   2.30715   2.35123   2.38011   2.38276
 Alpha virt. eigenvalues --    2.49360   2.51822   2.56824   2.62150   2.64567
 Alpha virt. eigenvalues --    2.67503   2.73439   2.75076   2.76655   2.87473
 Alpha virt. eigenvalues --    2.89309   2.96008   3.00844   3.16604   3.18346
 Alpha virt. eigenvalues --    3.43190   3.69848   4.16664   4.23573   4.24706
 Alpha virt. eigenvalues --    4.34059   4.36667   4.38124   4.50141   4.73180
 Alpha virt. eigenvalues --    5.87562
          Condensed to atoms (all electrons):
               1          2          3          4          5          6
     1  C    8.936788  -3.514723   0.692266   0.214380  -0.317088  -0.109669
     2  C   -3.514723  14.469900  -1.877587  -4.058388   0.214629   0.617928
     3  C    0.692266  -1.877587   9.207795  -1.876915   0.692228  -0.724674
     4  C    0.214380  -4.058388  -1.876915  14.472034  -3.515830   0.616564
     5  C   -0.317088   0.214629   0.692228  -3.515830   8.936669  -0.108842
     6  C   -0.109669   0.617928  -0.724674   0.616564  -0.108842   5.299767
     7  H   -0.016494   0.259773   0.022030   0.024762  -0.010542   0.005171
     8  H    0.029460  -0.014580   0.022362  -0.010115   0.279431  -0.009818
     9  B   -0.135604   0.102900   0.470507   0.102513  -0.135571   0.024190
    10  O    0.072903  -0.406572  -0.075720   0.387848  -0.021548  -0.003200
    11  H    0.002507  -0.014411  -0.010481   0.021804   0.003811  -0.000503
    12  O   -0.021678   0.387690  -0.075637  -0.406552   0.072940  -0.003169
    13  H    0.003821   0.021846  -0.010501  -0.014431   0.002502  -0.000502
    14  H   -0.010537   0.024743   0.022054   0.259781  -0.016510   0.005168
    15  H    0.279477  -0.010135   0.022411  -0.014595   0.029468  -0.009892
    16  F   -0.137204  -0.003620  -0.023340  -0.003560  -0.137251   0.293671
               7          8          9         10         11         12
     1  C   -0.016494   0.029460  -0.135604   0.072903   0.002507  -0.021678
     2  C    0.259773  -0.014580   0.102900  -0.406572  -0.014411   0.387690
     3  C    0.022030   0.022362   0.470507  -0.075720  -0.010481  -0.075637
     4  C    0.024762  -0.010115   0.102513   0.387848   0.021804  -0.406552
     5  C   -0.010542   0.279431  -0.135571  -0.021548   0.003811   0.072940
     6  C    0.005171  -0.009818   0.024190  -0.003200  -0.000503  -0.003169
     7  H    0.515018   0.000013  -0.012273   0.001012  -0.000010   0.008384
     8  H    0.000013   0.512000   0.000447   0.000055   0.000000   0.000025
     9  B   -0.012273   0.000447   3.294131   0.206908   0.000784   0.206886
    10  O    0.001012   0.000055   0.206908   8.731795   0.161562  -0.235633
    11  H   -0.000010   0.000000   0.000784   0.161562   0.334723  -0.006994
    12  O    0.008384   0.000025   0.206886  -0.235633  -0.006994   8.731949
    13  H   -0.000221   0.000000   0.000760  -0.006996   0.002878   0.161601
    14  H   -0.000125  -0.004098  -0.012278   0.008389  -0.000220   0.001013
    15  H   -0.004097  -0.000134   0.000446   0.000025   0.000000   0.000055
    16  F   -0.000325  -0.004859  -0.000375   0.000022   0.000000   0.000022
              13         14         15         16
     1  C    0.003821  -0.010537   0.279477  -0.137204
     2  C    0.021846   0.024743  -0.010135  -0.003620
     3  C   -0.010501   0.022054   0.022411  -0.023340
     4  C   -0.014431   0.259781  -0.014595  -0.003560
     5  C    0.002502  -0.016510   0.029468  -0.137251
     6  C   -0.000502   0.005168  -0.009892   0.293671
     7  H   -0.000221  -0.000125  -0.004097  -0.000325
     8  H    0.000000  -0.004098  -0.000134  -0.004859
     9  B    0.000760  -0.012278   0.000446  -0.000375
    10  O   -0.006996   0.008389   0.000025   0.000022
    11  H    0.002878  -0.000220   0.000000   0.000000
    12  O    0.161601   0.001013   0.000055   0.000022
    13  H    0.334634  -0.000010   0.000000   0.000000
    14  H   -0.000010   0.515032   0.000013  -0.000326
    15  H    0.000000   0.000013   0.512039  -0.004865
    16  F    0.000000  -0.000326  -0.004865   9.385706
 Mulliken charges:
               1
     1  C    0.031393
     2  C   -0.199393
     3  C   -0.476797
     4  C   -0.199300
     5  C    0.031503
     6  C    0.107811
     7  H    0.207926
     8  H    0.199812
     9  B    0.885628
    10  O   -0.820849
    11  H    0.504550
    12  O   -0.820901
    13  H    0.504619
    14  H    0.207911
    15  H    0.199784
    16  F   -0.363695
 Sum of Mulliken charges =   0.00000
 Mulliken charges with hydrogens summed into heavy atoms:
               1
     1  C    0.231176
     2  C    0.008532
     3  C   -0.476797
     4  C    0.008611
     5  C    0.231315
     6  C    0.107811
     9  B    0.885628
    10  O   -0.316298
    12  O   -0.316282
    16  F   -0.363695
 Electronic spatial extent (au):  <R**2>=           2174.6085
 Charge=              0.0000 electrons
 Dipole moment (field-independent basis, Debye):
    X=              4.2829    Y=             -0.0030    Z=             -0.0018  Tot=              4.2829
 Quadrupole moment (field-independent basis, Debye-Ang):
   XX=            -33.7119   YY=            -55.2236   ZZ=            -59.5554
   XY=              2.1287   XZ=             -0.0110   YZ=             -1.5899
 Traceless Quadrupole moment (field-independent basis, Debye-Ang):
   XX=             15.7851   YY=             -5.7266   ZZ=            -10.0585
   XY=              2.1287   XZ=             -0.0110   YZ=             -1.5899
 Octapole moment (field-independent basis, Debye-Ang**2):
  XXX=            -17.0724  YYY=            -82.8928  ZZZ=             -0.0210  XYY=            -80.2692
  XXY=            -16.9816  XXZ=             -0.0645  XZZ=            -78.0812  YZZ=            -29.8040
  YYZ=             -1.5975  XYZ=              1.1946
 Hexadecapole moment (field-independent basis, Debye-Ang**3):
 XXXX=           -918.0358 YYYY=           -469.6402 ZZZZ=           -106.9063 XXXY=             -8.8679
 XXXZ=             -0.2244 YYYX=           -121.3730 YYYZ=             41.7356 ZZZX=              0.0900
 ZZZY=             59.8180 XXYY=           -426.7662 XXZZ=           -382.1778 YYZZ=           -100.7141
 XXYZ=             13.2434 YYXZ=              1.2286 ZZXY=            -38.9901
 N-N= 4.706354185484D+02 E-N=-2.129334764309D+03  KE= 5.027999276327D+02
 Evaluate density.
 Using the total density.
 Monte-Carlo method of calculating molar volume:
 based on  0.001 e/bohr**3 density envelope.
 Number of points per bohr**3 =   20 CutOff= 1.00D-04
 Using the SCF density.
 There are       357 points.  Will hold       357 in memory.
 LenV=  4026417292 MDV=  4026531840.
 Box volume = 5704.217 fraction occupied=0.202
 Integrated density= 6.1842624001302298D+01 error=-1.0157375998697702D+01
 Molar volume = 1150.430 bohr**3/mol (102.663 cm**3/mol)
 Recommended a0 for SCRF calculation =  4.29 angstrom (  8.10 bohr)
 Calling FoFJK, ICntrl=      2127 FMM=F ISym2X=0 I1Cent= 0 IOpClX= 0 NMat=1 NMatS=1 NMatT=0.
 -------------------------------------------------------------------
 Center     Atomic                   Forces (Hartrees/Bohr)
 Number     Number              X              Y              Z
 -------------------------------------------------------------------
      1        6          -0.000961672    0.001810110   -0.000599695
      2        6          -0.000871132    0.004618814   -0.001465750
      3        6          -0.005697983   -0.000000969   -0.000045850
      4        6          -0.000989460   -0.004617841    0.001505366
      5        6          -0.000943243   -0.001760877    0.000600314
      6        6          -0.015154246   -0.000011755   -0.000020337
      7        1          -0.000195070   -0.001246950    0.000381459
      8        1          -0.000853657    0.001203558   -0.000403509
      9        5           0.023713796    0.000047373    0.000054959
     10        8          -0.003990862   -0.002473776    0.000786303
     11        1          -0.005411222   -0.005342744    0.001754687
     12        8          -0.004006742    0.002395249   -0.000816718
     13        1          -0.005388714    0.005372725   -0.001751596
     14        1          -0.000120252    0.001302901   -0.000418429
     15        1          -0.000913133   -0.001284686    0.000425833
     16        9           0.021783591   -0.000011132    0.000012964
 -------------------------------------------------------------------
 Cartesian Forces:  Max     0.023713796 RMS     0.005650128

 GradGradGradGradGradGradGradGradGradGradGradGradGradGradGradGradGradGrad
 Berny optimization.
 FormGI is forming the generalized inverse of G from B-inverse, IUseBI=4.
 Internal  Forces:  Max     0.021783595 RMS     0.003922257
 Search for a local minimum.
 Step number   1 out of a maximum of   81
 All quantities printed in internal units (Hartrees-Bohrs-Radians)
 Mixed Optimization -- RFO/linear search
 Second derivative matrix not updated -- first step.
 ITU=  0
     Eigenvalues ---    0.00660   0.01550   0.01553   0.01972   0.02031
     Eigenvalues ---    0.02046   0.02102   0.02155   0.02161   0.02180
     Eigenvalues ---    0.02196   0.02350   0.02351   0.16000   0.16000
     Eigenvalues ---    0.16000   0.16000   0.16000   0.16000   0.22000
     Eigenvalues ---    0.22985   0.24000   0.25000   0.25000   0.25000
     Eigenvalues ---    0.25000   0.27818   0.35451   0.35467   0.35607
     Eigenvalues ---    0.35624   0.41195   0.41439   0.44523   0.45877
     Eigenvalues ---    0.46087   0.46685   0.46856   0.47278   0.47292
     Eigenvalues ---    0.53120   0.53125
 RFO step:  Lambda=-3.16583786D-03 EMin= 6.59674887D-03
 Linear search not attempted -- first point.
 Iteration  1 RMS(Cart)=  0.02281036 RMS(Int)=  0.00052914
 Iteration  2 RMS(Cart)=  0.00049282 RMS(Int)=  0.00000168
 Iteration  3 RMS(Cart)=  0.00000014 RMS(Int)=  0.00000168
 Variable       Old X    -DE/DX   Delta X   Delta X   Delta X     New X
                                 (Linear)    (Quad)   (Total)
    R1        2.64027  -0.00145   0.00000  -0.00312  -0.00312   2.63715
    R2        2.63032  -0.00343   0.00000  -0.00732  -0.00732   2.62301
    R3        2.04673   0.00163   0.00000   0.00454   0.00454   2.05127
    R4        2.66579  -0.00193   0.00000  -0.00428  -0.00428   2.66151
    R5        2.04949   0.00103   0.00000   0.00287   0.00287   2.05236
    R6        2.66574  -0.00193   0.00000  -0.00428  -0.00429   2.66146
    R7        2.92539   0.00492   0.00000   0.01747   0.01747   2.94286
    R8        2.64041  -0.00149   0.00000  -0.00320  -0.00320   2.63721
    R9        2.04924   0.00112   0.00000   0.00313   0.00313   2.05237
   R10        2.63023  -0.00339   0.00000  -0.00724  -0.00724   2.62299
   R11        2.04700   0.00153   0.00000   0.00425   0.00425   2.05126
   R12        2.63366  -0.02178   0.00000  -0.04635  -0.04635   2.58732
   R13        2.62716  -0.01170   0.00000  -0.02457  -0.02457   2.60259
   R14        2.62701  -0.01166   0.00000  -0.02448  -0.02448   2.60252
   R15        1.83542  -0.00566   0.00000  -0.01060  -0.01060   1.82482
   R16        1.83537  -0.00565   0.00000  -0.01057  -0.01057   1.82480
    A1        2.06245  -0.00133   0.00000  -0.00600  -0.00599   2.05646
    A2        2.13052   0.00073   0.00000   0.00341   0.00341   2.13393
    A3        2.09021   0.00060   0.00000   0.00258   0.00258   2.09279
    A4        2.11515   0.00078   0.00000   0.00376   0.00376   2.11891
    A5        2.09203  -0.00124   0.00000  -0.00706  -0.00706   2.08497
    A6        2.07600   0.00045   0.00000   0.00330   0.00331   2.07931
    A7        2.06735  -0.00102   0.00000  -0.00366  -0.00366   2.06369
    A8        2.10802   0.00049   0.00000   0.00177   0.00177   2.10979
    A9        2.10781   0.00052   0.00000   0.00189   0.00189   2.10970
   A10        2.11530   0.00075   0.00000   0.00361   0.00361   2.11891
   A11        2.07620   0.00044   0.00000   0.00318   0.00318   2.07938
   A12        2.09168  -0.00119   0.00000  -0.00679  -0.00679   2.08489
   A13        2.06227  -0.00129   0.00000  -0.00582  -0.00582   2.05645
   A14        2.13061   0.00071   0.00000   0.00330   0.00329   2.13391
   A15        2.09030   0.00058   0.00000   0.00253   0.00253   2.09283
   A16        2.14384   0.00210   0.00000   0.00811   0.00811   2.15195
   A17        2.06968  -0.00106   0.00000  -0.00409  -0.00409   2.06559
   A18        2.06967  -0.00104   0.00000  -0.00402  -0.00402   2.06565
   A19        2.06475  -0.00055   0.00000  -0.00217  -0.00217   2.06258
   A20        2.06477  -0.00055   0.00000  -0.00218  -0.00218   2.06258
   A21        2.15367   0.00110   0.00000   0.00435   0.00435   2.15802
   A22        2.11111  -0.00985   0.00000  -0.06039  -0.06039   2.05072
   A23        2.11167  -0.00989   0.00000  -0.06064  -0.06064   2.05103
    D1        0.00003   0.00000   0.00000  -0.00010  -0.00010  -0.00006
    D2        3.14112   0.00001   0.00000   0.00041   0.00040   3.14152
    D3        3.14153   0.00000   0.00000  -0.00003  -0.00003   3.14149
    D4       -0.00058   0.00001   0.00000   0.00047   0.00047  -0.00011
    D5        0.00003   0.00000   0.00000  -0.00005  -0.00005  -0.00003
    D6        3.14141   0.00001   0.00000   0.00023   0.00023  -3.14155
    D7       -3.14147   0.00000   0.00000  -0.00012  -0.00012  -3.14159
    D8       -0.00009   0.00000   0.00000   0.00017   0.00017   0.00008
    D9       -0.00009   0.00000   0.00000   0.00016   0.00016   0.00008
   D10       -3.14119   0.00000   0.00000  -0.00023  -0.00023  -3.14142
   D11       -3.14118  -0.00001   0.00000  -0.00033  -0.00033  -3.14151
   D12        0.00091  -0.00002   0.00000  -0.00073  -0.00073   0.00018
   D13        0.00009   0.00000   0.00000  -0.00008  -0.00008   0.00000
   D14       -3.14135  -0.00001   0.00000  -0.00027  -0.00027   3.14157
   D15        3.14119   0.00001   0.00000   0.00031   0.00031   3.14150
   D16       -0.00025   0.00000   0.00000   0.00013   0.00013  -0.00012
   D17        3.14127  -0.00001   0.00000  -0.00063  -0.00063   3.14065
   D18       -0.00090   0.00001   0.00000   0.00055   0.00055  -0.00035
   D19        0.00018  -0.00002   0.00000  -0.00103  -0.00103  -0.00085
   D20        3.14120   0.00001   0.00000   0.00015   0.00014   3.14134
   D21       -0.00003   0.00000   0.00000  -0.00006  -0.00006  -0.00009
   D22        3.14138   0.00000   0.00000   0.00010   0.00010   3.14148
   D23        3.14140   0.00000   0.00000   0.00013   0.00013   3.14153
   D24       -0.00037   0.00001   0.00000   0.00028   0.00028  -0.00009
   D25       -0.00003   0.00000   0.00000   0.00013   0.00013   0.00010
   D26       -3.14141   0.00000   0.00000  -0.00016  -0.00016  -3.14156
   D27       -3.14145   0.00000   0.00000  -0.00002  -0.00002  -3.14147
   D28        0.00036  -0.00001   0.00000  -0.00031  -0.00031   0.00005
   D29        3.14149   0.00001   0.00000   0.00062   0.00062  -3.14108
   D30        0.00050  -0.00001   0.00000  -0.00062  -0.00063  -0.00012
   D31        3.14116   0.00000   0.00000  -0.00035  -0.00036   3.14080
   D32       -0.00104   0.00002   0.00000   0.00089   0.00089  -0.00015
         Item               Value     Threshold  Converged?
 Maximum Force            0.021784     0.000450     NO 
 RMS     Force            0.003922     0.000300     NO 
 Maximum Displacement     0.119873     0.001800     NO 
 RMS     Displacement     0.022770     0.001200     NO 
 Predicted change in Energy=-1.601637D-03
 GradGradGradGradGradGradGradGradGradGradGradGradGradGradGradGradGradGrad

                          Input orientation:                          
 ---------------------------------------------------------------------
 Center     Atomic      Atomic             Coordinates (Angstroms)
 Number     Number       Type             X           Y           Z
 ---------------------------------------------------------------------
      1          6           0       -0.218120   -0.659823    0.380665
      2          6           0        1.177344   -0.648170    0.376715
      3          6           0        1.900610    0.500224    0.000289
      4          6           0        1.178198    1.649142   -0.376075
      5          6           0       -0.217288    1.661821   -0.380000
      6          6           0       -0.876845    0.501231    0.000301
      7          1           0        1.719799   -1.542283    0.669698
      8          1           0       -0.787983    2.539321   -0.667341
      9          5           0        3.457904    0.499664    0.000090
     10          8           0        4.108603    1.652746   -0.379065
     11          1           0        5.074185    1.641379   -0.376028
     12          8           0        4.107852   -0.654083    0.378376
     13          1           0        5.073433   -0.644042    0.374133
     14          1           0        1.721241    2.542918   -0.669014
     15          1           0       -0.789481   -1.536882    0.668059
     16          9           0       -2.245994    0.501696    0.000335
 ---------------------------------------------------------------------
                    Distance matrix (angstroms):
                    1          2          3          4          5
     1  C    0.000000
     2  C    1.395518   0.000000
     3  C    2.445284   1.408410   0.000000
     4  C    2.802442   2.417506   1.408383   0.000000
     5  C    2.443081   2.802441   2.445285   1.395549   0.000000
     6  C    1.388036   2.383800   2.777455   2.383811   1.388024
     7  H    2.148908   1.086064   2.156997   3.401789   3.888503
     8  H    3.414320   3.887501   3.439793   2.177871   1.085479
     9  B    3.873293   2.580760   1.557294   2.580671   3.873256
    10  O    4.964443   3.802328   2.519415   2.930409   4.325901
    11  H    5.820361   4.581924   3.393439   3.895995   5.291514
    12  O    4.325976   2.930515   2.519383   3.802225   4.964411
    13  H    5.291581   3.896093   3.393510   4.581961   5.820434
    14  H    3.888508   3.401825   2.157020   1.086068   2.148896
    15  H    1.085487   2.177864   3.439813   3.887509   3.414313
    16  F    2.367710   3.630853   4.146604   3.630896   2.367740
                    6          7          8          9         10
     6  C    0.000000
     7  H    3.371439   0.000000
     8  H    2.146497   4.973544   0.000000
     9  B    4.334749   2.763862   4.757439   0.000000
    10  O    5.130750   4.124864   4.984544   1.377232   0.000000
    11  H    6.070940   4.741430   5.937691   2.014285   0.965654
    12  O    5.130779   2.564482   5.938060   1.377194   2.427999
    13  H    6.071014   3.484403   6.750902   2.014424   2.602584
    14  H    3.371426   4.298956   2.509227   2.763799   2.564366
    15  H    2.146495   2.509286   4.289374   4.757519   5.938134
    16  F    1.369150   4.511476   2.592972   5.703899   6.469140
                   11         12         13         14         15
    11  H    0.000000
    12  O    2.602320   0.000000
    13  H    2.405388   0.965643   0.000000
    14  H    3.484372   4.124773   4.741525   0.000000
    15  H    6.750855   4.984689   5.937788   4.973556   0.000000
    16  F    7.417921   6.469165   7.417982   4.511493   2.592892
                   16
    16  F    0.000000
 Symmetry turned off by external request.
 Stoichiometry    C6H6BFO2
 Framework group  C1[X(C6H6BFO2)]
 Deg. of freedom    42
 Full point group                 C1      NOp   1
 Rotational constants (GHZ):           3.6221633           0.7254064           0.6043700
 Standard basis: 6-31+G(d) (6D, 7F)
   202 basis functions,   344 primitive gaussians,   202 cartesian basis functions
    36 alpha electrons       36 beta electrons
       nuclear repulsion energy       472.4804627938 Hartrees.
 NAtoms=   16 NActive=   16 NUniq=   16 SFac= 1.00D+00 NAtFMM=   60 NAOKFM=F Big=F
 Integral buffers will be    131072 words long.
 Raffenetti 2 integral format.
 Two-electron integral symmetry is turned off.
 Nuclear repulsion after empirical dispersion term =      472.4695321473 Hartrees.
 One-electron integrals computed using PRISM.
 NBasis=   202 RedAO= T EigKep=  4.00D-06  NBF=   202
 NBsUse=   202 1.00D-06 EigRej= -1.00D+00 NBFU=   202
 Initial guess from the checkpoint file:  "MOLECULE_24.chk"
 B after Tr=     0.006291   -0.000012    0.000072
         Rot=    1.000000    0.000025    0.000005   -0.000002 Ang=   0.00 deg.
 ExpMin= 3.15D-02 ExpMax= 7.00D+03 ExpMxC= 1.05D+03 IAcc=3 IRadAn=         5 AccDes= 0.00D+00
 Harris functional with IExCor=  402 and IRadAn=       5 diagonalized for initial guess.
 HarFok:  IExCor=  402 AccDes= 0.00D+00 IRadAn=         5 IDoV= 1 UseB2=F ITyADJ=14
 ICtDFT=  3500011 ScaDFX=  1.000000  1.000000  1.000000  1.000000
 FoFCou: FMM=F IPFlag=           0 FMFlag=      100000 FMFlg1=           0
         NFxFlg=           0 DoJE=T BraDBF=F KetDBF=T FulRan=T
         wScrn=  0.000000 ICntrl=       500 IOpCl=  0 I1Cent=   200000004 NGrid=           0
         NMat0=    1 NMatS0=      1 NMatT0=    0 NMatD0=    1 NMtDS0=    0 NMtDT0=    0
 Symmetry not used in FoFCou.
 Requested convergence on RMS density matrix=1.00D-08 within 128 cycles.
 Requested convergence on MAX density matrix=1.00D-06.
 Requested convergence on             energy=1.00D-06.
 No special actions if energy rises.
 SCF Done:  E(RB3LYP) =  -507.536952075     A.U. after   12 cycles
            NFock= 12  Conv=0.14D-08     -V/T= 2.0091
 Calling FoFJK, ICntrl=      2127 FMM=F ISym2X=0 I1Cent= 0 IOpClX= 0 NMat=1 NMatS=1 NMatT=0.
 -------------------------------------------------------------------
 Center     Atomic                   Forces (Hartrees/Bohr)
 Number     Number              X              Y              Z
 -------------------------------------------------------------------
      1        6           0.001257814   -0.000664259    0.000211413
      2        6           0.000563619    0.000553703   -0.000180763
      3        6          -0.001031076    0.000003108    0.000021469
      4        6           0.000526808   -0.000537352    0.000181361
      5        6           0.001275757    0.000658892   -0.000216013
      6        6          -0.008655940    0.000000453    0.000008438
      7        1          -0.000011785   -0.000261383    0.000081956
      8        1          -0.000044459   -0.000157865    0.000048867
      9        5           0.002960686   -0.000005356   -0.000062944
     10        8          -0.001978402    0.001631731   -0.000519087
     11        1           0.001110895   -0.001006080    0.000334707
     12        8          -0.001985752   -0.001655394    0.000555552
     13        1           0.001116970    0.001022830   -0.000328027
     14        1          -0.000007484    0.000254574   -0.000083331
     15        1          -0.000039829    0.000160988   -0.000050953
     16        9           0.004942178    0.000001412   -0.000002644
 -------------------------------------------------------------------
 Cartesian Forces:  Max     0.008655940 RMS     0.001667212

 GradGradGradGradGradGradGradGradGradGradGradGradGradGradGradGradGradGrad
 Berny optimization.
 Using GEDIIS/GDIIS optimizer.
 FormGI is forming the generalized inverse of G from B-inverse, IUseBI=4.
 Internal  Forces:  Max     0.004942178 RMS     0.000816185
 Search for a local minimum.
 Step number   2 out of a maximum of   81
 All quantities printed in internal units (Hartrees-Bohrs-Radians)
 Mixed Optimization -- En-DIIS/RFO-DIIS
 Update second derivatives using D2CorX and points    1    2
 DE= -1.81D-03 DEPred=-1.60D-03 R= 1.13D+00
 TightC=F SS=  1.41D+00  RLast= 1.09D-01 DXNew= 5.0454D-01 3.2624D-01
 Trust test= 1.13D+00 RLast= 1.09D-01 DXMaxT set to 3.26D-01
 ITU=  1  0
 Use linear search instead of GDIIS.
     Eigenvalues ---    0.00660   0.01551   0.01554   0.01972   0.02031
     Eigenvalues ---    0.02046   0.02101   0.02154   0.02161   0.02180
     Eigenvalues ---    0.02196   0.02350   0.02351   0.14127   0.16000
     Eigenvalues ---    0.16000   0.16000   0.16000   0.16006   0.22000
     Eigenvalues ---    0.23163   0.24320   0.24949   0.25000   0.25000
     Eigenvalues ---    0.25000   0.27546   0.35426   0.35461   0.35613
     Eigenvalues ---    0.35658   0.40693   0.41429   0.42588   0.44525
     Eigenvalues ---    0.46019   0.46360   0.46858   0.47285   0.49265
     Eigenvalues ---    0.53122   0.55388
 RFO step:  Lambda=-1.18336419D-04 EMin= 6.59675120D-03
 Quartic linear search produced a step of  0.13962.
 Iteration  1 RMS(Cart)=  0.00446741 RMS(Int)=  0.00002875
 Iteration  2 RMS(Cart)=  0.00002728 RMS(Int)=  0.00000140
 Iteration  3 RMS(Cart)=  0.00000000 RMS(Int)=  0.00000140
 Variable       Old X    -DE/DX   Delta X   Delta X   Delta X     New X
                                 (Linear)    (Quad)   (Total)
    R1        2.63715   0.00064  -0.00044   0.00191   0.00148   2.63863
    R2        2.62301   0.00139  -0.00102   0.00433   0.00331   2.62632
    R3        2.05127  -0.00012   0.00063  -0.00089  -0.00025   2.05102
    R4        2.66151  -0.00027  -0.00060  -0.00040  -0.00100   2.66051
    R5        2.05236   0.00023   0.00040   0.00043   0.00083   2.05319
    R6        2.66146  -0.00025  -0.00060  -0.00035  -0.00095   2.66050
    R7        2.94286   0.00122   0.00244   0.00307   0.00551   2.94837
    R8        2.63721   0.00062  -0.00045   0.00189   0.00144   2.63864
    R9        2.05237   0.00023   0.00044   0.00039   0.00083   2.05320
   R10        2.62299   0.00139  -0.00101   0.00432   0.00331   2.62630
   R11        2.05126  -0.00012   0.00059  -0.00084  -0.00025   2.05101
   R12        2.58732  -0.00494  -0.00647  -0.00708  -0.01355   2.57377
   R13        2.60259   0.00016  -0.00343   0.00304  -0.00039   2.60220
   R14        2.60252   0.00018  -0.00342   0.00307  -0.00035   2.60217
   R15        1.82482   0.00112  -0.00148   0.00354   0.00206   1.82688
   R16        1.82480   0.00113  -0.00148   0.00355   0.00207   1.82688
    A1        2.05646   0.00062  -0.00084   0.00404   0.00320   2.05966
    A2        2.13393  -0.00018   0.00048  -0.00117  -0.00070   2.13324
    A3        2.09279  -0.00044   0.00036  -0.00287  -0.00251   2.09029
    A4        2.11891   0.00033   0.00052   0.00075   0.00127   2.12018
    A5        2.08497  -0.00032  -0.00099  -0.00084  -0.00182   2.08314
    A6        2.07931  -0.00001   0.00046   0.00009   0.00055   2.07986
    A7        2.06369  -0.00024  -0.00051  -0.00147  -0.00199   2.06171
    A8        2.10979   0.00011   0.00025   0.00071   0.00096   2.11075
    A9        2.10970   0.00013   0.00026   0.00076   0.00103   2.11073
   A10        2.11891   0.00033   0.00050   0.00077   0.00127   2.12018
   A11        2.07938  -0.00002   0.00044   0.00005   0.00050   2.07988
   A12        2.08489  -0.00031  -0.00095  -0.00082  -0.00177   2.08312
   A13        2.05645   0.00062  -0.00081   0.00402   0.00321   2.05966
   A14        2.13391  -0.00018   0.00046  -0.00114  -0.00068   2.13322
   A15        2.09283  -0.00044   0.00035  -0.00287  -0.00252   2.09031
   A16        2.15195  -0.00167   0.00113  -0.00810  -0.00697   2.14498
   A17        2.06559   0.00084  -0.00057   0.00408   0.00350   2.06909
   A18        2.06565   0.00083  -0.00056   0.00403   0.00346   2.06911
   A19        2.06258  -0.00029  -0.00030  -0.00109  -0.00140   2.06119
   A20        2.06258  -0.00029  -0.00030  -0.00109  -0.00140   2.06118
   A21        2.15802   0.00059   0.00061   0.00219   0.00280   2.16081
   A22        2.05072  -0.00191  -0.00843  -0.00647  -0.01490   2.03582
   A23        2.05103  -0.00194  -0.00847  -0.00664  -0.01510   2.03593
    D1       -0.00006   0.00000  -0.00001   0.00005   0.00004  -0.00003
    D2        3.14152   0.00000   0.00006  -0.00005   0.00001   3.14153
    D3        3.14149   0.00000   0.00000   0.00008   0.00007   3.14157
    D4       -0.00011   0.00000   0.00007  -0.00002   0.00004  -0.00006
    D5       -0.00003   0.00000  -0.00001   0.00007   0.00006   0.00003
    D6       -3.14155   0.00000   0.00003  -0.00012  -0.00009   3.14155
    D7       -3.14159   0.00000  -0.00002   0.00005   0.00003  -3.14156
    D8        0.00008   0.00000   0.00002  -0.00014  -0.00012  -0.00004
    D9        0.00008   0.00000   0.00002  -0.00009  -0.00006   0.00001
   D10       -3.14142   0.00000  -0.00003   0.00000  -0.00003  -3.14146
   D11       -3.14151   0.00000  -0.00005   0.00001  -0.00004  -3.14154
   D12        0.00018   0.00000  -0.00010   0.00010  -0.00001   0.00017
   D13        0.00000   0.00000  -0.00001   0.00000  -0.00001  -0.00001
   D14        3.14157   0.00000  -0.00004   0.00013   0.00009  -3.14153
   D15        3.14150   0.00000   0.00004  -0.00008  -0.00004   3.14147
   D16       -0.00012   0.00000   0.00002   0.00004   0.00006  -0.00005
   D17        3.14065   0.00001  -0.00009   0.00111   0.00102  -3.14152
   D18       -0.00035  -0.00001   0.00008  -0.00107  -0.00099  -0.00134
   D19       -0.00085   0.00001  -0.00014   0.00119   0.00105   0.00020
   D20        3.14134  -0.00001   0.00002  -0.00099  -0.00096   3.14038
   D21       -0.00009   0.00000  -0.00001   0.00011   0.00010   0.00001
   D22        3.14148   0.00000   0.00001   0.00010   0.00012  -3.14159
   D23        3.14153   0.00000   0.00002  -0.00002   0.00000   3.14153
   D24       -0.00009   0.00000   0.00004  -0.00002   0.00002  -0.00007
   D25        0.00010   0.00000   0.00002  -0.00015  -0.00013  -0.00003
   D26       -3.14156   0.00000  -0.00002   0.00004   0.00002  -3.14154
   D27       -3.14147   0.00000   0.00000  -0.00014  -0.00015   3.14157
   D28        0.00005   0.00000  -0.00004   0.00005   0.00000   0.00006
   D29       -3.14108  -0.00002   0.00009  -0.00132  -0.00124   3.14087
   D30       -0.00012   0.00001  -0.00009   0.00098   0.00090   0.00077
   D31        3.14080   0.00002  -0.00005   0.00145   0.00140  -3.14098
   D32       -0.00015  -0.00001   0.00012  -0.00086  -0.00073  -0.00089
         Item               Value     Threshold  Converged?
 Maximum Force            0.004942     0.000450     NO 
 RMS     Force            0.000816     0.000300     NO 
 Maximum Displacement     0.022876     0.001800     NO 
 RMS     Displacement     0.004468     0.001200     NO 
 Predicted change in Energy=-9.109983D-05
 GradGradGradGradGradGradGradGradGradGradGradGradGradGradGradGradGradGrad

                          Input orientation:                          
 ---------------------------------------------------------------------
 Center     Atomic      Atomic             Coordinates (Angstroms)
 Number     Number       Type             X           Y           Z
 ---------------------------------------------------------------------
      1          6           0       -0.219291   -0.659071    0.380498
      2          6           0        1.176952   -0.647168    0.375994
      3          6           0        1.901130    0.500071   -0.000225
      4          6           0        1.177762    1.647957   -0.376014
      5          6           0       -0.218481    1.661113   -0.379713
      6          6           0       -0.883114    0.501327    0.000600
      7          1           0        1.718183   -1.542496    0.669161
      8          1           0       -0.788227    2.539046   -0.667122
      9          5           0        3.461340    0.499333   -0.000846
     10          8           0        4.110272    1.653432   -0.379180
     11          1           0        5.076698    1.629864   -0.371336
     12          8           0        4.109474   -0.654834    0.378597
     13          1           0        5.075914   -0.631937    0.371083
     14          1           0        1.719610    2.542804   -0.669521
     15          1           0       -0.789673   -1.536495    0.668217
     16          9           0       -2.245093    0.501909    0.000945
 ---------------------------------------------------------------------
                    Distance matrix (angstroms):
                    1          2          3          4          5
     1  C    0.000000
     2  C    1.396301   0.000000
     3  C    2.446374   1.407883   0.000000
     4  C    2.801151   2.415184   1.407878   0.000000
     5  C    2.441551   2.801158   2.446381   1.396310   0.000000
     6  C    1.389787   2.388270   2.784245   2.388265   1.389776
     7  H    2.148854   1.086504   2.157227   3.400505   3.887661
     8  H    3.413084   3.886127   3.440176   2.178049   1.085349
     9  B    3.877418   2.583584   1.560210   2.583566   3.877416
    10  O    4.966880   3.803606   2.520745   2.932517   4.328760
    11  H    5.818245   4.577270   3.390927   3.898980   5.295277
    12  O    4.328767   2.932533   2.520732   3.803579   4.966873
    13  H    5.295283   3.898995   3.390953   4.577298   5.818280
    14  H    3.887657   3.400515   2.157235   1.086506   2.148852
    15  H    1.085353   2.178051   3.440180   3.886123   3.413079
    16  F    2.365546   3.629246   4.146224   3.629251   2.365546
                    6          7          8          9         10
     6  C    0.000000
     7  H    3.375046   0.000000
     8  H    2.146428   4.972598   0.000000
     9  B    4.344455   2.767051   4.760586   0.000000
    10  O    5.138627   4.127355   4.986233   1.377023   0.000000
    11  H    6.077112   4.735623   5.942344   2.006176   0.966745
    12  O    5.138630   2.567224   5.939854   1.377010   2.429469
    13  H    6.077134   3.491751   6.746937   2.006228   2.591962
    14  H    3.375035   4.299040   2.507842   2.767042   2.567205
    15  H    2.146430   2.507863   4.288725   4.760604   5.939876
    16  F    1.361979   4.509286   2.592045   5.706434   6.470020
                   11         12         13         14         15
    11  H    0.000000
    12  O    2.591866   0.000000
    13  H    2.380531   0.966741   0.000000
    14  H    3.491763   4.127334   4.735674   0.000000
    15  H    6.746911   4.986265   5.942358   4.972597   0.000000
    16  F    7.417513   6.470022   7.417530   4.509284   2.592024
                   16
    16  F    0.000000
 Symmetry turned off by external request.
 Stoichiometry    C6H6BFO2
 Framework group  C1[X(C6H6BFO2)]
 Deg. of freedom    42
 Full point group                 C1      NOp   1
 Rotational constants (GHZ):           3.6252150           0.7245753           0.6038777
 Standard basis: 6-31+G(d) (6D, 7F)
   202 basis functions,   344 primitive gaussians,   202 cartesian basis functions
    36 alpha electrons       36 beta electrons
       nuclear repulsion energy       472.4410556732 Hartrees.
 NAtoms=   16 NActive=   16 NUniq=   16 SFac= 1.00D+00 NAtFMM=   60 NAOKFM=F Big=F
 Integral buffers will be    131072 words long.
 Raffenetti 2 integral format.
 Two-electron integral symmetry is turned off.
 Nuclear repulsion after empirical dispersion term =      472.4301232307 Hartrees.
 One-electron integrals computed using PRISM.
 NBasis=   202 RedAO= T EigKep=  4.00D-06  NBF=   202
 NBsUse=   202 1.00D-06 EigRej= -1.00D+00 NBFU=   202
 Initial guess from the checkpoint file:  "MOLECULE_24.chk"
 B after Tr=    -0.000049    0.000050    0.000129
         Rot=    1.000000   -0.000008   -0.000040    0.000016 Ang=  -0.01 deg.
 ExpMin= 3.15D-02 ExpMax= 7.00D+03 ExpMxC= 1.05D+03 IAcc=3 IRadAn=         5 AccDes= 0.00D+00
 Harris functional with IExCor=  402 and IRadAn=       5 diagonalized for initial guess.
 HarFok:  IExCor=  402 AccDes= 0.00D+00 IRadAn=         5 IDoV= 1 UseB2=F ITyADJ=14
 ICtDFT=  3500011 ScaDFX=  1.000000  1.000000  1.000000  1.000000
 FoFCou: FMM=F IPFlag=           0 FMFlag=      100000 FMFlg1=           0
         NFxFlg=           0 DoJE=T BraDBF=F KetDBF=T FulRan=T
         wScrn=  0.000000 ICntrl=       500 IOpCl=  0 I1Cent=   200000004 NGrid=           0
         NMat0=    1 NMatS0=      1 NMatT0=    0 NMatD0=    1 NMtDS0=    0 NMtDT0=    0
 Symmetry not used in FoFCou.
 Requested convergence on RMS density matrix=1.00D-08 within 128 cycles.
 Requested convergence on MAX density matrix=1.00D-06.
 Requested convergence on             energy=1.00D-06.
 No special actions if energy rises.
 SCF Done:  E(RB3LYP) =  -507.537052193     A.U. after   10 cycles
            NFock= 10  Conv=0.64D-08     -V/T= 2.0091
 Calling FoFJK, ICntrl=      2127 FMM=F ISym2X=0 I1Cent= 0 IOpClX= 0 NMat=1 NMatS=1 NMatT=0.
 -------------------------------------------------------------------
 Center     Atomic                   Forces (Hartrees/Bohr)
 Number     Number              X              Y              Z
 -------------------------------------------------------------------
      1        6           0.000910601    0.000062156   -0.000017148
      2        6          -0.000166684   -0.000119847    0.000039428
      3        6           0.000090629   -0.000016038   -0.000049750
      4        6          -0.000173240    0.000121615   -0.000047959
      5        6           0.000920042   -0.000056487    0.000027850
      6        6          -0.001881528   -0.000007234   -0.000004877
      7        1          -0.000112916   -0.000025028    0.000004541
      8        1          -0.000001308    0.000069982   -0.000022222
      9        5          -0.000695362    0.000054839    0.000145534
     10        8          -0.000158347    0.000600766   -0.000245761
     11        1           0.000418470   -0.000050989    0.000012506
     12        8          -0.000161229   -0.000642894    0.000158842
     13        1           0.000420465    0.000054143   -0.000020006
     14        1          -0.000112227    0.000022287   -0.000005233
     15        1           0.000000803   -0.000068264    0.000022494
     16        9           0.000701831    0.000000995    0.000001761
 -------------------------------------------------------------------
 Cartesian Forces:  Max     0.001881528 RMS     0.000398750

 GradGradGradGradGradGradGradGradGradGradGradGradGradGradGradGradGradGrad
 Berny optimization.
 Using GEDIIS/GDIIS optimizer.
 FormGI is forming the generalized inverse of G from B-inverse, IUseBI=4.
 Internal  Forces:  Max     0.000701830 RMS     0.000206255
 Search for a local minimum.
 Step number   3 out of a maximum of   81
 All quantities printed in internal units (Hartrees-Bohrs-Radians)
 Mixed Optimization -- En-DIIS/RFO-DIIS
 Swapping is turned off.
 Update second derivatives using D2CorX and points    1    2    3
 DE= -1.00D-04 DEPred=-9.11D-05 R= 1.10D+00
 TightC=F SS=  1.41D+00  RLast= 2.91D-02 DXNew= 5.4866D-01 8.7280D-02
 Trust test= 1.10D+00 RLast= 2.91D-02 DXMaxT set to 3.26D-01
 ITU=  1  1  0
     Eigenvalues ---    0.00660   0.01550   0.01560   0.01972   0.02031
     Eigenvalues ---    0.02046   0.02102   0.02154   0.02161   0.02180
     Eigenvalues ---    0.02196   0.02350   0.02351   0.13920   0.16000
     Eigenvalues ---    0.16000   0.16000   0.16004   0.16155   0.22000
     Eigenvalues ---    0.22822   0.23438   0.24993   0.25000   0.25000
     Eigenvalues ---    0.25000   0.28037   0.35447   0.35464   0.35614
     Eigenvalues ---    0.35659   0.38772   0.41416   0.42022   0.44525
     Eigenvalues ---    0.46176   0.46856   0.47017   0.47285   0.50042
     Eigenvalues ---    0.53122   0.55163
 En-DIIS/RFO-DIIS/Sim-DIIS IScMMF=       -3 using points:     3    2
 RFO step:  Lambda=-1.01681799D-05.
 DidBck=F Rises=F RFO-DIIS coefs:    1.13881   -0.13881
 Iteration  1 RMS(Cart)=  0.00102906 RMS(Int)=  0.00000132
 Iteration  2 RMS(Cart)=  0.00000155 RMS(Int)=  0.00000064
 Iteration  3 RMS(Cart)=  0.00000000 RMS(Int)=  0.00000064
 Variable       Old X    -DE/DX   Delta X   Delta X   Delta X     New X
                                 (Linear)    (Quad)   (Total)
    R1        2.63863  -0.00032   0.00021  -0.00098  -0.00077   2.63785
    R2        2.62632   0.00040   0.00046   0.00057   0.00103   2.62735
    R3        2.05102   0.00006  -0.00004   0.00026   0.00023   2.05125
    R4        2.66051   0.00000  -0.00014   0.00002  -0.00012   2.66040
    R5        2.05319  -0.00003   0.00012  -0.00017  -0.00005   2.05314
    R6        2.66050   0.00000  -0.00013   0.00002  -0.00011   2.66039
    R7        2.94837  -0.00018   0.00076  -0.00112  -0.00035   2.94802
    R8        2.63864  -0.00033   0.00020  -0.00098  -0.00078   2.63786
    R9        2.05320  -0.00004   0.00011  -0.00017  -0.00006   2.05314
   R10        2.62630   0.00041   0.00046   0.00059   0.00105   2.62734
   R11        2.05101   0.00006  -0.00003   0.00027   0.00023   2.05125
   R12        2.57377  -0.00070  -0.00188  -0.00074  -0.00262   2.57115
   R13        2.60220   0.00065  -0.00005   0.00134   0.00128   2.60348
   R14        2.60217   0.00065  -0.00005   0.00135   0.00130   2.60347
   R15        1.82688   0.00042   0.00029   0.00057   0.00085   1.82774
   R16        1.82688   0.00042   0.00029   0.00057   0.00086   1.82773
    A1        2.05966   0.00027   0.00044   0.00100   0.00144   2.06110
    A2        2.13324  -0.00017  -0.00010  -0.00087  -0.00096   2.13227
    A3        2.09029  -0.00010  -0.00035  -0.00013  -0.00048   2.08981
    A4        2.12018   0.00000   0.00018  -0.00022  -0.00005   2.12013
    A5        2.08314  -0.00011  -0.00025  -0.00061  -0.00086   2.08228
    A6        2.07986   0.00011   0.00008   0.00083   0.00091   2.08077
    A7        2.06171   0.00001  -0.00028   0.00005  -0.00023   2.06148
    A8        2.11075  -0.00001   0.00013  -0.00003   0.00011   2.11086
    A9        2.11073   0.00000   0.00014  -0.00002   0.00012   2.11085
   A10        2.12018   0.00000   0.00018  -0.00023  -0.00005   2.12013
   A11        2.07988   0.00011   0.00007   0.00082   0.00089   2.08077
   A12        2.08312  -0.00011  -0.00025  -0.00060  -0.00084   2.08228
   A13        2.05966   0.00027   0.00044   0.00100   0.00145   2.06110
   A14        2.13322  -0.00017  -0.00009  -0.00086  -0.00096   2.13226
   A15        2.09031  -0.00010  -0.00035  -0.00014  -0.00049   2.08982
   A16        2.14498  -0.00055  -0.00097  -0.00159  -0.00256   2.14242
   A17        2.06909   0.00027   0.00049   0.00080   0.00128   2.07038
   A18        2.06911   0.00027   0.00048   0.00080   0.00128   2.07038
   A19        2.06119  -0.00002  -0.00019   0.00004  -0.00015   2.06103
   A20        2.06118  -0.00002  -0.00019   0.00004  -0.00015   2.06103
   A21        2.16081   0.00004   0.00039  -0.00008   0.00031   2.16112
   A22        2.03582  -0.00008  -0.00207   0.00048  -0.00158   2.03423
   A23        2.03593  -0.00009  -0.00210   0.00043  -0.00167   2.03426
    D1       -0.00003   0.00000   0.00001   0.00003   0.00004   0.00001
    D2        3.14153   0.00000   0.00000  -0.00001  -0.00001   3.14152
    D3        3.14157   0.00000   0.00001   0.00005   0.00006  -3.14155
    D4       -0.00006   0.00000   0.00001   0.00001   0.00002  -0.00004
    D5        0.00003   0.00000   0.00001  -0.00005  -0.00004  -0.00001
    D6        3.14155   0.00000  -0.00001   0.00009   0.00008  -3.14155
    D7       -3.14156   0.00000   0.00000  -0.00007  -0.00007   3.14156
    D8       -0.00004   0.00000  -0.00002   0.00007   0.00005   0.00001
    D9        0.00001   0.00000  -0.00001  -0.00006  -0.00007  -0.00006
   D10       -3.14146   0.00000   0.00000  -0.00027  -0.00028   3.14145
   D11       -3.14154   0.00000   0.00000  -0.00002  -0.00003  -3.14157
   D12        0.00017   0.00000   0.00000  -0.00023  -0.00023  -0.00006
   D13       -0.00001   0.00000   0.00000   0.00012   0.00012   0.00011
   D14       -3.14153   0.00000   0.00001  -0.00008  -0.00007  -3.14159
   D15        3.14147   0.00001  -0.00001   0.00032   0.00032  -3.14140
   D16       -0.00005   0.00000   0.00001   0.00013   0.00014   0.00008
   D17       -3.14152  -0.00003   0.00014  -0.00211  -0.00197   3.13970
   D18       -0.00134   0.00003  -0.00014   0.00226   0.00212   0.00078
   D19        0.00020  -0.00003   0.00015  -0.00232  -0.00217  -0.00198
   D20        3.14038   0.00003  -0.00013   0.00205   0.00192  -3.14089
   D21        0.00001   0.00000   0.00001  -0.00013  -0.00012  -0.00011
   D22       -3.14159   0.00000   0.00002  -0.00010  -0.00009   3.14151
   D23        3.14153   0.00000   0.00000   0.00006   0.00006  -3.14159
   D24       -0.00007   0.00000   0.00000   0.00009   0.00009   0.00003
   D25       -0.00003   0.00000  -0.00002   0.00010   0.00008   0.00006
   D26       -3.14154   0.00000   0.00000  -0.00004  -0.00004  -3.14158
   D27        3.14157   0.00000  -0.00002   0.00007   0.00005  -3.14156
   D28        0.00006   0.00000   0.00000  -0.00007  -0.00007  -0.00001
   D29        3.14087   0.00003  -0.00017   0.00251   0.00234  -3.13998
   D30        0.00077  -0.00003   0.00012  -0.00212  -0.00200  -0.00123
   D31       -3.14098  -0.00003   0.00019  -0.00242  -0.00222   3.13998
   D32       -0.00089   0.00003  -0.00010   0.00222   0.00212   0.00123
         Item               Value     Threshold  Converged?
 Maximum Force            0.000702     0.000450     NO 
 RMS     Force            0.000206     0.000300     YES
 Maximum Displacement     0.003446     0.001800     NO 
 RMS     Displacement     0.001029     0.001200     YES
 Predicted change in Energy=-5.084339D-06
 GradGradGradGradGradGradGradGradGradGradGradGradGradGradGradGradGradGrad

                          Input orientation:                          
 ---------------------------------------------------------------------
 Center     Atomic      Atomic             Coordinates (Angstroms)
 Number     Number       Type             X           Y           Z
 ---------------------------------------------------------------------
      1          6           0       -0.218924   -0.658762    0.380258
      2          6           0        1.176912   -0.646883    0.376416
      3          6           0        1.901196    0.500341    0.000584
      4          6           0        1.177719    1.647982   -0.375518
      5          6           0       -0.218111    1.660733   -0.379686
      6          6           0       -0.884571    0.501189    0.000189
      7          1           0        1.717168   -1.542634    0.669988
      8          1           0       -0.787192    2.539128   -0.667470
      9          5           0        3.461218    0.499924    0.000977
     10          8           0        4.110290    1.654033   -0.379548
     11          1           0        5.077129    1.628723   -0.372516
     12          8           0        4.109478   -0.655544    0.378736
     13          1           0        5.076334   -0.631631    0.369613
     14          1           0        1.718602    2.543428   -0.668870
     15          1           0       -0.788628   -1.536788    0.667937
     16          9           0       -2.245164    0.501616    0.000048
 ---------------------------------------------------------------------
                    Distance matrix (angstroms):
                    1          2          3          4          5
     1  C    0.000000
     2  C    1.395892   0.000000
     3  C    2.445931   1.407821   0.000000
     4  C    2.800514   2.414915   1.407818   0.000000
     5  C    2.440814   2.800513   2.445931   1.395895   0.000000
     6  C    1.390332   2.389420   2.785767   2.389421   1.390330
     7  H    2.147935   1.086476   2.157711   3.400606   3.886989
     8  H    3.412794   3.885624   3.439532   2.177212   1.085472
     9  B    3.876836   2.583443   1.560023   2.583439   3.876835
    10  O    4.966731   3.803998   2.521032   2.932580   4.328406
    11  H    5.817855   4.577224   3.391018   3.899459   5.295342
    12  O    4.328404   2.932580   2.521027   3.803990   4.966726
    13  H    5.295339   3.899458   3.391025   4.577233   5.817863
    14  H    3.886990   3.400609   2.157711   1.086477   2.147937
    15  H    1.085473   2.177214   3.439535   3.885625   3.412791
    16  F    2.365731   3.629230   4.146360   3.629233   2.365733
                    6          7          8          9         10
     6  C    0.000000
     7  H    3.375632   0.000000
     8  H    2.146729   4.972062   0.000000
     9  B    4.345789   2.767911   4.759639   0.000000
    10  O    5.140222   4.128831   4.985140   1.377701   0.000000
    11  H    6.078825   4.736419   5.941894   2.006204   0.967196
    12  O    5.140219   2.568055   5.939516   1.377697   2.430872
    13  H    6.078828   3.493444   6.746124   2.006218   2.592054
    14  H    3.375632   4.299820   2.505798   2.767908   2.568054
    15  H    2.146728   2.505804   4.289103   4.759646   5.939525
    16  F    1.360593   4.508642   2.592820   5.706382   6.470236
                   11         12         13         14         15
    11  H    0.000000
    12  O    2.592027   0.000000
    13  H    2.379066   0.967195   0.000000
    14  H    3.493453   4.128824   4.736435   0.000000
    15  H    6.746118   4.985145   5.941893   4.972064   0.000000
    16  F    7.417894   6.470232   7.417895   4.508646   2.592809
                   16
    16  F    0.000000
 Symmetry turned off by external request.
 Stoichiometry    C6H6BFO2
 Framework group  C1[X(C6H6BFO2)]
 Deg. of freedom    42
 Full point group                 C1      NOp   1
 Rotational constants (GHZ):           3.6245215           0.7245220           0.6038215
 Standard basis: 6-31+G(d) (6D, 7F)
   202 basis functions,   344 primitive gaussians,   202 cartesian basis functions
    36 alpha electrons       36 beta electrons
       nuclear repulsion energy       472.4234293539 Hartrees.
 NAtoms=   16 NActive=   16 NUniq=   16 SFac= 1.00D+00 NAtFMM=   60 NAOKFM=F Big=F
 Integral buffers will be    131072 words long.
 Raffenetti 2 integral format.
 Two-electron integral symmetry is turned off.
 Nuclear repulsion after empirical dispersion term =      472.4124973726 Hartrees.
 One-electron integrals computed using PRISM.
 NBasis=   202 RedAO= T EigKep=  3.99D-06  NBF=   202
 NBsUse=   202 1.00D-06 EigRej= -1.00D+00 NBFU=   202
 Initial guess from the checkpoint file:  "MOLECULE_24.chk"
 B after Tr=    -0.000083   -0.000065   -0.000191
         Rot=    1.000000    0.000003    0.000062   -0.000019 Ang=   0.01 deg.
 Requested convergence on RMS density matrix=1.00D-08 within 128 cycles.
 Requested convergence on MAX density matrix=1.00D-06.
 Requested convergence on             energy=1.00D-06.
 No special actions if energy rises.
 SCF Done:  E(RB3LYP) =  -507.537057351     A.U. after    9 cycles
            NFock=  9  Conv=0.48D-08     -V/T= 2.0091
 Calling FoFJK, ICntrl=      2127 FMM=F ISym2X=0 I1Cent= 0 IOpClX= 0 NMat=1 NMatS=1 NMatT=0.
 -------------------------------------------------------------------
 Center     Atomic                   Forces (Hartrees/Bohr)
 Number     Number              X              Y              Z
 -------------------------------------------------------------------
      1        6           0.000124806    0.000068231   -0.000032896
      2        6          -0.000038807   -0.000058531    0.000033285
      3        6           0.000202858    0.000027969    0.000087534
      4        6          -0.000040689    0.000069297   -0.000003793
      5        6           0.000127114   -0.000073358    0.000012898
      6        6          -0.000211576    0.000000094    0.000005018
      7        1          -0.000015431    0.000013182   -0.000005270
      8        1          -0.000000035    0.000022700   -0.000008340
      9        5          -0.000410544   -0.000088749   -0.000277817
     10        8           0.000121485    0.000083603    0.000061756
     11        1           0.000017914    0.000034599   -0.000000208
     12        8           0.000120991   -0.000035614    0.000097962
     13        1           0.000018626   -0.000026222    0.000020497
     14        1          -0.000015689   -0.000014029    0.000004414
     15        1           0.000000813   -0.000023566    0.000005075
     16        9          -0.000001836    0.000000394   -0.000000116
 -------------------------------------------------------------------
 Cartesian Forces:  Max     0.000410544 RMS     0.000097855

 GradGradGradGradGradGradGradGradGradGradGradGradGradGradGradGradGradGrad
 Berny optimization.
 Using GEDIIS/GDIIS optimizer.
 FormGI is forming the generalized inverse of G from B-inverse, IUseBI=4.
 Internal  Forces:  Max     0.000150039 RMS     0.000046696
 Search for a local minimum.
 Step number   4 out of a maximum of   81
 All quantities printed in internal units (Hartrees-Bohrs-Radians)
 Mixed Optimization -- En-DIIS/RFO-DIIS
 Swapping is turned off.
 Update second derivatives using D2CorX and points    1    2    3    4
 DE= -5.16D-06 DEPred=-5.08D-06 R= 1.01D+00
 TightC=F SS=  1.41D+00  RLast= 8.73D-03 DXNew= 5.4866D-01 2.6193D-02
 Trust test= 1.01D+00 RLast= 8.73D-03 DXMaxT set to 3.26D-01
 ITU=  1  1  1  0
     Eigenvalues ---    0.00660   0.01550   0.01839   0.01979   0.02031
     Eigenvalues ---    0.02047   0.02102   0.02155   0.02161   0.02180
     Eigenvalues ---    0.02196   0.02351   0.02353   0.13573   0.16000
     Eigenvalues ---    0.16000   0.16000   0.16007   0.16076   0.20184
     Eigenvalues ---    0.22000   0.23370   0.25000   0.25000   0.25000
     Eigenvalues ---    0.25271   0.27913   0.35451   0.35466   0.35578
     Eigenvalues ---    0.35619   0.38630   0.41413   0.41807   0.44525
     Eigenvalues ---    0.46107   0.46799   0.46856   0.47285   0.48118
     Eigenvalues ---    0.53122   0.54111
 En-DIIS/RFO-DIIS/Sim-DIIS IScMMF=       -3 using points:     4    3    2
 RFO step:  Lambda=-2.14461832D-06.
 DidBck=T Rises=F RFO-DIIS coefs:    0.43664    0.72347   -0.16011
 Iteration  1 RMS(Cart)=  0.00069390 RMS(Int)=  0.00000056
 Iteration  2 RMS(Cart)=  0.00000087 RMS(Int)=  0.00000024
 Variable       Old X    -DE/DX   Delta X   Delta X   Delta X     New X
                                 (Linear)    (Quad)   (Total)
    R1        2.63785  -0.00002   0.00067  -0.00078  -0.00011   2.63774
    R2        2.62735   0.00004  -0.00005   0.00024   0.00018   2.62753
    R3        2.05125   0.00002  -0.00017   0.00022   0.00005   2.05130
    R4        2.66040   0.00003  -0.00009   0.00012   0.00003   2.66042
    R5        2.05314  -0.00002   0.00016  -0.00020  -0.00004   2.05310
    R6        2.66039   0.00003  -0.00009   0.00012   0.00003   2.66042
    R7        2.94802  -0.00013   0.00108  -0.00140  -0.00032   2.94770
    R8        2.63786  -0.00002   0.00067  -0.00079  -0.00011   2.63774
    R9        2.05314  -0.00002   0.00016  -0.00021  -0.00004   2.05310
   R10        2.62734   0.00004  -0.00006   0.00025   0.00019   2.62753
   R11        2.05125   0.00002  -0.00017   0.00023   0.00006   2.05130
   R12        2.57115   0.00000  -0.00069   0.00041  -0.00029   2.57086
   R13        2.60348   0.00015  -0.00078   0.00114   0.00036   2.60383
   R14        2.60347   0.00015  -0.00079   0.00115   0.00036   2.60383
   R15        1.82774   0.00002  -0.00015   0.00029   0.00014   1.82787
   R16        1.82773   0.00002  -0.00015   0.00029   0.00014   1.82787
    A1        2.06110   0.00007  -0.00030   0.00065   0.00035   2.06146
    A2        2.13227  -0.00005   0.00043  -0.00068  -0.00025   2.13202
    A3        2.08981  -0.00002  -0.00013   0.00003  -0.00010   2.08971
    A4        2.12013   0.00001   0.00023  -0.00023   0.00000   2.12013
    A5        2.08228  -0.00001   0.00019  -0.00032  -0.00013   2.08216
    A6        2.08077   0.00000  -0.00042   0.00055   0.00012   2.08089
    A7        2.06148  -0.00004  -0.00019   0.00007  -0.00012   2.06136
    A8        2.11086   0.00002   0.00009  -0.00004   0.00006   2.11091
    A9        2.11085   0.00002   0.00010  -0.00004   0.00006   2.11091
   A10        2.12013   0.00001   0.00023  -0.00023   0.00000   2.12013
   A11        2.08077   0.00000  -0.00042   0.00055   0.00012   2.08089
   A12        2.08228  -0.00001   0.00019  -0.00031  -0.00012   2.08216
   A13        2.06110   0.00007  -0.00030   0.00066   0.00035   2.06146
   A14        2.13226  -0.00005   0.00043  -0.00068  -0.00025   2.13201
   A15        2.08982  -0.00002  -0.00013   0.00002  -0.00010   2.08971
   A16        2.14242  -0.00011   0.00033  -0.00092  -0.00059   2.14183
   A17        2.07038   0.00006  -0.00016   0.00046   0.00030   2.07068
   A18        2.07038   0.00006  -0.00016   0.00046   0.00029   2.07068
   A19        2.06103   0.00005  -0.00014   0.00023   0.00009   2.06112
   A20        2.06103   0.00005  -0.00014   0.00023   0.00009   2.06112
   A21        2.16112  -0.00010   0.00027  -0.00045  -0.00018   2.16094
   A22        2.03423   0.00006  -0.00149   0.00157   0.00008   2.03431
   A23        2.03426   0.00006  -0.00148   0.00154   0.00006   2.03432
    D1        0.00001   0.00000  -0.00002  -0.00006  -0.00008  -0.00006
    D2        3.14152   0.00000   0.00001   0.00005   0.00006   3.14158
    D3       -3.14155   0.00000  -0.00003  -0.00006  -0.00008   3.14155
    D4       -0.00004   0.00000   0.00000   0.00006   0.00005   0.00001
    D5       -0.00001   0.00000   0.00003  -0.00001   0.00002   0.00001
    D6       -3.14155   0.00000  -0.00006   0.00006   0.00000  -3.14155
    D7        3.14156   0.00000   0.00004  -0.00002   0.00003   3.14158
    D8        0.00001   0.00000  -0.00005   0.00006   0.00001   0.00002
    D9       -0.00006   0.00001   0.00003   0.00011   0.00014   0.00008
   D10        3.14145   0.00001   0.00015   0.00007   0.00022  -3.14151
   D11       -3.14157   0.00000   0.00001  -0.00001   0.00000  -3.14157
   D12       -0.00006   0.00000   0.00013  -0.00004   0.00009   0.00003
   D13        0.00011  -0.00001  -0.00007  -0.00008  -0.00015  -0.00003
   D14       -3.14159   0.00000   0.00005  -0.00005   0.00000  -3.14159
   D15       -3.14140  -0.00001  -0.00019  -0.00005  -0.00023   3.14155
   D16        0.00008   0.00000  -0.00007  -0.00002  -0.00008   0.00000
   D17        3.13970   0.00005   0.00127   0.00044   0.00171   3.14141
   D18        0.00078  -0.00006  -0.00136  -0.00043  -0.00179  -0.00101
   D19       -0.00198   0.00006   0.00139   0.00041   0.00180  -0.00018
   D20       -3.14089  -0.00005  -0.00123  -0.00047  -0.00170   3.14059
   D21       -0.00011   0.00000   0.00008   0.00001   0.00009  -0.00001
   D22        3.14151   0.00000   0.00007   0.00003   0.00009  -3.14158
   D23       -3.14159   0.00000  -0.00003  -0.00002  -0.00006   3.14154
   D24        0.00003   0.00000  -0.00005  -0.00001  -0.00006  -0.00003
   D25        0.00006   0.00000  -0.00007   0.00004  -0.00003   0.00003
   D26       -3.14158   0.00000   0.00003  -0.00004  -0.00001   3.14159
   D27       -3.14156   0.00000  -0.00005   0.00002  -0.00003  -3.14159
   D28       -0.00001   0.00000   0.00004  -0.00005  -0.00001  -0.00003
   D29       -3.13998  -0.00007  -0.00152  -0.00052  -0.00203   3.14118
   D30       -0.00123   0.00005   0.00127   0.00041   0.00168   0.00045
   D31        3.13998   0.00007   0.00148   0.00060   0.00208  -3.14112
   D32        0.00123  -0.00005  -0.00131  -0.00032  -0.00163  -0.00040
         Item               Value     Threshold  Converged?
 Maximum Force            0.000150     0.000450     YES
 RMS     Force            0.000047     0.000300     YES
 Maximum Displacement     0.003008     0.001800     NO 
 RMS     Displacement     0.000694     0.001200     YES
 Predicted change in Energy=-8.751920D-07
 GradGradGradGradGradGradGradGradGradGradGradGradGradGradGradGradGradGrad

                          Input orientation:                          
 ---------------------------------------------------------------------
 Center     Atomic      Atomic             Coordinates (Angstroms)
[...]
     6         -0.71913522         -1.24449440         -0.41323460
     6         -0.71145037         -1.22140679          2.22439483
     6          0.00004362          0.94654258          3.59246749
     6          0.71126194          3.11456377          2.22437025
     6          0.71865292          3.13771599         -0.41326171
     6         -0.00030415          0.94662493         -1.67267922
     1         -1.26668216         -2.91377545          3.24558792
     1          1.26310355          4.79732269         -1.48895405
     5          0.00035584          0.94645801          6.54016307
     8          0.71702181          3.12885462          7.76632925
     1          0.70128238          3.08245933          9.59354385
     8         -0.71783998         -1.23541730          7.76635363
     1         -0.70305931         -1.18870842          9.59356707
     1          1.26666712          4.80688792          3.24554290
     1         -1.26370878         -2.90406920         -1.48891347
     9         -0.00049148          0.94666707         -4.24354236

 Electric dipole moment (dipole orientation):
 (Debye = 10**-18 statcoulomb cm , SI units = C m)
                  (au)            (Debye)         (10**-30 SI)
   Tot        0.161764D+01      0.411163D+01      0.137149D+02
   x          0.000000D+00      0.000000D+00      0.000000D+00
   y          0.000000D+00      0.000000D+00      0.000000D+00
   z          0.161764D+01      0.411163D+01      0.137149D+02

 Dipole polarizability, Alpha (dipole orientation).
 (esu units = cm**3 , SI units = C**2 m**2 J**-1)
 Alpha(0;0):
               (au)            (10**-24 esu)      (10**-40 SI)
   iso        0.885348D+02      0.131195D+02      0.145974D+02
   aniso      0.599756D+02      0.888747D+01      0.988864D+01
   xx         0.554642D+02      0.821894D+01      0.914480D+01
   yx         0.128766D+02      0.190811D+01      0.212306D+01
   yy         0.904768D+02      0.134073D+02      0.149176D+02
   zx         0.150027D-02      0.222317D-03      0.247361D-03
   zy        -0.348512D-03     -0.516441D-04     -0.574618D-04
   zz         0.119664D+03      0.177323D+02      0.197299D+02

 ----------------------------------------------------------------------
 1\1\GINC-IP-172-31-13-49\Freq\RB3LYP\6-31+G(d)\C6H6B1F1O2\UBUNTU\15-Se
 p-2023\0\\#N Geom=AllCheck Guess=TCheck SCRF=Check GenChk RB3LYP/6-31+
 G(d) Freq\\molecule_11\\0,1\C,-0.2188795408,-0.6586255724,0.3803151102
 \C,1.1768980578,-0.6469891908,0.3759973983\C,1.9012608891,0.5000949781
 ,-0.0001628535\C,1.1777051596,1.6478216083,-0.3759114795\C,-0.21806501
 9,1.6606576166,-0.3795613344\C,-0.8849344223,0.5013017436,0.0005325454
 \H,1.7169700062,-1.5429002758,0.6693402955\H,-0.7869829267,2.539241480
 9,-0.6672010329\B,3.4611140055,0.4993990357,-0.0006143688\O,4.11038586
 12,1.6541608494,-0.3794945423\H,5.0772973628,1.6292023475,-0.371353301
 8\O,4.1095735755,-0.6556290703,0.378837308\H,5.0765020727,-0.631312228
 1,0.3708485766\H,1.7184064744,2.5432579444,-0.6695444886\H,-0.78841811
 65,-1.5367172644,0.6682288047\F,-2.2453764396,0.5018919974,0.000881363
 \\Version=EM64L-G16RevB.01\HF=-507.5370579\RMSD=3.116e-09\RMSF=4.724e-
 05\ZeroPoint=0.1164109\Thermal=0.1251084\Dipole=1.6176383,-0.0006754,-
 0.0002969\DipoleDeriv=-0.2890897,0.0701379,-0.0229467,0.243502,-0.0628
 396,-0.0285605,-0.0797641,-0.028484,-0.1402982,0.226968,-0.0290294,0.0
 094168,0.0893586,0.0931348,-0.0686394,-0.029309,-0.0685639,-0.0936235,
 -0.7733873,0.0002208,0.0001501,0.000233,-0.2737753,0.0421003,0.0001854
 ,0.0420532,-0.1592552,0.2269265,0.0288755,-0.0096471,-0.0894737,0.0931
 984,-0.0685668,0.0291999,-0.0685914,-0.0936443,-0.2893118,-0.0699548,0
 .0230013,-0.2433188,-0.0625667,-0.0284528,0.0798209,-0.0285191,-0.1403
 521,1.5727062,-0.0005537,-0.0003829,-0.0005599,0.3268188,-0.0668822,-0
 .0004025,-0.0668732,0.1445477,0.0671222,0.0562184,-0.0183912,0.0522731
 ,-0.020852,0.0473774,-0.017075,0.0473411,0.1082348,0.0237354,0.0585293
 ,-0.0191308,0.0711983,0.0016598,0.0515456,-0.0232885,0.0515342,0.14218
 06,2.1523399,-0.0003076,-0.0003168,-0.0002451,1.466865,-0.3214287,-0.0
 001205,-0.3213893,0.5936466,-0.906738,-0.3693134,0.1213805,-0.4972244,
 -0.9980702,0.1532454,0.1632455,0.1530478,-0.5820259,0.1467214,0.049891
 9,-0.0163679,0.1161601,0.3286831,0.0091348,-0.0381708,0.0091586,0.3536
 435,-0.9061304,0.3692817,-0.1211666,0.4970858,-0.9986235,0.1532345,-0.
 1633638,0.1534268,-0.5820881,0.1466063,-0.0497624,0.0163745,-0.1160349
 ,0.3288129,0.0091492,0.0381648,0.0091314,0.3536353,0.0670463,-0.056267
 5,0.0184621,-0.0523191,-0.0207519,0.0473822,0.0171553,0.0473747,0.1082
 117,0.0236439,-0.0585245,0.0192303,-0.071199,0.0017773,0.0515629,0.023
 3686,0.051557,0.1421549,-1.489159,0.0005579,0.0003343,0.0005639,-0.203
 4708,0.0177979,0.0003539,0.0177961,-0.1549678\Polar=119.6635144,-0.014
 8897,90.4875594,-0.0186548,-12.8619238,55.4534097\Quadrupole=12.080168
 9,-4.648864,-7.4313049,1.5246114,-0.0014045,-1.0198924\PG=C01 [X(C6H6B
 1F1O2)]\NImag=0\\0.70254689,0.03761956,0.67323082,-0.01254841,-0.18039
 919,0.18174395,-0.34276975,-0.03318926,0.01098829,0.68837887,0.0278481
 9,-0.12288035,0.02077111,-0.03874704,0.64820324,-0.00903093,0.02079487
 ,-0.06622413,0.01249515,-0.16597484,0.19595101,-0.02924025,-0.02360401
 ,0.00774962,-0.17138813,-0.10172224,0.03336558,0.62659962,-0.06287549,
 0.02883046,-0.00628434,-0.05860717,-0.24340592,0.05877122,-0.00005502,
 0.59309849,0.02061851,-0.00630241,0.01161560,0.01923343,0.05879045,-0.
 08340591,-0.00018067,-0.15090116,0.18211156,-0.04685315,0.02617315,-0.
 00856303,0.06045213,0.01893340,-0.00621662,-0.17127634,0.05858130,-0.0
 1912086,0.68843166,0.02666264,-0.01607933,0.00429730,-0.01902247,-0.05
 295421,0.01937280,0.10169446,-0.24355177,0.05875026,0.03862417,0.64814
 002,-0.00872426,0.00429980,-0.00433689,0.00620110,0.01935767,-0.000175
 26,-0.03325893,0.05876481,-0.08337491,-0.01289423,-0.16598275,0.195962
 81,0.05913088,-0.02085707,0.00681008,-0.04689053,-0.02663370,0.0087499
 4,-0.02917914,0.06292222,-0.02060461,-0.34276286,-0.02764783,0.0091835
 1,0.70248906,0.02077607,-0.04391598,0.01712986,-0.02614416,-0.01603266
 ,0.00430582,0.02365200,0.02875272,-0.00630084,0.03338798,-0.12288373,0
 .02077199,-0.03773059,0.67330100,-0.00682483,0.01714673,0.00279127,0.0
 0858840,0.00430428,-0.00434625,-0.00773176,-0.00631214,0.01163237,-0.0
 1084034,0.02079670,-0.06622497,0.01214201,-0.18038775,0.18172886,-0.15
 124041,0.11009501,-0.03603300,-0.02980839,0.02585908,-0.00846460,0.004
 78448,-0.00002502,0.00000379,-0.02988388,-0.02580836,0.00847136,-0.151
 34299,-0.11017381,0.03612322,0.64061930,0.03631618,-0.28115339,0.07091
 284,0.08073670,0.03554256,-0.01149818,-0.00002482,-0.06380345,0.019320
 54,-0.08068643,0.03563549,-0.01146438,-0.03639427,-0.28103110,0.070895
 05,-0.00003129,0.66149508,-0.01185101,0.07088361,-0.08790019,-0.026436
 01,-0.01147479,0.00431533,0.00000427,0.01931777,-0.01117240,0.02644123
 ,-0.01148395,0.00429759,0.01194405,0.07092671,-0.08792099,-0.00018040,
 -0.16805590,0.20363578,-0.01189916,0.02684725,-0.00879036,-0.12956731,
 0.11598386,-0.03796900,0.01262626,-0.01334137,0.00436443,-0.00132314,-
 0.00335071,0.00110098,-0.00063176,-0.00058242,0.00019098,-0.00397144,-
 0.00189985,0.00062672,0.13596685,-0.00236962,0.00465237,-0.00009470,0.
 11510429,-0.24887908,0.06848651,0.01302234,-0.01696466,0.00636934,-0.0
 0385341,-0.00227989,0.00291888,-0.00064540,0.00020399,-0.00036953,-0.0
 0093379,0.00207035,0.00191328,-0.12282579,0.26249685,0.00078262,-0.000
 10609,0.00439375,-0.03768113,0.06848600,-0.06213664,-0.00427072,0.0063
 8385,0.00040705,0.00126569,0.00291948,0.00566667,0.00021173,-0.0003691
 9,-0.00080281,0.00031024,0.00191252,0.00728140,0.04020746,-0.07709317,
 0.05228428,-0.00140326,-0.00291196,0.00095667,-0.00082058,-0.00073408,
 0.00024072,-0.00525294,-0.00147743,0.00048971,-0.01006596,0.02680322,-
 0.00877705,-0.13427294,0.12046818,-0.03943011,0.01063033,-0.01357831,0
 .00444570,0.00006059,0.00010841,-0.00003584,0.13801658,-0.00390747,-0.
 00219611,0.00233406,-0.00099482,0.00014549,-0.00028943,-0.00073691,0.0
 0220827,0.00162743,-0.00169096,0.00526542,-0.00095082,0.11799640,-0.24
 590219,0.06946225,0.01804452,-0.01749415,0.00729541,0.00006578,-0.0000
 8711,-0.00024548,-0.12976376,0.25647819,0.00128290,0.00233436,0.004159
 01,0.00032560,-0.00028907,-0.00064381,0.00024652,0.00162731,0.00664031
 ,0.00055917,-0.00096210,0.00267575,-0.03862055,0.06946088,-0.05648959,
 -0.00591426,0.00730808,0.00240320,-0.00002187,-0.00024555,-0.00075589,
 0.04246892,-0.07612444,0.04889000,0.00474895,-0.00319917,0.00104727,-0
 .01525857,-0.01031468,0.00338802,-0.20144938,0.00006213,0.00004830,-0.
 01523778,0.01033191,-0.00338355,0.00475432,0.00319317,-0.00104659,-0.0
 0629375,0.00000160,0.00000236,0.00027361,0.00138259,-0.00045221,0.0006
 8727,-0.00035645,0.00011677,0.53336912,-0.00438548,-0.00315571,0.00296
 652,-0.01938910,0.00645966,-0.00214512,0.00005739,-0.06819995,0.002988
 84,0.01940575,0.00643588,-0.00215530,0.00438045,-0.00316227,0.00296475
 ,0.00000096,-0.00351920,0.00110034,-0.00185723,-0.00259657,-0.00005082
 ,0.00116552,0.00014125,0.00011442,0.00000484,0.54208340,0.00143878,0.0
 0296621,0.00491998,0.00635545,-0.00215703,0.00058600,0.00003380,0.0029
 8523,-0.06005150,-0.00635263,-0.00214776,0.00058888,-0.00143506,0.0029
 6634,0.00492125,0.00000031,0.00110020,-0.00052130,0.00060933,-0.000054
 92,-0.00274415,-0.00038173,0.00011492,0.00045386,-0.00003425,-0.130011
 55,0.18873002,-0.00235183,-0.00022703,0.00007472,-0.00306319,0.0041903
 9,-0.00137138,-0.02019757,-0.02618616,0.00859588,-0.00131125,-0.002330
 54,0.00076833,0.00005963,-0.00078218,0.00025458,0.00218272,-0.00124230
 ,0.00040605,0.00020824,-0.00014334,0.00004725,-0.00022053,0.00012506,-
 0.00004085,-0.13858158,-0.11407264,0.03744152,0.65303404,-0.00093722,0
 .00112477,-0.00046382,0.00118871,0.00160326,-0.00012003,-0.01220268,-0
 .00028239,0.00228892,0.00137418,-0.00424033,0.00170302,-0.00117106,0.0
 0022530,-0.00024323,0.00167473,-0.00034074,0.00008957,0.00060540,0.000
 54193,-0.00014737,-0.00030460,0.00005298,-0.00002830,-0.07451623,-0.23
 701552,0.06261922,0.10297072,0.31500697,0.00030867,-0.00046460,-0.0001
 3924,-0.00038982,-0.00012139,0.00127792,0.00401034,0.00228922,0.005923
 26,-0.00044946,0.00170353,0.00039753,0.00038269,-0.00024342,-0.0004380
 9,-0.00054962,0.00009181,-0.00009494,-0.00019880,-0.00014793,0.0001398
 1,0.00009988,-0.00002839,-0.00002426,0.02446189,0.06260945,-0.06674261
 ,-0.03383624,-0.09395165,0.05953561,0.00008330,-0.00057428,0.00018843,
 -0.00126377,0.00059384,-0.00019414,0.00216218,-0.00338177,0.00110795,0
 .00050297,-0.00019510,0.00006202,0.00000813,0.00014558,-0.00004664,-0.
 00003142,0.00006065,-0.00002021,-0.00001934,-0.00010012,0.00003275,-0.
 00001804,-0.00000040,0.00000017,-0.01912510,0.00716140,-0.00234775,-0.
 50375284,-0.00406169,0.00135906,0.51699921,-0.00000591,-0.00028820,-0.
 00008701,-0.00083190,0.00041752,0.00006768,-0.00007470,-0.00280055,0.0
 0244590,0.00055115,-0.00025081,-0.00005937,0.00006580,0.00019736,-0.00
 006005,-0.00013541,-0.00002098,0.00004073,-0.00006195,-0.00003401,0.00
 009190,0.00002839,-0.00000683,0.00001042,-0.03277654,0.00110595,-0.000
 44349,0.03175679,-0.02877406,0.00643935,-0.00228263,0.03097406,0.00000
 126,-0.00008633,-0.00052524,0.00027425,0.00006777,0.00060097,0.0000277
 3,0.00244674,0.00385287,-0.00018132,-0.00005935,-0.00041148,-0.0000212
 7,-0.00005965,0.00003448,0.00004474,0.00004020,0.00008995,0.00002043,0
 .00009189,0.00021616,-0.00000932,0.00001044,0.00002164,0.01075209,-0.0
 0044612,-0.00010086,-0.01039703,0.00643994,-0.01124065,0.00072436,-0.0
 0768687,0.01004753,0.00006100,0.00078219,-0.00025508,-0.00131063,0.002
 32871,-0.00076642,-0.02017079,0.02619926,-0.00859732,-0.00306695,-0.00
 418655,0.00137307,-0.00235102,0.00023020,-0.00007280,0.00218242,0.0012
 4008,-0.00040740,-0.00146164,0.00028319,-0.00009873,-0.00061863,0.0000
 7685,-0.00002493,-0.13844992,0.11398789,-0.03745175,0.01559559,-0.0088
 1875,0.00289375,0.00339028,0.00258868,-0.00084842,0.65289261,0.0011708
 2,0.00022354,-0.00024442,-0.00137572,-0.00424043,0.00170318,0.01221832
 ,-0.00030986,0.00229557,-0.00118510,0.00160692,-0.00012023,0.00093970,
 0.00112362,-0.00046431,-0.00167631,-0.00034009,0.00009097,-0.00025349,
 0.00094594,-0.00038825,0.00013855,-0.00006634,-0.00002617,0.07443612,-
 0.23709488,0.06271550,0.00877084,-0.05156976,0.02456275,0.00387807,0.0
 0253290,-0.00228559,-0.10317638,0.31509037,-0.00038391,-0.00024289,-0.
 00043767,0.00045224,0.00170529,0.00039694,-0.00400419,0.00229063,0.005
 92351,0.00039067,-0.00012280,0.00127804,-0.00030895,-0.00046473,-0.000
 13891,0.00055029,0.00009133,-0.00009531,0.00008080,-0.00038005,-0.0000
 8262,-0.00004561,-0.00002610,-0.00013752,-0.02445826,0.06271067,-0.066
 79811,-0.00287850,0.02455836,0.01517360,-0.00127411,-0.00228539,-0.003
 67864,0.03389289,-0.09406289,0.05959836,0.00000797,-0.00014531,0.00004
 703,0.00050271,0.00019438,-0.00006265,0.00216463,0.00337672,-0.0011109
 4,-0.00126361,-0.00059260,0.00019438,0.00008371,0.00057414,-0.00018814
 ,-0.00003136,-0.00006069,0.00002008,0.00009137,-0.00001159,0.00000412,
 -0.00010541,-0.00003008,0.00001002,-0.01910660,-0.00714532,0.00235360,
 0.00338566,-0.00387844,0.00127307,0.00095619,0.00128991,-0.00042373,-0
 .50377469,0.00437273,-0.00144159,0.51700439,-0.00006571,0.00019754,-0.
 00005968,-0.00055156,-0.00025061,-0.00006010,0.00007319,-0.00280125,0.
 00245031,0.00083283,0.00041701,0.00006721,0.00000564,-0.00028858,-0.00
 008734,0.00013549,-0.00002117,0.00004059,0.00030411,0.00043925,-0.0001
 7775,0.00005173,-0.00000039,-0.00002248,0.03278285,0.00108827,-0.00044
 321,-0.00258864,0.00253677,-0.00228866,-0.00129308,-0.00350361,0.00173
 324,-0.03143975,-0.02874654,0.00644913,0.00196330,0.03096185,0.0000210
 6,-0.00005998,0.00003444,0.00018160,-0.00005889,-0.00041141,-0.0000197
 9,0.00244767,0.00385125,-0.00027493,0.00006740,0.00060131,-0.00000134,
 -0.00008579,-0.00052528,-0.00004452,0.00003999,0.00009009,-0.00009982,
 -0.00017791,-0.00004588,-0.00001708,-0.00002245,-0.00006146,-0.0107755
 9,-0.00043912,-0.00010166,0.00084886,-0.00228586,-0.00367786,0.0004249
 2,0.00173259,0.00120540,0.01033189,0.00644391,-0.01124755,-0.00064476,
 -0.00769771,0.01005560,-0.00063089,0.00058297,-0.00019134,-0.00131807,
 0.00335135,-0.00109492,0.01262648,0.01331841,-0.00436650,-0.12972986,-
 0.11605161,0.03806644,-0.01191632,-0.02683262,0.00879917,-0.00396946,0
 .00190613,-0.00061918,0.00058646,0.00083921,-0.00027503,0.00083939,0.0
 0032102,-0.00010756,0.00027398,0.00185488,-0.00061042,-0.00146181,0.00
 025532,-0.00008078,0.00009116,-0.00030391,0.00009955,0.00020792,-0.000
 60509,0.00019891,-0.00001923,0.00006198,-0.00002023,0.13613971,0.00064
 646,0.00020281,-0.00036958,0.00385396,-0.00228679,0.00291734,-0.013045
 95,-0.01696372,0.00637987,-0.11517098,-0.24867721,0.06851510,0.0023832
 9,0.00467351,-0.00010340,0.00093992,0.00206847,0.00191310,-0.00084033,
 -0.00092657,0.00038050,-0.00036975,0.00026299,-0.00148541,-0.00138436,
 -0.00259732,-0.00005463,-0.00028146,0.00094584,-0.00037938,0.00001181,
 0.00043955,-0.00017775,0.00014337,0.00054233,-0.00014818,0.00010006,-0
 .00003406,0.00009189,0.12289549,0.26228179,-0.00021053,-0.00036967,-0.
 00080250,-0.00125985,0.00291764,0.00566855,0.00426676,0.00637657,0.000
 40587,0.03778157,0.06851289,-0.06217652,-0.00077666,-0.00009232,0.0043
 8979,-0.00030308,0.00191367,0.00728124,0.00027513,0.00037968,0.0001091
 2,0.00011918,-0.00148569,-0.00378412,0.00045285,-0.00005213,-0.0027438
 0,0.00009851,-0.00038910,-0.00008255,-0.00000434,-0.00017772,-0.000045
 98,-0.00004797,-0.00014701,0.00013973,-0.00003283,0.00009211,0.0002161
 0,-0.04032017,-0.07712334,0.05232725,-0.13444176,-0.12053171,0.0395270
 4,-0.01008352,-0.02679027,0.00878260,-0.00525135,0.00148500,-0.0004815
 0,-0.00081938,0.00073477,-0.00024083,-0.00139846,0.00291233,-0.0009522
 1,0.01062712,0.01355749,-0.00444379,0.00083943,0.00036850,-0.00012280,
 0.00050660,0.00075718,-0.00024812,0.00068670,-0.00116583,0.00038204,-0
 .00061878,-0.00013821,0.00004544,-0.00010542,-0.00005169,0.00001697,-0
 .00022041,0.00030475,-0.00010004,-0.00001806,-0.00002839,0.00000929,0.
 00006047,-0.00010863,0.00003529,0.13820014,-0.11805971,-0.24569604,0.0
 6948583,0.00170372,0.00528709,-0.00095914,0.00074415,0.00220651,0.0016
 2731,0.00099551,0.00014400,-0.00028964,0.00390796,-0.00220208,0.002332
 91,-0.01806509,-0.01749013,0.00730830,-0.00032228,0.00026296,-0.001485
 36,-0.00075812,-0.00079879,0.00038850,0.00035609,0.00014187,0.00011448
 ,-0.00007638,-0.00006619,-0.00002617,0.00003019,-0.00000036,-0.0000224
 4,-0.00012488,0.00005282,-0.00002838,0.00000041,-0.00000681,0.00001046
 ,-0.00006603,-0.00008696,-0.00024550,0.12982969,0.25625372,0.03871770,
 0.06948598,-0.05652778,-0.00055400,-0.00094885,0.00267180,-0.00023931,
 0.00162740,0.00664055,-0.00032571,-0.00028916,-0.00064355,-0.00127810,
 0.00233393,0.00416012,0.00591717,0.00729692,0.00240223,0.00010396,-0.0
 0148572,-0.00378416,0.00024833,0.00038791,0.00025896,-0.00011659,0.000
 11482,0.00045381,0.00002515,-0.00002615,-0.00013752,-0.00000993,-0.000
 02244,-0.00006148,0.00004079,-0.00002836,-0.00002423,-0.00000013,0.000
 01042,0.00002163,0.00002123,-0.00024550,-0.00075591,-0.04257745,-0.076
 15119,0.04893172,-0.04574852,0.00313967,-0.00100793,0.00420876,0.00565
 880,-0.00185137,-0.00755776,0.00000438,0.00000040,0.00420740,-0.005665
 43,0.00185764,-0.04577969,-0.00309386,0.00103506,-0.29445328,0.0000991
 4,0.00006754,-0.00177902,-0.00022547,0.00007460,0.00203753,0.00009403,
 -0.00003194,0.00870872,-0.00000348,-0.00000125,-0.00290649,-0.00204018
 ,0.00066992,0.00012251,0.00024395,-0.00008030,-0.00290515,0.00204218,-
 0.00067066,0.00012233,-0.00024398,0.00008045,-0.00177993,0.00022711,-0
 .00007386,0.00203668,-0.00009523,0.00002689,0.38146592,0.04156669,0.00
 690280,0.00010524,-0.00373418,-0.00672876,0.00462742,0.00000449,0.0039
 8708,-0.00183035,0.00372745,-0.00672746,0.00462400,-0.04152155,0.00694
 107,0.00012509,0.00009938,-0.07159755,0.01009424,0.00152903,0.00015423
 ,-0.00011078,0.00113403,0.00199731,-0.00206045,-0.00000388,-0.00011485
 ,-0.00026951,0.00011684,0.00025117,-0.00004452,0.00000753,0.00001208,-
 0.00000612,-0.00011411,0.00024945,-0.00004401,-0.00000763,0.00001230,-
 0.00000619,-0.00152751,0.00015532,-0.00011007,-0.00113498,0.00199837,-
 0.00205999,-0.00014162,0.06250745,-0.01359763,0.00011961,0.00723565,0.
 00122532,0.00462465,0.00587489,0.00000075,-0.00183078,-0.00099947,-0.0
 0121922,0.00462751,0.00587500,0.01362251,0.00010817,0.00722875,0.00006
 836,0.01009530,-0.04409167,-0.00050039,-0.00011010,-0.00014609,-0.0003
 7238,-0.00205963,-0.00360606,-0.00000251,-0.00026966,-0.00084979,-0.00
 003687,-0.00004354,0.00013001,-0.00000254,-0.00000623,-0.00000468,0.00
 003844,-0.00004464,0.00013039,0.00000248,-0.00000608,-0.00000473,0.000
 50084,-0.00011062,-0.00014626,0.00036805,-0.00205996,-0.00360619,-0.00
 009520,-0.01303400,0.02698025\\0.00002730,-0.00004760,0.00001294,0.000
 01686,0.00002589,0.00000062,-0.00013209,0.00000834,0.00002355,0.000017
 58,-0.00002173,0.00001309,0.00002645,0.00004511,-0.00001751,-0.0000660
 9,-0.00000024,-0.00000267,-0.00000233,-0.00000892,0.00000308,-0.000001
 38,-0.00001213,0.00000223,0.00017516,-0.00002902,-0.00008481,-0.000107
 21,0.00005052,0.00001033,0.00005686,-0.00001832,0.00000887,-0.00010703
 ,-0.00003209,0.00003999,0.00005650,0.00001931,-0.00000378,-0.00000223,
 0.00000866,-0.00000378,-0.00000162,0.00001193,-0.00000371,0.00004328,0
 .00000030,0.00000156\\\@


       THE DEATH-KNELL OF THE ATOM

 SO THE ATOMS IN TURN, WE NOW CLEARLY DISCERN,
 FLY TO BITS WITH THE UTMOST FACILITY;
 THEY WEND ON THEIR WAY, AND, IN SPLITTING, DISPLAY
 AN ABSOLUTE LACK OF STABILITY.

          SIR WM. RAMSAY, 1905
 Job cpu time:       0 days  0 hours 32 minutes 32.7 seconds.
 Elapsed time:       0 days  0 hours  1 minutes  5.1 seconds.
 File lengths (MBytes):  RWF=     78 Int=      0 D2E=      0 Chk=      5 Scr=      1
 Normal termination of Gaussian 16 at Fri Sep 15 03:46:30 2023.
