 Entering Gaussian System, Link 0=/home/ubuntu/g16/g16
 Input=/home/ubuntu/Downloads/molecule33vol.gjf
 Output=/home/ubuntu/Downloads/molecule33vol.log
 Initial command:
 /home/ubuntu/g16/l1.exe "/home/ubuntu/Scratch/Gau-67485.inp" -scrdir="/home/ubuntu/Scratch/"
 Entering Link 1 = /home/ubuntu/g16/l1.exe PID=     67487.
  
 Copyright (c) 1988-2017, Gaussian, Inc.  All Rights Reserved.
  
 This is part of the Gaussian(R) 16 program.  It is based on
 the Gaussian(R) 09 system (copyright 2009, Gaussian, Inc.),
 the Gaussian(R) 03 system (copyright 2003, Gaussian, Inc.),
 the Gaussian(R) 98 system (copyright 1998, Gaussian, Inc.),
 the Gaussian(R) 94 system (copyright 1995, Gaussian, Inc.),
 the Gaussian 92(TM) system (copyright 1992, Gaussian, Inc.),
 the Gaussian 90(TM) system (copyright 1990, Gaussian, Inc.),
 the Gaussian 88(TM) system (copyright 1988, Gaussian, Inc.),
 the Gaussian 86(TM) system (copyright 1986, Carnegie Mellon
 University), and the Gaussian 82(TM) system (copyright 1983,
 Carnegie Mellon University). Gaussian is a federally registered
 trademark of Gaussian, Inc.
  
 This software contains proprietary and confidential information,
 including trade secrets, belonging to Gaussian, Inc.
  
 This software is provided under written license and may be
 used, copied, transmitted, or stored only in accord with that
 written license.
  
 The following legend is applicable only to US Government
 contracts under FAR:
  
                    RESTRICTED RIGHTS LEGEND
  
 Use, reproduction and disclosure by the US Government is
 subject to restrictions as set forth in subparagraphs (a)
 and (c) of the Commercial Computer Software - Restricted
 Rights clause in FAR 52.227-19.
  
 Gaussian, Inc.
 340 Quinnipiac St., Bldg. 40, Wallingford CT 06492
  
  
 ---------------------------------------------------------------
 Warning -- This program may not be used in any manner that
 competes with the business of Gaussian, Inc. or will provide
 assistance to any competitor of Gaussian, Inc.  The licensee
 of this program is prohibited from giving any competitor of
 Gaussian, Inc. access to this program.  By using this program,
 the user acknowledges that Gaussian, Inc. is engaged in the
 business of creating and licensing software in the field of
 computational chemistry and represents and warrants to the
 licensee that it is not a competitor of Gaussian, Inc. and that
 it will not use this program in any manner prohibited above.
 ---------------------------------------------------------------
  

 Cite this work as:
 Gaussian 16, Revision B.01,
 M. J. Frisch, G. W. Trucks, H. B. Schlegel, G. E. Scuseria, 
 M. A. Robb, J. R. Cheeseman, G. Scalmani, V. Barone, 
 G. A. Petersson, H. Nakatsuji, X. Li, M. Caricato, A. V. Marenich, 
 J. Bloino, B. G. Janesko, R. Gomperts, B. Mennucci, H. P. Hratchian, 
 J. V. Ortiz, A. F. Izmaylov, J. L. Sonnenberg, D. Williams-Young, 
 F. Ding, F. Lipparini, F. Egidi, J. Goings, B. Peng, A. Petrone, 
 T. Henderson, D. Ranasinghe, V. G. Zakrzewski, J. Gao, N. Rega, 
 G. Zheng, W. Liang, M. Hada, M. Ehara, K. Toyota, R. Fukuda, 
 J. Hasegawa, M. Ishida, T. Nakajima, Y. Honda, O. Kitao, H. Nakai, 
 T. Vreven, K. Throssell, J. A. Montgomery, Jr., J. E. Peralta, 
 F. Ogliaro, M. J. Bearpark, J. J. Heyd, E. N. Brothers, K. N. Kudin, 
 V. N. Staroverov, T. A. Keith, R. Kobayashi, J. Normand, 
 K. Raghavachari, A. P. Rendell, J. C. Burant, S. S. Iyengar, 
 J. Tomasi, M. Cossi, J. M. Millam, M. Klene, C. Adamo, R. Cammi, 
 J. W. Ochterski, R. L. Martin, K. Morokuma, O. Farkas, 
 J. B. Foresman, and D. J. Fox, Gaussian, Inc., Wallingford CT, 2016.
 
 ******************************************
 Gaussian 16:  EM64L-G16RevB.01 20-Dec-2017
                19-Sep-2023 
 ******************************************
 %nprocshared=32
 Will use up to   32 processors via shared memory.
 %mem=60GB
 %chk=molecule33vol.chk
 ----------------------------------------------------------------------
 # opt freq b3lyp/6-31+g(d) empiricaldispersion=gd3 scf=maxcycle=1000 v
 olume
 ----------------------------------------------------------------------
 1/18=20,19=15,26=3,38=1/1,3;
 2/9=110,12=2,17=6,18=5,40=1/2;
 3/5=1,6=6,7=11,11=2,25=1,30=1,71=1,74=-5,124=31/1,2,3;
 4//1;
 5/5=2,7=1000,38=5/2;
 6/7=2,8=2,9=2,10=2,28=1,44=1/1,4;
 7//1,2,3,16;
 1/18=20,19=15,26=3/3(2);
 2/9=110/2;
 99//99;
 2/9=110/2;
 3/5=1,6=6,7=11,11=2,25=1,30=1,71=1,74=-5,124=31/1,2,3;
 4/5=5,16=3,69=1/1;
 5/5=2,7=1000,38=5/2;
 7//1,2,3,16;
 1/18=20,19=15,26=3/3(-5);
 2/9=110/2;
 6/7=2,8=2,9=2,10=2,19=2,28=1,44=1/1,4;
 99/9=1/99;
 -------------------
 Title Card Required
 -------------------
 Symbolic Z-matrix:
 Charge =  0 Multiplicity = 1
 C                     2.10422  -0.23266   0.00013 
 C                     1.04172  -1.11172   0.00004 
 C                    -0.29126  -0.62669  -0.00004 
 C                    -0.52728   0.78931  -0.00002 
 C                     0.5938    1.66167  -0.00011 
 C                     1.88027   1.16903   0.00008 
 H                    -1.23933  -2.57651  -0.0001 
 H                     1.23609  -2.18061  -0.00015 
 C                    -1.41354  -1.50279  -0.00006 
 C                    -1.86537   1.26964   0.00003 
 H                     0.42637   2.7364   -0.00027 
 H                     2.72951   1.85049   0.00004 
 C                    -2.93057   0.39473   0.00005 
 C                    -2.69906  -1.00535   0. 
 H                    -2.03553   2.34442   0.00006 
 H                    -3.9494    0.77303   0.00005 
 H                    -3.54459  -1.68869   0. 
 O                     3.37384  -0.75605   0.00001 
 H                     4.02859  -0.04122  -0.00037 
 

 GradGradGradGradGradGradGradGradGradGradGradGradGradGradGradGradGradGrad
 Berny optimization.
 Initialization pass.
                           ----------------------------
                           !    Initial Parameters    !
                           ! (Angstroms and Degrees)  !
 --------------------------                            --------------------------
 ! Name  Definition              Value          Derivative Info.                !
 --------------------------------------------------------------------------------
 ! R1    R(1,2)                  1.379          estimate D2E/DX2                !
 ! R2    R(1,6)                  1.4195         estimate D2E/DX2                !
 ! R3    R(1,18)                 1.3733         estimate D2E/DX2                !
 ! R4    R(2,3)                  1.4185         estimate D2E/DX2                !
 ! R5    R(2,8)                  1.0864         estimate D2E/DX2                !
 ! R6    R(3,4)                  1.4355         estimate D2E/DX2                !
 ! R7    R(3,9)                  1.4237         estimate D2E/DX2                !
 ! R8    R(4,5)                  1.4205         estimate D2E/DX2                !
 ! R9    R(4,10)                 1.4217         estimate D2E/DX2                !
 ! R10   R(5,6)                  1.3776         estimate D2E/DX2                !
 ! R11   R(5,11)                 1.0877         estimate D2E/DX2                !
 ! R12   R(6,12)                 1.0889         estimate D2E/DX2                !
 ! R13   R(7,9)                  1.0878         estimate D2E/DX2                !
 ! R14   R(9,14)                 1.3784         estimate D2E/DX2                !
 ! R15   R(10,13)                1.3785         estimate D2E/DX2                !
 ! R16   R(10,15)                1.0882         estimate D2E/DX2                !
 ! R17   R(13,14)                1.4191         estimate D2E/DX2                !
 ! R18   R(13,16)                1.0868         estimate D2E/DX2                !
 ! R19   R(14,17)                1.0871         estimate D2E/DX2                !
 ! R20   R(18,19)                0.9694         estimate D2E/DX2                !
 ! A1    A(2,1,6)              120.5251         estimate D2E/DX2                !
 ! A2    A(2,1,18)             117.9939         estimate D2E/DX2                !
 ! A3    A(6,1,18)             121.481          estimate D2E/DX2                !
 ! A4    A(1,2,3)              120.4026         estimate D2E/DX2                !
 ! A5    A(1,2,8)              119.296          estimate D2E/DX2                !
 ! A6    A(3,2,8)              120.3014         estimate D2E/DX2                !
 ! A7    A(2,3,4)              119.458          estimate D2E/DX2                !
 ! A8    A(2,3,9)              122.028          estimate D2E/DX2                !
 ! A9    A(4,3,9)              118.514          estimate D2E/DX2                !
 ! A10   A(3,4,5)              118.4249         estimate D2E/DX2                !
 ! A11   A(3,4,10)             119.2098         estimate D2E/DX2                !
 ! A12   A(5,4,10)             122.3653         estimate D2E/DX2                !
 ! A13   A(4,5,6)              121.1582         estimate D2E/DX2                !
 ! A14   A(4,5,11)             119.0333         estimate D2E/DX2                !
 ! A15   A(6,5,11)             119.8085         estimate D2E/DX2                !
 ! A16   A(1,6,5)              120.0312         estimate D2E/DX2                !
 ! A17   A(1,6,12)             119.6676         estimate D2E/DX2                !
 ! A18   A(5,6,12)             120.3012         estimate D2E/DX2                !
 ! A19   A(3,9,7)              118.7616         estimate D2E/DX2                !
 ! A20   A(3,9,14)             120.8687         estimate D2E/DX2                !
 ! A21   A(7,9,14)             120.3697         estimate D2E/DX2                !
 ! A22   A(4,10,13)            120.8548         estimate D2E/DX2                !
 ! A23   A(4,10,15)            118.7433         estimate D2E/DX2                !
 ! A24   A(13,10,15)           120.4019         estimate D2E/DX2                !
 ! A25   A(10,13,14)           120.0093         estimate D2E/DX2                !
 ! A26   A(10,13,16)           120.2307         estimate D2E/DX2                !
 ! A27   A(14,13,16)           119.76           estimate D2E/DX2                !
 ! A28   A(9,14,13)            120.5433         estimate D2E/DX2                !
 ! A29   A(9,14,17)            119.9014         estimate D2E/DX2                !
 ! A30   A(13,14,17)           119.5552         estimate D2E/DX2                !
 ! A31   A(1,18,19)            110.0845         estimate D2E/DX2                !
 ! D1    D(6,1,2,3)             -0.0036         estimate D2E/DX2                !
 ! D2    D(6,1,2,8)            179.9858         estimate D2E/DX2                !
 ! D3    D(18,1,2,3)          -179.9906         estimate D2E/DX2                !
 ! D4    D(18,1,2,8)            -0.0012         estimate D2E/DX2                !
 ! D5    D(2,1,6,5)             -0.0018         estimate D2E/DX2                !
 ! D6    D(2,1,6,12)          -179.9931         estimate D2E/DX2                !
 ! D7    D(18,1,6,5)           179.9848         estimate D2E/DX2                !
 ! D8    D(18,1,6,12)           -0.0065         estimate D2E/DX2                !
 ! D9    D(2,1,18,19)          179.9708         estimate D2E/DX2                !
 ! D10   D(6,1,18,19)           -0.0161         estimate D2E/DX2                !
 ! D11   D(1,2,3,4)             -0.0001         estimate D2E/DX2                !
 ! D12   D(1,2,3,9)           -179.9961         estimate D2E/DX2                !
 ! D13   D(8,2,3,4)           -179.9894         estimate D2E/DX2                !
 ! D14   D(8,2,3,9)              0.0146         estimate D2E/DX2                !
 ! D15   D(2,3,4,5)              0.0088         estimate D2E/DX2                !
 ! D16   D(2,3,4,10)          -179.9941         estimate D2E/DX2                !
 ! D17   D(9,3,4,5)           -179.995          estimate D2E/DX2                !
 ! D18   D(9,3,4,10)             0.0021         estimate D2E/DX2                !
 ! D19   D(2,3,9,7)             -0.0055         estimate D2E/DX2                !
 ! D20   D(2,3,9,14)           179.9935         estimate D2E/DX2                !
 ! D21   D(4,3,9,7)            179.9984         estimate D2E/DX2                !
 ! D22   D(4,3,9,14)            -0.0025         estimate D2E/DX2                !
 ! D23   D(3,4,5,6)             -0.0143         estimate D2E/DX2                !
 ! D24   D(3,4,5,11)           179.9895         estimate D2E/DX2                !
 ! D25   D(10,4,5,6)           179.9887         estimate D2E/DX2                !
 ! D26   D(10,4,5,11)           -0.0076         estimate D2E/DX2                !
 ! D27   D(3,4,10,13)           -0.0006         estimate D2E/DX2                !
 ! D28   D(3,4,10,15)          179.9991         estimate D2E/DX2                !
 ! D29   D(5,4,10,13)          179.9964         estimate D2E/DX2                !
 ! D30   D(5,4,10,15)           -0.0039         estimate D2E/DX2                !
 ! D31   D(4,5,6,1)              0.0109         estimate D2E/DX2                !
 ! D32   D(4,5,6,12)          -179.9979         estimate D2E/DX2                !
 ! D33   D(11,5,6,1)          -179.9929         estimate D2E/DX2                !
 ! D34   D(11,5,6,12)           -0.0017         estimate D2E/DX2                !
 ! D35   D(3,9,14,13)            0.0015         estimate D2E/DX2                !
 ! D36   D(3,9,14,17)         -179.9992         estimate D2E/DX2                !
 ! D37   D(7,9,14,13)         -179.9995         estimate D2E/DX2                !
 ! D38   D(7,9,14,17)           -0.0001         estimate D2E/DX2                !
 ! D39   D(4,10,13,14)          -0.0004         estimate D2E/DX2                !
 ! D40   D(4,10,13,16)        -179.9981         estimate D2E/DX2                !
 ! D41   D(15,10,13,14)        179.9998         estimate D2E/DX2                !
 ! D42   D(15,10,13,16)          0.0021         estimate D2E/DX2                !
 ! D43   D(10,13,14,9)           0.0            estimate D2E/DX2                !
 ! D44   D(10,13,14,17)       -179.9993         estimate D2E/DX2                !
 ! D45   D(16,13,14,9)         179.9977         estimate D2E/DX2                !
 ! D46   D(16,13,14,17)         -0.0016         estimate D2E/DX2                !
 --------------------------------------------------------------------------------
 Trust Radius=3.00D-01 FncErr=1.00D-07 GrdErr=1.00D-06 EigMax=2.50D+02 EigMin=1.00D-04
 Number of steps in this run=    107 maximum allowed number of steps=    114.
 GradGradGradGradGradGradGradGradGradGradGradGradGradGradGradGradGradGrad

                          Input orientation:                          
 ---------------------------------------------------------------------
 Center     Atomic      Atomic             Coordinates (Angstroms)
 Number     Number       Type             X           Y           Z
 ---------------------------------------------------------------------
      1          6           0        2.104219   -0.232657    0.000133
      2          6           0        1.041716   -1.111715    0.000039
      3          6           0       -0.291259   -0.626687   -0.000039
      4          6           0       -0.527280    0.789309   -0.000017
      5          6           0        0.593795    1.661666   -0.000109
      6          6           0        1.880271    1.169026    0.000077
      7          1           0       -1.239331   -2.576510   -0.000098
      8          1           0        1.236092   -2.180607   -0.000150
      9          6           0       -1.413536   -1.502785   -0.000055
     10          6           0       -1.865368    1.269644    0.000033
     11          1           0        0.426365    2.736404   -0.000268
     12          1           0        2.729510    1.850492    0.000038
     13          6           0       -2.930568    0.394725    0.000047
     14          6           0       -2.699058   -1.005348    0.000002
     15          1           0       -2.035531    2.344421    0.000064
     16          1           0       -3.949397    0.773033    0.000054
     17          1           0       -3.544586   -1.688687    0.000002
     18          8           0        3.373839   -0.756049    0.000006
     19          1           0        4.028586   -0.041219   -0.000374
 ---------------------------------------------------------------------
                    Distance matrix (angstroms):
                    1          2          3          4          5
     1  C    0.000000
     2  C    1.379005   0.000000
     3  C    2.427669   1.418476   0.000000
     4  C    2.822977   2.464881   1.435531   0.000000
     5  C    2.422775   2.809319   2.453544   1.420498   0.000000
     6  C    1.419460   2.430011   2.817823   2.437311   1.377576
     7  H    4.083255   2.710867   2.168098   3.440313   4.617628
     8  H    2.132640   1.086422   2.178869   3.453966   3.895588
     9  C    3.740030   2.486202   1.423746   2.457467   3.747416
    10  C    4.244353   3.757926   2.464526   1.421690   2.490214
    11  H    3.410354   3.897009   3.438803   2.168091   1.087702
    12  H    2.174971   3.409299   3.906592   3.425316   2.144046
    13  C    5.073725   4.248341   2.830059   2.435465   3.745167
    14  C    4.865030   3.742286   2.437392   2.817342   4.237434
    15  H    4.876357   4.627561   3.445282   2.166378   2.716525
    16  H    6.136585   5.335118   3.916783   3.422156   4.629283
    17  H    5.833440   4.622452   3.422277   3.904433   5.324572
    18  O    1.373271   2.359088   3.667380   4.196053   3.684290
    19  H    1.933866   3.172909   4.359339   4.630949   3.833746
                    6          7          8          9         10
     6  C    0.000000
     7  H    4.874521   0.000000
     8  H    3.411013   2.506882   0.000000
     9  C    4.241195   1.087765   2.734954   0.000000
    10  C    3.746990   3.896771   4.639320   2.809006   0.000000
    11  H    2.137877   5.567908   4.983237   4.621251   2.720924
    12  H    1.088854   5.945590   4.298844   5.330037   4.631446
    13  C    4.872752   3.418848   4.898305   2.429389   1.378454
    14  C    5.069335   2.144610   4.106901   1.378409   2.422938
    15  H    4.088405   4.984927   5.583851   3.897162   1.088164
    16  H    5.843102   4.308584   5.967687   3.407336   2.142382
    17  H    6.131525   2.470310   4.805920   2.139143   3.401690
    18  O    2.436526   4.959377   2.568916   4.845263   5.617181
    19  H    2.465756   5.846251   3.517812   5.634968   6.037968
                   11         12         13         14         15
    11  H    0.000000
    12  H    2.467654   0.000000
    13  C    4.092977   5.844291   0.000000
    14  C    4.875344   6.133936   1.419085   0.000000
    15  H    2.492906   4.790572   2.145322   3.414853   0.000000
    16  H    4.796052   6.765258   1.086798   2.173933   2.476316
    17  H    5.945577   7.203476   2.172009   1.087138   4.306182
    18  O    4.569992   2.684998   6.408575   6.078012   6.234918
    19  H    4.548756   2.294814   6.972795   6.796377   6.516502
                   16         17         18         19
    16  H    0.000000
    17  H    2.494782   0.000000
    18  O    7.481168   6.981004   0.000000
    19  H    8.019428   7.750296   0.969369   0.000000
 Stoichiometry    C10H8O
 Framework group  C1[X(C10H8O)]
 Deg. of freedom    51
 Full point group                 C1      NOp   1
 Largest Abelian subgroup         C1      NOp   1
 Largest concise Abelian subgroup C1      NOp   1
                         Standard orientation:                         
 ---------------------------------------------------------------------
 Center     Atomic      Atomic             Coordinates (Angstroms)
 Number     Number       Type             X           Y           Z
 ---------------------------------------------------------------------
      1          6           0       -2.104219   -0.232657   -0.000133
      2          6           0       -1.041716   -1.111715   -0.000039
      3          6           0        0.291259   -0.626687    0.000039
      4          6           0        0.527280    0.789309    0.000017
      5          6           0       -0.593795    1.661666    0.000109
      6          6           0       -1.880271    1.169026   -0.000077
      7          1           0        1.239331   -2.576510    0.000098
      8          1           0       -1.236092   -2.180607    0.000150
      9          6           0        1.413536   -1.502785    0.000055
     10          6           0        1.865368    1.269644   -0.000033
     11          1           0       -0.426365    2.736404    0.000268
     12          1           0       -2.729510    1.850492   -0.000038
     13          6           0        2.930568    0.394725   -0.000047
     14          6           0        2.699058   -1.005348   -0.000002
     15          1           0        2.035531    2.344421   -0.000064
     16          1           0        3.949397    0.773033   -0.000054
     17          1           0        3.544586   -1.688687   -0.000002
     18          8           0       -3.373839   -0.756049   -0.000006
     19          1           0       -4.028586   -0.041219    0.000374
 ---------------------------------------------------------------------
 Rotational constants (GHZ):           2.8356051           0.8215565           0.6369994
 Standard basis: 6-31+G(d) (6D, 7F)
 There are   225 symmetry adapted cartesian basis functions of A   symmetry.
 There are   225 symmetry adapted basis functions of A   symmetry.
   225 basis functions,   384 primitive gaussians,   225 cartesian basis functions
    38 alpha electrons       38 beta electrons
       nuclear repulsion energy       542.7473444021 Hartrees.
 NAtoms=   19 NActive=   19 NUniq=   19 SFac= 1.00D+00 NAtFMM=   60 NAOKFM=F Big=F
 Integral buffers will be    131072 words long.
 Raffenetti 2 integral format.
 Two-electron integral symmetry is turned on.
 Nuclear repulsion after empirical dispersion term =      542.7345764005 Hartrees.
 One-electron integrals computed using PRISM.
 NBasis=   225 RedAO= T EigKep=  1.28D-06  NBF=   225
 NBsUse=   224 1.00D-06 EigRej=  7.24D-07 NBFU=   224
 ExpMin= 4.38D-02 ExpMax= 5.48D+03 ExpMxC= 8.25D+02 IAcc=3 IRadAn=         5 AccDes= 0.00D+00
 Harris functional with IExCor=  402 and IRadAn=       5 diagonalized for initial guess.
 HarFok:  IExCor=  402 AccDes= 0.00D+00 IRadAn=         5 IDoV= 1 UseB2=F ITyADJ=14
 ICtDFT=  3500011 ScaDFX=  1.000000  1.000000  1.000000  1.000000
 FoFCou: FMM=F IPFlag=           0 FMFlag=      100000 FMFlg1=           0
         NFxFlg=           0 DoJE=T BraDBF=F KetDBF=T FulRan=T
         wScrn=  0.000000 ICntrl=       500 IOpCl=  0 I1Cent=   200000004 NGrid=           0
         NMat0=    1 NMatS0=      1 NMatT0=    0 NMatD0=    1 NMtDS0=    0 NMtDT0=    0
 Petite list used in FoFCou.
 Requested convergence on RMS density matrix=1.00D-08 within1000 cycles.
 Requested convergence on MAX density matrix=1.00D-06.
 Requested convergence on             energy=1.00D-06.
 No special actions if energy rises.
 SCF Done:  E(RB3LYP) =  -461.140553026     A.U. after   15 cycles
            NFock= 15  Conv=0.20D-08     -V/T= 2.0098

 **********************************************************************

            Population analysis using the SCF Density.

 **********************************************************************

 Orbital symmetries:
       Occupied  (A) (A) (A) (A) (A) (A) (A) (A) (A) (A) (A) (A)
                 (A) (A) (A) (A) (A) (A) (A) (A) (A) (A) (A) (A)
                 (A) (A) (A) (A) (A) (A) (A) (A) (A) (A) (A) (A)
                 (A) (A)
       Virtual   (A) (A) (A) (A) (A) (A) (A) (A) (A) (A) (A) (A)
                 (A) (A) (A) (A) (A) (A) (A) (A) (A) (A) (A) (A)
                 (A) (A) (A) (A) (A) (A) (A) (A) (A) (A) (A) (A)
                 (A) (A) (A) (A) (A) (A) (A) (A) (A) (A) (A) (A)
                 (A) (A) (A) (A) (A) (A) (A) (A) (A) (A) (A) (A)
                 (A) (A) (A) (A) (A) (A) (A) (A) (A) (A) (A) (A)
                 (A) (A) (A) (A) (A) (A) (A) (A) (A) (A) (A) (A)
                 (A) (A) (A) (A) (A) (A) (A) (A) (A) (A) (A) (A)
                 (A) (A) (A) (A) (A) (A) (A) (A) (A) (A) (A) (A)
                 (A) (A) (A) (A) (A) (A) (A) (A) (A) (A) (A) (A)
                 (A) (A) (A) (A) (A) (A) (A) (A) (A) (A) (A) (A)
                 (A) (A) (A) (A) (A) (A) (A) (A) (A) (A) (A) (A)
                 (A) (A) (A) (A) (A) (A) (A) (A) (A) (A) (A) (A)
                 (A) (A) (A) (A) (A) (A) (A) (A) (A) (A) (A) (A)
                 (A) (A) (A) (A) (A) (A) (A) (A) (A) (A) (A) (A)
                 (A) (A) (A) (A) (A) (A)
 The electronic state is 1-A.
 Alpha  occ. eigenvalues --  -19.19516 -10.26178 -10.20856 -10.20712 -10.20648
 Alpha  occ. eigenvalues --  -10.20436 -10.19896 -10.19833 -10.19620 -10.19601
 Alpha  occ. eigenvalues --  -10.19230  -1.07136  -0.87874  -0.82517  -0.78036
 Alpha  occ. eigenvalues --   -0.74493  -0.72795  -0.63701  -0.62833  -0.60419
 Alpha  occ. eigenvalues --   -0.56090  -0.52237  -0.50721  -0.47864  -0.45681
 Alpha  occ. eigenvalues --   -0.43472  -0.43111  -0.42145  -0.41994  -0.40319
 Alpha  occ. eigenvalues --   -0.37899  -0.37041  -0.35472  -0.33859  -0.31647
 Alpha  occ. eigenvalues --   -0.28794  -0.24261  -0.21467
 Alpha virt. eigenvalues --   -0.04817  -0.01473  -0.00811   0.00855   0.00884
 Alpha virt. eigenvalues --    0.01519   0.02700   0.03818   0.05233   0.05596
 Alpha virt. eigenvalues --    0.05815   0.06378   0.06941   0.07596   0.09262
 Alpha virt. eigenvalues --    0.09394   0.09873   0.10483   0.11900   0.12454
 Alpha virt. eigenvalues --    0.12544   0.13005   0.13729   0.14319   0.15299
 Alpha virt. eigenvalues --    0.15469   0.16425   0.16657   0.17198   0.17877
 Alpha virt. eigenvalues --    0.18734   0.18947   0.19882   0.20245   0.20955
 Alpha virt. eigenvalues --    0.21375   0.21646   0.21970   0.22269   0.22695
 Alpha virt. eigenvalues --    0.24197   0.24552   0.25523   0.26326   0.26531
 Alpha virt. eigenvalues --    0.27163   0.27637   0.27724   0.27995   0.29088
 Alpha virt. eigenvalues --    0.29387   0.29518   0.30362   0.32475   0.32959
 Alpha virt. eigenvalues --    0.34394   0.34550   0.35593   0.36473   0.37487
 Alpha virt. eigenvalues --    0.39570   0.40634   0.42681   0.43487   0.53113
 Alpha virt. eigenvalues --    0.54044   0.60386   0.63740   0.65979   0.66424
 Alpha virt. eigenvalues --    0.67497   0.68360   0.71205   0.71790   0.72085
 Alpha virt. eigenvalues --    0.72545   0.73442   0.74327   0.75731   0.76409
 Alpha virt. eigenvalues --    0.76870   0.76998   0.77078   0.80141   0.80756
 Alpha virt. eigenvalues --    0.82536   0.87451   0.88147   0.89679   0.90573
 Alpha virt. eigenvalues --    0.92924   0.93761   0.95425   0.97057   1.01477
 Alpha virt. eigenvalues --    1.02160   1.04499   1.07094   1.08496   1.10529
 Alpha virt. eigenvalues --    1.12971   1.13347   1.14860   1.16456   1.18078
 Alpha virt. eigenvalues --    1.19402   1.20460   1.22500   1.24660   1.24773
 Alpha virt. eigenvalues --    1.25622   1.28885   1.32232   1.37718   1.37935
 Alpha virt. eigenvalues --    1.38378   1.41727   1.42137   1.44027   1.46701
 Alpha virt. eigenvalues --    1.46985   1.47132   1.49061   1.49698   1.51463
 Alpha virt. eigenvalues --    1.55729   1.71940   1.72197   1.77704   1.79939
 Alpha virt. eigenvalues --    1.82338   1.85137   1.90510   1.91224   1.91422
 Alpha virt. eigenvalues --    1.95169   1.95349   1.96653   1.97639   1.99159
 Alpha virt. eigenvalues --    2.01479   2.03508   2.07871   2.09929   2.12746
 Alpha virt. eigenvalues --    2.17088   2.19799   2.20446   2.24147   2.26025
 Alpha virt. eigenvalues --    2.32296   2.32813   2.34318   2.35430   2.35533
 Alpha virt. eigenvalues --    2.46130   2.47669   2.50643   2.60883   2.61648
 Alpha virt. eigenvalues --    2.63934   2.65069   2.66136   2.67426   2.76402
 Alpha virt. eigenvalues --    2.79436   2.79936   2.86363   2.88220   2.89003
 Alpha virt. eigenvalues --    3.01761   3.05067   3.12906   3.36087   3.47092
 Alpha virt. eigenvalues --    4.19313   4.22322   4.26082   4.28983   4.30704
 Alpha virt. eigenvalues --    4.34777   4.35251   4.43937   4.46214   4.61940
 Alpha virt. eigenvalues --    4.83558
          Condensed to atoms (all electrons):
               1          2          3          4          5          6
     1  C    9.504378  -2.226281  -0.447089   0.885167  -0.009313   0.104098
     2  C   -2.226281  11.193841  -1.448557  -2.378936   0.385338  -1.604903
     3  C   -0.447089  -1.448557  13.211991   1.542643  -2.364734   0.600472
     4  C    0.885167  -2.378936   1.542643  14.473229  -2.403704  -0.978358
     5  C   -0.009313   0.385338  -2.364734  -2.403704   8.833024  -0.297185
     6  C    0.104098  -1.604903   0.600472  -0.978358  -0.297185   8.146660
     7  H   -0.001387  -0.061502   0.012869   0.072779   0.007821   0.000302
     8  H    0.079608   0.202488  -0.014920   0.058394  -0.022578   0.032327
     9  C   -1.910640   2.423910  -2.967483  -2.894258   0.182585   0.331643
    10  C    0.736724  -0.022576  -2.561310  -3.023492   1.980495  -0.306436
    11  H   -0.010163  -0.007200   0.078874   0.017834   0.217409   0.062978
    12  H   -0.093019  -0.002417   0.010558   0.056198  -0.031093   0.356704
    13  C   -0.061168   0.128729   0.659825   0.254037  -0.687140  -0.296887
    14  C   -0.460514  -0.779040  -0.176343   0.757930   0.215540   0.092415
    15  H    0.001493   0.006504   0.067749   0.010692  -0.065670  -0.001984
    16  H   -0.000830   0.006395   0.009312   0.033801  -0.015441   0.001009
    17  H    0.000456  -0.016923   0.023479   0.011431   0.008527  -0.001009
    18  O   -0.298422   0.174329   0.092202  -0.034153   0.086485  -0.100885
    19  H   -0.063998   0.138653  -0.005167  -0.009661   0.024217  -0.084786
               7          8          9         10         11         12
     1  C   -0.001387   0.079608  -1.910640   0.736724  -0.010163  -0.093019
     2  C   -0.061502   0.202488   2.423910  -0.022576  -0.007200  -0.002417
     3  C    0.012869  -0.014920  -2.967483  -2.561310   0.078874   0.010558
     4  C    0.072779   0.058394  -2.894258  -3.023492   0.017834   0.056198
     5  C    0.007821  -0.022578   0.182585   1.980495   0.217409  -0.031093
     6  C    0.000302   0.032327   0.331643  -0.306436   0.062978   0.356704
     7  H    0.541326   0.003522   0.220723  -0.015646   0.000002   0.000000
     8  H    0.003522   0.524890  -0.055796   0.008591   0.000017  -0.000159
     9  C    0.220723  -0.055796  10.860624   0.417586   0.013207   0.007688
    10  C   -0.015646   0.008591   0.417586   9.687448  -0.089602  -0.011388
    11  H    0.000002   0.000017   0.013207  -0.089602   0.534839  -0.004417
    12  H    0.000000  -0.000159   0.007688  -0.011388  -0.004417   0.548069
    13  C    0.002307   0.000100  -0.505725  -0.527528  -0.003744   0.001573
    14  C    0.039027  -0.004825  -0.351029  -0.631912   0.000614  -0.001994
    15  H    0.000018   0.000002  -0.020696   0.220838   0.004202  -0.000010
    16  H   -0.000162   0.000000   0.037443  -0.049720  -0.000009   0.000000
    17  H   -0.004620  -0.000010  -0.049114   0.043310   0.000000   0.000000
    18  O   -0.000032  -0.004393   0.018887   0.002229  -0.000580  -0.011782
    19  H    0.000000  -0.000124   0.006264   0.000162  -0.000011   0.007732
              13         14         15         16         17         18
     1  C   -0.061168  -0.460514   0.001493  -0.000830   0.000456  -0.298422
     2  C    0.128729  -0.779040   0.006504   0.006395  -0.016923   0.174329
     3  C    0.659825  -0.176343   0.067749   0.009312   0.023479   0.092202
     4  C    0.254037   0.757930   0.010692   0.033801   0.011431  -0.034153
     5  C   -0.687140   0.215540  -0.065670  -0.015441   0.008527   0.086485
     6  C   -0.296887   0.092415  -0.001984   0.001009  -0.001009  -0.100885
     7  H    0.002307   0.039027   0.000018  -0.000162  -0.004620  -0.000032
     8  H    0.000100  -0.004825   0.000002   0.000000  -0.000010  -0.004393
     9  C   -0.505725  -0.351029  -0.020696   0.037443  -0.049114   0.018887
    10  C   -0.527528  -0.631912   0.220838  -0.049720   0.043310   0.002229
    11  H   -0.003744   0.000614   0.004202  -0.000009   0.000000  -0.000580
    12  H    0.001573  -0.001994  -0.000010   0.000000   0.000000  -0.011782
    13  C    6.394328   0.688721   0.051321   0.329589  -0.056899  -0.001901
    14  C    0.688721   6.677095   0.005936  -0.055218   0.332115   0.003800
    15  H    0.051321   0.005936   0.543856  -0.004507  -0.000166   0.000001
    16  H    0.329589  -0.055218  -0.004507   0.533302  -0.003969   0.000000
    17  H   -0.056899   0.332115  -0.000166  -0.003969   0.533853   0.000000
    18  O   -0.001901   0.003800   0.000001   0.000000   0.000000   8.617251
    19  H    0.000385  -0.000614   0.000000   0.000000   0.000000   0.142104
              19
     1  C   -0.063998
     2  C    0.138653
     3  C   -0.005167
     4  C   -0.009661
     5  C    0.024217
     6  C   -0.084786
     7  H    0.000000
     8  H   -0.000124
     9  C    0.006264
    10  C    0.000162
    11  H   -0.000011
    12  H    0.007732
    13  C    0.000385
    14  C   -0.000614
    15  H    0.000000
    16  H    0.000000
    17  H    0.000000
    18  O    0.142104
    19  H    0.364826
 Mulliken charges:
               1
     1  C    0.270899
     2  C   -0.111851
     3  C   -0.324373
     4  C   -0.451574
     5  C   -0.044584
     6  C   -0.056175
     7  H    0.182652
     8  H    0.192865
     9  C    0.234183
    10  C    0.142229
    11  H    0.185752
    12  H    0.167758
    13  C   -0.369922
    14  C   -0.351703
    15  H    0.180422
    16  H    0.179005
    17  H    0.179539
    18  O   -0.685141
    19  H    0.480018
 Sum of Mulliken charges =   0.00000
 Mulliken charges with hydrogens summed into heavy atoms:
               1
     1  C    0.270899
     2  C    0.081014
     3  C   -0.324373
     4  C   -0.451574
     5  C    0.141169
     6  C    0.111583
     9  C    0.416835
    10  C    0.322651
    13  C   -0.190918
    14  C   -0.172164
    18  O   -0.205123
 Electronic spatial extent (au):  <R**2>=           1713.3021
 Charge=              0.0000 electrons
 Dipole moment (field-independent basis, Debye):
    X=             -0.5204    Y=              1.5480    Z=              0.0009  Tot=              1.6331
 Quadrupole moment (field-independent basis, Debye-Ang):
   XX=            -54.3010   YY=            -58.8514   ZZ=            -70.0635
   XY=             -6.2211   XZ=             -0.0031   YZ=              0.0001
 Traceless Quadrupole moment (field-independent basis, Debye-Ang):
   XX=              6.7709   YY=              2.2206   ZZ=             -8.9916
   XY=             -6.2211   XZ=             -0.0031   YZ=              0.0001
 Octapole moment (field-independent basis, Debye-Ang**2):
  XXX=            -34.9320  YYY=             -0.0518  ZZZ=              0.0009  XYY=              2.7530
  XXY=             22.4446  XXZ=              0.0127  XZZ=             -8.3388  YZZ=             -1.3686
  YYZ=              0.0024  XYZ=             -0.0004
 Hexadecapole moment (field-independent basis, Debye-Ang**3):
 XXXX=          -1394.3502 YYYY=           -535.3301 ZZZZ=            -85.1962 XXXY=            -84.6996
 XXXZ=             -0.0582 YYYX=              0.9585 YYYZ=              0.0011 ZZZX=             -0.0026
 ZZZY=              0.0001 XXYY=           -374.0261 XXZZ=           -321.9052 YYZZ=           -124.7982
 XXYZ=             -0.0005 YYXZ=             -0.0019 ZZXY=              4.4724
 N-N= 5.427345764005D+02 E-N=-2.155558556599D+03  KE= 4.566767056326D+02
 Evaluate density.
 Using the total density.
 Monte-Carlo method of calculating molar volume:
 based on  0.001 e/bohr**3 density envelope.
 Number of points per bohr**3 =   20 CutOff= 1.00D-04
 Using the SCF density.
 There are       359 points.  Will hold       359 in memory.
 LenV=  8052930619 MDV=  8053063680.
 Box volume = 5792.283 fraction occupied=0.198
 Integrated density= 8.2403793530210635D+01 error= 6.4037935302106348D+00
 Molar volume = 1145.549 bohr**3/mol (102.228 cm**3/mol)
 Recommended a0 for SCRF calculation =  4.28 angstrom (  8.09 bohr)
 Calling FoFJK, ICntrl=      2127 FMM=F ISym2X=0 I1Cent= 0 IOpClX= 0 NMat=1 NMatS=1 NMatT=0.
 ***** Axes restored to original set *****
 -------------------------------------------------------------------
 Center     Atomic                   Forces (Hartrees/Bohr)
 Number     Number              X              Y              Z
 -------------------------------------------------------------------
      1        6           0.000123423   -0.000115880   -0.000020300
      2        6           0.000034681   -0.000018980   -0.000006884
      3        6          -0.000041455    0.000086783    0.000013327
      4        6          -0.000029515   -0.000089841   -0.000007113
      5        6           0.000082605    0.000000163    0.000013681
      6        6          -0.000083468    0.000099092   -0.000007981
      7        1          -0.000000228    0.000004287    0.000001245
      8        1          -0.000003465    0.000006080    0.000005474
      9        6           0.000017374   -0.000015825    0.000000007
     10        6           0.000017352    0.000019587   -0.000003277
     11        1          -0.000012710   -0.000001005    0.000003302
     12        1           0.000009482   -0.000013110    0.000000887
     13        6          -0.000010068   -0.000002866   -0.000001134
     14        6          -0.000004304    0.000000641   -0.000002896
     15        1          -0.000000942   -0.000004491   -0.000000825
     16        1           0.000001692   -0.000005500    0.000002173
     17        1           0.000000444    0.000003631   -0.000000094
     18        8          -0.000093882    0.000060039    0.000007221
     19        1          -0.000007016   -0.000012804    0.000003186
 -------------------------------------------------------------------
 Cartesian Forces:  Max     0.000123423 RMS     0.000039214

 GradGradGradGradGradGradGradGradGradGradGradGradGradGradGradGradGradGrad
 Berny optimization.
 FormGI is forming the generalized inverse of G from B-inverse, IUseBI=4.
 Internal  Forces:  Max     0.000110702 RMS     0.000017016
 Search for a local minimum.
 Step number   1 out of a maximum of  107
 All quantities printed in internal units (Hartrees-Bohrs-Radians)
 Mixed Optimization -- En-DIIS/RFO-DIIS
 Second derivative matrix not updated -- first step.
 ITU=  0
     Eigenvalues ---    0.01742   0.01761   0.01773   0.01970   0.01975
     Eigenvalues ---    0.01984   0.02010   0.02045   0.02085   0.02096
     Eigenvalues ---    0.02103   0.02103   0.02143   0.02165   0.02221
     Eigenvalues ---    0.02239   0.16000   0.16000   0.16000   0.16000
     Eigenvalues ---    0.16000   0.16000   0.16000   0.16000   0.22000
     Eigenvalues ---    0.22286   0.22686   0.23520   0.24365   0.24749
     Eigenvalues ---    0.25000   0.34945   0.35026   0.35072   0.35080
     Eigenvalues ---    0.35145   0.35185   0.35229   0.36341   0.39647
     Eigenvalues ---    0.40282   0.40904   0.41662   0.42288   0.42545
     Eigenvalues ---    0.47551   0.47752   0.48806   0.48866   0.50353
     Eigenvalues ---    0.53506
 RFO step:  Lambda=-8.52096233D-08 EMin= 1.74218184D-02
 Linear search not attempted -- first point.
 Iteration  1 RMS(Cart)=  0.00009650 RMS(Int)=  0.00000001
 Iteration  2 RMS(Cart)=  0.00000002 RMS(Int)=  0.00000001
 Variable       Old X    -DE/DX   Delta X   Delta X   Delta X     New X
                                 (Linear)    (Quad)   (Total)
    R1        2.60594  -0.00001   0.00000  -0.00001  -0.00001   2.60593
    R2        2.68239   0.00007   0.00000   0.00016   0.00016   2.68255
    R3        2.59511  -0.00011   0.00000  -0.00022  -0.00022   2.59489
    R4        2.68053   0.00003   0.00000   0.00008   0.00008   2.68061
    R5        2.05304  -0.00001   0.00000  -0.00002  -0.00002   2.05302
    R6        2.71276  -0.00006   0.00000  -0.00015  -0.00015   2.71261
    R7        2.69049   0.00000   0.00000  -0.00001  -0.00001   2.69048
    R8        2.68435   0.00003   0.00000   0.00007   0.00007   2.68442
    R9        2.68660  -0.00001   0.00000  -0.00002  -0.00002   2.68659
   R10        2.60324  -0.00005   0.00000  -0.00011  -0.00011   2.60314
   R11        2.05546   0.00000   0.00000   0.00000   0.00000   2.05546
   R12        2.05764   0.00000   0.00000   0.00000   0.00000   2.05763
   R13        2.05558   0.00000   0.00000  -0.00001  -0.00001   2.05556
   R14        2.60481   0.00001   0.00000   0.00002   0.00002   2.60483
   R15        2.60490   0.00001   0.00000   0.00002   0.00002   2.60492
   R16        2.05633   0.00000   0.00000  -0.00001  -0.00001   2.05632
   R17        2.68168   0.00000   0.00000   0.00000   0.00000   2.68168
   R18        2.05375   0.00000   0.00000  -0.00001  -0.00001   2.05374
   R19        2.05439   0.00000   0.00000  -0.00001  -0.00001   2.05439
   R20        1.83184  -0.00002   0.00000  -0.00003  -0.00003   1.83181
    A1        2.10356  -0.00001   0.00000  -0.00005  -0.00005   2.10351
    A2        2.05938   0.00001   0.00000   0.00002   0.00002   2.05941
    A3        2.12024   0.00001   0.00000   0.00002   0.00002   2.12027
    A4        2.10142  -0.00001   0.00000  -0.00002  -0.00002   2.10141
    A5        2.08211   0.00001   0.00000   0.00003   0.00003   2.08214
    A6        2.09966   0.00000   0.00000  -0.00001  -0.00001   2.09964
    A7        2.08494   0.00001   0.00000   0.00004   0.00004   2.08497
    A8        2.12979  -0.00002   0.00000  -0.00006  -0.00006   2.12973
    A9        2.06846   0.00001   0.00000   0.00002   0.00002   2.06848
   A10        2.06690   0.00000   0.00000   0.00001   0.00001   2.06691
   A11        2.08060   0.00001   0.00000   0.00005   0.00005   2.08065
   A12        2.13568  -0.00002   0.00000  -0.00005  -0.00005   2.13562
   A13        2.11461   0.00000   0.00000   0.00000   0.00000   2.11461
   A14        2.07752  -0.00001   0.00000  -0.00008  -0.00008   2.07744
   A15        2.09105   0.00001   0.00000   0.00007   0.00007   2.09113
   A16        2.09494   0.00000   0.00000   0.00001   0.00001   2.09495
   A17        2.08859  -0.00002   0.00000  -0.00012  -0.00012   2.08848
   A18        2.09965   0.00002   0.00000   0.00010   0.00010   2.09976
   A19        2.07278   0.00000   0.00000   0.00001   0.00001   2.07280
   A20        2.10956  -0.00001   0.00000  -0.00003  -0.00003   2.10953
   A21        2.10085   0.00000   0.00000   0.00001   0.00001   2.10086
   A22        2.10931  -0.00001   0.00000  -0.00003  -0.00003   2.10928
   A23        2.07246   0.00000   0.00000   0.00002   0.00002   2.07248
   A24        2.10141   0.00000   0.00000   0.00001   0.00001   2.10142
   A25        2.09456  -0.00001   0.00000  -0.00001  -0.00001   2.09454
   A26        2.09842   0.00001   0.00000   0.00003   0.00003   2.09845
   A27        2.09021   0.00000   0.00000  -0.00002  -0.00002   2.09019
   A28        2.10388   0.00000   0.00000   0.00000   0.00000   2.10388
   A29        2.09267   0.00000   0.00000   0.00002   0.00002   2.09270
   A30        2.08663   0.00000   0.00000  -0.00002  -0.00002   2.08661
   A31        1.92134   0.00001   0.00000   0.00005   0.00005   1.92139
    D1       -0.00006   0.00000   0.00000   0.00008   0.00008   0.00002
    D2        3.14135   0.00000   0.00000   0.00025   0.00025  -3.14159
    D3       -3.14143  -0.00001   0.00000  -0.00030  -0.00030   3.14146
    D4       -0.00002   0.00000   0.00000  -0.00013  -0.00013  -0.00015
    D5       -0.00003   0.00000   0.00000   0.00000   0.00000  -0.00004
    D6       -3.14147   0.00000   0.00000  -0.00019  -0.00019   3.14153
    D7        3.14133   0.00001   0.00000   0.00039   0.00039  -3.14146
    D8       -0.00011   0.00000   0.00000   0.00021   0.00021   0.00010
    D9        3.14108   0.00001   0.00000   0.00033   0.00033   3.14141
   D10       -0.00028   0.00000   0.00000  -0.00006  -0.00006  -0.00034
   D11        0.00000   0.00000   0.00000   0.00002   0.00002   0.00002
   D12       -3.14152   0.00000   0.00000  -0.00006  -0.00006  -3.14159
   D13       -3.14141   0.00000   0.00000  -0.00015  -0.00015  -3.14155
   D14        0.00025   0.00000   0.00000  -0.00023  -0.00023   0.00002
   D15        0.00015   0.00000   0.00000  -0.00020  -0.00020  -0.00005
   D16       -3.14149   0.00000   0.00000  -0.00011  -0.00011   3.14158
   D17       -3.14151   0.00000   0.00000  -0.00012  -0.00012   3.14156
   D18        0.00004   0.00000   0.00000  -0.00003  -0.00003   0.00001
   D19       -0.00010   0.00000   0.00000   0.00011   0.00011   0.00001
   D20        3.14148   0.00000   0.00000   0.00013   0.00013  -3.14158
   D21        3.14157   0.00000   0.00000   0.00002   0.00002   3.14159
   D22       -0.00004   0.00000   0.00000   0.00004   0.00004   0.00000
   D23       -0.00025   0.00001   0.00000   0.00029   0.00029   0.00004
   D24        3.14141   0.00000   0.00000   0.00020   0.00020  -3.14157
   D25        3.14140   0.00000   0.00000   0.00019   0.00019   3.14159
   D26       -0.00013   0.00000   0.00000   0.00011   0.00011  -0.00003
   D27       -0.00001   0.00000   0.00000   0.00001   0.00001   0.00000
   D28        3.14158   0.00000   0.00000  -0.00001  -0.00001   3.14156
   D29        3.14153   0.00000   0.00000   0.00011   0.00011  -3.14155
   D30       -0.00007   0.00000   0.00000   0.00008   0.00008   0.00001
   D31        0.00019   0.00000   0.00000  -0.00019  -0.00019   0.00000
   D32       -3.14156   0.00000   0.00000   0.00000   0.00000  -3.14156
   D33       -3.14147   0.00000   0.00000  -0.00010  -0.00010  -3.14157
   D34       -0.00003   0.00000   0.00000   0.00009   0.00009   0.00006
   D35        0.00003   0.00000   0.00000  -0.00004  -0.00004  -0.00001
   D36       -3.14158   0.00000   0.00000  -0.00001  -0.00001  -3.14159
   D37       -3.14158   0.00000   0.00000  -0.00002  -0.00002   3.14159
   D38        0.00000   0.00000   0.00000   0.00002   0.00002   0.00001
   D39       -0.00001   0.00000   0.00000   0.00000   0.00000  -0.00001
   D40       -3.14156   0.00000   0.00000  -0.00005  -0.00005   3.14157
   D41        3.14159   0.00000   0.00000   0.00002   0.00002  -3.14158
   D42        0.00004   0.00000   0.00000  -0.00003  -0.00003   0.00001
   D43        0.00000   0.00000   0.00000   0.00002   0.00002   0.00002
   D44       -3.14158   0.00000   0.00000  -0.00001  -0.00001   3.14159
   D45        3.14155   0.00000   0.00000   0.00007   0.00007  -3.14156
   D46       -0.00003   0.00000   0.00000   0.00004   0.00004   0.00001
         Item               Value     Threshold  Converged?
 Maximum Force            0.000111     0.000450     YES
 RMS     Force            0.000017     0.000300     YES
 Maximum Displacement     0.000456     0.001800     YES
 RMS     Displacement     0.000096     0.001200     YES
 Predicted change in Energy=-4.260460D-08
 Optimization completed.
    -- Stationary point found.
                           ----------------------------
                           !   Optimized Parameters   !
                           ! (Angstroms and Degrees)  !
 --------------------------                            --------------------------
 ! Name  Definition              Value          Derivative Info.                !
 --------------------------------------------------------------------------------
 ! R1    R(1,2)                  1.379          -DE/DX =    0.0                 !
 ! R2    R(1,6)                  1.4195         -DE/DX =    0.0001              !
 ! R3    R(1,18)                 1.3733         -DE/DX =   -0.0001              !
 ! R4    R(2,3)                  1.4185         -DE/DX =    0.0                 !
 ! R5    R(2,8)                  1.0864         -DE/DX =    0.0                 !
 ! R6    R(3,4)                  1.4355         -DE/DX =   -0.0001              !
 ! R7    R(3,9)                  1.4237         -DE/DX =    0.0                 !
 ! R8    R(4,5)                  1.4205         -DE/DX =    0.0                 !
 ! R9    R(4,10)                 1.4217         -DE/DX =    0.0                 !
 ! R10   R(5,6)                  1.3776         -DE/DX =   -0.0001              !
 ! R11   R(5,11)                 1.0877         -DE/DX =    0.0                 !
 ! R12   R(6,12)                 1.0889         -DE/DX =    0.0                 !
 ! R13   R(7,9)                  1.0878         -DE/DX =    0.0                 !
 ! R14   R(9,14)                 1.3784         -DE/DX =    0.0                 !
 ! R15   R(10,13)                1.3785         -DE/DX =    0.0                 !
 ! R16   R(10,15)                1.0882         -DE/DX =    0.0                 !
 ! R17   R(13,14)                1.4191         -DE/DX =    0.0                 !
 ! R18   R(13,16)                1.0868         -DE/DX =    0.0                 !
 ! R19   R(14,17)                1.0871         -DE/DX =    0.0                 !
 ! R20   R(18,19)                0.9694         -DE/DX =    0.0                 !
 ! A1    A(2,1,6)              120.5251         -DE/DX =    0.0                 !
 ! A2    A(2,1,18)             117.9939         -DE/DX =    0.0                 !
 ! A3    A(6,1,18)             121.481          -DE/DX =    0.0                 !
 ! A4    A(1,2,3)              120.4026         -DE/DX =    0.0                 !
 ! A5    A(1,2,8)              119.296          -DE/DX =    0.0                 !
 ! A6    A(3,2,8)              120.3014         -DE/DX =    0.0                 !
 ! A7    A(2,3,4)              119.458          -DE/DX =    0.0                 !
 ! A8    A(2,3,9)              122.028          -DE/DX =    0.0                 !
 ! A9    A(4,3,9)              118.514          -DE/DX =    0.0                 !
 ! A10   A(3,4,5)              118.4249         -DE/DX =    0.0                 !
 ! A11   A(3,4,10)             119.2098         -DE/DX =    0.0                 !
 ! A12   A(5,4,10)             122.3653         -DE/DX =    0.0                 !
 ! A13   A(4,5,6)              121.1582         -DE/DX =    0.0                 !
 ! A14   A(4,5,11)             119.0333         -DE/DX =    0.0                 !
 ! A15   A(6,5,11)             119.8085         -DE/DX =    0.0                 !
 ! A16   A(1,6,5)              120.0312         -DE/DX =    0.0                 !
 ! A17   A(1,6,12)             119.6676         -DE/DX =    0.0                 !
 ! A18   A(5,6,12)             120.3012         -DE/DX =    0.0                 !
 ! A19   A(3,9,7)              118.7616         -DE/DX =    0.0                 !
 ! A20   A(3,9,14)             120.8687         -DE/DX =    0.0                 !
 ! A21   A(7,9,14)             120.3697         -DE/DX =    0.0                 !
 ! A22   A(4,10,13)            120.8548         -DE/DX =    0.0                 !
 ! A23   A(4,10,15)            118.7433         -DE/DX =    0.0                 !
 ! A24   A(13,10,15)           120.4019         -DE/DX =    0.0                 !
 ! A25   A(10,13,14)           120.0093         -DE/DX =    0.0                 !
 ! A26   A(10,13,16)           120.2307         -DE/DX =    0.0                 !
 ! A27   A(14,13,16)           119.76           -DE/DX =    0.0                 !
 ! A28   A(9,14,13)            120.5433         -DE/DX =    0.0                 !
 ! A29   A(9,14,17)            119.9014         -DE/DX =    0.0                 !
 ! A30   A(13,14,17)           119.5552         -DE/DX =    0.0                 !
 ! A31   A(1,18,19)            110.0845         -DE/DX =    0.0                 !
 ! D1    D(6,1,2,3)             -0.0036         -DE/DX =    0.0                 !
 ! D2    D(6,1,2,8)           -180.0142         -DE/DX =    0.0                 !
 ! D3    D(18,1,2,3)           180.0094         -DE/DX =    0.0                 !
 ! D4    D(18,1,2,8)            -0.0012         -DE/DX =    0.0                 !
 ! D5    D(2,1,6,5)             -0.0018         -DE/DX =    0.0                 !
 ! D6    D(2,1,6,12)           180.0069         -DE/DX =    0.0                 !
 ! D7    D(18,1,6,5)          -180.0152         -DE/DX =    0.0                 !
 ! D8    D(18,1,6,12)           -0.0065         -DE/DX =    0.0                 !
 ! D9    D(2,1,18,19)          179.9708         -DE/DX =    0.0                 !
 ! D10   D(6,1,18,19)           -0.0161         -DE/DX =    0.0                 !
 ! D11   D(1,2,3,4)             -0.0001         -DE/DX =    0.0                 !
 ! D12   D(1,2,3,9)           -179.9961         -DE/DX =    0.0                 !
 ! D13   D(8,2,3,4)           -179.9894         -DE/DX =    0.0                 !
 ! D14   D(8,2,3,9)              0.0146         -DE/DX =    0.0                 !
 ! D15   D(2,3,4,5)              0.0088         -DE/DX =    0.0                 !
 ! D16   D(2,3,4,10)           180.0059         -DE/DX =    0.0                 !
 ! D17   D(9,3,4,5)            180.005          -DE/DX =    0.0                 !
 ! D18   D(9,3,4,10)             0.0021         -DE/DX =    0.0                 !
 ! D19   D(2,3,9,7)             -0.0055         -DE/DX =    0.0                 !
 ! D20   D(2,3,9,14)          -180.0065         -DE/DX =    0.0                 !
 ! D21   D(4,3,9,7)            179.9984         -DE/DX =    0.0                 !
 ! D22   D(4,3,9,14)            -0.0025         -DE/DX =    0.0                 !
 ! D23   D(3,4,5,6)             -0.0143         -DE/DX =    0.0                 !
 ! D24   D(3,4,5,11)          -180.0105         -DE/DX =    0.0                 !
 ! D25   D(10,4,5,6)           179.9887         -DE/DX =    0.0                 !
 ! D26   D(10,4,5,11)           -0.0076         -DE/DX =    0.0                 !
 ! D27   D(3,4,10,13)           -0.0006         -DE/DX =    0.0                 !
 ! D28   D(3,4,10,15)          179.9991         -DE/DX =    0.0                 !
 ! D29   D(5,4,10,13)         -180.0036         -DE/DX =    0.0                 !
 ! D30   D(5,4,10,15)           -0.0039         -DE/DX =    0.0                 !
 ! D31   D(4,5,6,1)              0.0109         -DE/DX =    0.0                 !
 ! D32   D(4,5,6,12)          -179.9979         -DE/DX =    0.0                 !
 ! D33   D(11,5,6,1)          -179.9929         -DE/DX =    0.0                 !
 ! D34   D(11,5,6,12)           -0.0017         -DE/DX =    0.0                 !
 ! D35   D(3,9,14,13)            0.0015         -DE/DX =    0.0                 !
 ! D36   D(3,9,14,17)         -179.9992         -DE/DX =    0.0                 !
 ! D37   D(7,9,14,13)          180.0005         -DE/DX =    0.0                 !
 ! D38   D(7,9,14,17)           -0.0001         -DE/DX =    0.0                 !
 ! D39   D(4,10,13,14)          -0.0004         -DE/DX =    0.0                 !
 ! D40   D(4,10,13,16)         180.0019         -DE/DX =    0.0                 !
 ! D41   D(15,10,13,14)       -180.0002         -DE/DX =    0.0                 !
 ! D42   D(15,10,13,16)          0.0021         -DE/DX =    0.0                 !
 ! D43   D(10,13,14,9)           0.0            -DE/DX =    0.0                 !
 ! D44   D(10,13,14,17)        180.0007         -DE/DX =    0.0                 !
 ! D45   D(16,13,14,9)        -180.0023         -DE/DX =    0.0                 !
 ! D46   D(16,13,14,17)         -0.0016         -DE/DX =    0.0                 !
 --------------------------------------------------------------------------------
 GradGradGradGradGradGradGradGradGradGradGradGradGradGradGradGradGradGrad

                          Input orientation:                          
 ---------------------------------------------------------------------
 Center     Atomic      Atomic             Coordinates (Angstroms)
 Number     Number       Type             X           Y           Z
 ---------------------------------------------------------------------
      1          6           0        2.104219   -0.232657    0.000133
      2          6           0        1.041716   -1.111715    0.000039
      3          6           0       -0.291259   -0.626687   -0.000039
      4          6           0       -0.527280    0.789309   -0.000017
      5          6           0        0.593795    1.661666   -0.000109
      6          6           0        1.880271    1.169026    0.000077
      7          1           0       -1.239331   -2.576510   -0.000098
      8          1           0        1.236092   -2.180607   -0.000150
      9          6           0       -1.413536   -1.502785   -0.000055
     10          6           0       -1.865368    1.269644    0.000033
     11          1           0        0.426365    2.736404   -0.000268
     12          1           0        2.729510    1.850492    0.000038
     13          6           0       -2.930568    0.394725    0.000047
     14          6           0       -2.699058   -1.005348    0.000002
     15          1           0       -2.035531    2.344421    0.000064
     16          1           0       -3.949397    0.773033    0.000054
     17          1           0       -3.544586   -1.688687    0.000002
     18          8           0        3.373839   -0.756049    0.000006
     19          1           0        4.028586   -0.041219   -0.000374
 ---------------------------------------------------------------------
                    Distance matrix (angstroms):
                    1          2          3          4          5
     1  C    0.000000
     2  C    1.379005   0.000000
     3  C    2.427669   1.418476   0.000000
     4  C    2.822977   2.464881   1.435531   0.000000
     5  C    2.422775   2.809319   2.453544   1.420498   0.000000
     6  C    1.419460   2.430011   2.817823   2.437311   1.377576
     7  H    4.083255   2.710867   2.168098   3.440313   4.617628
     8  H    2.132640   1.086422   2.178869   3.453966   3.895588
     9  C    3.740030   2.486202   1.423746   2.457467   3.747416
    10  C    4.244353   3.757926   2.464526   1.421690   2.490214
    11  H    3.410354   3.897009   3.438803   2.168091   1.087702
    12  H    2.174971   3.409299   3.906592   3.425316   2.144046
    13  C    5.073725   4.248341   2.830059   2.435465   3.745167
    14  C    4.865030   3.742286   2.437392   2.817342   4.237434
    15  H    4.876357   4.627561   3.445282   2.166378   2.716525
    16  H    6.136585   5.335118   3.916783   3.422156   4.629283
    17  H    5.833440   4.622452   3.422277   3.904433   5.324572
    18  O    1.373271   2.359088   3.667380   4.196053   3.684290
    19  H    1.933866   3.172909   4.359339   4.630949   3.833746
                    6          7          8          9         10
     6  C    0.000000
     7  H    4.874521   0.000000
     8  H    3.411013   2.506882   0.000000
     9  C    4.241195   1.087765   2.734954   0.000000
    10  C    3.746990   3.896771   4.639320   2.809006   0.000000
    11  H    2.137877   5.567908   4.983237   4.621251   2.720924
    12  H    1.088854   5.945590   4.298844   5.330037   4.631446
    13  C    4.872752   3.418848   4.898305   2.429389   1.378454
    14  C    5.069335   2.144610   4.106901   1.378409   2.422938
    15  H    4.088405   4.984927   5.583851   3.897162   1.088164
    16  H    5.843102   4.308584   5.967687   3.407336   2.142382
    17  H    6.131525   2.470310   4.805920   2.139143   3.401690
    18  O    2.436526   4.959377   2.568916   4.845263   5.617181
    19  H    2.465756   5.846251   3.517812   5.634968   6.037968
                   11         12         13         14         15
    11  H    0.000000
    12  H    2.467654   0.000000
    13  C    4.092977   5.844291   0.000000
    14  C    4.875344   6.133936   1.419085   0.000000
    15  H    2.492906   4.790572   2.145322   3.414853   0.000000
    16  H    4.796052   6.765258   1.086798   2.173933   2.476316
    17  H    5.945577   7.203476   2.172009   1.087138   4.306182
    18  O    4.569992   2.684998   6.408575   6.078012   6.234918
    19  H    4.548756   2.294814   6.972795   6.796377   6.516502
                   16         17         18         19
    16  H    0.000000
    17  H    2.494782   0.000000
    18  O    7.481168   6.981004   0.000000
    19  H    8.019428   7.750296   0.969369   0.000000
 Stoichiometry    C10H8O
 Framework group  C1[X(C10H8O)]
 Deg. of freedom    51
 Full point group                 C1      NOp   1
 Largest Abelian subgroup         C1      NOp   1
 Largest concise Abelian subgroup C1      NOp   1
                         Standard orientation:                         
 ---------------------------------------------------------------------
 Center     Atomic      Atomic             Coordinates (Angstroms)
 Number     Number       Type             X           Y           Z
 ---------------------------------------------------------------------
      1          6           0       -2.104219   -0.232657   -0.000133
      2          6           0       -1.041716   -1.111715   -0.000039
      3          6           0        0.291259   -0.626687    0.000039
      4          6           0        0.527280    0.789309    0.000017
      5          6           0       -0.593795    1.661666    0.000109
      6          6           0       -1.880271    1.169026   -0.000077
      7          1           0        1.239331   -2.576510    0.000098
      8          1           0       -1.236092   -2.180607    0.000150
      9          6           0        1.413536   -1.502785    0.000055
     10          6           0        1.865368    1.269644   -0.000033
     11          1           0       -0.426365    2.736404    0.000268
     12          1           0       -2.729510    1.850492   -0.000038
     13          6           0        2.930568    0.394725   -0.000047
     14          6           0        2.699058   -1.005348   -0.000002
     15          1           0        2.035531    2.344421   -0.000064
     16          1           0        3.949397    0.773033   -0.000054
     17          1           0        3.544586   -1.688687   -0.000002
     18          8           0       -3.373839   -0.756049   -0.000006
     19          1           0       -4.028586   -0.041219    0.000374
 ---------------------------------------------------------------------
 Rotational constants (GHZ):           2.8356051           0.8215565           0.6369994
 1\1\GINC-IP-172-31-28-242\FOpt\RB3LYP\6-31+G(d)\C10H8O1\UBUNTU\19-Sep-
 2023\0\\# opt freq b3lyp/6-31+g(d) empiricaldispersion=gd3 scf=maxcycl
 e=1000 volume\\Title Card Required\\0,1\C,2.104219,-0.232657,0.000133\
 C,1.041716,-1.111715,0.000039\C,-0.291259,-0.626687,-0.000039\C,-0.527
 28,0.789309,-0.000017\C,0.593795,1.661666,-0.000109\C,1.880271,1.16902
 6,0.000077\H,-1.239331,-2.57651,-0.000098\H,1.236092,-2.180607,-0.0001
 5\C,-1.413536,-1.502785,-0.000055\C,-1.865368,1.269644,0.000033\H,0.42
 6365,2.736404,-0.000268\H,2.72951,1.850492,0.000038\C,-2.930568,0.3947
 25,0.000047\C,-2.699058,-1.005348,0.000002\H,-2.035531,2.344421,0.0000
 64\H,-3.949397,0.773033,0.000054\H,-3.544586,-1.688687,0.000002\O,3.37
 3839,-0.756049,0.000006\H,4.028586,-0.041219,-0.000374\\Version=EM64L-
 G16RevB.01\State=1-A\HF=-461.140553\RMSD=2.014e-09\RMSF=3.921e-05\Dipo
 le=0.2047335,0.6090361,-0.0003378\Quadrupole=5.0340293,1.6509751,-6.68
 50045,4.6252308,-0.0023273,-0.0000423\PG=C01 [X(C10H8O1)]\\@


 GARLIC THEN HAVE POWER TO SAVE FROM DEATH
 BEAR WITH IT THOUGH IT MAKETH UNSAVORY BREATH,
 AND SCORN NOT GARLIC LIKE SOME THAT THINK
 IT ONLY MAKETH MEN WINK AND DRINK AND STINK.
   --  SIR JOHN HARRINGTON,
       "THE ENGLISHMAN'S DOCTOR", 1609
 Job cpu time:       0 days  0 hours  9 minutes 13.7 seconds.
 Elapsed time:       0 days  0 hours  0 minutes 17.4 seconds.
 File lengths (MBytes):  RWF=     33 Int=      0 D2E=      0 Chk=      5 Scr=      1
 Normal termination of Gaussian 16 at Tue Sep 19 06:44:57 2023.
 Link1:  Proceeding to internal job step number  2.
 ---------------------------------------------------------------------
 #N Geom=AllCheck Guess=TCheck SCRF=Check GenChk RB3LYP/6-31+G(d) Freq
 ---------------------------------------------------------------------
 1/10=4,29=7,30=1,38=1,40=1/1,3;
 2/12=2,40=1/2;
 3/5=1,6=6,7=11,11=2,14=-4,25=1,30=1,70=2,71=2,74=-5,116=1,124=31,140=1/1,2,3;
 4/5=101/1;
 5/5=2,7=1000,38=6,98=1/2;
 8/6=4,10=90,11=11/1;
 11/6=1,8=1,9=11,15=111,16=1/1,2,10;
 10/6=1/2;
 6/7=2,8=2,9=2,10=2,28=1/1;
 7/8=1,10=1,25=1/1,2,3,16;
 1/10=4,30=1/3;
 99//99;
 Structure from the checkpoint file:  "molecule33vol.chk"
 -------------------
 Title Card Required
 -------------------
 Charge =  0 Multiplicity = 1
 Redundant internal coordinates found in file.  (old form).
 C,0,2.104219,-0.232657,0.000133
 C,0,1.041716,-1.111715,0.000039
 C,0,-0.291259,-0.626687,-0.000039
 C,0,-0.52728,0.789309,-0.000017
 C,0,0.593795,1.661666,-0.000109
 C,0,1.880271,1.169026,0.000077
 H,0,-1.239331,-2.57651,-0.000098
 H,0,1.236092,-2.180607,-0.00015
 C,0,-1.413536,-1.502785,-0.000055
 C,0,-1.865368,1.269644,0.000033
 H,0,0.426365,2.736404,-0.000268
 H,0,2.72951,1.850492,0.000038
 C,0,-2.930568,0.394725,0.000047
 C,0,-2.699058,-1.005348,0.000002
 H,0,-2.035531,2.344421,0.000064
 H,0,-3.949397,0.773033,0.000054
 H,0,-3.544586,-1.688687,0.000002
 O,0,3.373839,-0.756049,0.000006
 H,0,4.028586,-0.041219,-0.000374
 Recover connectivity data from disk.

 GradGradGradGradGradGradGradGradGradGradGradGradGradGradGradGradGradGrad
 Berny optimization.
 Initialization pass.
                           ----------------------------
                           !    Initial Parameters    !
                           ! (Angstroms and Degrees)  !
 --------------------------                            --------------------------
 ! Name  Definition              Value          Derivative Info.                !
 --------------------------------------------------------------------------------
 ! R1    R(1,2)                  1.379          calculate D2E/DX2 analytically  !
 ! R2    R(1,6)                  1.4195         calculate D2E/DX2 analytically  !
 ! R3    R(1,18)                 1.3733         calculate D2E/DX2 analytically  !
 ! R4    R(2,3)                  1.4185         calculate D2E/DX2 analytically  !
 ! R5    R(2,8)                  1.0864         calculate D2E/DX2 analytically  !
 ! R6    R(3,4)                  1.4355         calculate D2E/DX2 analytically  !
 ! R7    R(3,9)                  1.4237         calculate D2E/DX2 analytically  !
 ! R8    R(4,5)                  1.4205         calculate D2E/DX2 analytically  !
 ! R9    R(4,10)                 1.4217         calculate D2E/DX2 analytically  !
 ! R10   R(5,6)                  1.3776         calculate D2E/DX2 analytically  !
 ! R11   R(5,11)                 1.0877         calculate D2E/DX2 analytically  !
 ! R12   R(6,12)                 1.0889         calculate D2E/DX2 analytically  !
 ! R13   R(7,9)                  1.0878         calculate D2E/DX2 analytically  !
 ! R14   R(9,14)                 1.3784         calculate D2E/DX2 analytically  !
 ! R15   R(10,13)                1.3785         calculate D2E/DX2 analytically  !
 ! R16   R(10,15)                1.0882         calculate D2E/DX2 analytically  !
 ! R17   R(13,14)                1.4191         calculate D2E/DX2 analytically  !
 ! R18   R(13,16)                1.0868         calculate D2E/DX2 analytically  !
 ! R19   R(14,17)                1.0871         calculate D2E/DX2 analytically  !
 ! R20   R(18,19)                0.9694         calculate D2E/DX2 analytically  !
 ! A1    A(2,1,6)              120.5251         calculate D2E/DX2 analytically  !
 ! A2    A(2,1,18)             117.9939         calculate D2E/DX2 analytically  !
 ! A3    A(6,1,18)             121.481          calculate D2E/DX2 analytically  !
 ! A4    A(1,2,3)              120.4026         calculate D2E/DX2 analytically  !
 ! A5    A(1,2,8)              119.296          calculate D2E/DX2 analytically  !
 ! A6    A(3,2,8)              120.3014         calculate D2E/DX2 analytically  !
 ! A7    A(2,3,4)              119.458          calculate D2E/DX2 analytically  !
 ! A8    A(2,3,9)              122.028          calculate D2E/DX2 analytically  !
 ! A9    A(4,3,9)              118.514          calculate D2E/DX2 analytically  !
 ! A10   A(3,4,5)              118.4249         calculate D2E/DX2 analytically  !
 ! A11   A(3,4,10)             119.2098         calculate D2E/DX2 analytically  !
 ! A12   A(5,4,10)             122.3653         calculate D2E/DX2 analytically  !
 ! A13   A(4,5,6)              121.1582         calculate D2E/DX2 analytically  !
 ! A14   A(4,5,11)             119.0333         calculate D2E/DX2 analytically  !
 ! A15   A(6,5,11)             119.8085         calculate D2E/DX2 analytically  !
 ! A16   A(1,6,5)              120.0312         calculate D2E/DX2 analytically  !
 ! A17   A(1,6,12)             119.6676         calculate D2E/DX2 analytically  !
 ! A18   A(5,6,12)             120.3012         calculate D2E/DX2 analytically  !
 ! A19   A(3,9,7)              118.7616         calculate D2E/DX2 analytically  !
 ! A20   A(3,9,14)             120.8687         calculate D2E/DX2 analytically  !
 ! A21   A(7,9,14)             120.3697         calculate D2E/DX2 analytically  !
 ! A22   A(4,10,13)            120.8548         calculate D2E/DX2 analytically  !
 ! A23   A(4,10,15)            118.7433         calculate D2E/DX2 analytically  !
 ! A24   A(13,10,15)           120.4019         calculate D2E/DX2 analytically  !
 ! A25   A(10,13,14)           120.0093         calculate D2E/DX2 analytically  !
 ! A26   A(10,13,16)           120.2307         calculate D2E/DX2 analytically  !
 ! A27   A(14,13,16)           119.76           calculate D2E/DX2 analytically  !
 ! A28   A(9,14,13)            120.5433         calculate D2E/DX2 analytically  !
 ! A29   A(9,14,17)            119.9014         calculate D2E/DX2 analytically  !
 ! A30   A(13,14,17)           119.5552         calculate D2E/DX2 analytically  !
 ! A31   A(1,18,19)            110.0845         calculate D2E/DX2 analytically  !
 ! D1    D(6,1,2,3)             -0.0036         calculate D2E/DX2 analytically  !
 ! D2    D(6,1,2,8)            179.9858         calculate D2E/DX2 analytically  !
 ! D3    D(18,1,2,3)          -179.9906         calculate D2E/DX2 analytically  !
 ! D4    D(18,1,2,8)            -0.0012         calculate D2E/DX2 analytically  !
 ! D5    D(2,1,6,5)             -0.0018         calculate D2E/DX2 analytically  !
 ! D6    D(2,1,6,12)          -179.9931         calculate D2E/DX2 analytically  !
 ! D7    D(18,1,6,5)           179.9848         calculate D2E/DX2 analytically  !
 ! D8    D(18,1,6,12)           -0.0065         calculate D2E/DX2 analytically  !
 ! D9    D(2,1,18,19)          179.9708         calculate D2E/DX2 analytically  !
 ! D10   D(6,1,18,19)           -0.0161         calculate D2E/DX2 analytically  !
 ! D11   D(1,2,3,4)             -0.0001         calculate D2E/DX2 analytically  !
 ! D12   D(1,2,3,9)           -179.9961         calculate D2E/DX2 analytically  !
 ! D13   D(8,2,3,4)           -179.9894         calculate D2E/DX2 analytically  !
 ! D14   D(8,2,3,9)              0.0146         calculate D2E/DX2 analytically  !
 ! D15   D(2,3,4,5)              0.0088         calculate D2E/DX2 analytically  !
 ! D16   D(2,3,4,10)          -179.9941         calculate D2E/DX2 analytically  !
 ! D17   D(9,3,4,5)           -179.995          calculate D2E/DX2 analytically  !
 ! D18   D(9,3,4,10)             0.0021         calculate D2E/DX2 analytically  !
 ! D19   D(2,3,9,7)             -0.0055         calculate D2E/DX2 analytically  !
 ! D20   D(2,3,9,14)           179.9935         calculate D2E/DX2 analytically  !
 ! D21   D(4,3,9,7)            179.9984         calculate D2E/DX2 analytically  !
 ! D22   D(4,3,9,14)            -0.0025         calculate D2E/DX2 analytically  !
 ! D23   D(3,4,5,6)             -0.0143         calculate D2E/DX2 analytically  !
 ! D24   D(3,4,5,11)           179.9895         calculate D2E/DX2 analytically  !
 ! D25   D(10,4,5,6)           179.9887         calculate D2E/DX2 analytically  !
 ! D26   D(10,4,5,11)           -0.0076         calculate D2E/DX2 analytically  !
 ! D27   D(3,4,10,13)           -0.0006         calculate D2E/DX2 analytically  !
 ! D28   D(3,4,10,15)          179.9991         calculate D2E/DX2 analytically  !
 ! D29   D(5,4,10,13)          179.9964         calculate D2E/DX2 analytically  !
 ! D30   D(5,4,10,15)           -0.0039         calculate D2E/DX2 analytically  !
 ! D31   D(4,5,6,1)              0.0109         calculate D2E/DX2 analytically  !
 ! D32   D(4,5,6,12)          -179.9979         calculate D2E/DX2 analytically  !
 ! D33   D(11,5,6,1)          -179.9929         calculate D2E/DX2 analytically  !
 ! D34   D(11,5,6,12)           -0.0017         calculate D2E/DX2 analytically  !
 ! D35   D(3,9,14,13)            0.0015         calculate D2E/DX2 analytically  !
 ! D36   D(3,9,14,17)         -179.9992         calculate D2E/DX2 analytically  !
 ! D37   D(7,9,14,13)         -179.9995         calculate D2E/DX2 analytically  !
 ! D38   D(7,9,14,17)           -0.0001         calculate D2E/DX2 analytically  !
 ! D39   D(4,10,13,14)          -0.0004         calculate D2E/DX2 analytically  !
 ! D40   D(4,10,13,16)        -179.9981         calculate D2E/DX2 analytically  !
 ! D41   D(15,10,13,14)        179.9998         calculate D2E/DX2 analytically  !
 ! D42   D(15,10,13,16)          0.0021         calculate D2E/DX2 analytically  !
 ! D43   D(10,13,14,9)           0.0            calculate D2E/DX2 analytically  !
 ! D44   D(10,13,14,17)       -179.9993         calculate D2E/DX2 analytically  !
 ! D45   D(16,13,14,9)         179.9977         calculate D2E/DX2 analytically  !
 ! D46   D(16,13,14,17)         -0.0016         calculate D2E/DX2 analytically  !
 --------------------------------------------------------------------------------
 Trust Radius=3.00D-01 FncErr=1.00D-07 GrdErr=1.00D-07 EigMax=2.50D+02 EigMin=1.00D-04
 Number of steps in this run=      2 maximum allowed number of steps=      2.
 GradGradGradGradGradGradGradGradGradGradGradGradGradGradGradGradGradGrad

                          Input orientation:                          
 ---------------------------------------------------------------------
 Center     Atomic      Atomic             Coordinates (Angstroms)
 Number     Number       Type             X           Y           Z
 ---------------------------------------------------------------------
      1          6           0        2.104219   -0.232657    0.000133
      2          6           0        1.041716   -1.111715    0.000039
      3          6           0       -0.291259   -0.626687   -0.000039
      4          6           0       -0.527280    0.789309   -0.000017
      5          6           0        0.593795    1.661666   -0.000109
      6          6           0        1.880271    1.169026    0.000077
      7          1           0       -1.239331   -2.576510   -0.000098
      8          1           0        1.236092   -2.180607   -0.000150
      9          6           0       -1.413536   -1.502785   -0.000055
     10          6           0       -1.865368    1.269644    0.000033
     11          1           0        0.426365    2.736404   -0.000268
     12          1           0        2.729510    1.850492    0.000038
     13          6           0       -2.930568    0.394725    0.000047
     14          6           0       -2.699058   -1.005348    0.000002
     15          1           0       -2.035531    2.344421    0.000064
     16          1           0       -3.949397    0.773033    0.000054
     17          1           0       -3.544586   -1.688687    0.000002
     18          8           0        3.373839   -0.756049    0.000006
     19          1           0        4.028586   -0.041219   -0.000374
 ---------------------------------------------------------------------
                    Distance matrix (angstroms):
                    1          2          3          4          5
     1  C    0.000000
     2  C    1.379005   0.000000
     3  C    2.427669   1.418476   0.000000
     4  C    2.822977   2.464881   1.435531   0.000000
     5  C    2.422775   2.809319   2.453544   1.420498   0.000000
     6  C    1.419460   2.430011   2.817823   2.437311   1.377576
     7  H    4.083255   2.710867   2.168098   3.440313   4.617628
     8  H    2.132640   1.086422   2.178869   3.453966   3.895588
     9  C    3.740030   2.486202   1.423746   2.457467   3.747416
    10  C    4.244353   3.757926   2.464526   1.421690   2.490214
    11  H    3.410354   3.897009   3.438803   2.168091   1.087702
    12  H    2.174971   3.409299   3.906592   3.425316   2.144046
    13  C    5.073725   4.248341   2.830059   2.435465   3.745167
    14  C    4.865030   3.742286   2.437392   2.817342   4.237434
    15  H    4.876357   4.627561   3.445282   2.166378   2.716525
    16  H    6.136585   5.335118   3.916783   3.422156   4.629283
    17  H    5.833440   4.622452   3.422277   3.904433   5.324572
    18  O    1.373271   2.359088   3.667380   4.196053   3.684290
    19  H    1.933866   3.172909   4.359339   4.630949   3.833746
                    6          7          8          9         10
     6  C    0.000000
     7  H    4.874521   0.000000
     8  H    3.411013   2.506882   0.000000
     9  C    4.241195   1.087765   2.734954   0.000000
    10  C    3.746990   3.896771   4.639320   2.809006   0.000000
    11  H    2.137877   5.567908   4.983237   4.621251   2.720924
    12  H    1.088854   5.945590   4.298844   5.330037   4.631446
    13  C    4.872752   3.418848   4.898305   2.429389   1.378454
    14  C    5.069335   2.144610   4.106901   1.378409   2.422938
    15  H    4.088405   4.984927   5.583851   3.897162   1.088164
    16  H    5.843102   4.308584   5.967687   3.407336   2.142382
    17  H    6.131525   2.470310   4.805920   2.139143   3.401690
    18  O    2.436526   4.959377   2.568916   4.845263   5.617181
    19  H    2.465756   5.846251   3.517812   5.634968   6.037968
                   11         12         13         14         15
    11  H    0.000000
    12  H    2.467654   0.000000
    13  C    4.092977   5.844291   0.000000
    14  C    4.875344   6.133936   1.419085   0.000000
    15  H    2.492906   4.790572   2.145322   3.414853   0.000000
    16  H    4.796052   6.765258   1.086798   2.173933   2.476316
    17  H    5.945577   7.203476   2.172009   1.087138   4.306182
    18  O    4.569992   2.684998   6.408575   6.078012   6.234918
    19  H    4.548756   2.294814   6.972795   6.796377   6.516502
                   16         17         18         19
    16  H    0.000000
    17  H    2.494782   0.000000
    18  O    7.481168   6.981004   0.000000
    19  H    8.019428   7.750296   0.969369   0.000000
 Stoichiometry    C10H8O
 Framework group  C1[X(C10H8O)]
 Deg. of freedom    51
 Full point group                 C1      NOp   1
 Largest Abelian subgroup         C1      NOp   1
 Largest concise Abelian subgroup C1      NOp   1
                         Standard orientation:                         
 ---------------------------------------------------------------------
 Center     Atomic      Atomic             Coordinates (Angstroms)
 Number     Number       Type             X           Y           Z
 ---------------------------------------------------------------------
      1          6           0       -2.104219   -0.232657   -0.000133
      2          6           0       -1.041716   -1.111715   -0.000039
      3          6           0        0.291259   -0.626687    0.000039
      4          6           0        0.527280    0.789309    0.000017
      5          6           0       -0.593795    1.661666    0.000109
      6          6           0       -1.880271    1.169026   -0.000077
      7          1           0        1.239331   -2.576510    0.000098
      8          1           0       -1.236092   -2.180607    0.000150
      9          6           0        1.413536   -1.502785    0.000055
     10          6           0        1.865368    1.269644   -0.000033
[...]
 68377,0.08737946,-0.00001022,0.68908998,-0.00655079,0.03587652,0.00000
 044,0.05960233,-0.14505325,-0.00000391,0.00464246,0.62992074,-0.000004
 22,0.,-0.00007914,-0.00001212,0.00000071,-0.05817882,0.00001194,0.0000
 0881,0.15196626,-0.00942972,-0.03672645,0.00000094,0.01895622,0.036627
 05,0.00000411,-0.14164135,0.01789437,-0.00000470,0.69295617,-0.0156087
 1,-0.03655777,-0.00000056,0.04942464,-0.00729266,0.00000251,0.01798768
 ,-0.25040828,-0.00000618,0.00740922,0.62994646,0.00000059,0.00000111,-
 0.00520501,-0.00000179,0.00000156,0.00506156,-0.00000016,-0.00000205,-
 0.06460424,-0.00001628,-0.00001055,0.14669147,0.01710655,0.08306483,-0
 .00000672,-0.04999289,-0.01145115,-0.00000252,0.04223676,-0.03270151,0
 .00000371,-0.20099473,-0.07470983,0.00001219,0.69586362,0.03589937,-0.
 01072059,0.00000149,-0.00762338,-0.00343484,0.00000194,-0.01741520,-0.
 03166433,0.00000351,-0.10233816,-0.19547364,0.00001270,-0.05135389,0.7
 1573344,-0.00000331,0.00000309,-0.00001986,-0.00000051,-0.00000047,0.0
 0060772,0.00000109,-0.00000193,0.00533121,0.00001157,0.00001601,-0.064
 17131,0.00003786,-0.00008052,0.12985616,-0.12435024,-0.02750421,0.0000
 0651,0.03933000,-0.01373388,-0.00000182,-0.02323318,0.01524771,-0.0000
 0100,-0.06236412,-0.02029971,-0.00000432,-0.35693964,0.11572491,-0.000
 04134,0.75810897,0.04817223,-0.27770086,0.00000439,-0.05065419,-0.0388
 3542,-0.00000243,0.03012678,-0.01664281,0.00000031,0.01397812,0.039883
 41,-0.00000211,0.05980126,-0.15912632,0.00002228,0.01546121,0.65095888
 ,-0.00000252,0.00001254,-0.05865774,0.00000127,-0.00000016,0.00566870,
 -0.00000274,0.00000236,-0.00420039,-0.00000191,-0.00000294,0.00750755,
 -0.00003699,0.00002267,-0.05232768,0.00003510,-0.00004128,0.11397317,0
 .00007404,0.00046316,0.00000005,0.00103304,-0.00150576,-0.00000034,0.0
 0714287,-0.02485142,-0.00000085,-0.00385450,-0.00196231,0.00000015,0.0
 0040307,-0.00129867,0.,0.00027118,-0.00016244,0.00000009,0.06788262,-0
 .00005044,-0.00000553,0.,0.00136299,0.00075381,0.00000018,0.00514497,-
 0.01643776,-0.00000078,-0.00364642,0.00020545,-0.00000025,0.00092749,-
 0.00077271,-0.00000006,-0.00011640,0.00021455,0.00000002,-0.04650388,0
 .34928374,-0.00000011,0.00000004,-0.00036663,0.00000013,0.00000019,-0.
 00289388,0.00000120,0.00000115,0.00340828,0.00000029,-0.00000082,0.004
 95457,0.00000005,-0.00000010,0.00003489,0.00000002,-0.00000005,-0.0000
 3646,-0.00000250,0.00001219,0.02436404,0.00878204,-0.02538579,-0.00000
 390,-0.06735443,0.04856695,0.00000648,-0.00058430,0.02910888,0.0000039
 4,-0.00508319,0.00010088,-0.00000015,-0.00097219,-0.00003091,-0.000000
 11,-0.00412231,-0.00224433,-0.00000016,-0.00071437,-0.00100790,0.00000
 001,0.06672907,0.00708500,-0.01747260,-0.00000291,0.04604482,-0.331210
 57,-0.00005087,0.00092470,-0.00661136,-0.00000096,0.00152076,0.0016278
 6,-0.00000092,-0.00030785,0.00059923,-0.00000013,-0.00369303,-0.000335
 67,-0.00000115,0.00056733,0.00044274,-0.00000018,-0.05153613,0.3519219
 7,0.00000069,-0.00000412,0.00583278,0.00001050,-0.00005577,-0.03294111
 ,-0.00000277,0.00000204,0.00233867,-0.00000087,0.00000003,0.00502796,0
 .00000044,0.00000006,-0.00064869,-0.00000073,0.00000108,0.00572508,0.0
 0000022,0.00000011,0.00034713,-0.00000638,0.00005499,0.02268114,0.0106
 8433,0.02885081,0.00000024,-0.06530560,-0.02394732,-0.00000232,-0.1979
 3376,-0.07193456,-0.00000283,0.04336965,-0.03061445,-0.00000197,-0.014
 64285,-0.00109777,0.00000040,0.00954810,-0.01506995,0.00000135,-0.0662
 3292,0.04275799,0.00000051,0.00109010,-0.00163650,0.00000061,0.6935432
 9,0.00630200,0.00575810,0.00000002,-0.00267668,0.01377627,0.00000066,-
 0.09978074,-0.19554781,-0.00000428,-0.01877125,-0.02872684,-0.00000054
 ,-0.00081441,-0.00577443,0.00000033,0.00340503,-0.00419507,0.00000026,
 0.04248172,-0.32869155,-0.00001159,0.00159449,0.00073209,0.00000049,-0
 .05599157,0.71496553,0.00000122,0.00000204,0.00442609,-0.00000498,-0.0
 0000117,0.00535981,0.00000098,-0.00000633,-0.06127438,-0.00000153,0.00
 000273,0.00159935,-0.00000128,-0.00000111,0.00392817,0.00000140,-0.000
 00071,0.00072297,0.00000207,-0.00001119,-0.03549442,-0.00000009,0.0000
 0083,-0.00334379,-0.00001223,0.00002238,0.12883357,0.00579184,0.022082
 79,-0.00000074,-0.01356944,-0.00430160,-0.00000073,0.02143881,0.051022
 62,0.00000271,-0.25276144,0.05676447,0.00000738,-0.06551600,-0.0040568
 6,0.00000073,0.01683574,-0.02179164,0.00000235,-0.00102729,-0.00047530
 ,-0.00000081,0.00033764,-0.00060782,0.00000009,-0.05188163,-0.00482578
 ,0.00000123,0.66387140,0.00104491,0.00038653,-0.00000008,-0.00369349,-
 0.00612030,-0.00000087,0.03676641,-0.00782104,0.00000047,0.08391469,-0
 .14357814,-0.00000228,-0.02312645,0.01320015,0.00000046,-0.00329025,-0
 .00434352,0.00000032,-0.00030462,0.00050021,0.00000017,0.00153384,-0.0
 0049092,0.00000034,-0.01184243,-0.00243001,-0.00000013,0.03649642,0.74
 465840,0.00000008,0.00000056,0.00091951,-0.00000012,0.00000009,0.00397
 842,0.00000061,-0.00000087,0.00046503,0.00001043,-0.00000135,-0.058841
 49,0.00000058,-0.00000138,0.00316565,0.00000031,0.,0.00398779,-0.00000
 002,0.00000010,-0.00047730,-0.00000026,-0.00000002,0.00029794,0.000000
 54,-0.00000053,-0.00132391,-0.00001823,0.00001032,0.13065308,-0.004903
 81,0.00000853,-0.00000109,-0.00080426,-0.00011178,-0.00000004,-0.00401
 828,-0.00202712,0.00000049,0.00786134,-0.02430963,0.00000231,-0.065776
 60,0.04078404,-0.00000718,-0.00075043,0.03078358,-0.00000361,-0.000311
 86,-0.00025907,-0.00000010,0.00015131,0.00003094,0.00000011,0.00051158
 ,-0.00121522,-0.00000026,0.00099287,-0.00159698,0.00000008,0.06704932,
 0.00152543,0.00204933,0.00000146,-0.00039683,0.00049701,-0.00000025,-0
 .00376634,-0.00002638,0.00000127,0.00490425,-0.01615404,0.00000176,0.0
 4163635,-0.32981168,0.00004292,-0.00041297,-0.00728146,0.00000093,-0.0
 0027336,-0.00021643,0.00000004,0.00007464,-0.00009746,-0.00000015,0.00
 092223,-0.00081844,-0.00000012,0.00169093,0.00074463,-0.00000077,-0.04
 496259,0.35014566,-0.00000169,-0.00000222,0.00832475,0.00000099,-0.000
 00066,-0.00082870,0.00000078,0.00000006,0.00464181,-0.00000224,0.00000
 079,0.00355184,-0.00000518,0.00004281,-0.03543144,-0.00000163,0.000005
 21,0.00356515,0.00000007,0.00000006,0.00019197,0.00000004,0.00000021,-
 0.00081947,0.00000001,0.00000034,0.00009435,0.00000043,-0.00000005,-0.
 00319876,0.00000864,-0.00004644,0.02445818,0.00251472,0.00557563,-0.00
 000035,0.00120327,0.00159489,-0.00000011,-0.00038468,0.00050883,0.0000
 0009,-0.00319432,0.00429069,-0.00000136,-0.01922249,-0.02130298,0.0000
 0190,-0.22188317,-0.13313999,0.00000566,-0.00002017,-0.00006644,0.,0.0
 0027661,0.00017712,0.00000004,0.00028144,-0.00003145,0.00000008,-0.000
 24051,-0.00151637,-0.00000010,0.00070113,0.00041425,0.00000026,0.23694
 398,-0.02726347,-0.01407888,0.00000107,0.00285960,-0.00533693,0.000000
 07,0.00139599,-0.00022013,0.,0.00285564,-0.00026288,0.00000125,0.01011
 996,0.01148286,-0.00000082,-0.13372521,-0.16919981,0.00000966,0.000052
 43,0.00004960,0.,-0.00140038,-0.00080753,-0.00000003,-0.00038959,0.000
 01606,-0.00000015,-0.00006776,0.00049806,0.00000005,-0.00010561,0.0009
 0509,-0.00000067,0.14390421,0.17576090,0.00000435,0.00000078,0.0028154
 9,-0.00000068,0.00000017,0.00359899,0.00000018,0.00000059,-0.00069760,
 -0.00000084,0.00000153,0.00836021,-0.00000312,-0.00000245,0.00266437,0
 .00000725,0.00001046,-0.03158585,-0.00000003,0.,0.00003487,0.00000023,
 0.00000011,0.00024559,-0.00000015,-0.00000014,-0.00048117,-0.00000033,
 -0.00000051,0.00047277,0.00000040,-0.00000094,-0.00488464,-0.00000601,
 -0.00000958,0.02199267,-0.00093578,-0.00816334,-0.00000064,0.00388789,
 0.00038349,0.00000057,-0.00814176,-0.01393706,0.00000020,-0.05554107,-
 0.01101413,0.00000223,0.00798462,0.00741195,-0.00000017,-0.00573928,0.
 00668689,-0.00000008,-0.00521811,0.00219096,0.00000073,0.00010963,0.00
 007678,0.,0.01198490,0.03492925,0.00000061,-0.28235553,-0.15394212,0.0
 0000395,0.00019431,-0.00034185,-0.00000029,-0.00058214,0.00020746,-0.0
 0000011,0.75415949,-0.00840658,-0.02069322,0.00000082,0.01941280,0.002
 43010,0.00000089,-0.03218157,-0.03394405,-0.00000180,-0.04510610,0.032
 01616,0.00000161,0.02664446,0.00608611,-0.00000077,-0.01276395,0.01544
 388,-0.00000154,0.00069646,0.00162840,0.00000063,0.00006695,0.00036517
 ,-0.00000045,0.07533214,-0.01314896,-0.00000145,-0.09727624,-0.2300372
 2,0.00000159,0.00049967,0.00000546,-0.00000059,0.00012470,0.00024854,0
 .00000030,0.00437668,0.65066372,-0.00000013,0.00000039,-0.00075678,0.0
 0000022,0.00000007,-0.00042249,-0.00000034,-0.00000012,-0.00371137,0.0
 0000119,0.00000072,0.00440473,-0.00000034,0.00000005,0.00548421,0.0000
 0049,-0.00000034,0.00082812,0.00000028,-0.00000030,0.00795141,0.000000
 04,0.00000002,-0.00015786,0.00000179,-0.00000165,0.00651297,0.00000351
 ,0.00000161,-0.05810097,0.00000004,-0.00000011,-0.00009833,0.00000014,
 -0.00000014,-0.00058244,-0.00001008,0.00001001,0.12708204,-0.00724801,
 -0.01481997,0.00000075,0.01746286,-0.00204328,0.00000054,-0.06272033,-
 0.02106488,0.00000031,-0.02483728,0.01352778,0.00000062,0.01058828,0.0
 0393369,-0.00000072,-0.00745625,0.00903852,-0.00000094,-0.00022469,-0.
 00048315,0.00000067,0.00016717,0.00042073,-0.00000049,-0.35324883,0.11
 438532,0.00001381,0.04249001,-0.01595333,-0.00000038,0.00024065,-0.000
 06225,-0.00000021,-0.00010592,0.00019256,0.00000020,-0.12968393,-0.003
 44093,0.00000086,0.74556036,0.00686893,0.01919468,0.00000074,-0.021741
 80,-0.00601885,-0.00000191,0.01246279,0.04306703,0.00000067,0.03490712
 ,-0.01649201,-0.00000165,-0.01632524,-0.00514369,0.00000013,0.00938369
 ,-0.01302618,0.00000090,0.03123094,-0.00734266,-0.00000171,-0.00030092
 ,-0.00009577,0.00000058,0.05750832,-0.16184174,-0.00000524,-0.05744411
 ,-0.04468177,-0.00000001,-0.00018265,0.00020706,0.00000034,0.00024658,
 -0.00026962,-0.00000008,0.05809838,-0.28902795,-0.00000775,0.02510386,
 0.65982423,0.00000050,0.00000037,0.00170022,-0.00000116,-0.00000056,0.
 00486745,0.00000048,0.00000049,0.00326828,0.00000139,-0.00000010,-0.00
 404231,-0.00000055,-0.00000029,-0.00036335,0.00000038,-0.00000031,-0.0
 0082049,0.00000085,-0.00000023,0.00364831,0.00000006,0.00000016,-0.000
 21190,0.00001359,-0.00000649,-0.05770745,-0.00000229,-0.00000082,0.006
 22830,0.00000007,-0.00000003,-0.00013041,-0.00000002,0.00000005,0.0001
 5599,0.00000284,-0.00000760,-0.06041268,-0.00001691,0.00001699,0.13085
 863,0.00031693,0.00012838,0.,0.00036111,0.00155232,0.00000023,-0.00533
 580,0.00030099,0.00000017,-0.00096665,0.02966471,0.00000065,0.00112012
 ,0.00170240,-0.00000030,0.00013601,-0.00034784,0.,0.00019594,0.0000548
 4,-0.00000005,-0.00044017,0.00014315,-0.00000009,-0.00094693,-0.000201
 64,0.,-0.06676302,0.04365138,0.00000198,-0.00075754,-0.00103088,0.0000
 0024,-0.00000449,-0.00000646,0.00000001,0.00846978,-0.02592287,-0.0000
 0052,-0.00379847,-0.00248331,0.00000034,0.06759338,-0.00033735,0.00037
 733,0.00000014,-0.00042350,-0.00051025,-0.00000022,0.00175142,0.001560
 83,0.00000020,0.00031961,-0.00829180,-0.00000029,-0.00168097,0.0007172
 4,0.,0.00050371,-0.00005783,0.00000012,0.00003985,-0.00010808,0.000000
 03,0.00017214,-0.00006220,-0.00000002,-0.00007875,0.00056766,0.0000000
 6,0.04302283,-0.32715123,-0.00000800,0.00066583,0.00051097,-0.00000010
 ,0.00006634,-0.00000459,-0.00000002,0.00582245,-0.01574532,-0.00000064
 ,-0.00401393,-0.00007507,-0.00000022,-0.04602261,0.34844158,-0.0000001
 7,-0.00000028,-0.00001695,0.00000015,-0.00000012,0.00012493,0.00000032
 ,-0.00000001,0.00503465,-0.00000097,-0.00000101,0.00309500,0.00000023,
 -0.00000026,-0.00304120,-0.00000031,0.00000042,-0.00018181,-0.00000004
 ,0.00000005,-0.00121716,0.,-0.00000005,0.00019517,0.00000020,0.0000001
 0,-0.00050838,0.00000288,-0.00000860,-0.03579244,0.00000013,0.00000024
 ,0.00030595,-0.00000003,0.00000001,0.00016717,-0.00000014,0.00000065,0
 .00397983,0.00000025,-0.00000005,0.00796604,-0.00000244,0.00000879,0.0
 2452276,0.00017606,-0.00022558,-0.00000002,0.00011399,0.00007792,0.000
 00004,0.00026195,-0.00048697,-0.00000012,-0.00100689,-0.00429110,0.000
 00029,-0.00060167,0.00105584,-0.00000017,-0.00039768,-0.00027582,0.000
 00006,-0.00016455,-0.00009937,-0.00000002,-0.00001265,0.00003122,0.,0.
 00162335,0.00063482,-0.00000004,-0.01883563,0.01093308,0.00000064,0.00
 000829,-0.00004919,0.,-0.00014551,0.00004368,-0.00000003,-0.30471007,0
 .09121858,0.00000236,-0.00064323,-0.00069230,0.00000007,0.00075416,-0.
 00048897,-0.00000003,0.32295893,-0.00012364,-0.00033181,0.00000004,0.0
 0032790,0.00024191,-0.00000003,-0.00090692,-0.00076501,0.00000005,-0.0
 0294366,-0.00270089,0.00000014,-0.00049163,0.00081822,-0.00000005,-0.0
 0031569,-0.00001676,0.00000004,0.00155566,-0.00047082,-0.00000011,-0.0
 0007841,0.00003540,0.00000001,-0.00061921,-0.00585901,-0.00000025,-0.0
 2066582,0.01136133,0.00000057,0.00002233,-0.00000647,0.,-0.00010588,0.
 00004450,-0.00000004,0.09166369,-0.09381147,-0.00000156,0.03072979,-0.
 00569063,-0.00000069,0.00021098,0.00082019,0.00000003,-0.09790741,0.09
 561454,-0.00000006,-0.00000015,0.00008428,0.00000004,0.00000008,-0.000
 74644,0.,0.00000014,-0.00039822,-0.00000011,0.00000004,0.00832605,0.00
 000030,0.00000018,0.00055561,-0.00000009,0.00000013,-0.00062184,0.0000
 0011,-0.00000007,0.00032571,-0.00000001,-0.00000003,0.00004381,-0.0000
 0043,-0.00000043,0.00498350,0.00000097,-0.00000025,0.00299006,-0.00000
 005,0.00000005,0.00018313,0.00000001,0.,-0.00008152,0.00000138,-0.0000
 0091,-0.03491429,0.00000133,-0.00000087,0.00219032,-0.00000018,0.00000
 025,-0.00485234,-0.00000307,0.00000173,0.02469583,-0.00017434,0.000030
 54,-0.00000008,-0.00032975,-0.00140320,0.00000006,-0.00351345,0.003946
 08,0.00000018,-0.00030511,0.00062202,0.00000001,0.00035518,-0.00004032
 ,-0.00000002,-0.00014427,0.00027535,0.,0.00066829,0.00045123,-0.000000
 08,0.00000543,0.00005049,-0.00000001,-0.01867568,-0.02096172,-0.000000
 02,0.00094930,0.00163496,0.00000025,-0.00001604,-0.00005844,0.,-0.0000
 2342,-0.00001783,0.,0.00788498,0.00511787,0.00000008,-0.22771085,-0.13
 579545,0.00000078,0.00024896,0.00034334,-0.00000001,0.00075536,-0.0004
 2276,-0.00000014,0.24042580,0.00032528,0.00011304,-0.00000002,-0.00001
 362,0.00045901,0.00000006,0.00291277,-0.00034793,-0.00000039,0.0010779
 2,-0.00014695,0.00000010,-0.00029077,0.00005277,-0.00000004,0.00008798
 ,-0.00014343,0.00000005,-0.00020953,0.00090284,0.00000017,-0.00002213,
 -0.00000453,0.00000001,0.01049025,0.01120475,-0.00000010,0.00277007,-0
 .00525896,-0.00000034,0.00005632,0.00004696,-0.00000001,-0.00002312,-0
 .00000228,0.,-0.02612496,-0.01407916,-0.00000001,-0.13631831,-0.170322
 81,-0.00000092,-0.00133196,-0.00089805,0.00000004,0.00045311,0.0006779
 3,0.00000012,0.14623804,0.17766856,-0.00000010,-0.00000037,-0.00070065
 ,0.00000049,0.00000029,0.00025860,-0.00000002,-0.00000035,0.00862154,-
 0.00000007,-0.00000045,-0.00041092,0.00000029,0.00000013,-0.00078882,-
 0.00000026,0.00000018,0.00014298,-0.00000011,0.00000018,-0.00491261,-0
 .00000001,-0.00000005,0.00021256,0.00000087,0.00000125,0.00362073,0.00
 000042,-0.00000016,0.00507934,0.,0.00000003,0.00004474,-0.00000001,0.0
 0000001,-0.00000071,-0.00000107,-0.00000111,0.00278852,0.00000048,-0.0
 0000101,-0.03658750,-0.00000005,-0.00000003,0.00021634,0.00000004,0.00
 000011,-0.00280084,-0.00000104,0.00000128,0.02520392,-0.26480787,0.095
 13416,0.00001036,-0.05892041,0.01089711,0.00000678,0.00695120,-0.00680
 423,0.00000312,-0.00201675,0.00287717,-0.00000084,0.00004491,0.0005412
 0,0.00000130,-0.02154520,0.01105688,0.00000375,0.00009363,-0.00021033,
 0.00000006,0.00137421,0.00059807,-0.00000161,-0.00327078,0.00126708,-0
 .00000066,0.00061005,-0.00095929,-0.00000042,-0.00065843,0.00035083,-0
 .00000040,0.00389828,-0.00063174,-0.00000205,-0.00206786,0.00134027,0.
 00000051,0.00104091,-0.00046746,-0.00000062,-0.00015628,0.00036174,-0.
 00000002,-0.00017810,0.00006069,0.,-0.00038756,-0.00011852,0.00000012,
 0.57637422,0.04082981,-0.13630908,0.00001320,-0.02737440,0.01950399,-0
 .00000129,0.00057103,-0.00554586,-0.00000155,0.00421327,0.00232749,0.0
 0000011,-0.00874839,-0.00595419,-0.00000046,0.05084501,-0.01825645,-0.
 00000191,-0.00000062,0.00008845,-0.00000008,0.00045075,0.00120500,0.00
 000069,-0.00302783,0.00003440,-0.00000044,-0.00231984,0.00063776,0.000
 00021,0.00188036,-0.00069102,0.00000082,0.00024891,0.00244416,-0.00000
 026,0.00156602,0.00177535,-0.00000040,0.00105632,-0.00230861,0.0000003
 0,-0.00007962,-0.00008021,0.00000004,0.00009271,0.00005049,0.00000002,
 -0.00001803,0.00007747,0.00000011,0.13538478,0.44449635,0.00003589,-0.
 00000514,-0.03730093,0.00000126,-0.00000200,0.00727446,0.00000134,-0.0
 0000047,0.00630879,-0.00000052,-0.00000016,-0.00202630,0.00000098,0.00
 000019,0.00605543,0.00000137,0.00000263,0.00677613,0.,0.00000002,0.000
 05448,0.00000016,0.00000067,-0.00400302,-0.00000033,-0.00000032,-0.000
 03476,0.00000046,0.00000003,-0.00026367,0.00000027,0.00000002,0.000042
 96,-0.00000047,0.00000013,-0.00287670,-0.00000011,-0.00000006,0.000073
 86,0.00000013,-0.00000006,-0.00026358,-0.00000002,-0.00000002,-0.00001
 495,0.00000001,0.,0.00000376,0.00000002,0.,-0.00001872,-0.00015963,-0.
 00014655,0.02183175,-0.03361998,-0.03460312,0.00001348,-0.00480823,0.0
 0566348,0.00000221,-0.00024537,-0.00191573,-0.00000102,0.00085374,0.00
 014062,0.00000045,-0.00104404,-0.00049526,-0.00000101,0.00469576,-0.00
 169463,-0.00000068,0.00000377,0.00002823,0.,0.00026038,0.00011021,0.00
 000024,-0.00049776,0.00027075,-0.00000031,-0.00036717,0.00024965,0.000
 00009,0.00028646,-0.00016421,0.00000018,-0.00001261,0.00197651,0.00000
 072,0.00029994,0.00026767,-0.00000011,0.00012756,-0.00037739,0.0000001
 8,-0.00002701,-0.00002317,0.00000001,0.00004390,0.00000997,-0.00000002
 ,-0.00001282,0.00004116,0.00000003,-0.23637818,-0.19557022,0.00011917,
 0.27044164,0.01638989,0.01125392,-0.00000868,0.00377949,-0.00047482,0.
 00000019,-0.00017915,0.00061088,-0.00000004,-0.00008996,0.00007907,0.0
 0000029,-0.00019228,-0.00081359,0.00000005,0.00519605,0.00266086,-0.00
 000088,-0.00001494,-0.00002427,0.00000002,0.00033736,0.00025914,0.0000
 0010,0.00038818,-0.00002101,0.00000035,-0.00001735,-0.00007397,-0.0000
 0023,0.00003904,-0.00000878,0.00000011,-0.00096593,-0.00126712,0.00000
 010,0.00010946,-0.00017554,0.00000014,-0.00018855,0.00004438,-0.000000
 10,0.00001806,-0.00001118,0.,-0.00002423,-0.00001166,-0.00000002,0.000
 00782,0.00000077,-0.00000004,-0.25067844,-0.30349550,0.00015110,0.2260
 8548,0.29146842,-0.00000347,0.00000541,-0.00458486,-0.00000043,-0.0000
 0002,0.00212516,-0.00000173,-0.00000004,0.00175964,0.00000012,-0.00000
 025,0.00072129,0.00000007,0.00000041,-0.00089109,-0.00000134,0.0000001
 5,-0.00046538,0.,-0.00000001,0.00008281,0.00000009,0.00000027,-0.00082
 199,0.00000016,0.00000013,0.00008674,-0.00000005,0.00000006,-0.0002393
 5,-0.00000022,0.00000008,-0.00001312,0.00000028,-0.00000092,0.00068250
 ,0.00000017,-0.00000021,0.00005152,-0.00000029,-0.00000001,-0.00034388
 ,0.00000003,-0.00000002,0.00001739,0.,0.,0.00003342,0.,0.,0.00003153,0
 .00014025,0.00013743,-0.00161899,-0.00013363,-0.00014246,0.00338665\\-
 0.00012341,0.00011589,0.00002030,-0.00003467,0.00001898,0.00000688,0.0
 0004144,-0.00008678,-0.00001333,0.00002951,0.00008984,0.00000711,-0.00
 008261,-0.00000016,-0.00001368,0.00008347,-0.00009909,0.00000798,0.000
 00023,-0.00000429,-0.00000124,0.00000346,-0.00000608,-0.00000547,-0.00
 001739,0.00001583,0.,-0.00001734,-0.00001958,0.00000328,0.00001271,0.0
 0000101,-0.00000330,-0.00000948,0.00001311,-0.00000089,0.00001007,0.00
 000286,0.00000113,0.00000432,-0.00000064,0.00000290,0.00000094,0.00000
 449,0.00000083,-0.00000169,0.00000550,-0.00000217,-0.00000044,-0.00000
 363,0.00000009,0.00009388,-0.00006004,-0.00000722,0.00000702,0.0000128
 0,-0.00000319\\\@


 Everywhere is walking distance if you have the time.
                                    -- Steven Wright
 Job cpu time:       0 days  0 hours 56 minutes 26.5 seconds.
 Elapsed time:       0 days  0 hours  1 minutes 45.9 seconds.
 File lengths (MBytes):  RWF=    105 Int=      0 D2E=      0 Chk=      5 Scr=      1
 Normal termination of Gaussian 16 at Tue Sep 19 06:46:44 2023.
