 Entering Gaussian System, Link 0=g16
 Input=/home/ubuntu/ML substrates/MOLECULE_10.gjf
 Output=/home/ubuntu/ML substrates/MOLECULE_10.log
 Initial command:
 /home/ubuntu/g16/l1.exe "/home/ubuntu/Scratch/Gau-14956.inp" -scrdir="/home/ubuntu/Scratch/"
 Entering Link 1 = /home/ubuntu/g16/l1.exe PID=     14961.
  
 Copyright (c) 1988-2017, Gaussian, Inc.  All Rights Reserved.
  
 This is part of the Gaussian(R) 16 program.  It is based on
 the Gaussian(R) 09 system (copyright 2009, Gaussian, Inc.),
 the Gaussian(R) 03 system (copyright 2003, Gaussian, Inc.),
 the Gaussian(R) 98 system (copyright 1998, Gaussian, Inc.),
 the Gaussian(R) 94 system (copyright 1995, Gaussian, Inc.),
 the Gaussian 92(TM) system (copyright 1992, Gaussian, Inc.),
 the Gaussian 90(TM) system (copyright 1990, Gaussian, Inc.),
 the Gaussian 88(TM) system (copyright 1988, Gaussian, Inc.),
 the Gaussian 86(TM) system (copyright 1986, Carnegie Mellon
 University), and the Gaussian 82(TM) system (copyright 1983,
 Carnegie Mellon University). Gaussian is a federally registered
 trademark of Gaussian, Inc.
  
 This software contains proprietary and confidential information,
 including trade secrets, belonging to Gaussian, Inc.
  
 This software is provided under written license and may be
 used, copied, transmitted, or stored only in accord with that
 written license.
  
 The following legend is applicable only to US Government
 contracts under FAR:
  
                    RESTRICTED RIGHTS LEGEND
  
 Use, reproduction and disclosure by the US Government is
 subject to restrictions as set forth in subparagraphs (a)
 and (c) of the Commercial Computer Software - Restricted
 Rights clause in FAR 52.227-19.
  
 Gaussian, Inc.
 340 Quinnipiac St., Bldg. 40, Wallingford CT 06492
  
  
 ---------------------------------------------------------------
 Warning -- This program may not be used in any manner that
 competes with the business of Gaussian, Inc. or will provide
 assistance to any competitor of Gaussian, Inc.  The licensee
 of this program is prohibited from giving any competitor of
 Gaussian, Inc. access to this program.  By using this program,
 the user acknowledges that Gaussian, Inc. is engaged in the
 business of creating and licensing software in the field of
 computational chemistry and represents and warrants to the
 licensee that it is not a competitor of Gaussian, Inc. and that
 it will not use this program in any manner prohibited above.
 ---------------------------------------------------------------
  

 Cite this work as:
 Gaussian 16, Revision B.01,
 M. J. Frisch, G. W. Trucks, H. B. Schlegel, G. E. Scuseria, 
 M. A. Robb, J. R. Cheeseman, G. Scalmani, V. Barone, 
 G. A. Petersson, H. Nakatsuji, X. Li, M. Caricato, A. V. Marenich, 
 J. Bloino, B. G. Janesko, R. Gomperts, B. Mennucci, H. P. Hratchian, 
 J. V. Ortiz, A. F. Izmaylov, J. L. Sonnenberg, D. Williams-Young, 
 F. Ding, F. Lipparini, F. Egidi, J. Goings, B. Peng, A. Petrone, 
 T. Henderson, D. Ranasinghe, V. G. Zakrzewski, J. Gao, N. Rega, 
 G. Zheng, W. Liang, M. Hada, M. Ehara, K. Toyota, R. Fukuda, 
 J. Hasegawa, M. Ishida, T. Nakajima, Y. Honda, O. Kitao, H. Nakai, 
 T. Vreven, K. Throssell, J. A. Montgomery, Jr., J. E. Peralta, 
 F. Ogliaro, M. J. Bearpark, J. J. Heyd, E. N. Brothers, K. N. Kudin, 
 V. N. Staroverov, T. A. Keith, R. Kobayashi, J. Normand, 
 K. Raghavachari, A. P. Rendell, J. C. Burant, S. S. Iyengar, 
 J. Tomasi, M. Cossi, J. M. Millam, M. Klene, C. Adamo, R. Cammi, 
 J. W. Ochterski, R. L. Martin, K. Morokuma, O. Farkas, 
 J. B. Foresman, and D. J. Fox, Gaussian, Inc., Wallingford CT, 2016.
 
 ******************************************
 Gaussian 16:  EM64L-G16RevB.01 20-Dec-2017
                14-Sep-2023 
 ******************************************
 %nprocshared=30
 Will use up to   30 processors via shared memory.
 %mem=30GB
 %chk=MOLECULE_10.chk
 ----------------------------------------------------------------
 # opt freq b3lyp/6-31+g(d) nosymm empiricaldispersion=gd3 volume
 ----------------------------------------------------------------
 1/18=20,19=15,26=3,38=1/1,3;
 2/9=110,12=2,15=1,17=6,18=5,40=1/2;
 3/5=1,6=6,7=11,11=2,25=1,30=1,71=1,74=-5,124=31/1,2,3;
 4//1;
 5/5=2,38=5/2;
 6/7=2,8=2,9=2,10=2,28=1,44=1/1,4;
 7/30=1/1,2,3,16;
 1/18=20,19=15,26=3/3(2);
 2/9=110,15=1/2;
 99//99;
 2/9=110,15=1/2;
 3/5=1,6=6,7=11,11=2,25=1,30=1,71=1,74=-5,124=31/1,2,3;
 4/5=5,16=3,69=1/1;
 5/5=2,38=5/2;
 7/30=1/1,2,3,16;
 1/18=20,19=15,26=3/3(-5);
 2/9=110,15=1/2;
 6/7=2,8=2,9=2,10=2,19=2,28=1,44=1/1,4;
 99/9=1/99;
 -----------
 molecule_10
 -----------
 Symbolic Z-matrix:
 Charge =  0 Multiplicity = 1
 C                    -0.75503  -0.62304   0.23201 
 C                     0.64347  -0.64272   0.22412 
 C                     1.32129   0.54963  -0.02433 
 C                     0.65516   1.75042  -0.26359 
 C                    -0.74346   1.74825  -0.25258 
 C                    -1.47077   0.56711  -0.00547 
 H                    -1.30493  -1.53837   0.4237 
 H                     1.19441  -1.55761   0.4056 
 H                     1.21502   2.65837  -0.45251 
 H                    -1.28443   2.67039  -0.43692 
 C                    -5.14441   1.88089  -0.27196 
 C                    -5.15617  -0.70256   0.3072 
 C                    -5.9988    0.59435   0.02348 
 H                    -5.38334   2.65711   0.46132 
 H                    -5.41343  -1.47523  -0.42364 
 Cl                    3.1536    0.5381   -0.03684 
 B                    -3.02213   0.57654   0.00453 
 H                    -5.39371   2.26762  -1.26469 
 H                    -5.39773  -1.08724   1.30263 
 C                    -6.9078    0.32422  -1.20068 
 H                    -7.55876  -0.53975  -1.02123 
 H                    -7.54997   1.18832  -1.40929 
 H                    -6.3071    0.12033  -2.09532 
 C                    -6.8876    0.87543   1.26001 
 H                    -7.52953   1.74803   1.09 
 H                    -7.53821   0.01969   1.47673 
 H                    -6.27225   1.07068   2.14656 
 O                    -3.69335   1.75366  -0.25131 
 O                    -3.70406  -0.59254   0.26876 
 

 GradGradGradGradGradGradGradGradGradGradGradGradGradGradGradGradGradGrad
 Berny optimization.
 Initialization pass.
                           ----------------------------
                           !    Initial Parameters    !
                           ! (Angstroms and Degrees)  !
 --------------------------                            --------------------------
 ! Name  Definition              Value          Derivative Info.                !
 --------------------------------------------------------------------------------
 ! R1    R(1,2)                  1.3987         estimate D2E/DX2                !
 ! R2    R(1,6)                  1.409          estimate D2E/DX2                !
 ! R3    R(1,7)                  1.0849         estimate D2E/DX2                !
 ! R4    R(2,3)                  1.3939         estimate D2E/DX2                !
 ! R5    R(2,8)                  1.0833         estimate D2E/DX2                !
 ! R6    R(3,4)                  1.3939         estimate D2E/DX2                !
 ! R7    R(3,16)                 1.8324         estimate D2E/DX2                !
 ! R8    R(4,5)                  1.3987         estimate D2E/DX2                !
 ! R9    R(4,9)                  1.0833         estimate D2E/DX2                !
 ! R10   R(5,6)                  1.4089         estimate D2E/DX2                !
 ! R11   R(5,10)                 1.0849         estimate D2E/DX2                !
 ! R12   R(6,17)                 1.5514         estimate D2E/DX2                !
 ! R13   R(11,13)                1.5724         estimate D2E/DX2                !
 ! R14   R(11,14)                1.0942         estimate D2E/DX2                !
 ! R15   R(11,18)                1.0942         estimate D2E/DX2                !
 ! R16   R(11,28)                1.4568         estimate D2E/DX2                !
 ! R17   R(12,13)                1.5724         estimate D2E/DX2                !
 ! R18   R(12,15)                1.0942         estimate D2E/DX2                !
 ! R19   R(12,19)                1.0942         estimate D2E/DX2                !
 ! R20   R(12,29)                1.4568         estimate D2E/DX2                !
 ! R21   R(13,20)                1.5485         estimate D2E/DX2                !
 ! R22   R(13,24)                1.5485         estimate D2E/DX2                !
 ! R23   R(17,28)                1.379          estimate D2E/DX2                !
 ! R24   R(17,29)                1.379          estimate D2E/DX2                !
 ! R25   R(20,21)                1.0965         estimate D2E/DX2                !
 ! R26   R(20,22)                1.0966         estimate D2E/DX2                !
 ! R27   R(20,23)                1.0967         estimate D2E/DX2                !
 ! R28   R(24,25)                1.0965         estimate D2E/DX2                !
 ! R29   R(24,26)                1.0966         estimate D2E/DX2                !
 ! R30   R(24,27)                1.0967         estimate D2E/DX2                !
 ! A1    A(2,1,6)              121.2568         estimate D2E/DX2                !
 ! A2    A(2,1,7)              119.732          estimate D2E/DX2                !
 ! A3    A(6,1,7)              119.0112         estimate D2E/DX2                !
 ! A4    A(1,2,3)              118.3725         estimate D2E/DX2                !
 ! A5    A(1,2,8)              121.2966         estimate D2E/DX2                !
 ! A6    A(3,2,8)              120.3309         estimate D2E/DX2                !
 ! A7    A(2,3,4)              122.3526         estimate D2E/DX2                !
 ! A8    A(2,3,16)             118.8229         estimate D2E/DX2                !
 ! A9    A(4,3,16)             118.8245         estimate D2E/DX2                !
 ! A10   A(3,4,5)              118.3724         estimate D2E/DX2                !
 ! A11   A(3,4,9)              120.3311         estimate D2E/DX2                !
 ! A12   A(5,4,9)              121.2965         estimate D2E/DX2                !
 ! A13   A(4,5,6)              121.2564         estimate D2E/DX2                !
 ! A14   A(4,5,10)             119.7337         estimate D2E/DX2                !
 ! A15   A(6,5,10)             119.0099         estimate D2E/DX2                !
 ! A16   A(1,6,5)              118.3893         estimate D2E/DX2                !
 ! A17   A(1,6,17)             120.7988         estimate D2E/DX2                !
 ! A18   A(5,6,17)             120.8119         estimate D2E/DX2                !
 ! A19   A(13,11,14)           109.6255         estimate D2E/DX2                !
 ! A20   A(13,11,18)           109.6244         estimate D2E/DX2                !
 ! A21   A(13,11,28)           117.8472         estimate D2E/DX2                !
 ! A22   A(14,11,18)           107.9097         estimate D2E/DX2                !
 ! A23   A(14,11,28)           105.6615         estimate D2E/DX2                !
 ! A24   A(18,11,28)           105.7048         estimate D2E/DX2                !
 ! A25   A(13,12,15)           109.6276         estimate D2E/DX2                !
 ! A26   A(13,12,19)           109.6224         estimate D2E/DX2                !
 ! A27   A(13,12,29)           117.8476         estimate D2E/DX2                !
 ! A28   A(15,12,19)           107.9066         estimate D2E/DX2                !
 ! A29   A(15,12,29)           105.6676         estimate D2E/DX2                !
 ! A30   A(19,12,29)           105.701          estimate D2E/DX2                !
 ! A31   A(11,13,12)           114.6806         estimate D2E/DX2                !
 ! A32   A(11,13,20)           108.2502         estimate D2E/DX2                !
 ! A33   A(11,13,24)           108.2633         estimate D2E/DX2                !
 ! A34   A(12,13,20)           108.2607         estimate D2E/DX2                !
 ! A35   A(12,13,24)           108.2525         estimate D2E/DX2                !
 ! A36   A(20,13,24)           109.0263         estimate D2E/DX2                !
 ! A37   A(6,17,28)            119.3884         estimate D2E/DX2                !
 ! A38   A(6,17,29)            119.3786         estimate D2E/DX2                !
 ! A39   A(28,17,29)           121.2329         estimate D2E/DX2                !
 ! A40   A(13,20,21)           110.8893         estimate D2E/DX2                !
 ! A41   A(13,20,22)           110.8966         estimate D2E/DX2                !
 ! A42   A(13,20,23)           110.8422         estimate D2E/DX2                !
 ! A43   A(21,20,22)           107.7182         estimate D2E/DX2                !
 ! A44   A(21,20,23)           108.1904         estimate D2E/DX2                !
 ! A45   A(22,20,23)           108.1829         estimate D2E/DX2                !
 ! A46   A(13,24,25)           110.8944         estimate D2E/DX2                !
 ! A47   A(13,24,26)           110.8972         estimate D2E/DX2                !
 ! A48   A(13,24,27)           110.841          estimate D2E/DX2                !
 ! A49   A(25,24,26)           107.7163         estimate D2E/DX2                !
 ! A50   A(25,24,27)           108.1875         estimate D2E/DX2                !
 ! A51   A(26,24,27)           108.183          estimate D2E/DX2                !
 ! A52   A(11,28,17)           124.1959         estimate D2E/DX2                !
 ! A53   A(12,29,17)           124.1949         estimate D2E/DX2                !
 ! D1    D(6,1,2,3)              0.0616         estimate D2E/DX2                !
 ! D2    D(6,1,2,8)           -179.9346         estimate D2E/DX2                !
 ! D3    D(7,1,2,3)           -179.9578         estimate D2E/DX2                !
 ! D4    D(7,1,2,8)              0.046          estimate D2E/DX2                !
 ! D5    D(2,1,6,5)             -0.0375         estimate D2E/DX2                !
 ! D6    D(2,1,6,17)           179.946          estimate D2E/DX2                !
 ! D7    D(7,1,6,5)            179.9818         estimate D2E/DX2                !
 ! D8    D(7,1,6,17)            -0.0347         estimate D2E/DX2                !
 ! D9    D(1,2,3,4)             -0.0242         estimate D2E/DX2                !
 ! D10   D(1,2,3,16)           179.9746         estimate D2E/DX2                !
 ! D11   D(8,2,3,4)            179.972          estimate D2E/DX2                !
 ! D12   D(8,2,3,16)            -0.0292         estimate D2E/DX2                !
 ! D13   D(2,3,4,5)             -0.0362         estimate D2E/DX2                !
 ! D14   D(2,3,4,9)            179.9622         estimate D2E/DX2                !
 ! D15   D(16,3,4,5)           179.965          estimate D2E/DX2                !
 ! D16   D(16,3,4,9)            -0.0366         estimate D2E/DX2                !
 ! D17   D(3,4,5,6)              0.0611         estimate D2E/DX2                !
 ! D18   D(3,4,5,10)          -179.9502         estimate D2E/DX2                !
 ! D19   D(9,4,5,6)           -179.9373         estimate D2E/DX2                !
 ! D20   D(9,4,5,10)             0.0514         estimate D2E/DX2                !
 ! D21   D(4,5,6,1)             -0.0252         estimate D2E/DX2                !
 ! D22   D(4,5,6,17)           179.9913         estimate D2E/DX2                !
 ! D23   D(10,5,6,1)           179.986          estimate D2E/DX2                !
 ! D24   D(10,5,6,17)            0.0025         estimate D2E/DX2                !
 ! D25   D(1,6,17,28)         -179.0343         estimate D2E/DX2                !
 ! D26   D(1,6,17,29)            0.9488         estimate D2E/DX2                !
 ! D27   D(5,6,17,28)            0.9488         estimate D2E/DX2                !
 ! D28   D(5,6,17,29)         -179.0681         estimate D2E/DX2                !
 ! D29   D(14,11,13,12)       -121.0112         estimate D2E/DX2                !
 ! D30   D(14,11,13,20)        118.0152         estimate D2E/DX2                !
 ! D31   D(14,11,13,24)         -0.0386         estimate D2E/DX2                !
 ! D32   D(18,11,13,12)        120.71           estimate D2E/DX2                !
 ! D33   D(18,11,13,20)         -0.2635         estimate D2E/DX2                !
 ! D34   D(18,11,13,24)       -118.3173         estimate D2E/DX2                !
 ! D35   D(28,11,13,12)         -0.1793         estimate D2E/DX2                !
 ! D36   D(28,11,13,20)       -121.1529         estimate D2E/DX2                !
 ! D37   D(28,11,13,24)        120.7934         estimate D2E/DX2                !
 ! D38   D(13,11,28,17)          0.3121         estimate D2E/DX2                !
 ! D39   D(14,11,28,17)        123.1743         estimate D2E/DX2                !
 ! D40   D(18,11,28,17)       -122.5837         estimate D2E/DX2                !
 ! D41   D(15,12,13,11)       -120.9192         estimate D2E/DX2                !
 ! D42   D(15,12,13,20)          0.0486         estimate D2E/DX2                !
 ! D43   D(15,12,13,24)        118.1023         estimate D2E/DX2                !
 ! D44   D(19,12,13,11)        120.8058         estimate D2E/DX2                !
 ! D45   D(19,12,13,20)       -118.2264         estimate D2E/DX2                !
 ! D46   D(19,12,13,24)         -0.1728         estimate D2E/DX2                !
 ! D47   D(29,12,13,11)         -0.0771         estimate D2E/DX2                !
 ! D48   D(29,12,13,20)        120.8908         estimate D2E/DX2                !
 ! D49   D(29,12,13,24)       -121.0556         estimate D2E/DX2                !
 ! D50   D(13,12,29,17)          0.2512         estimate D2E/DX2                !
 ! D51   D(15,12,29,17)        123.1213         estimate D2E/DX2                !
 ! D52   D(19,12,29,17)       -122.6392         estimate D2E/DX2                !
 ! D53   D(11,13,20,21)       -177.3393         estimate D2E/DX2                !
 ! D54   D(11,13,20,22)        -57.7096         estimate D2E/DX2                !
 ! D55   D(11,13,20,23)         62.4732         estimate D2E/DX2                !
 ! D56   D(12,13,20,21)         57.7851         estimate D2E/DX2                !
 ! D57   D(12,13,20,22)        177.4148         estimate D2E/DX2                !
 ! D58   D(12,13,20,23)        -62.4025         estimate D2E/DX2                !
 ! D59   D(24,13,20,21)        -59.7736         estimate D2E/DX2                !
 ! D60   D(24,13,20,22)         59.8561         estimate D2E/DX2                !
 ! D61   D(24,13,20,23)       -179.9612         estimate D2E/DX2                !
 ! D62   D(11,13,24,25)         57.7122         estimate D2E/DX2                !
 ! D63   D(11,13,24,26)        177.3432         estimate D2E/DX2                !
 ! D64   D(11,13,24,27)        -62.4742         estimate D2E/DX2                !
 ! D65   D(12,13,24,25)       -177.4091         estimate D2E/DX2                !
 ! D66   D(12,13,24,26)        -57.7781         estimate D2E/DX2                !
 ! D67   D(12,13,24,27)         62.4045         estimate D2E/DX2                !
 ! D68   D(20,13,24,25)        -59.8452         estimate D2E/DX2                !
 ! D69   D(20,13,24,26)         59.7858         estimate D2E/DX2                !
 ! D70   D(20,13,24,27)        179.9684         estimate D2E/DX2                !
 ! D71   D(6,17,28,11)         179.8262         estimate D2E/DX2                !
 ! D72   D(29,17,28,11)         -0.1566         estimate D2E/DX2                !
 ! D73   D(6,17,29,12)         179.8719         estimate D2E/DX2                !
 ! D74   D(28,17,29,12)         -0.1453         estimate D2E/DX2                !
 --------------------------------------------------------------------------------
 Trust Radius=3.00D-01 FncErr=1.00D-07 GrdErr=1.00D-06 EigMax=2.50D+02 EigMin=1.00D-04
 Number of steps in this run=    167 maximum allowed number of steps=    174.
 GradGradGradGradGradGradGradGradGradGradGradGradGradGradGradGradGradGrad

                          Input orientation:                          
 ---------------------------------------------------------------------
 Center     Atomic      Atomic             Coordinates (Angstroms)
 Number     Number       Type             X           Y           Z
 ---------------------------------------------------------------------
      1          6           0       -0.755029   -0.623039    0.232007
      2          6           0        0.643468   -0.642720    0.224123
      3          6           0        1.321293    0.549629   -0.024332
      4          6           0        0.655163    1.750419   -0.263587
      5          6           0       -0.743463    1.748254   -0.252575
      6          6           0       -1.470772    0.567111   -0.005474
      7          1           0       -1.304931   -1.538367    0.423697
      8          1           0        1.194411   -1.557612    0.405595
      9          1           0        1.215018    2.658368   -0.452506
     10          1           0       -1.284428    2.670393   -0.436922
     11          6           0       -5.144409    1.880886   -0.271955
     12          6           0       -5.156168   -0.702556    0.307202
     13          6           0       -5.998800    0.594345    0.023478
     14          1           0       -5.383336    2.657114    0.461315
     15          1           0       -5.413430   -1.475233   -0.423637
     16         17           0        3.153600    0.538101   -0.036836
     17          5           0       -3.022127    0.576542    0.004527
     18          1           0       -5.393714    2.267621   -1.264687
     19          1           0       -5.397728   -1.087236    1.302632
     20          6           0       -6.907797    0.324215   -1.200681
     21          1           0       -7.558762   -0.539751   -1.021234
     22          1           0       -7.549966    1.188315   -1.409289
     23          1           0       -6.307105    0.120329   -2.095319
     24          6           0       -6.887600    0.875429    1.260005
     25          1           0       -7.529527    1.748025    1.089997
     26          1           0       -7.538212    0.019685    1.476733
     27          1           0       -6.272254    1.070676    2.146556
     28          8           0       -3.693354    1.753661   -0.251305
     29          8           0       -3.704061   -0.592544    0.268762
 ---------------------------------------------------------------------
                    Distance matrix (angstroms):
                    1          2          3          4          5
     1  C    0.000000
     2  C    1.398658   0.000000
     3  C    2.398327   1.393870   0.000000
     4  C    2.804917   2.442358   1.393868   0.000000
     5  C    2.420327   2.804920   2.398336   1.398671   0.000000
     6  C    1.408951   2.446715   2.792183   2.446720   1.408949
     7  H    1.084879   2.153665   3.384894   3.889787   3.402127
     8  H    2.168842   1.083281   2.154391   3.417845   3.888096
     9  H    3.888094   3.417847   2.154393   1.083282   2.168854
    10  H    3.402120   3.889792   3.384915   2.153697   1.084881
    11  C    5.078413   6.333577   6.605972   5.801045   4.402987
    12  C    4.402499   5.800540   6.605708   6.333597   5.078561
    13  C    5.387267   6.759461   7.320386   6.759744   5.387604
    14  H    5.677430   6.875139   7.044813   6.149069   4.781641
    15  H    4.780879   6.148063   7.043863   6.874465   5.677035
    16  Cl   4.086307   2.786252   1.832386   2.786273   4.086333
    17  B    2.574971   3.869290   4.343599   3.869410   2.575135
    18  H    5.666869   6.865436   7.041399   6.152935   4.787374
    19  H    4.787105   6.152790   7.041690   6.866063   5.667526
    20  C    6.387992   7.745104   8.315800   7.753100   6.397328
    21  H    6.918694   8.296873   9.001996   8.560810   7.230083
    22  H    7.221220   8.552958   9.001403   8.303778   6.926760
    23  H    6.065854   7.366989   7.916170   7.381437   6.082759
    24  C    6.396141   7.752084   8.315142   7.744689   6.387499
    25  H    7.228549   8.559395   9.000828   8.295863   6.917598
    26  H    6.926327   8.303475   9.001381   8.553102   7.221293
    27  H    6.080620   7.379613   7.914935   7.366135   6.064855
    28  O    3.809993   4.977620   5.162160   4.348536   2.949896
    29  O    2.949419   4.348048   5.161845   4.977520   3.810022
                    6          7          8          9         10
     6  C    0.000000
     7  H    2.155163   0.000000
     8  H    3.433166   2.499482   0.000000
     9  H    3.433171   4.972973   4.302470   0.000000
    10  H    2.155149   4.295899   4.972977   2.499524   0.000000
    11  C    3.910579   5.188142   7.243133   6.409320   3.943347
    12  C    3.910494   3.942610   6.408639   7.243271   5.188533
    13  C    4.528202   5.171174   7.517926   7.518372   5.171774
    14  H    4.460287   5.851228   7.812412   6.661332   4.196195
    15  H    4.459886   4.195441   6.660178   7.811774   5.851072
    16  Cl   4.624569   4.939869   2.902788   2.902829   4.939922
    17  B    1.551416   2.756321   4.742854   4.743024   2.756572
    18  H    4.457222   5.835609   7.799079   6.669907   4.211134
    19  H    4.457464   4.210348   6.669500   7.799902   5.836528
    20  C    5.572141   6.123718   8.471551   8.484584   6.140860
    21  H    6.270609   6.495803   8.926921   9.355781   7.072037
    22  H    6.270023   7.056564   9.343342   8.938760   6.511453
    23  H    5.287455   5.841101   8.083489   8.106961   5.872001
    24  C    5.571223   6.139382   8.483431   8.471363   6.123479
    25  H    6.269221   7.070355   9.354290   8.926091   6.494883
    26  H    6.269804   6.510776   8.938339   9.343642   7.056780
    27  H    5.285739   5.869382   8.104932   8.083015   5.840536
    28  O    2.531443   4.122819   5.940227   4.995107   2.584139
    29  O    2.531321   2.583488   4.994508   5.940202   4.123029
                   11         12         13         14         15
    11  C    0.000000
    12  C    2.647590   0.000000
    13  C    1.572403   1.572412   0.000000
    14  H    1.094212   3.370866   2.196705   0.000000
    15  H    3.370299   1.094230   2.196753   4.226149   0.000000
    16  Cl   8.409239   8.408914   9.152772   8.810088   8.808923
    17  B    2.506359   2.506359   2.976787   3.180054   3.179848
    18  H    1.094182   3.368860   2.196668   1.769434   3.836236
    19  H    3.369457   1.094171   2.196642   3.837731   1.769405
    20  C    2.528892   2.529066   1.548487   3.244785   2.464740
    21  H    3.500000   2.750219   2.193417   4.141301   2.415512
    22  H    2.749525   3.500286   2.193567   3.217268   3.553981
    23  H    2.788562   2.788172   2.192953   3.718199   2.477699
    24  C    2.529142   2.528977   1.548539   2.464775   3.245526
    25  H    2.749791   3.500135   2.193528   2.414088   4.142263
    26  H    3.500325   2.750194   2.193621   3.553955   3.218833
    27  H    2.788847   2.788050   2.192973   2.479314   3.718215
    28  O    1.456768   2.912861   2.595111   2.044528   3.662529
    29  O    2.912874   1.456776   2.595129   3.662966   2.044627
                   16         17         18         19         20
    16  Cl   0.000000
    17  B    6.175985   0.000000
    18  H    8.806556   3.177275   0.000000
    19  H    8.806878   3.177533   4.224477   0.000000
    20  C   10.130745   4.076104   2.464421   3.246395   0.000000
    21  H   10.811360   4.783237   3.553595   3.220273   1.096537
    22  H   10.810769   4.782726   2.415623   4.143039   1.096616
    23  H    9.691069   3.925374   2.476913   3.719039   1.096712
    24  C   10.130216   4.075223   3.247147   2.464465   2.521749
    25  H   10.810313   4.781974   3.221213   3.553658   2.767849
    26  H   10.810851   4.782521   4.143365   2.416042   2.767437
    27  H    9.690075   3.923746   3.720361   2.476608   3.487852
    28  O    6.957324   1.378987   2.045073   3.659277   3.643799
    29  O    6.956958   1.378991   3.658816   2.045022   3.641927
                   21         22         23         24         25
    21  H    0.000000
    22  H    1.771123   0.000000
    23  H    1.776516   1.776495   0.000000
    24  C    2.767173   2.767988   3.487886   0.000000
    25  H    3.113209   2.561274   3.780205   1.096539   0.000000
    26  H    2.559928   3.113673   3.779591   1.096615   1.771101
    27  H    3.779348   3.780267   4.347169   1.096697   1.776472
    28  O    4.560034   4.066202   3.591637   3.641230   4.063908
    29  O    4.065169   4.558322   3.587883   3.643134   4.559263
                   26         27         28         29
    26  H    0.000000
    27  H    1.776484   0.000000
    28  O    4.558039   3.587050   0.000000
    29  O    4.066292   3.589990   2.403178   0.000000
 Symmetry turned off by external request.
 Stoichiometry    C11H14BClO2
 Framework group  C1[X(C11H14BClO2)]
 Deg. of freedom    81
 Full point group                 C1      NOp   1
 Rotational constants (GHZ):           1.9955531           0.1896721           0.1803097
 Standard basis: 6-31+G(d) (6D, 7F)
   317 basis functions,   560 primitive gaussians,   317 cartesian basis functions
    59 alpha electrons       59 beta electrons
       nuclear repulsion energy      1015.4200169534 Hartrees.
 NAtoms=   29 NActive=   29 NUniq=   29 SFac= 1.00D+00 NAtFMM=   60 NAOKFM=F Big=F
 Integral buffers will be    131072 words long.
 Raffenetti 2 integral format.
 Two-electron integral symmetry is turned off.
 Nuclear repulsion after empirical dispersion term =     1015.3930605153 Hartrees.
 One-electron integrals computed using PRISM.
 NBasis=   317 RedAO= T EigKep=  2.31D-06  NBF=   317
 NBsUse=   317 1.00D-06 EigRej= -1.00D+00 NBFU=   317
 ExpMin= 3.15D-02 ExpMax= 2.52D+04 ExpMxC= 3.78D+03 IAcc=3 IRadAn=         5 AccDes= 0.00D+00
 Harris functional with IExCor=  402 and IRadAn=       5 diagonalized for initial guess.
 HarFok:  IExCor=  402 AccDes= 0.00D+00 IRadAn=         5 IDoV= 1 UseB2=F ITyADJ=14
 ICtDFT=  3500011 ScaDFX=  1.000000  1.000000  1.000000  1.000000
 FoFCou: FMM=F IPFlag=           0 FMFlag=      100000 FMFlg1=           0
         NFxFlg=           0 DoJE=T BraDBF=F KetDBF=T FulRan=T
         wScrn=  0.000000 ICntrl=       500 IOpCl=  0 I1Cent=   200000004 NGrid=           0
         NMat0=    1 NMatS0=      1 NMatT0=    0 NMatD0=    1 NMtDS0=    0 NMtDT0=    0
 Symmetry not used in FoFCou.
 Requested convergence on RMS density matrix=1.00D-08 within 128 cycles.
 Requested convergence on MAX density matrix=1.00D-06.
 Requested convergence on             energy=1.00D-06.
 No special actions if energy rises.
 SCF Done:  E(RB3LYP) =  -1063.24647149     A.U. after   13 cycles
            NFock= 13  Conv=0.95D-08     -V/T= 2.0071

 **********************************************************************

            Population analysis using the SCF Density.

 **********************************************************************

 Alpha  occ. eigenvalues -- -101.54737 -19.16851 -19.16851 -10.26093 -10.25609
 Alpha  occ. eigenvalues --  -10.25609 -10.22970 -10.20622 -10.20622 -10.20318
 Alpha  occ. eigenvalues --  -10.20317 -10.19864 -10.19863 -10.18139  -9.46161
 Alpha  occ. eigenvalues --   -7.22571  -7.21603  -7.21580  -6.79059  -1.04541
 Alpha  occ. eigenvalues --   -1.00872  -0.88070  -0.83592  -0.82528  -0.75830
 Alpha  occ. eigenvalues --   -0.73672  -0.70897  -0.70448  -0.69489  -0.61828
 Alpha  occ. eigenvalues --   -0.60414  -0.58684  -0.52630  -0.52142  -0.49265
 Alpha  occ. eigenvalues --   -0.47971  -0.47565  -0.46639  -0.46224  -0.46090
 Alpha  occ. eigenvalues --   -0.43505  -0.42775  -0.42598  -0.41169  -0.40340
 Alpha  occ. eigenvalues --   -0.39829  -0.39077  -0.39039  -0.36731  -0.35742
 Alpha  occ. eigenvalues --   -0.34716  -0.33548  -0.32636  -0.31839  -0.31085
 Alpha  occ. eigenvalues --   -0.30343  -0.29460  -0.26310  -0.24903
 Alpha virt. eigenvalues --   -0.03888  -0.01939  -0.01212  -0.00254   0.00812
 Alpha virt. eigenvalues --    0.01176   0.01606   0.02259   0.03144   0.03729
 Alpha virt. eigenvalues --    0.03936   0.04959   0.05190   0.05204   0.05237
 Alpha virt. eigenvalues --    0.05928   0.06047   0.06888   0.07183   0.07718
 Alpha virt. eigenvalues --    0.07777   0.08656   0.08925   0.09403   0.09757
 Alpha virt. eigenvalues --    0.10047   0.10759   0.11035   0.12064   0.12329
 Alpha virt. eigenvalues --    0.13007   0.13467   0.13923   0.14185   0.15283
 Alpha virt. eigenvalues --    0.15594   0.15930   0.16031   0.16046   0.16377
 Alpha virt. eigenvalues --    0.16579   0.17181   0.17417   0.17473   0.18844
 Alpha virt. eigenvalues --    0.19088   0.19606   0.20006   0.20357   0.20446
 Alpha virt. eigenvalues --    0.20855   0.20907   0.21043   0.21566   0.21627
 Alpha virt. eigenvalues --    0.23020   0.23692   0.23721   0.25079   0.25343
 Alpha virt. eigenvalues --    0.25581   0.25697   0.25699   0.26598   0.27356
 Alpha virt. eigenvalues --    0.27816   0.27926   0.29534   0.29911   0.30110
 Alpha virt. eigenvalues --    0.30443   0.30920   0.31407   0.32668   0.32747
 Alpha virt. eigenvalues --    0.33197   0.33304   0.34039   0.35047   0.35506
 Alpha virt. eigenvalues --    0.36442   0.37390   0.38073   0.38316   0.40059
 Alpha virt. eigenvalues --    0.41513   0.45259   0.46822   0.47581   0.48437
 Alpha virt. eigenvalues --    0.49620   0.51119   0.55833   0.58814   0.59697
 Alpha virt. eigenvalues --    0.62732   0.63849   0.64694   0.64943   0.65752
 Alpha virt. eigenvalues --    0.67555   0.67778   0.67898   0.68211   0.69148
 Alpha virt. eigenvalues --    0.69291   0.71277   0.71472   0.71848   0.71973
 Alpha virt. eigenvalues --    0.74152   0.74778   0.75478   0.76659   0.77555
 Alpha virt. eigenvalues --    0.78969   0.79395   0.80108   0.81512   0.82923
 Alpha virt. eigenvalues --    0.83631   0.84262   0.85774   0.86491   0.88004
 Alpha virt. eigenvalues --    0.89866   0.90556   0.91227   0.93480   0.94050
 Alpha virt. eigenvalues --    0.94349   0.95959   0.96388   0.97432   0.99174
 Alpha virt. eigenvalues --    0.99255   0.99490   1.00584   1.01321   1.03443
 Alpha virt. eigenvalues --    1.03913   1.05592   1.05949   1.08239   1.08469
 Alpha virt. eigenvalues --    1.10056   1.10320   1.10968   1.14960   1.15992
 Alpha virt. eigenvalues --    1.16761   1.17228   1.18228   1.18601   1.21715
 Alpha virt. eigenvalues --    1.23000   1.25528   1.26273   1.31715   1.32101
 Alpha virt. eigenvalues --    1.35148   1.36711   1.38430   1.39792   1.40235
 Alpha virt. eigenvalues --    1.41977   1.43547   1.43975   1.45677   1.45841
 Alpha virt. eigenvalues --    1.49341   1.49412   1.50287   1.52716   1.52725
 Alpha virt. eigenvalues --    1.54252   1.54971   1.58334   1.64989   1.67600
 Alpha virt. eigenvalues --    1.68209   1.69083   1.69610   1.73360   1.77762
 Alpha virt. eigenvalues --    1.79545   1.82553   1.87050   1.87301   1.88626
 Alpha virt. eigenvalues --    1.89105   1.91617   1.94434   1.97619   1.97887
 Alpha virt. eigenvalues --    1.98947   2.01093   2.02491   2.04749   2.06463
 Alpha virt. eigenvalues --    2.09445   2.09780   2.11073   2.11786   2.14533
 Alpha virt. eigenvalues --    2.16456   2.17738   2.17919   2.21696   2.23590
 Alpha virt. eigenvalues --    2.23839   2.24816   2.25863   2.26643   2.27503
 Alpha virt. eigenvalues --    2.28329   2.29925   2.31209   2.31982   2.36307
 Alpha virt. eigenvalues --    2.39469   2.41367   2.44564   2.48075   2.57338
 Alpha virt. eigenvalues --    2.57556   2.62864   2.64519   2.64993   2.67188
 Alpha virt. eigenvalues --    2.71769   2.73754   2.76443   2.77753   2.80436
 Alpha virt. eigenvalues --    2.81444   2.88736   2.92871   2.97225   2.98077
 Alpha virt. eigenvalues --    3.18594   3.20490   3.37591   3.79238   4.21507
 Alpha virt. eigenvalues --    4.22503   4.24658   4.26853   4.33834   4.34077
 Alpha virt. eigenvalues --    4.37627   4.39525   4.45502   4.48037   4.60327
 Alpha virt. eigenvalues --    4.62080   4.72571   4.81863
          Condensed to atoms (all electrons):
               1          2          3          4          5          6
     1  C   11.811746  -2.454201   0.353166   1.208729  -4.219497  -0.907940
     2  C   -2.454201   8.983930   0.121145  -1.460109   1.208921  -0.254194
     3  C    0.353166   0.121145   5.967318   0.120711   0.353711  -1.255332
     4  C    1.208729  -1.460109   0.120711   8.980895  -2.451887  -0.252854
     5  C   -4.219497   1.208921   0.353711  -2.451887  11.810664  -0.909455
     6  C   -0.907940  -0.254194  -1.255332  -0.252854  -0.909455   9.923679
     7  H    0.251816  -0.059727   0.007988  -0.022551   0.059054   0.038785
     8  H   -0.017829   0.249481   0.019787   0.060851  -0.033969   0.018640
     9  H   -0.033962   0.060851   0.019778   0.249564  -0.017923   0.018660
    10  H    0.059071  -0.022564   0.007993  -0.059788   0.251850   0.038796
    11  C    0.010051   0.006761  -0.012926  -0.007463  -0.081458   0.023549
    12  C   -0.081568  -0.007546  -0.012927   0.006822   0.010145   0.023588
    13  C    0.009753  -0.008224   0.012238  -0.008291   0.009557   0.058902
    14  H   -0.001545   0.000051  -0.000017   0.000047   0.003547  -0.005058
    15  H    0.003525   0.000049  -0.000018   0.000051  -0.001529  -0.005049
    16  Cl   0.057196  -0.089861   0.001013  -0.089962   0.057271  -0.098103
    17  B   -0.028030   0.022265   0.016627   0.022267  -0.027768   0.443158
    18  H   -0.001304   0.000029  -0.000001  -0.000103   0.003360  -0.004705
    19  H    0.003379  -0.000107  -0.000001   0.000029  -0.001318  -0.004715
    20  C    0.010838   0.001622   0.001669   0.001426   0.008055  -0.008822
    21  H    0.000593   0.000013   0.000000  -0.000001  -0.000451  -0.000405
    22  H   -0.000491  -0.000002  -0.000001   0.000014   0.000621  -0.000393
    23  H    0.000395   0.000030   0.000018   0.000042   0.000495  -0.000145
    24  C    0.008094   0.001434   0.001671   0.001598   0.010775  -0.008727
    25  H   -0.000451  -0.000001   0.000000   0.000013   0.000592  -0.000403
    26  H    0.000620   0.000014  -0.000001  -0.000003  -0.000491  -0.000392
    27  H    0.000498   0.000042   0.000018   0.000030   0.000394  -0.000144
    28  O   -0.032389   0.068689  -0.002007  -0.016591   0.020859  -0.080000
    29  O    0.020879  -0.016605  -0.002012   0.068662  -0.032415  -0.079882
               7          8          9         10         11         12
     1  C    0.251816  -0.017829  -0.033962   0.059071   0.010051  -0.081568
     2  C   -0.059727   0.249481   0.060851  -0.022564   0.006761  -0.007546
     3  C    0.007988   0.019787   0.019778   0.007993  -0.012926  -0.012927
     4  C   -0.022551   0.060851   0.249564  -0.059788  -0.007463   0.006822
     5  C    0.059054  -0.033969  -0.017923   0.251850  -0.081458   0.010145
     6  C    0.038785   0.018640   0.018660   0.038796   0.023549   0.023588
     7  H    0.522246  -0.004463   0.000014  -0.000142   0.001458  -0.000518
     8  H   -0.004463   0.508213  -0.000153   0.000014   0.000009   0.000168
     9  H    0.000014  -0.000153   0.508206  -0.004462   0.000167   0.000009
    10  H   -0.000142   0.000014  -0.004462   0.522262  -0.000521   0.001456
    11  C    0.001458   0.000009   0.000167  -0.000521   6.205076   0.237038
    12  C   -0.000518   0.000168   0.000009   0.001456   0.237038   6.205265
    13  C   -0.001615  -0.000015  -0.000015  -0.001612  -0.568783  -0.569365
    14  H    0.000000   0.000000   0.000000   0.000000   0.470562   0.006205
    15  H    0.000000   0.000000   0.000000   0.000000   0.006079   0.470496
    16  Cl   0.000814  -0.001658  -0.001657   0.000814  -0.000204  -0.000204
    17  B   -0.005307   0.000391   0.000390  -0.005295  -0.108286  -0.108360
    18  H    0.000000   0.000000   0.000000  -0.000001   0.469060   0.005404
    19  H   -0.000001   0.000000   0.000000   0.000000   0.005536   0.469124
    20  C   -0.000124  -0.000001  -0.000001  -0.000127  -0.130907  -0.128725
    21  H    0.000000   0.000000   0.000000   0.000000   0.022399  -0.016760
    22  H    0.000000   0.000000   0.000000   0.000000  -0.016437   0.022297
    23  H    0.000000   0.000000   0.000000   0.000000  -0.037204  -0.037416
    24  C   -0.000128  -0.000001  -0.000001  -0.000125  -0.128307  -0.130145
    25  H    0.000000   0.000000   0.000000   0.000000  -0.016845   0.022349
    26  H    0.000000   0.000000   0.000000   0.000000   0.022290  -0.016487
    27  H    0.000000   0.000000   0.000000   0.000000  -0.037405  -0.037145
    28  O    0.001336   0.000032   0.000262   0.006418   0.022790   0.049528
    29  O    0.006421   0.000262   0.000032   0.001336   0.049672   0.022797
              13         14         15         16         17         18
     1  C    0.009753  -0.001545   0.003525   0.057196  -0.028030  -0.001304
     2  C   -0.008224   0.000051   0.000049  -0.089861   0.022265   0.000029
     3  C    0.012238  -0.000017  -0.000018   0.001013   0.016627  -0.000001
     4  C   -0.008291   0.000047   0.000051  -0.089962   0.022267  -0.000103
     5  C    0.009557   0.003547  -0.001529   0.057271  -0.027768   0.003360
     6  C    0.058902  -0.005058  -0.005049  -0.098103   0.443158  -0.004705
     7  H   -0.001615   0.000000   0.000000   0.000814  -0.005307   0.000000
     8  H   -0.000015   0.000000   0.000000  -0.001658   0.000391   0.000000
     9  H   -0.000015   0.000000   0.000000  -0.001657   0.000390   0.000000
    10  H   -0.001612   0.000000   0.000000   0.000814  -0.005295  -0.000001
    11  C   -0.568783   0.470562   0.006079  -0.000204  -0.108286   0.469060
    12  C   -0.569365   0.006205   0.470496  -0.000204  -0.108360   0.005404
    13  C    7.095777  -0.130903  -0.130900   0.000232   0.188413  -0.129918
    14  H   -0.130903   0.546829  -0.000104   0.000000  -0.007597  -0.044695
    15  H   -0.130900  -0.000104   0.546833   0.000000  -0.007598  -0.000012
    16  Cl   0.000232   0.000000   0.000000  17.008855   0.000261   0.000000
    17  B    0.188413  -0.007597  -0.007598   0.000261   3.427619  -0.007724
    18  H   -0.129918  -0.044695  -0.000012   0.000000  -0.007724   0.546682
    19  H   -0.129899  -0.000013  -0.044698   0.000000  -0.007721  -0.000104
    20  C    0.076926  -0.028349   0.042622   0.000043  -0.070382   0.043439
    21  H   -0.052026  -0.000219   0.000056   0.000000  -0.000867   0.000467
    22  H   -0.052148   0.000639   0.000468   0.000000  -0.000932   0.000028
    23  H   -0.032724   0.000050   0.000680   0.000000  -0.004612   0.000686
    24  C    0.076624   0.042558  -0.028259   0.000043  -0.070388  -0.028268
    25  H   -0.051994   0.000065  -0.000218   0.000000  -0.000864   0.000633
    26  H   -0.052050   0.000468   0.000636   0.000000  -0.000933  -0.000218
    27  H   -0.032830   0.000674   0.000050   0.000000  -0.004640   0.000048
    28  O   -0.006690  -0.058839  -0.000462  -0.000077   0.141741  -0.058569
    29  O   -0.006864  -0.000472  -0.058820  -0.000077   0.141752  -0.000419
              19         20         21         22         23         24
     1  C    0.003379   0.010838   0.000593  -0.000491   0.000395   0.008094
     2  C   -0.000107   0.001622   0.000013  -0.000002   0.000030   0.001434
     3  C   -0.000001   0.001669   0.000000  -0.000001   0.000018   0.001671
     4  C    0.000029   0.001426  -0.000001   0.000014   0.000042   0.001598
     5  C   -0.001318   0.008055  -0.000451   0.000621   0.000495   0.010775
     6  C   -0.004715  -0.008822  -0.000405  -0.000393  -0.000145  -0.008727
     7  H   -0.000001  -0.000124   0.000000   0.000000   0.000000  -0.000128
     8  H    0.000000  -0.000001   0.000000   0.000000   0.000000  -0.000001
     9  H    0.000000  -0.000001   0.000000   0.000000   0.000000  -0.000001
    10  H    0.000000  -0.000127   0.000000   0.000000   0.000000  -0.000125
    11  C    0.005536  -0.130907   0.022399  -0.016437  -0.037204  -0.128307
    12  C    0.469124  -0.128725  -0.016760   0.022297  -0.037416  -0.130145
    13  C   -0.129899   0.076926  -0.052026  -0.052148  -0.032724   0.076624
    14  H   -0.000013  -0.028349  -0.000219   0.000639   0.000050   0.042558
    15  H   -0.044698   0.042622   0.000056   0.000468   0.000680  -0.028259
    16  Cl   0.000000   0.000043   0.000000   0.000000   0.000000   0.000043
    17  B   -0.007721  -0.070382  -0.000867  -0.000932  -0.004612  -0.070388
    18  H   -0.000104   0.043439   0.000467   0.000028   0.000686  -0.028268
    19  H    0.546683  -0.028306   0.000634  -0.000218   0.000049   0.043293
    20  C   -0.028306   6.209432   0.407193   0.407491   0.416131  -0.365652
    21  H    0.000634   0.407193   0.505073  -0.028595  -0.027821  -0.028112
    22  H   -0.000218   0.407491  -0.028595   0.505111  -0.027822  -0.028452
    23  H    0.000049   0.416131  -0.027821  -0.027822   0.491907   0.024475
    24  C    0.043293  -0.365652  -0.028112  -0.028452   0.024475   6.208259
    25  H    0.000467  -0.028083   0.000118   0.001825   0.000022   0.407269
    26  H    0.000035  -0.028487   0.001831   0.000117   0.000022   0.407480
    27  H    0.000681   0.024494   0.000023   0.000022  -0.000155   0.416175
    28  O   -0.000430  -0.014191  -0.000554  -0.000766   0.001617  -0.013767
    29  O   -0.058590  -0.013728  -0.000755  -0.000570   0.001597  -0.014237
              25         26         27         28         29
     1  C   -0.000451   0.000620   0.000498  -0.032389   0.020879
     2  C   -0.000001   0.000014   0.000042   0.068689  -0.016605
     3  C    0.000000  -0.000001   0.000018  -0.002007  -0.002012
     4  C    0.000013  -0.000003   0.000030  -0.016591   0.068662
     5  C    0.000592  -0.000491   0.000394   0.020859  -0.032415
     6  C   -0.000403  -0.000392  -0.000144  -0.080000  -0.079882
     7  H    0.000000   0.000000   0.000000   0.001336   0.006421
     8  H    0.000000   0.000000   0.000000   0.000032   0.000262
     9  H    0.000000   0.000000   0.000000   0.000262   0.000032
    10  H    0.000000   0.000000   0.000000   0.006418   0.001336
    11  C   -0.016845   0.022290  -0.037405   0.022790   0.049672
    12  C    0.022349  -0.016487  -0.037145   0.049528   0.022797
    13  C   -0.051994  -0.052050  -0.032830  -0.006690  -0.006864
    14  H    0.000065   0.000468   0.000674  -0.058839  -0.000472
    15  H   -0.000218   0.000636   0.000050  -0.000462  -0.058820
    16  Cl   0.000000   0.000000   0.000000  -0.000077  -0.000077
    17  B   -0.000864  -0.000933  -0.004640   0.141741   0.141752
    18  H    0.000633  -0.000218   0.000048  -0.058569  -0.000419
    19  H    0.000467   0.000035   0.000681  -0.000430  -0.058590
    20  C   -0.028083  -0.028487   0.024494  -0.014191  -0.013728
    21  H    0.000118   0.001831   0.000023  -0.000554  -0.000755
    22  H    0.001825   0.000117   0.000022  -0.000766  -0.000570
    23  H    0.000022   0.000022  -0.000155   0.001617   0.001597
    24  C    0.407269   0.407480   0.416175  -0.013767  -0.014237
    25  H    0.505090  -0.028598  -0.027823  -0.000752  -0.000554
    26  H   -0.028598   0.505121  -0.027822  -0.000571  -0.000768
    27  H   -0.027823  -0.027822   0.491880   0.001602   0.001626
    28  O   -0.000752  -0.000571   0.001602   8.699492  -0.226258
    29  O   -0.000554  -0.000768   0.001626  -0.226258   8.699348
 Mulliken charges:
               1
     1  C   -0.031142
     2  C   -0.352185
     3  C    0.280389
     4  C   -0.352146
     5  C   -0.031711
     6  C   -0.711043
     7  H    0.204642
     8  H    0.200239
     9  H    0.200241
    10  H    0.204626
    11  C   -0.405750
    12  C   -0.405525
    13  C    0.438444
    14  H    0.206116
    15  H    0.206120
    16  Cl   0.155262
    17  B    1.062419
    18  H    0.206204
    19  H    0.206207
    20  C   -0.805495
    21  H    0.218166
    22  H    0.218196
    23  H    0.229682
    24  C   -0.805181
    25  H    0.218142
    26  H    0.218188
    27  H    0.229706
    28  O   -0.501454
    29  O   -0.501359
 Sum of Mulliken charges =   0.00000
 Mulliken charges with hydrogens summed into heavy atoms:
               1
     1  C    0.173500
     2  C   -0.151945
     3  C    0.280389
     4  C   -0.151905
     5  C    0.172915
     6  C   -0.711043
    11  C    0.006570
    12  C    0.006802
    13  C    0.438444
    16  Cl   0.155262
    17  B    1.062419
    20  C   -0.139451
    24  C   -0.139146
    28  O   -0.501454
    29  O   -0.501359
 Electronic spatial extent (au):  <R**2>=           8039.0501
 Charge=              0.0000 electrons
 Dipole moment (field-independent basis, Debye):
    X=             -5.3713    Y=              0.0326    Z=              0.0345  Tot=              5.3716
 Quadrupole moment (field-independent basis, Debye-Ang):
   XX=            -71.7034   YY=            -92.8726   ZZ=            -98.4645
   XY=             -3.1300   XZ=             -0.0934   YZ=             -1.1167
 Traceless Quadrupole moment (field-independent basis, Debye-Ang):
   XX=             15.9768   YY=             -5.1924   ZZ=            -10.7843
   XY=             -3.1300   XZ=             -0.0934   YZ=             -1.1167
 Octapole moment (field-independent basis, Debye-Ang**2):
  XXX=            444.4548  YYY=           -159.4100  ZZZ=              0.4011  XYY=            214.9435
  XXY=            -40.0731  XXZ=              0.9929  XZZ=            214.3535  YZZ=            -56.1904
  YYZ=             -1.2175  XYZ=             -0.5570
 Hexadecapole moment (field-independent basis, Debye-Ang**3):
 XXXX=          -8671.0583 YYYY=           -795.7761 ZZZZ=           -319.4114 XXXY=            269.9455
 XXXZ=             16.6819 YYYX=            389.1163 YYYZ=             26.3310 ZZZX=             21.3551
 ZZZY=             37.0853 XXYY=          -1712.9413 XXZZ=          -1691.3545 YYZZ=           -193.9478
 XXYZ=             -0.4646 YYXZ=              6.2181 ZZXY=            129.1920
 N-N= 1.015393060515D+03 E-N=-4.525111598030D+03  KE= 1.055776376632D+03
 Evaluate density.
 Using the total density.
 Monte-Carlo method of calculating molar volume:
 based on  0.001 e/bohr**3 density envelope.
 Number of points per bohr**3 =   20 CutOff= 1.00D-04
 Using the SCF density.
 There are       440 points.  Will hold       440 in memory.
 LenV=  4026289794 MDV=  4026531840.
 Box volume =10656.424 fraction occupied=0.182
 Integrated density= 7.6261176192814872D+01 error=-4.1738823807185128D+01
 Molar volume = 1937.532 bohr**3/mol (172.903 cm**3/mol)
 Recommended a0 for SCRF calculation =  5.00 angstrom (  9.46 bohr)
 Calling FoFJK, ICntrl=      2127 FMM=F ISym2X=0 I1Cent= 0 IOpClX= 0 NMat=1 NMatS=1 NMatT=0.
 -------------------------------------------------------------------
 Center     Atomic                   Forces (Hartrees/Bohr)
 Number     Number              X              Y              Z
 -------------------------------------------------------------------
      1        6           0.001681000    0.004410111   -0.000898266
      2        6          -0.001012163    0.001136819   -0.000226357
      3        6           0.020420314   -0.000128545   -0.000132933
      4        6          -0.001032353   -0.001120151    0.000241364
      5        6           0.001630216   -0.004435511    0.000872401
      6        6           0.005958200   -0.000040930   -0.000037917
      7        1          -0.000001428   -0.001254346    0.000264713
      8        1           0.000686184   -0.001020779    0.000221406
      9        1           0.000695267    0.001011387   -0.000232762
     10        1           0.000013646    0.001255911   -0.000266648
     11        6           0.014017873   -0.007766134    0.001737210
     12        6           0.014072176    0.007593414   -0.001914016
     13        6           0.001194474   -0.000005559    0.000011719
     14        1           0.000668024    0.000339293    0.000091643
     15        1           0.000677050   -0.000338301   -0.000103698
     16       17          -0.023585050    0.000150285    0.000161692
     17        5          -0.025707920    0.000152292    0.000141860
     18        1           0.000740175    0.000258268   -0.000280434
     19        1           0.000729447   -0.000270622    0.000274294
     20        6           0.001917040    0.000665308    0.002807524
     21        1          -0.000296292   -0.000228432   -0.000171914
     22        1          -0.000270758    0.000102196   -0.000239988
     23        1           0.000007271   -0.000059653   -0.000242551
     24        6           0.001876512   -0.000688195   -0.002840998
     25        1          -0.000293527    0.000226171    0.000163857
     26        1          -0.000257139   -0.000105078    0.000245893
     27        1           0.000017267    0.000070686    0.000250069
     28        8          -0.007280761   -0.004437363    0.001045198
     29        8          -0.007264743    0.004527458   -0.000942362
 -------------------------------------------------------------------
 Cartesian Forces:  Max     0.025707920 RMS     0.005277369

 GradGradGradGradGradGradGradGradGradGradGradGradGradGradGradGradGradGrad
 Berny optimization.
 FormGI is forming the generalized inverse of G from B-inverse, IUseBI=4.
 Internal  Forces:  Max     0.023586083 RMS     0.003251652
 Search for a local minimum.
 Step number   1 out of a maximum of  167
 All quantities printed in internal units (Hartrees-Bohrs-Radians)
 Mixed Optimization -- RFO/linear search
 Second derivative matrix not updated -- first step.
 ITU=  0
     Eigenvalues ---    0.00230   0.00230   0.00282   0.00615   0.00817
     Eigenvalues ---    0.01458   0.01551   0.01989   0.02034   0.02046
     Eigenvalues ---    0.02090   0.02133   0.02139   0.02155   0.02161
     Eigenvalues ---    0.02170   0.03253   0.03897   0.04148   0.05200
     Eigenvalues ---    0.05412   0.05446   0.05446   0.05464   0.05464
     Eigenvalues ---    0.05736   0.06431   0.11294   0.12215   0.12217
     Eigenvalues ---    0.12805   0.14362   0.16000   0.16000   0.16000
     Eigenvalues ---    0.16000   0.16000   0.16000   0.16000   0.16000
     Eigenvalues ---    0.16000   0.16000   0.16004   0.22000   0.22983
     Eigenvalues ---    0.23400   0.23723   0.24000   0.24803   0.25000
     Eigenvalues ---    0.25000   0.25000   0.25563   0.25792   0.27531
     Eigenvalues ---    0.27776   0.27780   0.34048   0.34050   0.34059
     Eigenvalues ---    0.34059   0.34068   0.34068   0.34328   0.34330
     Eigenvalues ---    0.34334   0.34335   0.35411   0.35411   0.35601
     Eigenvalues ---    0.35601   0.36112   0.37354   0.41334   0.41388
     Eigenvalues ---    0.44601   0.45698   0.45843   0.46527   0.46672
     Eigenvalues ---    0.48788
 RFO step:  Lambda=-5.27252249D-03 EMin= 2.30000000D-03
 Linear search not attempted -- first point.
 Iteration  1 RMS(Cart)=  0.01949559 RMS(Int)=  0.00003747
 Iteration  2 RMS(Cart)=  0.00003773 RMS(Int)=  0.00001004
 Iteration  3 RMS(Cart)=  0.00000001 RMS(Int)=  0.00001004
 Variable       Old X    -DE/DX   Delta X   Delta X   Delta X     New X
                                 (Linear)    (Quad)   (Total)
    R1        2.64308  -0.00190   0.00000  -0.00409  -0.00409   2.63899
    R2        2.66253  -0.00188   0.00000  -0.00425  -0.00425   2.65828
    R3        2.05012   0.00111   0.00000   0.00308   0.00308   2.05320
    R4        2.63403  -0.00190   0.00000  -0.00398  -0.00398   2.63006
    R5        2.04710   0.00125   0.00000   0.00345   0.00345   2.05056
    R6        2.63403  -0.00190   0.00000  -0.00398  -0.00398   2.63005
    R7        3.46271  -0.02359   0.00000  -0.09726  -0.09726   3.36545
    R8        2.64311  -0.00191   0.00000  -0.00412  -0.00412   2.63898
    R9        2.04711   0.00125   0.00000   0.00345   0.00345   2.05056
   R10        2.66253  -0.00189   0.00000  -0.00427  -0.00427   2.65826
   R11        2.05013   0.00111   0.00000   0.00308   0.00308   2.05321
   R12        2.93175   0.00545   0.00000   0.01944   0.01944   2.95119
   R13        2.97141  -0.00486   0.00000  -0.01595  -0.01598   2.95544
   R14        2.06776   0.00016   0.00000   0.00045   0.00045   2.06821
   R15        2.06770   0.00018   0.00000   0.00051   0.00051   2.06821
   R16        2.75289  -0.01757   0.00000  -0.04652  -0.04652   2.70638
   R17        2.97143  -0.00487   0.00000  -0.01599  -0.01602   2.95541
   R18        2.06779   0.00015   0.00000   0.00043   0.00043   2.06822
   R19        2.06768   0.00018   0.00000   0.00052   0.00052   2.06821
   R20        2.75291  -0.01757   0.00000  -0.04654  -0.04654   2.70637
   R21        2.92622  -0.00258   0.00000  -0.00912  -0.00912   2.91709
   R22        2.92631  -0.00260   0.00000  -0.00919  -0.00919   2.91712
   R23        2.60591  -0.01136   0.00000  -0.02416  -0.02413   2.58177
   R24        2.60592  -0.01135   0.00000  -0.02414  -0.02412   2.58180
   R25        2.07216   0.00033   0.00000   0.00095   0.00095   2.07310
   R26        2.07230   0.00029   0.00000   0.00083   0.00083   2.07313
   R27        2.07249   0.00021   0.00000   0.00062   0.00062   2.07310
   R28        2.07216   0.00033   0.00000   0.00094   0.00094   2.07310
   R29        2.07230   0.00028   0.00000   0.00082   0.00082   2.07312
   R30        2.07246   0.00022   0.00000   0.00065   0.00065   2.07311
    A1        2.11633   0.00090   0.00000   0.00388   0.00388   2.12021
    A2        2.08972  -0.00112   0.00000  -0.00596  -0.00596   2.08376
    A3        2.07714   0.00021   0.00000   0.00208   0.00208   2.07922
    A4        2.06599  -0.00073   0.00000  -0.00315  -0.00315   2.06284
    A5        2.11703   0.00042   0.00000   0.00194   0.00194   2.11897
    A6        2.10017   0.00030   0.00000   0.00121   0.00121   2.10138
    A7        2.13546   0.00065   0.00000   0.00270   0.00270   2.13815
    A8        2.07385  -0.00032   0.00000  -0.00134  -0.00134   2.07251
    A9        2.07388  -0.00033   0.00000  -0.00136  -0.00136   2.07252
   A10        2.06599  -0.00073   0.00000  -0.00315  -0.00315   2.06284
   A11        2.10017   0.00030   0.00000   0.00121   0.00121   2.10138
   A12        2.11702   0.00042   0.00000   0.00194   0.00194   2.11897
   A13        2.11632   0.00091   0.00000   0.00390   0.00390   2.12022
   A14        2.08975  -0.00112   0.00000  -0.00599  -0.00599   2.08376
   A15        2.07711   0.00021   0.00000   0.00210   0.00210   2.07921
   A16        2.06628  -0.00101   0.00000  -0.00417  -0.00417   2.06211
   A17        2.10834   0.00053   0.00000   0.00217   0.00217   2.11051
   A18        2.10857   0.00048   0.00000   0.00200   0.00200   2.11056
   A19        1.91333   0.00061   0.00000   0.00394   0.00394   1.91727
   A20        1.91331   0.00065   0.00000   0.00405   0.00405   1.91736
   A21        2.05682  -0.00013   0.00000   0.00350   0.00346   2.06029
   A22        1.88338  -0.00016   0.00000   0.00054   0.00051   1.88389
   A23        1.84414  -0.00050   0.00000  -0.00598  -0.00598   1.83816
   A24        1.84490  -0.00055   0.00000  -0.00675  -0.00674   1.83815
   A25        1.91336   0.00062   0.00000   0.00397   0.00397   1.91734
   A26        1.91327   0.00064   0.00000   0.00400   0.00401   1.91728
   A27        2.05683  -0.00013   0.00000   0.00349   0.00346   2.06029
   A28        1.88333  -0.00016   0.00000   0.00058   0.00054   1.88387
   A29        1.84425  -0.00051   0.00000  -0.00605  -0.00605   1.83820
   A30        1.84483  -0.00054   0.00000  -0.00670  -0.00669   1.83814
   A31        2.00155  -0.00108   0.00000  -0.00274  -0.00276   1.99879
   A32        1.88932   0.00039   0.00000   0.00084   0.00085   1.89017
   A33        1.88955   0.00037   0.00000   0.00086   0.00087   1.89042
   A34        1.88951   0.00037   0.00000   0.00083   0.00084   1.89035
   A35        1.88936   0.00039   0.00000   0.00082   0.00083   1.89019
   A36        1.90287  -0.00044   0.00000  -0.00058  -0.00059   1.90228
   A37        2.08372  -0.00359   0.00000  -0.01191  -0.01193   2.07179
   A38        2.08355  -0.00356   0.00000  -0.01177  -0.01179   2.07176
   A39        2.11591   0.00715   0.00000   0.02368   0.02372   2.13964
   A40        1.93538   0.00028   0.00000   0.00173   0.00173   1.93712
   A41        1.93551   0.00027   0.00000   0.00169   0.00169   1.93720
   A42        1.93456   0.00007   0.00000   0.00030   0.00030   1.93486
   A43        1.88004  -0.00026   0.00000  -0.00138  -0.00138   1.87866
   A44        1.88828  -0.00020   0.00000  -0.00129  -0.00129   1.88699
   A45        1.88815  -0.00019   0.00000  -0.00124  -0.00124   1.88691
   A46        1.93547   0.00027   0.00000   0.00166   0.00165   1.93713
   A47        1.93552   0.00026   0.00000   0.00165   0.00165   1.93717
   A48        1.93454   0.00007   0.00000   0.00034   0.00034   1.93488
   A49        1.88000  -0.00025   0.00000  -0.00133  -0.00134   1.87867
   A50        1.88823  -0.00019   0.00000  -0.00126  -0.00126   1.88697
   A51        1.88815  -0.00019   0.00000  -0.00123  -0.00123   1.88692
   A52        2.16763  -0.00291   0.00000  -0.01398  -0.01395   2.15367
   A53        2.16761  -0.00290   0.00000  -0.01396  -0.01393   2.15368
    D1        0.00108  -0.00001   0.00000  -0.00046  -0.00046   0.00061
    D2       -3.14045  -0.00002   0.00000  -0.00059  -0.00059  -3.14104
    D3       -3.14086   0.00000   0.00000   0.00012   0.00012  -3.14073
    D4        0.00080   0.00000   0.00000   0.00000   0.00000   0.00080
    D5       -0.00065   0.00001   0.00000   0.00033   0.00033  -0.00033
    D6        3.14065   0.00001   0.00000   0.00050   0.00050   3.14115
    D7        3.14127  -0.00001   0.00000  -0.00026  -0.00026   3.14102
    D8       -0.00061   0.00000   0.00000  -0.00008  -0.00008  -0.00069
    D9       -0.00042   0.00000   0.00000   0.00014   0.00014  -0.00028
   D10        3.14115   0.00001   0.00000   0.00019   0.00019   3.14133
   D11        3.14110   0.00001   0.00000   0.00026   0.00026   3.14136
   D12       -0.00051   0.00001   0.00000   0.00031   0.00031  -0.00020
   D13       -0.00063   0.00001   0.00000   0.00031   0.00031  -0.00032
   D14        3.14093   0.00001   0.00000   0.00038   0.00038   3.14131
   D15        3.14098   0.00001   0.00000   0.00027   0.00027   3.14125
   D16       -0.00064   0.00001   0.00000   0.00033   0.00033  -0.00031
   D17        0.00107  -0.00001   0.00000  -0.00045  -0.00045   0.00062
   D18       -3.14072   0.00000   0.00000  -0.00003  -0.00003  -3.14076
   D19       -3.14050  -0.00001   0.00000  -0.00051  -0.00051  -3.14101
   D20        0.00090   0.00000   0.00000  -0.00010  -0.00010   0.00080
   D21       -0.00044   0.00000   0.00000   0.00014   0.00014  -0.00030
   D22        3.14144   0.00000   0.00000  -0.00004  -0.00004   3.14140
   D23        3.14135  -0.00001   0.00000  -0.00028  -0.00028   3.14107
   D24        0.00004  -0.00001   0.00000  -0.00045  -0.00045  -0.00041
   D25       -3.12474  -0.00007   0.00000  -0.00614  -0.00614  -3.13087
   D26        0.01656  -0.00006   0.00000  -0.00566  -0.00566   0.01090
   D27        0.01656  -0.00007   0.00000  -0.00596  -0.00596   0.01060
   D28       -3.12533  -0.00006   0.00000  -0.00548  -0.00549  -3.13082
   D29       -2.11204   0.00025   0.00000   0.00188   0.00189  -2.11016
   D30        2.05975   0.00021   0.00000   0.00200   0.00201   2.06176
   D31       -0.00067   0.00031   0.00000   0.00176   0.00176   0.00109
   D32        2.10679  -0.00030   0.00000  -0.00354  -0.00355   2.10324
   D33       -0.00460  -0.00035   0.00000  -0.00342  -0.00343  -0.00803
   D34       -2.06503  -0.00025   0.00000  -0.00367  -0.00367  -2.06870
   D35       -0.00313  -0.00001   0.00000  -0.00036  -0.00036  -0.00349
   D36       -2.11452  -0.00005   0.00000  -0.00024  -0.00024  -2.11476
   D37        2.10824   0.00005   0.00000  -0.00049  -0.00049   2.10775
   D38        0.00545   0.00000   0.00000   0.00036   0.00036   0.00581
   D39        2.14980   0.00031   0.00000   0.00306   0.00303   2.15283
   D40       -2.13949  -0.00033   0.00000  -0.00186  -0.00184  -2.14133
   D41       -2.11044   0.00026   0.00000   0.00245   0.00245  -2.10798
   D42        0.00085   0.00032   0.00000   0.00233   0.00234   0.00319
   D43        2.06127   0.00021   0.00000   0.00255   0.00256   2.06383
   D44        2.10846  -0.00029   0.00000  -0.00301  -0.00302   2.10544
   D45       -2.06344  -0.00024   0.00000  -0.00313  -0.00313  -2.06658
   D46       -0.00302  -0.00034   0.00000  -0.00291  -0.00292  -0.00593
   D47       -0.00134   0.00000   0.00000   0.00014   0.00014  -0.00121
   D48        2.10994   0.00005   0.00000   0.00002   0.00002   2.10996
   D49       -2.11282  -0.00005   0.00000   0.00024   0.00024  -2.11258
   D50        0.00438  -0.00001   0.00000  -0.00004  -0.00004   0.00435
   D51        2.14887   0.00031   0.00000   0.00265   0.00262   2.15149
   D52       -2.14046  -0.00033   0.00000  -0.00224  -0.00222  -2.14268
   D53       -3.09515  -0.00044   0.00000  -0.00144  -0.00145  -3.09661
   D54       -1.00722  -0.00041   0.00000  -0.00092  -0.00093  -1.00816
   D55        1.09036  -0.00042   0.00000  -0.00116  -0.00117   1.08919
   D56        1.00854   0.00041   0.00000   0.00086   0.00087   1.00941
   D57        3.09647   0.00044   0.00000   0.00138   0.00139   3.09786
   D58       -1.08913   0.00043   0.00000   0.00114   0.00115  -1.08798
   D59       -1.04325  -0.00002   0.00000  -0.00027  -0.00027  -1.04351
   D60        1.04469   0.00001   0.00000   0.00025   0.00025   1.04494
   D61       -3.14091   0.00000   0.00000   0.00001   0.00001  -3.14090
   D62        1.00727   0.00042   0.00000   0.00178   0.00179   1.00906
   D63        3.09522   0.00045   0.00000   0.00227   0.00228   3.09751
   D64       -1.09038   0.00043   0.00000   0.00205   0.00206  -1.08832
   D65       -3.09637  -0.00043   0.00000  -0.00052  -0.00053  -3.09691
   D66       -1.00842  -0.00040   0.00000  -0.00003  -0.00004  -1.00845
   D67        1.08916  -0.00041   0.00000  -0.00025  -0.00026   1.08890
   D68       -1.04450  -0.00001   0.00000   0.00061   0.00061  -1.04389
   D69        1.04346   0.00002   0.00000   0.00111   0.00111   1.04457
   D70        3.14104   0.00000   0.00000   0.00088   0.00088  -3.14126
   D71        3.13856   0.00000   0.00000   0.00026   0.00026   3.13882
   D72       -0.00273  -0.00001   0.00000  -0.00022  -0.00022  -0.00296
   D73        3.13936  -0.00001   0.00000  -0.00044  -0.00045   3.13891
   D74       -0.00254   0.00000   0.00000   0.00004   0.00004  -0.00250
         Item               Value     Threshold  Converged?
 Maximum Force            0.023586     0.000450     NO 
 RMS     Force            0.003252     0.000300     NO 
 Maximum Displacement     0.139115     0.001800     NO 
 RMS     Displacement     0.019486     0.001200     NO 
 Predicted change in Energy=-2.684392D-03
 GradGradGradGradGradGradGradGradGradGradGradGradGradGradGradGradGradGrad

                          Input orientation:                          
 ---------------------------------------------------------------------
 Center     Atomic      Atomic             Coordinates (Angstroms)
 Number     Number       Type             X           Y           Z
 ---------------------------------------------------------------------
      1          6           0       -0.772189   -0.618860    0.235466
      2          6           0        0.624116   -0.640682    0.228930
      3          6           0        1.299136    0.549937   -0.023628
      4          6           0        0.635516    1.748720   -0.267612
      5          6           0       -0.760920    1.743925   -0.256302
      6          6           0       -1.489443    0.566947   -0.005807
      7          1           0       -1.318908   -1.537146    0.431295
      8          1           0        1.176235   -1.556170    0.414690
      9          1           0        1.196335    2.657433   -0.460450
     10          1           0       -1.298859    2.668834   -0.445160
     11          6           0       -5.128565    1.873217   -0.267873
     12          6           0       -5.140488   -0.695247    0.302246
     13          6           0       -5.980285    0.594264    0.023319
     14          1           0       -5.362111    2.650412    0.466461
     15          1           0       -5.392690   -1.468693   -0.429881
     16         17           0        3.079984    0.539059   -0.035073
     17          5           0       -3.051086    0.576400    0.004015
     18          1           0       -5.371834    2.263709   -1.260926
     19          1           0       -5.375904   -1.083963    1.297885
     20          6           0       -6.887267    0.327747   -1.197022
     21          1           0       -7.539166   -0.536803   -1.020748
     22          1           0       -7.530215    1.191957   -1.405072
     23          1           0       -6.287278    0.125524   -2.092908
     24          6           0       -6.866207    0.871921    1.256598
     25          1           0       -7.509521    1.744745    1.089819
     26          1           0       -7.517031    0.015882    1.473721
     27          1           0       -6.250907    1.066233    2.143812
     28          8           0       -3.701780    1.750865   -0.248521
     29          8           0       -3.712688   -0.590108    0.265017
 ---------------------------------------------------------------------
                    Distance matrix (angstroms):
                    1          2          3          4          5
     1  C    0.000000
     2  C    1.396491   0.000000
     3  C    2.392406   1.391765   0.000000
     4  C    2.800029   2.440477   1.391762   0.000000
     5  C    2.413445   2.800022   2.392399   1.396490   0.000000
     6  C    1.406700   2.445527   2.788689   2.445523   1.406689
     7  H    1.086507   2.149405   3.378909   3.886536   3.398465
     8  H    2.169569   1.085109   2.154743   3.417633   3.885026
     9  H    3.885033   3.417636   2.154743   1.085109   2.169566
    10  H    3.398466   3.886532   3.378905   2.149405   1.086510
    11  C    5.043987   6.297606   6.567045   5.765426   4.369574
    12  C    4.369477   5.765328   6.566996   6.297614   5.044022
    13  C    5.351723   6.722015   7.279708   6.722071   5.351793
    14  H    5.639936   6.835396   7.001742   6.109292   4.745004
    15  H    4.744884   6.109140   7.001460   6.835009   5.639534
    16  Cl   4.031526   2.737293   1.780917   2.737294   4.031524
    17  B    2.583716   3.878013   4.350391   3.878035   2.583746
    18  H    5.630731   6.826901   6.997840   6.110658   4.747629
    19  H    4.747551   6.110597   6.998013   6.827302   5.631210
    20  C    6.351556   7.706626   8.273054   7.712019   6.357881
    21  H    6.883080   8.259035   8.960516   8.521518   7.192408
    22  H    7.186191   8.515964   8.959800   8.263351   6.888230
    23  H    6.032548   7.331123   7.875006   7.341086   6.044252
    24  C    6.356271   7.710318   8.271365   7.705053   6.350101
    25  H    7.190840   8.519826   8.958782   8.257376   6.881545
    26  H    6.886876   8.261891   8.958352   8.514634   7.184995
    27  H    6.041330   7.338002   7.871945   7.328273   6.029907
    28  O    3.798992   4.965968   5.148006   4.337339   2.940879
    29  O    2.940788   4.337249   5.147951   4.965953   3.799003
                    6          7          8          9         10
     6  C    0.000000
     7  H    2.155770   0.000000
     8  H    3.433699   2.495271   0.000000
     9  H    3.433692   4.971533   4.303571   0.000000
    10  H    2.155756   4.296376   4.971529   2.495267   0.000000
    11  C    3.875336   5.160707   7.209514   6.376241   3.915493
    12  C    3.875326   3.915344   6.376114   7.209541   5.160791
    13  C    4.491019   5.141769   7.482869   7.482952   5.141893
    14  H    4.422829   5.821028   7.774830   6.623626   4.164302
    15  H    4.422556   4.164374   6.623574   7.774387   5.820551
    16  Cl   4.569606   4.886550   2.866450   2.866459   4.886551
    17  B    1.561702   2.765879   4.752553   4.752579   2.765924
    18  H    4.418969   5.808298   7.763787   6.628471   4.173575
    19  H    4.419241   4.173196   6.628238   7.764284   5.808957
    20  C    5.532876   6.093921   8.436044   8.444797   6.105432
    21  H    6.232778   6.465348   8.891446   9.318050   7.039094
    22  H    6.232135   7.028555   9.309458   8.899023   6.475523
    23  H    5.250720   5.815563   8.051098   8.067214   5.836764
    24  C    5.531388   6.103872   8.443063   8.434505   6.092638
    25  H    6.231287   7.037624   9.316340   8.889784   6.463932
    26  H    6.230929   6.474201   8.897515   9.308144   7.027511
    27  H    5.248017   5.833945   8.064075   8.048324   5.813251
    28  O    2.520914   4.117189   5.930545   4.985811   2.579799
    29  O    2.520900   2.579673   4.985705   5.930542   4.117235
                   11         12         13         14         15
    11  C    0.000000
    12  C    2.631004   0.000000
    13  C    1.563950   1.563937   0.000000
    14  H    1.094451   3.357010   2.192318   0.000000
    15  H    3.356244   1.094457   2.192363   4.215613   0.000000
    16  Cl   8.319522   8.319462   9.060625   8.716554   8.716257
    17  B    2.464057   2.464067   2.929317   3.139461   3.139073
    18  H    1.094449   3.354467   2.192384   1.770170   3.823859
    19  H    3.355247   1.094449   2.192314   3.825835   1.770163
    20  C    2.518894   2.519039   1.543659   3.238526   2.459566
    21  H    3.490847   2.743916   2.190776   4.136388   2.413484
    22  H    2.743220   3.491027   2.190849   3.214095   3.549517
    23  H    2.779891   2.779488   2.189150   3.712325   2.471331
    24  C    2.519127   2.518910   1.543673   2.459603   3.239436
    25  H    2.743862   3.490866   2.190796   2.412504   4.137227
    26  H    3.491075   2.743358   2.190839   3.549507   3.215663
    27  H    2.779766   2.779785   2.189173   2.472466   3.712989
    28  O    1.432152   2.890793   2.569671   2.019178   3.641102
    29  O    2.890786   1.432149   2.569660   3.641723   2.019208
                   16         17         18         19         20
    16  Cl   0.000000
    17  B    6.131308   0.000000
    18  H    8.712655   3.135755   0.000000
    19  H    8.712807   3.136189   4.213602   0.000000
    20  C   10.036975   4.027481   2.459384   3.240634   0.000000
    21  H   10.718926   4.736267   3.549349   3.217942   1.097037
    22  H   10.718185   4.735719   2.414133   4.138459   1.097053
    23  H    9.599546   3.882436   2.470235   3.713615   1.097038
    24  C   10.035234   4.026344   3.241628   2.459307   2.513329
    25  H   10.717120   4.735149   3.219477   3.549254   2.761290
    26  H   10.716664   4.734858   4.139189   2.413504   2.761653
    27  H    9.596404   3.880402   3.714695   2.470742   3.480156
    28  O    6.892485   1.366215   2.019172   3.637349   3.615557
    29  O    6.892421   1.366229   3.636693   2.019157   3.613581
                   21         22         23         24         25
    21  H    0.000000
    22  H    1.770987   0.000000
    23  H    1.776352   1.776313   0.000000
    24  C    2.761103   2.761851   3.480152   0.000000
    25  H    3.108189   2.555481   3.774321   1.097037   0.000000
    26  H    2.555059   3.109786   3.774275   1.097049   1.770990
    27  H    3.774093   3.774522   4.340052   1.097041   1.776341
    28  O    4.533795   4.038181   3.567674   3.612689   4.036097
    29  O    4.037074   4.531938   3.563769   3.614615   4.532965
                   26         27         28         29
    26  H    0.000000
    27  H    1.776324   0.000000
    28  O    4.531271   3.562306   0.000000
    29  O    4.037476   3.565935   2.396663   0.000000
 Symmetry turned off by external request.
 Stoichiometry    C11H14BClO2
 Framework group  C1[X(C11H14BClO2)]
 Deg. of freedom    81
 Full point group                 C1      NOp   1
 Rotational constants (GHZ):           2.0068677           0.1927462           0.1831384
 Standard basis: 6-31+G(d) (6D, 7F)
   317 basis functions,   560 primitive gaussians,   317 cartesian basis functions
    59 alpha electrons       59 beta electrons
       nuclear repulsion energy      1022.1371033802 Hartrees.
 NAtoms=   29 NActive=   29 NUniq=   29 SFac= 1.00D+00 NAtFMM=   60 NAOKFM=F Big=F
 Integral buffers will be    131072 words long.
 Raffenetti 2 integral format.
 Two-electron integral symmetry is turned off.
 Nuclear repulsion after empirical dispersion term =     1022.1100920062 Hartrees.
 One-electron integrals computed using PRISM.
 NBasis=   317 RedAO= T EigKep=  2.21D-06  NBF=   317
 NBsUse=   317 1.00D-06 EigRej= -1.00D+00 NBFU=   317
 Initial guess from the checkpoint file:  "MOLECULE_10.chk"
 B after Tr=    -0.024398    0.000318    0.000679
         Rot=    1.000000   -0.000013    0.000045   -0.000015 Ang=  -0.01 deg.
 ExpMin= 3.15D-02 ExpMax= 2.52D+04 ExpMxC= 3.78D+03 IAcc=3 IRadAn=         5 AccDes= 0.00D+00
 Harris functional with IExCor=  402 and IRadAn=       5 diagonalized for initial guess.
 HarFok:  IExCor=  402 AccDes= 0.00D+00 IRadAn=         5 IDoV= 1 UseB2=F ITyADJ=14
 ICtDFT=  3500011 ScaDFX=  1.000000  1.000000  1.000000  1.000000
 FoFCou: FMM=F IPFlag=           0 FMFlag=      100000 FMFlg1=           0
         NFxFlg=           0 DoJE=T BraDBF=F KetDBF=T FulRan=T
         wScrn=  0.000000 ICntrl=       500 IOpCl=  0 I1Cent=   200000004 NGrid=           0
         NMat0=    1 NMatS0=      1 NMatT0=    0 NMatD0=    1 NMtDS0=    0 NMtDT0=    0
 Symmetry not used in FoFCou.
 Requested convergence on RMS density matrix=1.00D-08 within 128 cycles.
 Requested convergence on MAX density matrix=1.00D-06.
 Requested convergence on             energy=1.00D-06.
 No special actions if energy rises.
 SCF Done:  E(RB3LYP) =  -1063.24954915     A.U. after   11 cycles
            NFock= 11  Conv=0.78D-08     -V/T= 2.0068
 Calling FoFJK, ICntrl=      2127 FMM=F ISym2X=0 I1Cent= 0 IOpClX= 0 NMat=1 NMatS=1 NMatT=0.
 -------------------------------------------------------------------
 Center     Atomic                   Forces (Hartrees/Bohr)
 Number     Number              X              Y              Z
 -------------------------------------------------------------------
      1        6           0.000134821    0.000279113   -0.000009076
      2        6          -0.003272135   -0.000379282    0.000102168
      3        6           0.012733246   -0.000079749   -0.000082188
      4        6          -0.003268170    0.000422073   -0.000056662
      5        6           0.000127089   -0.000273067    0.000009350
      6        6           0.001123506   -0.000017983   -0.000017186
      7        1          -0.000048706   -0.000207567    0.000030577
      8        1           0.000069009    0.000052761   -0.000002260
      9        1           0.000068602   -0.000053959    0.000000092
     10        1          -0.000045270    0.000207145   -0.000032858
     11        6           0.005601922   -0.000469666    0.000034414
     12        6           0.005604840    0.000392338   -0.000129408
     13        6          -0.001115630    0.000008848    0.000019386
     14        1          -0.001551383    0.000622191   -0.000148592
     15        1          -0.001551969   -0.000600236    0.000160935
     16       17          -0.005787431    0.000035969    0.000038434
     17        5          -0.004154128    0.000023864    0.000046318
     18        1          -0.001550568    0.000623606   -0.000131564
     19        1          -0.001557865   -0.000609577    0.000145750
     20        6           0.000024779    0.000135551    0.000534752
     21        1          -0.000070624   -0.000046410   -0.000174825
     22        1          -0.000068548   -0.000035460   -0.000180222
     23        1          -0.000113580   -0.000052023   -0.000215477
     24        6           0.000019411   -0.000128671   -0.000531429
     25        1          -0.000069417    0.000045232    0.000174979
     26        1          -0.000063209    0.000036074    0.000183910
     27        1          -0.000110590    0.000054818    0.000217418
     28        8          -0.000566264   -0.002696589    0.000668500
     29        8          -0.000541738    0.002710658   -0.000655233
 -------------------------------------------------------------------
[...]
 8,-0.04962102,-0.00162652,-0.00756145,0.00032597,0.00485428,0.01526981
 ,0.00029199,0.00182759,0.01571763,0.05450171,0.00001105,0.00001336,-0.
 00000022,0.00000489,-0.00000747,0.00000338,0.00000536,-0.00000406,0.00
 000147,-0.00000723,-0.00000532,-0.00000014,-0.00000906,0.00001436,0.00
 000118,-0.00000168,-0.00007648,0.00000800,0.00000574,-0.00000699,0.000
 00217,0.00000236,0.00000050,-0.00000017,-0.00000252,-0.00000030,-0.000
 00168,-0.00000351,-0.00000593,-0.00000325,-0.00053283,-0.00016502,-0.0
 0156122,0.00085775,0.00016944,0.00134750,0.00002055,-0.00223351,-0.001
 67183,-0.00004815,-0.00000013,-0.00003052,0.00049530,0.00003298,-0.000
 04521,-0.00000449,-0.00000212,0.00000016,0.00006490,0.00057212,-0.0001
 6566,-0.00061788,-0.00009450,0.00041202,0.00004875,-0.00001829,0.00004
 939,-0.00185998,-0.06064738,-0.05310907,0.00167461,0.00618720,0.024035
 40,-0.00168918,-0.00496661,-0.02864487,0.00231036,0.06105813,0.0000023
 2,-0.00000045,0.00001684,-0.00000640,-0.00000479,0.00000178,0.00002462
 ,0.00000132,0.00000226,-0.00000379,0.00000804,-0.00000035,0.00000668,0
 .00000173,0.00001602,-0.00000571,0.00000790,-0.00004108,0.00000413,-0.
 00000555,-0.00000854,-0.00000080,0.00000009,-0.00000442,0.00000023,-0.
 00000197,-0.00000361,0.00000616,0.00000428,-0.00000955,0.00092485,0.00
 059119,-0.00032225,0.00061751,-0.00081590,-0.00066057,0.00015569,-0.00
 180921,-0.01029940,0.00001236,0.00008834,0.00002791,-0.00038531,0.0007
 0901,0.00075636,-0.00002043,0.00000025,-0.00000133,0.00028868,-0.00016
 716,-0.00016475,-0.00013690,-0.00030758,0.00085855,-0.00000844,-0.0000
 6842,0.00004532,-0.00865443,-0.05312484,-0.29578263,-0.00041398,-0.003
 85812,-0.01489106,0.00032041,-0.00062806,-0.00372111,0.01073453,0.0590
 6201,0.32265339,-0.00004695,0.00008050,-0.00007041,0.00001019,0.000024
 95,-0.00001002,-0.00009190,0.00000138,0.00000334,0.00001081,-0.0000264
 8,0.00000140,-0.00004594,-0.00010306,-0.00003155,0.00014961,-0.0000540
 1,-0.00025077,0.00001254,0.00001321,0.00003014,0.00000297,-0.00000043,
 0.00000968,0.00000308,0.00000439,0.00000862,0.00001320,0.00000098,0.00
 003228,0.00106128,0.00206762,0.01803497,0.00105968,0.00546161,0.017061
 02,-0.07996949,0.00003359,0.00010501,0.00036201,0.00082802,-0.00071542
 ,-0.00157832,0.00259374,0.00086549,0.00006786,0.00000136,0.00000740,-0
 .00111485,0.00048962,0.00230396,-0.00161956,-0.00202137,0.00188201,0.0
 0035632,-0.00104468,-0.00032120,-0.00354673,-0.00729437,-0.03390727,0.
 00083566,0.00009042,-0.00066595,0.00083770,-0.00035524,-0.00055397,-0.
 00613797,-0.00078685,-0.00376067,0.58368139,-0.00004664,-0.00008661,0.
 00001685,-0.00006336,0.00002826,-0.00001931,-0.00000029,0.00004881,-0.
 00001251,0.00005915,0.00003314,0.00001432,0.00003039,-0.00009128,-0.00
 000097,-0.00002327,0.00032481,-0.00010574,-0.00003692,0.00004254,-0.00
 000397,-0.00000734,-0.00000089,-0.00000187,0.00000552,-0.00000009,0.00
 000296,0.00004037,0.00004469,-0.00000729,0.00160109,0.00414302,0.02571
 085,0.00071945,-0.01182334,-0.03237458,-0.00093650,-0.08189693,-0.0191
 0012,-0.00011761,0.00062350,0.00134249,0.00342656,-0.00480762,-0.00161
 982,-0.00000022,0.00000338,-0.00000082,0.00027010,-0.00329586,0.000874
 01,-0.00311758,-0.00348890,0.00377156,-0.00008657,0.00065471,-0.001262
 29,-0.00151815,-0.00055889,-0.00366690,-0.00023806,-0.00014292,-0.0009
 8992,0.00081549,0.00029351,0.00128491,-0.00011075,-0.00007132,0.000123
 10,0.00058070,0.57664563,-0.00002860,0.00001015,-0.00005804,0.00000308
 ,0.00000335,0.00002266,-0.00000395,-0.00001242,-0.00000623,-0.00002339
 ,-0.00000778,0.00001776,-0.00004429,0.00000471,-0.00005364,-0.00011097
 ,-0.00010622,-0.00014724,0.00001563,-0.00001270,0.00002074,-0.00000282
 ,0.00000107,0.00000251,-0.00000558,0.00000013,0.00000167,-0.00000080,0
 .00000186,0.00001805,0.00536521,0.00298876,-0.02625862,0.00550804,-0.0
 0956106,-0.01029073,-0.00436173,-0.01905970,-0.16638366,-0.00046685,-0
 .00131978,0.00084662,0.00005654,0.00095473,0.00127477,0.00000022,-0.00
 000077,-0.00000006,0.00129381,0.00087710,0.00061431,0.00146968,0.00119
 971,-0.00000136,-0.00046495,0.00140466,0.00081186,-0.00711831,-0.00377
 745,-0.01740610,0.00146059,0.00030091,0.00093788,0.00123610,-0.0000167
 5,0.00050507,-0.00062070,0.00011149,0.00040590,0.00281741,-0.02486866,
 0.46653070,0.00001596,-0.00000879,0.00002244,-0.00000047,-0.00002856,0
 .00000165,0.00004541,-0.00000821,0.00000989,-0.00004027,-0.00001183,-0
 .00001910,-0.00000222,0.00009195,-0.00002743,-0.00006335,-0.00008698,0
 .00006450,0.00002246,-0.00002713,-0.00000149,-0.00000224,0.00000224,-0
 .00000197,-0.00001489,-0.00000303,0.00000129,-0.00000511,-0.00000764,0
 .00002896,-0.00035219,0.00112772,0.00015686,-0.00011382,-0.00085186,-0
 .00055906,-0.00084399,-0.00104458,-0.00006957,0.00001950,-0.00047115,0
 .00046181,0.00016538,0.00004175,-0.00008317,-0.00005001,-0.00000655,-0
 .00000769,0.00072030,0.00088771,-0.00087285,0.00007261,-0.00026433,-0.
 00002321,-0.00001775,0.00020164,-0.00014285,0.00045407,-0.00104185,-0.
 00052823,-0.00000188,-0.00008134,0.00002587,0.00013011,0.00003974,-0.0
 0036526,0.00000295,-0.00001437,0.00021501,-0.10531027,0.10571493,0.020
 65617,0.11015514,-0.00001541,0.00000132,-0.00001109,0.00001685,0.00002
 659,-0.00000069,-0.00006085,0.00000099,-0.00001121,0.00003499,-0.00000
 074,0.00000985,0.00001084,-0.00004915,0.00001378,0.00009178,0.00008881
 ,0.00000110,-0.00002328,0.00001848,-0.00000364,0.00000262,-0.00000387,
 0.00000096,0.00001013,0.00000414,-0.00000146,-0.00000644,0.00000065,-0
 .00000522,-0.00041300,0.00035040,0.00088521,-0.00128977,0.00076528,-0.
 00182935,0.00301330,-0.00693997,-0.00068765,0.00012168,0.00057676,-0.0
 0004929,0.00049443,-0.00028337,-0.00038411,0.00006159,0.00000501,0.000
 01103,-0.00049505,-0.00066092,0.00011034,-0.00009872,0.00027594,-0.000
 05183,-0.00005897,0.00053590,0.00010779,0.00034567,-0.00004268,0.00051
 030,0.00007584,-0.00011389,-0.00004782,-0.00067177,0.00035167,-0.00044
 650,-0.00023781,0.00030057,0.00006127,0.10547244,-0.24588601,-0.037899
 99,-0.11678547,0.26610528,-0.00000061,-0.00000863,0.00001949,-0.000008
 62,0.00000460,0.00000088,0.00000702,0.00000920,-0.00000179,0.00001075,
 0.00000860,-0.00000063,0.00002455,-0.00001633,0.00001426,0.00001992,0.
 00010833,-0.00002170,-0.00000838,0.00000221,-0.00002079,0.00000058,-0.
 00000074,-0.00000217,0.00000306,-0.00000065,0.00000100,0.00000500,0.00
 000337,-0.00000520,0.00063572,-0.00207329,0.00118505,-0.00185430,-0.00
 018501,-0.00717677,0.01563395,-0.02887739,-0.00664771,0.00008985,0.001
 09196,-0.00042395,0.00112911,-0.00186018,-0.00040604,-0.00000219,0.000
 00032,-0.00000078,-0.00025438,-0.00082239,0.00008192,-0.00035313,0.000
 15917,0.00034542,-0.00020744,0.00002658,0.00007836,0.00124050,-0.00066
 285,0.00110546,-0.00014791,0.00006457,-0.00005478,-0.00089500,0.000368
 74,-0.00033771,0.00014433,0.00037987,0.00025045,0.02019211,-0.03656760
 ,-0.05484296,-0.02200211,0.04268158,0.06187594,-0.00000290,-0.00009558
 ,0.00001323,-0.00004028,0.00000311,-0.00002235,0.00004591,0.00001117,0
 .00000572,-0.00000047,0.00002685,-0.00001044,0.00001599,0.00001754,0.0
 0001690,-0.00006319,0.00010639,0.00002291,-0.00000507,0.00001908,0.000
 02321,-0.00001494,0.00000343,-0.00000013,-0.00000228,-0.00000286,-0.00
 000089,0.00002284,0.00002399,-0.00001262,-0.00009916,0.00055465,-0.000
 85907,-0.00035628,-0.00095628,0.00059763,-0.00085613,0.00091199,-0.000
 51947,-0.00001945,-0.00023914,-0.00005000,0.00007472,0.00023276,-0.000
 12955,-0.00005040,0.00000315,-0.00000986,0.00071558,-0.00117702,-0.000
 42760,0.00016275,-0.00007198,-0.00005648,0.00002833,0.00061675,0.00022
 306,0.00045462,0.00072874,-0.00092454,0.00015301,-0.00017547,-0.000295
 04,-0.00000192,0.00008285,-0.00000983,0.00000548,0.00010325,0.00018955
 ,-0.10679045,-0.08855196,0.06308078,0.00799284,0.01135338,-0.00928621,
 0.11179927,0.,-0.00003674,0.00000954,-0.00002720,-0.00000749,-0.000006
 50,0.00005801,0.00000075,0.00000982,-0.00001871,0.00002066,-0.00000827
 ,0.00001373,0.00001177,0.00001433,-0.00007481,0.00002866,-0.00002423,0
 .00000796,0.00000017,0.00000259,-0.00000784,0.00000443,-0.00000011,-0.
 00000216,-0.00000362,-0.00000029,0.00001771,0.00001201,-0.00001134,0.0
 0041697,0.00016626,-0.00148473,0.00064895,0.00094009,-0.00077578,0.003
 72802,0.00417344,-0.00421089,-0.00002816,0.00041045,-0.00025645,-0.000
 05448,0.00024607,0.00009708,-0.00005662,0.00000014,-0.00001129,0.00033
 881,-0.00026088,0.00005148,0.00001737,0.00053861,-0.00004175,-0.000077
 27,0.00001068,-0.00014825,0.00019254,0.00020414,-0.00010978,0.00025265
 ,0.00026776,0.00018457,-0.00013058,-0.00010896,0.00007390,0.00027701,0
 .00012390,-0.00000624,-0.08851922,-0.18424045,0.09635104,-0.01439747,-
 0.01938201,0.01425196,0.09817105,0.19798988,0.00002710,0.00003931,0.00
 000250,0.00002409,-0.00000562,0.00000634,-0.00001867,-0.00001043,-0.00
 000205,-0.00000103,-0.00001357,0.00000675,-0.00000684,0.00001247,0.000
 00903,0.00005500,-0.00013152,0.00003832,0.00000192,-0.00000593,-0.0000
 0485,0.00000693,-0.00000094,0.00000076,0.00000160,0.00000140,-0.000002
 38,-0.00001740,-0.00001711,-0.00001458,-0.00223562,-0.00311890,-0.0065
 9016,0.00042551,0.00217911,0.00060059,0.01563384,0.02384986,-0.0178506
 6,-0.00021496,-0.00017436,0.00020584,-0.00036406,-0.00011200,0.0003724
 7,0.00002329,-0.00000072,0.00000448,-0.00042677,0.00098183,-0.00031415
 ,0.00124455,0.00142418,-0.00122576,0.00012165,-0.00130325,0.00014641,0
 .00127277,0.00105816,0.00085360,-0.00105515,-0.00061900,-0.00021852,-0
 .00010380,-0.00003948,-0.00006004,0.00003052,-0.00032344,0.00042505,0.
 06254978,0.09503365,-0.11494580,-0.00380994,-0.00412610,0.00291442,-0.
 06891766,-0.10417009,0.12832593,0.00000954,0.00003217,-0.00002134,0.00
 001209,0.00000767,0.00001954,0.00000642,-0.00000038,-0.00000151,0.0000
 1205,0.00000069,0.00002099,0.00001018,-0.00003798,-0.00000861,0.000119
 52,-0.00001835,-0.00005894,0.00000816,-0.00001398,-0.00002211,0.000005
 52,-0.00000159,-0.00000300,0.00000554,0.00000014,-0.00000341,0.0000083
 7,0.00000418,-0.00002584,-0.00093873,-0.00059666,-0.00046717,-0.000937
 62,0.00036597,-0.00067225,0.00192482,-0.00006960,-0.00023269,-0.000059
 74,-0.00002954,-0.00007562,0.00010368,-0.00018206,-0.00002432,0.000009
 22,0.00000031,0.00000180,-0.00033972,0.00020397,0.00093270,0.00010512,
 0.00015468,-0.00009773,-0.00005970,-0.00000408,-0.00007990,0.00073994,
 -0.00016518,-0.00075817,0.00019345,0.00017962,0.00019703,0.00018852,-0
 .00008233,0.00025247,-0.00004450,0.00002995,0.00012704,-0.28275509,-0.
 01755063,-0.08565254,-0.01318410,-0.00154714,-0.00417661,-0.01337664,-
 0.00022515,-0.00454228,0.30796662,0.00001480,0.00005203,0.00000637,0.0
 0003299,-0.00002986,0.00001755,0.00002125,-0.00002370,0.00001265,-0.00
 005637,-0.00002729,-0.00002538,-0.00000982,0.00008552,-0.00001546,-0.0
 0004336,-0.00016095,0.00004312,0.00002674,-0.00004636,-0.00001403,0.00
 000501,0.00000025,-0.00000251,-0.00001219,-0.00000221,0.00000199,-0.00
 001649,-0.00003021,0.00003498,0.00023548,0.00013464,0.00062607,-0.0010
 8920,-0.00003769,-0.00051856,-0.00666213,-0.00187115,-0.00164096,0.000
 08095,-0.00002823,-0.00000694,-0.00003189,0.00008099,0.00012249,-0.000
 02545,-0.00000831,-0.00000299,0.00053623,0.00190936,-0.00094378,0.0000
 2613,-0.00001993,-0.00007971,-0.00000261,-0.00008592,0.00001412,0.0003
 8960,-0.00017830,-0.00139663,0.00044685,0.00017732,0.00005497,-0.00037
 846,0.00024492,-0.00010288,-0.00042675,0.00049839,-0.00030976,-0.01724
 245,-0.05049192,-0.00635299,0.02787682,0.00323647,0.01056987,-0.022967
 69,-0.00129503,-0.00919506,0.01884451,0.04949396,0.00000620,-0.0000887
 4,0.00006748,-0.00006348,-0.00003022,-0.00004412,0.00009900,0.00001214
 ,0.00003153,-0.00004401,0.00002281,-0.00004646,0.00001214,0.00008066,0
 .00003328,-0.00018983,0.00004394,0.00003140,0.00001781,0.00000221,0.00
 001773,-0.00001847,0.00000764,-0.00000347,-0.00001483,-0.00000806,-0.0
 0000096,0.00002750,0.00001964,0.00000229,-0.00214026,-0.00011020,0.000
 14034,-0.00185793,0.00023982,0.00034515,-0.03091837,-0.00152908,-0.008
 99064,0.00015553,0.00015379,-0.00010265,-0.00000642,0.00013829,0.00007
 244,-0.00011765,-0.00000255,-0.00002150,0.00246010,-0.00094261,-0.0022
 4896,-0.00002056,-0.00009674,0.00016999,0.00017556,-0.00015468,-0.0000
 3348,0.00181739,-0.00140719,-0.00637009,0.00006798,-0.00024216,0.00014
 122,0.00024752,0.00019458,0.00007773,-0.00199185,-0.00030163,-0.000871
 75,-0.08418704,-0.00634531,-0.08015820,0.00566127,0.00120499,0.0015902
 0,0.01660916,0.00005208,0.00630663,0.09215748,0.00828307,0.08770903,-0
 .00361816,-0.00526043,0.00020065,-0.00276529,0.00063603,-0.00055794,0.
 00210972,0.00128473,0.00008940,-0.00003913,0.00089822,-0.00012292,-0.0
 0100824,0.00229052,-0.00080396,-0.01994968,0.02764685,-0.01087649,0.00
 022292,0.00030558,-0.00004155,-0.00076211,0.00010097,-0.00014107,-0.00
 027860,-0.00017402,-0.00000735,-0.00081274,0.00060145,-0.00020106,-0.1
 8820023,-0.00838080,-0.02348315,-0.01124933,0.00405539,-0.00009091,-0.
 03501649,-0.00283861,-0.00727895,-0.03339820,0.00328733,-0.00610358,0.
 00138589,-0.00034124,0.00081479,-0.00235547,-0.00012279,-0.00042577,-0
 .12985826,0.09628512,-0.03525774,-0.02601002,-0.00118025,-0.01177027,0
 .00129643,-0.00056326,0.00010198,-0.00009293,-0.00776840,0.00618183,-0
 .00310041,-0.00037747,-0.00078944,0.00115517,0.00043330,-0.00000256,0.
 00052665,0.00039548,-0.00020795,0.00027725,-0.00064566,-0.00198268,0.0
 0007419,0.00002527,-0.00038282,0.00013001,-0.00033939,0.00063733,0.000
 13681,0.00027083,0.00101098,0.42621645,-0.00084469,0.00172987,-0.00027
 869,0.00088245,0.00086530,-0.00010951,-0.00111370,-0.00013387,-0.00017
 341,0.00102140,0.00041713,0.00002726,-0.00129460,-0.00443214,0.0008850
 3,0.01114769,-0.00059292,0.00363182,-0.00054976,0.00041535,-0.00017478
 ,0.00016022,-0.00005225,0.00001723,0.00029933,0.00007990,0.00003674,-0
 .00030610,0.00107261,-0.00035814,0.00496070,-0.08150365,0.00524790,0.0
 2030451,0.00340506,0.00002003,-0.02302063,0.00257497,-0.00611001,0.035
 68086,0.00622343,0.00861000,-0.00156567,0.00001194,-0.00127327,0.00116
 124,0.00016058,0.00019231,0.07822525,-0.23266332,0.05420793,-0.0003222
 5,0.00457633,0.00248090,-0.00226987,0.00085861,0.00010302,-0.00142408,
 -0.00150965,0.00280139,-0.00093942,0.00021982,-0.00026839,-0.00121287,
 0.00027860,0.00010188,0.00021040,-0.00031885,0.00007129,0.00059183,0.0
 0194347,-0.00080747,-0.00087881,0.00019671,0.00069130,0.00031599,0.000
 25381,-0.00047472,0.00011649,-0.00093337,-0.00000718,-0.11444379,0.361
 40003,-0.00091069,-0.00087476,0.00136238,-0.00045777,-0.00004126,-0.00
 054686,0.00050723,0.00017794,0.00009668,-0.00015051,-0.00004472,-0.000
 43558,0.00004205,0.00128102,0.00022080,-0.00689042,0.00667763,0.004033
 48,0.00013223,-0.00000677,0.00014500,-0.00013824,-0.00000227,-0.000151
 60,-0.00010660,-0.00003875,-0.00001182,-0.00004072,-0.00014599,-0.0002
 0150,-0.02946367,-0.00045405,-0.07468010,-0.00447755,-0.00185269,-0.00
 197279,0.01399695,-0.00144614,0.00484420,0.00182578,0.00274218,0.00493
 215,0.00054379,0.00080336,0.00016774,-0.00054503,-0.00003939,-0.000037
 74,-0.03242201,0.05908152,-0.06467163,-0.03912748,0.00227730,-0.000574
 35,0.00051822,-0.00049677,-0.00019079,0.00065771,0.00176763,-0.0010693
 0,0.00054411,0.00019499,0.00073267,0.00007171,-0.00001273,-0.00021941,
 0.00057473,0.00044650,0.00064546,-0.00087411,-0.00063326,-0.00067818,0
 .00036713,-0.00016502,-0.00017656,0.00077685,0.00005294,0.00092664,0.0
 0165910,0.00010255,0.00122720,0.09295919,-0.08801257,0.10794288,-0.001
 00892,-0.00244810,0.00022343,-0.00005536,-0.00086326,0.00026126,0.0021
 0928,-0.00114617,0.00062058,-0.00277754,-0.00078284,-0.00024645,-0.003
 57205,0.00491004,-0.00200947,-0.02024651,-0.02953873,0.00146805,-0.000
 79940,-0.00061947,0.00005664,-0.00027955,0.00015776,-0.00008045,-0.000
 76445,-0.00014509,-0.00008746,0.00022515,-0.00029326,0.00008667,-0.011
 44966,-0.00364694,0.00155530,-0.18815775,-0.00122967,-0.02516510,-0.03
 483532,-0.00009967,-0.00781717,0.00132020,0.00055281,-0.00013988,-0.02
 610464,-0.00360838,-0.01130212,-0.00236417,-0.00004699,-0.00044456,-0.
 13125922,-0.10315264,0.00764896,0.00139215,0.00064908,0.00060796,-0.03
 368137,-0.00524286,-0.00436997,-0.00001525,0.00960678,0.00241812,0.001
 16043,-0.00040271,0.00017660,-0.00309237,0.00004341,-0.00087814,0.0005
 2218,-0.00045256,-0.00002494,0.00026596,-0.00021225,-0.00207511,0.0001
 3164,0.00057283,0.00044328,0.00007821,-0.00018171,-0.00034170,0.000130
 29,0.00015665,0.00104507,0.02498381,-0.00489213,0.00042803,0.42814423,
 0.00116482,-0.00443884,0.00124484,-0.00098841,0.00029129,-0.00035309,0
 .00120686,-0.00009688,0.00025907,-0.00096679,0.00069338,-0.00044848,0.
 00043612,0.00206355,-0.00004203,-0.01286806,-0.00336831,-0.00017722,0.
 00026120,0.00105584,-0.00021171,-0.00031382,0.00006601,-0.00007190,-0.
 00019772,-0.00007236,-0.00005159,0.00055819,0.00043542,0.00003854,-0.0
 2018593,0.00335500,-0.00237770,-0.01585326,-0.08205501,-0.00168586,0.0
 2698632,0.00560524,0.00580464,0.00228047,0.00080683,-0.00056186,-0.015
 62406,0.00202281,-0.00355296,-0.00126436,0.00007843,-0.00024006,-0.085
 55799,-0.24520472,0.02808331,0.00164314,0.00020337,0.00124616,-0.03149
 196,0.00201586,-0.00722148,0.00154717,-0.00323268,-0.00187489,0.001127
 42,0.00015539,-0.00027313,0.00110469,0.00032615,0.00045609,0.00003745,
 -0.00034669,0.00037821,-0.00088822,0.00205352,-0.00040593,0.00003547,0
 .00052160,0.00065285,0.00095185,-0.00006849,-0.00073771,0.00058429,-0.
 00064342,0.00081067,0.00391903,-0.06454352,0.01866159,0.14235608,0.382
 32122,-0.00049062,0.00084352,0.00023526,0.00028657,-0.00028373,-0.0002
 9520,0.00000433,-0.00009422,0.00006076,-0.00006177,-0.00051917,-0.0003
 6099,-0.00118483,0.00056175,0.00098189,-0.00174646,-0.00322888,0.00713
 280,-0.00016267,-0.00042780,-0.00016870,0.00002639,0.00000402,0.000002
 84,-0.00006143,-0.00003270,-0.00012909,-0.00010701,-0.00012548,0.00012
 282,0.00426051,-0.00051912,-0.00174583,-0.02502594,0.00405704,-0.07417
 333,0.00325431,0.00098897,0.00163321,-0.00046441,0.00004154,-0.0001610
 0,-0.03590919,-0.00317062,0.00196790,-0.00002080,-0.00000892,0.0000529
 3,0.00275242,0.02320819,-0.05069841,-0.00017167,-0.00081220,-0.0000393
 5,0.01624586,-0.00143007,0.00943517,0.00000992,-0.00081247,0.00057667,
 -0.00043452,-0.00015713,-0.00010158,0.00010309,-0.00001610,0.00061652,
 0.00060988,-0.00000162,0.00067708,-0.00055625,-0.00059376,-0.00077967,
 0.00084108,0.00012278,0.00065669,-0.00002726,0.00011464,0.00008318,0.0
 0155590,0.00071784,0.00092864,-0.00146799,0.01892208,0.01834091,0.0379
 4257,-0.03734838,0.08514788\\-0.00000221,0.00000382,-0.00000028,0.0000
 1318,-0.00000378,0.00000320,-0.00001031,-0.00000055,-0.00000143,0.0000
 1309,0.00000451,0.00000093,-0.00000186,-0.00000372,0.00000207,-0.00000
 309,-0.00000067,0.00000123,-0.00000248,-0.00000045,0.00000025,-0.00000
 096,0.00000215,-0.00000017,-0.00000075,-0.00000230,0.00000076,-0.00000
 232,0.00000043,-0.00000038,0.00000868,-0.00000285,0.00000070,0.0000092
 2,0.00000390,0.00000058,-0.00000190,-0.00000349,-0.00000778,0.00000245
 ,-0.00000187,-0.00000297,0.00000055,-0.00000181,0.00000123,-0.00000505
 ,-0.00000017,-0.00000025,0.00000724,0.00000102,-0.00001790,0.00000093,
 0.00000223,-0.00000014,0.00000269,0.00000020,-0.00000195,0.00000053,0.
 00000158,0.00000226,-0.00000196,0.00000001,-0.00000079,-0.00000303,0.0
 0000055,-0.00000025,0.00000049,0.00000098,-0.00000021,-0.00000166,0.00
 000083,0.00000295,-0.00000172,-0.00000033,0.00000103,0.00000041,0.0000
 0048,0.00000140,-0.00000106,0.00000069,-0.00000092,-0.00000881,-0.0000
 0143,0.00000909,-0.00001032,0.00000003,0.00000771\\\@


 DON'T WORRY CHARLIE BROWN...WE LEARN MORE FROM LOSING 
 THAN WE DO FROM WINNING.
 THEN THAT MAKES ME THE SMARTEST PERSON IN THE WORLD...
 CHARLES SCHULZ 'PEANUTS'
 Job cpu time:       0 days  2 hours 32 minutes 24.7 seconds.
 Elapsed time:       0 days  0 hours  5 minutes  4.9 seconds.
 File lengths (MBytes):  RWF=    318 Int=      0 D2E=      0 Chk=     10 Scr=      1
 Normal termination of Gaussian 16 at Thu Sep 14 11:26:03 2023.
