 Entering Gaussian System, Link 0=/home/ubuntu/g16/g16
 Input=/home/ubuntu/ML substrates/MOLECULE_28.gjf
 Output=/home/ubuntu/ML substrates/MOLECULE_28.log
 Initial command:
 /home/ubuntu/g16/l1.exe "/home/ubuntu/Scratch/Gau-28282.inp" -scrdir="/home/ubuntu/Scratch/"
 Entering Link 1 = /home/ubuntu/g16/l1.exe PID=     28284.
  
 Copyright (c) 1988-2017, Gaussian, Inc.  All Rights Reserved.
  
 This is part of the Gaussian(R) 16 program.  It is based on
 the Gaussian(R) 09 system (copyright 2009, Gaussian, Inc.),
 the Gaussian(R) 03 system (copyright 2003, Gaussian, Inc.),
 the Gaussian(R) 98 system (copyright 1998, Gaussian, Inc.),
 the Gaussian(R) 94 system (copyright 1995, Gaussian, Inc.),
 the Gaussian 92(TM) system (copyright 1992, Gaussian, Inc.),
 the Gaussian 90(TM) system (copyright 1990, Gaussian, Inc.),
 the Gaussian 88(TM) system (copyright 1988, Gaussian, Inc.),
 the Gaussian 86(TM) system (copyright 1986, Carnegie Mellon
 University), and the Gaussian 82(TM) system (copyright 1983,
 Carnegie Mellon University). Gaussian is a federally registered
 trademark of Gaussian, Inc.
  
 This software contains proprietary and confidential information,
 including trade secrets, belonging to Gaussian, Inc.
  
 This software is provided under written license and may be
 used, copied, transmitted, or stored only in accord with that
 written license.
  
 The following legend is applicable only to US Government
 contracts under FAR:
  
                    RESTRICTED RIGHTS LEGEND
  
 Use, reproduction and disclosure by the US Government is
 subject to restrictions as set forth in subparagraphs (a)
 and (c) of the Commercial Computer Software - Restricted
 Rights clause in FAR 52.227-19.
  
 Gaussian, Inc.
 340 Quinnipiac St., Bldg. 40, Wallingford CT 06492
  
  
 ---------------------------------------------------------------
 Warning -- This program may not be used in any manner that
 competes with the business of Gaussian, Inc. or will provide
 assistance to any competitor of Gaussian, Inc.  The licensee
 of this program is prohibited from giving any competitor of
 Gaussian, Inc. access to this program.  By using this program,
 the user acknowledges that Gaussian, Inc. is engaged in the
 business of creating and licensing software in the field of
 computational chemistry and represents and warrants to the
 licensee that it is not a competitor of Gaussian, Inc. and that
 it will not use this program in any manner prohibited above.
 ---------------------------------------------------------------
  

 Cite this work as:
 Gaussian 16, Revision B.01,
 M. J. Frisch, G. W. Trucks, H. B. Schlegel, G. E. Scuseria, 
 M. A. Robb, J. R. Cheeseman, G. Scalmani, V. Barone, 
 G. A. Petersson, H. Nakatsuji, X. Li, M. Caricato, A. V. Marenich, 
 J. Bloino, B. G. Janesko, R. Gomperts, B. Mennucci, H. P. Hratchian, 
 J. V. Ortiz, A. F. Izmaylov, J. L. Sonnenberg, D. Williams-Young, 
 F. Ding, F. Lipparini, F. Egidi, J. Goings, B. Peng, A. Petrone, 
 T. Henderson, D. Ranasinghe, V. G. Zakrzewski, J. Gao, N. Rega, 
 G. Zheng, W. Liang, M. Hada, M. Ehara, K. Toyota, R. Fukuda, 
 J. Hasegawa, M. Ishida, T. Nakajima, Y. Honda, O. Kitao, H. Nakai, 
 T. Vreven, K. Throssell, J. A. Montgomery, Jr., J. E. Peralta, 
 F. Ogliaro, M. J. Bearpark, J. J. Heyd, E. N. Brothers, K. N. Kudin, 
 V. N. Staroverov, T. A. Keith, R. Kobayashi, J. Normand, 
 K. Raghavachari, A. P. Rendell, J. C. Burant, S. S. Iyengar, 
 J. Tomasi, M. Cossi, J. M. Millam, M. Klene, C. Adamo, R. Cammi, 
 J. W. Ochterski, R. L. Martin, K. Morokuma, O. Farkas, 
 J. B. Foresman, and D. J. Fox, Gaussian, Inc., Wallingford CT, 2016.
 
 ******************************************
 Gaussian 16:  EM64L-G16RevB.01 20-Dec-2017
                15-Sep-2023 
 ******************************************
 %nprocshared=30
 Will use up to   30 processors via shared memory.
 %mem=30GB
 %chk=MOLECULE_28.chk
 ----------------------------------------------------------------
 # opt freq b3lyp/6-31+g(d) nosymm empiricaldispersion=gd3 volume
 ----------------------------------------------------------------
 1/18=20,19=15,26=3,38=1/1,3;
 2/9=110,12=2,15=1,17=6,18=5,40=1/2;
 3/5=1,6=6,7=11,11=2,25=1,30=1,71=1,74=-5,124=31/1,2,3;
 4//1;
 5/5=2,38=5/2;
 6/7=2,8=2,9=2,10=2,28=1,44=1/1,4;
 7/30=1/1,2,3,16;
 1/18=20,19=15,26=3/3(2);
 2/9=110,15=1/2;
 99//99;
 2/9=110,15=1/2;
 3/5=1,6=6,7=11,11=2,25=1,30=1,71=1,74=-5,124=31/1,2,3;
 4/5=5,16=3,69=1/1;
 5/5=2,38=5/2;
 7/30=1/1,2,3,16;
 1/18=20,19=15,26=3/3(-5);
 2/9=110,15=1/2;
 6/7=2,8=2,9=2,10=2,19=2,28=1,44=1/1,4;
 99/9=1/99;
 -----------
 molecule_28
 -----------
 Symbolic Z-matrix:
 Charge =  0 Multiplicity = 1
 C                    -0.31207  -0.73935   0.00564 
 C                     1.08108  -0.76847  -0.08217 
 C                     1.79938   0.43013  -0.1152 
 C                     1.1468    1.67728  -0.06183 
 C                    -0.25415   1.67865   0.0264 
 C                    -0.98609   0.48741   0.06025 
 H                    -0.86823  -1.67084   0.03124 
 H                     1.63212  -1.70045  -0.12607 
 H                    -0.77246   2.63262   0.069 
 H                    -2.0684    0.51649   0.1285 
 O                     3.18785   0.31251  -0.20337 
 H                     3.63089   1.18082  -0.22241 
 C                     1.94064   2.9639   -0.09854 
 H                     2.64071   3.04103   0.74645 
 H                     2.52568   3.06188  -1.0249 
 H                     1.27777   3.83195  -0.04525 
 

 GradGradGradGradGradGradGradGradGradGradGradGradGradGradGradGradGradGrad
 Berny optimization.
 Initialization pass.
                           ----------------------------
                           !    Initial Parameters    !
                           ! (Angstroms and Degrees)  !
 --------------------------                            --------------------------
 ! Name  Definition              Value          Derivative Info.                !
 --------------------------------------------------------------------------------
 ! R1    R(1,2)                  1.3962         estimate D2E/DX2                !
 ! R2    R(1,6)                  1.4008         estimate D2E/DX2                !
 ! R3    R(1,7)                  1.0852         estimate D2E/DX2                !
 ! R4    R(2,3)                  1.3977         estimate D2E/DX2                !
 ! R5    R(2,8)                  1.0836         estimate D2E/DX2                !
 ! R6    R(3,4)                  1.4086         estimate D2E/DX2                !
 ! R7    R(3,11)                 1.3962         estimate D2E/DX2                !
 ! R8    R(4,5)                  1.4037         estimate D2E/DX2                !
 ! R9    R(4,13)                 1.5123         estimate D2E/DX2                !
 ! R10   R(5,6)                  1.3986         estimate D2E/DX2                !
 ! R11   R(5,9)                  1.0865         estimate D2E/DX2                !
 ! R12   R(6,10)                 1.0848         estimate D2E/DX2                !
 ! R13   R(11,12)                0.975          estimate D2E/DX2                !
 ! R14   R(13,14)                1.1            estimate D2E/DX2                !
 ! R15   R(13,15)                1.1            estimate D2E/DX2                !
 ! R16   R(13,16)                1.0935         estimate D2E/DX2                !
 ! A1    A(2,1,6)              120.0548         estimate D2E/DX2                !
 ! A2    A(2,1,7)              119.667          estimate D2E/DX2                !
 ! A3    A(6,1,7)              120.2782         estimate D2E/DX2                !
 ! A4    A(1,2,3)              119.7604         estimate D2E/DX2                !
 ! A5    A(1,2,8)              121.8639         estimate D2E/DX2                !
 ! A6    A(3,2,8)              118.3757         estimate D2E/DX2                !
 ! A7    A(2,3,4)              121.3502         estimate D2E/DX2                !
 ! A8    A(2,3,11)             116.1228         estimate D2E/DX2                !
 ! A9    A(4,3,11)             122.5271         estimate D2E/DX2                !
 ! A10   A(3,4,5)              117.7507         estimate D2E/DX2                !
 ! A11   A(3,4,13)             120.6085         estimate D2E/DX2                !
 ! A12   A(5,4,13)             121.6408         estimate D2E/DX2                !
 ! A13   A(4,5,6)              121.534          estimate D2E/DX2                !
 ! A14   A(4,5,9)              118.6474         estimate D2E/DX2                !
 ! A15   A(6,5,9)              119.8185         estimate D2E/DX2                !
 ! A16   A(1,6,5)              119.55           estimate D2E/DX2                !
 ! A17   A(1,6,10)             120.3962         estimate D2E/DX2                !
 ! A18   A(5,6,10)             120.0538         estimate D2E/DX2                !
 ! A19   A(3,11,12)            112.2151         estimate D2E/DX2                !
 ! A20   A(4,13,14)            112.0296         estimate D2E/DX2                !
 ! A21   A(4,13,15)            112.0504         estimate D2E/DX2                !
 ! A22   A(4,13,16)            110.8538         estimate D2E/DX2                !
 ! A23   A(14,13,15)           107.5883         estimate D2E/DX2                !
 ! A24   A(14,13,16)           107.0186         estimate D2E/DX2                !
 ! A25   A(15,13,16)           107.0218         estimate D2E/DX2                !
 ! D1    D(6,1,2,3)              0.0042         estimate D2E/DX2                !
 ! D2    D(6,1,2,8)            179.9978         estimate D2E/DX2                !
 ! D3    D(7,1,2,3)           -179.9963         estimate D2E/DX2                !
 ! D4    D(7,1,2,8)             -0.0027         estimate D2E/DX2                !
 ! D5    D(2,1,6,5)             -0.0097         estimate D2E/DX2                !
 ! D6    D(2,1,6,10)           179.9981         estimate D2E/DX2                !
 ! D7    D(7,1,6,5)            179.9908         estimate D2E/DX2                !
 ! D8    D(7,1,6,10)            -0.0014         estimate D2E/DX2                !
 ! D9    D(1,2,3,4)             -0.009          estimate D2E/DX2                !
 ! D10   D(1,2,3,11)           179.9895         estimate D2E/DX2                !
 ! D11   D(8,2,3,4)            179.9972         estimate D2E/DX2                !
 ! D12   D(8,2,3,11)            -0.0043         estimate D2E/DX2                !
 ! D13   D(2,3,4,5)              0.0188         estimate D2E/DX2                !
 ! D14   D(2,3,4,13)           179.9922         estimate D2E/DX2                !
 ! D15   D(11,3,4,5)          -179.9796         estimate D2E/DX2                !
 ! D16   D(11,3,4,13)           -0.0062         estimate D2E/DX2                !
 ! D17   D(2,3,11,12)         -179.9966         estimate D2E/DX2                !
 ! D18   D(4,3,11,12)            0.0019         estimate D2E/DX2                !
 ! D19   D(3,4,5,6)             -0.0244         estimate D2E/DX2                !
 ! D20   D(3,4,5,9)            179.9659         estimate D2E/DX2                !
 ! D21   D(13,4,5,6)          -179.9975         estimate D2E/DX2                !
 ! D22   D(13,4,5,9)            -0.0072         estimate D2E/DX2                !
 ! D23   D(3,4,13,14)          -60.3544         estimate D2E/DX2                !
 ! D24   D(3,4,13,15)           60.6827         estimate D2E/DX2                !
 ! D25   D(3,4,13,16)         -179.8269         estimate D2E/DX2                !
 ! D26   D(5,4,13,14)          119.6179         estimate D2E/DX2                !
 ! D27   D(5,4,13,15)         -119.3449         estimate D2E/DX2                !
 ! D28   D(5,4,13,16)            0.1455         estimate D2E/DX2                !
 ! D29   D(4,5,6,1)              0.0202         estimate D2E/DX2                !
 ! D30   D(4,5,6,10)          -179.9875         estimate D2E/DX2                !
 ! D31   D(9,5,6,1)           -179.97           estimate D2E/DX2                !
 ! D32   D(9,5,6,10)             0.0223         estimate D2E/DX2                !
 --------------------------------------------------------------------------------
 Trust Radius=3.00D-01 FncErr=1.00D-07 GrdErr=1.00D-06 EigMax=2.50D+02 EigMin=1.00D-04
 Number of steps in this run=     83 maximum allowed number of steps=    100.
 GradGradGradGradGradGradGradGradGradGradGradGradGradGradGradGradGradGrad

                          Input orientation:                          
 ---------------------------------------------------------------------
 Center     Atomic      Atomic             Coordinates (Angstroms)
 Number     Number       Type             X           Y           Z
 ---------------------------------------------------------------------
      1          6           0       -0.312071   -0.739353    0.005636
      2          6           0        1.081079   -0.768470   -0.082167
      3          6           0        1.799381    0.430134   -0.115203
      4          6           0        1.146799    1.677279   -0.061829
      5          6           0       -0.254153    1.678654    0.026402
      6          6           0       -0.986090    0.487405    0.060252
      7          1           0       -0.868234   -1.670843    0.031242
      8          1           0        1.632122   -1.700447   -0.126072
      9          1           0       -0.772459    2.632618    0.069002
     10          1           0       -2.068397    0.516491    0.128498
     11          8           0        3.187851    0.312513   -0.203373
     12          1           0        3.630886    1.180818   -0.222406
     13          6           0        1.940640    2.963896   -0.098542
     14          1           0        2.640705    3.041031    0.746450
     15          1           0        2.525678    3.061883   -1.024897
     16          1           0        1.277767    3.831948   -0.045245
 ---------------------------------------------------------------------
                    Distance matrix (angstroms):
                    1          2          3          4          5
     1  C    0.000000
     2  C    1.396218   0.000000
     3  C    2.416719   1.397748   0.000000
     4  C    2.823644   2.446716   1.408575   0.000000
     5  C    2.418790   2.789811   2.407458   1.403728   0.000000
     6  C    1.400793   2.422951   2.791579   2.445387   1.398553
     7  H    1.085194   2.151037   3.398782   3.908829   3.405327
     8  H    2.172771   1.083585   2.137164   3.413019   3.872932
     9  H    3.403845   3.876320   3.391051   2.147869   1.086510
    10  H    2.162619   3.408035   3.876410   3.423615   2.156972
    11  O    3.660541   2.371013   1.396230   2.459373   3.710327
    12  H    4.391579   3.212617   1.982279   2.538296   3.924701
    13  C    4.335852   3.830100   2.537751   1.512255   2.546483
    14  H    4.853761   4.198969   2.875249   2.178277   3.279442
    15  H    4.854298   4.200858   2.877699   2.178517   3.278111
    16  H    4.840141   4.604769   3.442283   2.158709   2.643594
                    6          7          8          9         10
     6  C    0.000000
     7  H    2.161658   0.000000
     8  H    3.417082   2.505475   0.000000
     9  H    2.155842   4.304692   4.959387   0.000000
    10  H    1.084847   2.496854   4.321280   2.482134   0.000000
    11  O    4.185913   4.521125   2.545246   4.597949   5.270663
    12  H    4.677305   5.332766   3.507995   4.645653   5.748590
    13  C    3.837183   5.421017   4.674616   2.738380   4.702522
    14  H    4.488376   5.918271   4.925459   3.503630   5.378737
    15  H    4.487538   5.918848   4.928095   3.501227   5.377254
    16  H    4.040068   5.906935   5.544321   2.377997   4.713731
                   11         12         13         14         15
    11  O    0.000000
    12  H    0.974985   0.000000
    13  C    2.931954   2.460008   0.000000
    14  H    2.940466   2.319382   1.100024   0.000000
    15  H    2.944896   2.324625   1.100002   1.775200   0.000000
    16  H    4.007474   3.549232   1.093506   1.763500   1.763519
                   16
    16  H    0.000000
 Symmetry turned off by external request.
 Stoichiometry    C7H8O
 Framework group  C1[X(C7H8O)]
 Deg. of freedom    42
 Full point group                 C1      NOp   1
 Rotational constants (GHZ):           3.2026940           2.1825435           1.3086714
 Standard basis: 6-31+G(d) (6D, 7F)
   168 basis functions,   288 primitive gaussians,   168 cartesian basis functions
    29 alpha electrons       29 beta electrons
       nuclear repulsion energy       346.0777919363 Hartrees.
 NAtoms=   16 NActive=   16 NUniq=   16 SFac= 1.00D+00 NAtFMM=   60 NAOKFM=F Big=F
 Integral buffers will be    131072 words long.
 Raffenetti 2 integral format.
 Two-electron integral symmetry is turned off.
 Nuclear repulsion after empirical dispersion term =      346.0679186313 Hartrees.
 One-electron integrals computed using PRISM.
 NBasis=   168 RedAO= T EigKep=  3.66D-06  NBF=   168
 NBsUse=   168 1.00D-06 EigRej= -1.00D+00 NBFU=   168
 ExpMin= 4.38D-02 ExpMax= 5.48D+03 ExpMxC= 8.25D+02 IAcc=3 IRadAn=         5 AccDes= 0.00D+00
 Harris functional with IExCor=  402 and IRadAn=       5 diagonalized for initial guess.
 HarFok:  IExCor=  402 AccDes= 0.00D+00 IRadAn=         5 IDoV= 1 UseB2=F ITyADJ=14
 ICtDFT=  3500011 ScaDFX=  1.000000  1.000000  1.000000  1.000000
 FoFCou: FMM=F IPFlag=           0 FMFlag=      100000 FMFlg1=           0
         NFxFlg=           0 DoJE=T BraDBF=F KetDBF=T FulRan=T
         wScrn=  0.000000 ICntrl=       500 IOpCl=  0 I1Cent=   200000004 NGrid=           0
         NMat0=    1 NMatS0=      1 NMatT0=    0 NMatD0=    1 NMtDS0=    0 NMtDT0=    0
 Symmetry not used in FoFCou.
 Requested convergence on RMS density matrix=1.00D-08 within 128 cycles.
 Requested convergence on MAX density matrix=1.00D-06.
 Requested convergence on             energy=1.00D-06.
 No special actions if energy rises.
 SCF Done:  E(RB3LYP) =  -346.807851261     A.U. after   14 cycles
            NFock= 14  Conv=0.43D-08     -V/T= 2.0101

 **********************************************************************

            Population analysis using the SCF Density.

 **********************************************************************

 Alpha  occ. eigenvalues --  -19.18945 -10.25557 -10.20699 -10.20316 -10.19791
 Alpha  occ. eigenvalues --  -10.19671 -10.19178 -10.19084  -1.05659  -0.85676
 Alpha  occ. eigenvalues --   -0.78103  -0.74472  -0.69845  -0.61040  -0.60901
 Alpha  occ. eigenvalues --   -0.54334  -0.49690  -0.47018  -0.44202  -0.44145
 Alpha  occ. eigenvalues --   -0.41969  -0.40405  -0.39434  -0.39193  -0.36054
 Alpha  occ. eigenvalues --   -0.34387  -0.33766  -0.25227  -0.22821
 Alpha virt. eigenvalues --   -0.01317  -0.00858  -0.00170   0.01220   0.02393
 Alpha virt. eigenvalues --    0.03869   0.04539   0.04658   0.06041   0.06571
 Alpha virt. eigenvalues --    0.07570   0.07979   0.09193   0.09890   0.11841
 Alpha virt. eigenvalues --    0.11903   0.12801   0.12980   0.13931   0.15186
 Alpha virt. eigenvalues --    0.15513   0.16399   0.16522   0.17434   0.17939
 Alpha virt. eigenvalues --    0.18681   0.20191   0.21089   0.21435   0.22039
 Alpha virt. eigenvalues --    0.23092   0.23240   0.23779   0.24331   0.24843
 Alpha virt. eigenvalues --    0.26076   0.27750   0.28228   0.28423   0.28882
 Alpha virt. eigenvalues --    0.30709   0.32013   0.33079   0.34452   0.35800
 Alpha virt. eigenvalues --    0.38158   0.38463   0.39845   0.40997   0.57453
 Alpha virt. eigenvalues --    0.59932   0.65589   0.66699   0.68109   0.68842
 Alpha virt. eigenvalues --    0.70116   0.72044   0.72134   0.73954   0.74231
 Alpha virt. eigenvalues --    0.74807   0.77106   0.77420   0.79676   0.82818
 Alpha virt. eigenvalues --    0.85447   0.89509   0.93137   0.93624   0.93701
 Alpha virt. eigenvalues --    0.94998   1.00470   1.02615   1.03969   1.07635
 Alpha virt. eigenvalues --    1.08075   1.10862   1.13775   1.15110   1.17939
 Alpha virt. eigenvalues --    1.20678   1.21521   1.23523   1.24301   1.27598
 Alpha virt. eigenvalues --    1.30311   1.35457   1.38455   1.39964   1.42196
 Alpha virt. eigenvalues --    1.45283   1.45548   1.47827   1.49691   1.55322
 Alpha virt. eigenvalues --    1.72771   1.74509   1.79343   1.81936   1.83924
 Alpha virt. eigenvalues --    1.85256   1.92606   1.94122   1.95679   1.97564
 Alpha virt. eigenvalues --    1.99025   1.99995   2.10653   2.12468   2.15551
 Alpha virt. eigenvalues --    2.18405   2.23850   2.27628   2.30353   2.31359
 Alpha virt. eigenvalues --    2.32952   2.34565   2.35385   2.48893   2.51320
 Alpha virt. eigenvalues --    2.57532   2.63437   2.64733   2.71214   2.74502
 Alpha virt. eigenvalues --    2.77514   2.83230   2.88602   3.04458   3.12074
 Alpha virt. eigenvalues --    3.42055   4.16538   4.23919   4.25755   4.27564
 Alpha virt. eigenvalues --    4.35491   4.44770   4.46807   4.77281
          Condensed to atoms (all electrons):
               1          2          3          4          5          6
     1  C    5.778963  -0.723165   1.324787  -0.733120   0.182544   0.382036
     2  C   -0.723165   9.921736  -2.355621  -0.236048  -1.374647   0.274167
     3  C    1.324787  -2.355621  13.152838  -2.410181  -1.606677  -0.565195
     4  C   -0.733120  -0.236048  -2.410181   9.354677  -0.807709   0.040460
     5  C    0.182544  -1.374647  -1.606677  -0.807709   9.988569  -0.009507
     6  C    0.382036   0.274167  -0.565195   0.040460  -0.009507   5.539757
     7  H    0.280275   0.004376  -0.024965  -0.006076   0.010838   0.029465
     8  H   -0.039402   0.293475  -0.007773   0.052976  -0.014908   0.007417
     9  H    0.016247  -0.024544   0.062339   0.013988   0.224624   0.010572
    10  H    0.017694   0.010936  -0.006899   0.010514  -0.018722   0.281653
    11  O    0.072297  -0.282935   0.090630  -0.088067   0.126951  -0.011390
    12  H   -0.016307   0.175824  -0.050280  -0.131258  -0.035877   0.006263
    13  C   -0.142335   0.174383  -1.323985  -0.121040   0.363428   0.057235
    14  H    0.001975  -0.023536  -0.064690  -0.049260   0.039299   0.002597
    15  H    0.001981  -0.023828  -0.066761  -0.048365   0.041169   0.002741
    16  H   -0.001193   0.005328   0.065194  -0.099943  -0.055224  -0.011683
               7          8          9         10         11         12
     1  C    0.280275  -0.039402   0.016247   0.017694   0.072297  -0.016307
     2  C    0.004376   0.293475  -0.024544   0.010936  -0.282935   0.175824
     3  C   -0.024965  -0.007773   0.062339  -0.006899   0.090630  -0.050280
     4  C   -0.006076   0.052976   0.013988   0.010514  -0.088067  -0.131258
     5  C    0.010838  -0.014908   0.224624  -0.018722   0.126951  -0.035877
     6  C    0.029465   0.007417   0.010572   0.281653  -0.011390   0.006263
     7  H    0.536384  -0.004573  -0.000173  -0.004508  -0.000596   0.000005
     8  H   -0.004573   0.523030   0.000015  -0.000149  -0.004475  -0.000030
     9  H   -0.000173   0.000015   0.549062  -0.004611  -0.000672  -0.000008
    10  H   -0.004508  -0.000149  -0.004611   0.538946   0.000125   0.000000
    11  O   -0.000596  -0.004475  -0.000672   0.000125   8.611327   0.140697
    12  H    0.000005  -0.000030  -0.000008   0.000000   0.140697   0.362102
    13  C    0.000478   0.002364  -0.025372  -0.000373   0.020194   0.068576
    14  H    0.000000  -0.000001   0.000175   0.000002   0.002541   0.000488
    15  H    0.000000  -0.000001   0.000176   0.000002   0.002578   0.000408
    16  H    0.000000   0.000002   0.004551  -0.000009   0.000550  -0.000120
              13         14         15         16
     1  C   -0.142335   0.001975   0.001981  -0.001193
     2  C    0.174383  -0.023536  -0.023828   0.005328
     3  C   -1.323985  -0.064690  -0.066761   0.065194
     4  C   -0.121040  -0.049260  -0.048365  -0.099943
     5  C    0.363428   0.039299   0.041169  -0.055224
     6  C    0.057235   0.002597   0.002741  -0.011683
     7  H    0.000478   0.000000   0.000000   0.000000
     8  H    0.002364  -0.000001  -0.000001   0.000002
     9  H   -0.025372   0.000175   0.000176   0.004551
    10  H   -0.000373   0.000002   0.000002  -0.000009
    11  O    0.020194   0.002541   0.002578   0.000550
    12  H    0.068576   0.000488   0.000408  -0.000120
    13  C    6.580809   0.415764   0.415325   0.438549
    14  H    0.415764   0.513568  -0.039918  -0.022978
    15  H    0.415325  -0.039918   0.513039  -0.022993
    16  H    0.438549  -0.022978  -0.022993   0.480066
 Mulliken charges:
               1
     1  C   -0.403277
     2  C    0.184099
     3  C   -0.212761
     4  C    1.258450
     5  C   -1.054150
     6  C   -0.036586
     7  H    0.179070
     8  H    0.192034
     9  H    0.173632
    10  H    0.175400
    11  O   -0.679755
    12  H    0.479518
    13  C   -0.924000
    14  H    0.223975
    15  H    0.224447
    16  H    0.219904
 Sum of Mulliken charges =   0.00000
 Mulliken charges with hydrogens summed into heavy atoms:
               1
     1  C   -0.224207
     2  C    0.376133
     3  C   -0.212761
     4  C    1.258450
     5  C   -0.880518
     6  C    0.138814
    11  O   -0.200236
    13  C   -0.255675
 Electronic spatial extent (au):  <R**2>=           1273.5181
 Charge=              0.0000 electrons
 Dipole moment (field-independent basis, Debye):
    X=              0.0382    Y=              1.7940    Z=              0.0161  Tot=              1.7945
 Quadrupole moment (field-independent basis, Debye-Ang):
   XX=            -44.9835   YY=            -40.6720   ZZ=            -51.9869
   XY=              6.3797   XZ=             -0.3778   YZ=             -0.2971
 Traceless Quadrupole moment (field-independent basis, Debye-Ang):
   XX=              0.8973   YY=              5.2088   ZZ=             -6.1061
   XY=              6.3797   XZ=             -0.3778   YZ=             -0.2971
 Octapole moment (field-independent basis, Debye-Ang**2):
  XXX=           -132.0183  YYY=           -107.9198  ZZZ=              8.5441  XYY=            -35.0489
  XXY=            -15.1626  XXZ=              2.5966  XZZ=            -46.4638  YZZ=            -40.3431
  YYZ=              2.1971  XYZ=             -1.5171
 Hexadecapole moment (field-independent basis, Debye-Ang**3):
 XXXX=           -819.9108 YYYY=           -724.2622 ZZZZ=            -72.3090 XXXY=            -80.1698
 XXXZ=             20.8160 YYYX=           -160.0218 YYYZ=              7.8556 ZZZX=             25.6655
 ZZZY=              7.0832 XXYY=           -233.0409 XXZZ=           -163.4230 YYZZ=           -145.3773
 XXYZ=             -2.2439 YYXZ=              5.1881 ZZXY=            -52.8722
 N-N= 3.460679186313D+02 E-N=-1.497284608309D+03  KE= 3.433498020399D+02
 Evaluate density.
 Using the total density.
 Monte-Carlo method of calculating molar volume:
 based on  0.001 e/bohr**3 density envelope.
 Number of points per bohr**3 =   20 CutOff= 1.00D-04
 Using the SCF density.
 There are       346 points.  Will hold       346 in memory.
 LenV=  4026443936 MDV=  4026531840.
 Box volume = 5195.170 fraction occupied=0.202
 Integrated density= 4.3166166687027605D+01 error=-1.4833833312972395D+01
 Molar volume = 1051.046 bohr**3/mol ( 93.794 cm**3/mol)
 Recommended a0 for SCRF calculation =  4.17 angstrom (  7.89 bohr)
 Calling FoFJK, ICntrl=      2127 FMM=F ISym2X=0 I1Cent= 0 IOpClX= 0 NMat=1 NMatS=1 NMatT=0.
 -------------------------------------------------------------------
 Center     Atomic                   Forces (Hartrees/Bohr)
 Number     Number              X              Y              Z
 -------------------------------------------------------------------
      1        6           0.001095219    0.003072182   -0.000054294
      2        6          -0.000208318    0.002482204    0.000048127
      3        6           0.011922376    0.002400723   -0.000742652
      4        6           0.000870490   -0.000728522   -0.000032847
      5        6           0.002173128   -0.003206471   -0.000180333
      6        6           0.002404764   -0.000396927   -0.000139119
      7        1          -0.000464056   -0.000996349    0.000016030
      8        1           0.000284793   -0.001703454   -0.000032581
      9        1          -0.000545295    0.000824942    0.000027298
     10        1          -0.001104491    0.000034713    0.000077753
     11        8          -0.009501606    0.002655731    0.000612730
     12        1          -0.006326395   -0.003982186    0.000351140
     13        6          -0.000081695   -0.000851529    0.000020485
     14        1          -0.000132211   -0.000013516   -0.000045463
     15        1          -0.000118856   -0.000050739    0.000052244
     16        1          -0.000267849    0.000459199    0.000021482
 -------------------------------------------------------------------
 Cartesian Forces:  Max     0.011922376 RMS     0.002695511

 GradGradGradGradGradGradGradGradGradGradGradGradGradGradGradGradGradGrad
 Berny optimization.
 FormGI is forming the generalized inverse of G from B-inverse, IUseBI=4.
 Internal  Forces:  Max     0.015689155 RMS     0.002258910
 Search for a local minimum.
 Step number   1 out of a maximum of   83
 All quantities printed in internal units (Hartrees-Bohrs-Radians)
 Mixed Optimization -- RFO/linear search
 Second derivative matrix not updated -- first step.
 ITU=  0
     Eigenvalues ---    0.00604   0.01432   0.01742   0.01992   0.02016
     Eigenvalues ---    0.02071   0.02087   0.02093   0.02109   0.02116
     Eigenvalues ---    0.02129   0.06922   0.07105   0.16000   0.16000
     Eigenvalues ---    0.16000   0.16000   0.16000   0.16000   0.16000
     Eigenvalues ---    0.16000   0.22000   0.22491   0.24480   0.25000
     Eigenvalues ---    0.25000   0.31125   0.33679   0.33682   0.34411
     Eigenvalues ---    0.35219   0.35374   0.35415   0.35565   0.41268
     Eigenvalues ---    0.41603   0.44764   0.45361   0.45924   0.46011
     Eigenvalues ---    0.46251   0.52371
 RFO step:  Lambda=-1.01199368D-03 EMin= 6.03839569D-03
 Linear search not attempted -- first point.
 Iteration  1 RMS(Cart)=  0.01425619 RMS(Int)=  0.00020498
 Iteration  2 RMS(Cart)=  0.00019235 RMS(Int)=  0.00000034
 Iteration  3 RMS(Cart)=  0.00000005 RMS(Int)=  0.00000034
 Variable       Old X    -DE/DX   Delta X   Delta X   Delta X     New X
                                 (Linear)    (Quad)   (Total)
    R1        2.63847  -0.00159   0.00000  -0.00336  -0.00336   2.63511
    R2        2.64711  -0.00224   0.00000  -0.00486  -0.00486   2.64225
    R3        2.05072   0.00109   0.00000   0.00308   0.00308   2.05380
    R4        2.64136  -0.00157   0.00000  -0.00338  -0.00338   2.63799
    R5        2.04768   0.00161   0.00000   0.00452   0.00452   2.05220
    R6        2.66182  -0.00273   0.00000  -0.00620  -0.00620   2.65562
    R7        2.63849  -0.01569   0.00000  -0.03385  -0.03385   2.60464
    R8        2.65266  -0.00197   0.00000  -0.00445  -0.00445   2.64821
    R9        2.85775  -0.00070   0.00000  -0.00226  -0.00226   2.85549
   R10        2.64288  -0.00159   0.00000  -0.00350  -0.00350   2.63938
   R11        2.05321   0.00099   0.00000   0.00279   0.00279   2.05600
   R12        2.05006   0.00111   0.00000   0.00312   0.00312   2.05318
   R13        1.84245  -0.00643   0.00000  -0.01225  -0.01225   1.83020
   R14        2.07874  -0.00012   0.00000  -0.00035  -0.00035   2.07839
   R15        2.07870  -0.00011   0.00000  -0.00033  -0.00033   2.07837
   R16        2.06643   0.00053   0.00000   0.00153   0.00153   2.06796
    A1        2.09535   0.00003   0.00000   0.00036   0.00036   2.09571
    A2        2.08858  -0.00013   0.00000  -0.00090  -0.00090   2.08768
    A3        2.09925   0.00010   0.00000   0.00054   0.00054   2.09979
    A4        2.09021  -0.00047   0.00000  -0.00191  -0.00191   2.08830
    A5        2.12693  -0.00040   0.00000  -0.00301  -0.00301   2.12392
    A6        2.06605   0.00087   0.00000   0.00491   0.00491   2.07096
    A7        2.11796   0.00089   0.00000   0.00352   0.00352   2.12148
    A8        2.02672  -0.00042   0.00000  -0.00167  -0.00167   2.02506
    A9        2.13850  -0.00047   0.00000  -0.00186  -0.00186   2.13664
   A10        2.05514  -0.00085   0.00000  -0.00359  -0.00359   2.05155
   A11        2.10501   0.00073   0.00000   0.00300   0.00300   2.10802
   A12        2.12303   0.00012   0.00000   0.00058   0.00058   2.12362
   A13        2.12117   0.00068   0.00000   0.00288   0.00288   2.12405
   A14        2.07079  -0.00026   0.00000  -0.00090  -0.00090   2.06989
   A15        2.09123  -0.00043   0.00000  -0.00198  -0.00198   2.08925
   A16        2.08654  -0.00028   0.00000  -0.00127  -0.00127   2.08527
   A17        2.10131   0.00015   0.00000   0.00067   0.00067   2.10198
   A18        2.09533   0.00014   0.00000   0.00060   0.00060   2.09594
   A19        1.95852  -0.00706   0.00000  -0.04385  -0.04385   1.91467
   A20        1.95529  -0.00005   0.00000  -0.00026  -0.00026   1.95503
   A21        1.95565  -0.00010   0.00000  -0.00063  -0.00063   1.95502
   A22        1.93476   0.00011   0.00000   0.00064   0.00064   1.93541
   A23        1.87777   0.00009   0.00000   0.00063   0.00063   1.87840
   A24        1.86783  -0.00004   0.00000  -0.00023  -0.00023   1.86760
   A25        1.86788  -0.00001   0.00000  -0.00015  -0.00015   1.86774
    D1        0.00007   0.00000   0.00000  -0.00009  -0.00009  -0.00002
    D2        3.14155   0.00000   0.00000   0.00006   0.00006  -3.14157
    D3       -3.14153   0.00000   0.00000  -0.00010  -0.00010   3.14155
    D4       -0.00005   0.00000   0.00000   0.00005   0.00005   0.00000
    D5       -0.00017   0.00000   0.00000   0.00019   0.00019   0.00002
    D6        3.14156   0.00000   0.00000   0.00001   0.00001   3.14156
    D7        3.14143   0.00000   0.00000   0.00021   0.00021  -3.14155
    D8       -0.00002   0.00000   0.00000   0.00002   0.00002   0.00000
    D9       -0.00016   0.00000   0.00000   0.00024   0.00024   0.00008
   D10        3.14141   0.00001   0.00000   0.00041   0.00041  -3.14137
   D11        3.14154   0.00000   0.00000   0.00009   0.00009  -3.14155
   D12       -0.00008   0.00001   0.00000   0.00026   0.00026   0.00018
   D13        0.00033  -0.00001   0.00000  -0.00047  -0.00047  -0.00015
   D14        3.14146   0.00000   0.00000   0.00009   0.00009   3.14154
   D15       -3.14124  -0.00001   0.00000  -0.00065  -0.00065   3.14129
   D16       -0.00011   0.00000   0.00000  -0.00009  -0.00009  -0.00020
   D17       -3.14153  -0.00001   0.00000  -0.00028  -0.00028   3.14137
   D18        0.00003   0.00000   0.00000  -0.00011  -0.00011  -0.00008
   D19       -0.00043   0.00001   0.00000   0.00058   0.00058   0.00015
   D20        3.14100   0.00001   0.00000   0.00059   0.00059   3.14159
   D21       -3.14155   0.00000   0.00000   0.00001   0.00001  -3.14154
   D22       -0.00013   0.00000   0.00000   0.00003   0.00003  -0.00010
   D23       -1.05338  -0.00002   0.00000  -0.00126  -0.00126  -1.05465
   D24        1.05911   0.00000   0.00000  -0.00108  -0.00108   1.05804
   D25       -3.13857  -0.00001   0.00000  -0.00124  -0.00124  -3.13981
   D26        2.08773  -0.00001   0.00000  -0.00068  -0.00068   2.08705
   D27       -2.08296   0.00001   0.00000  -0.00049  -0.00049  -2.08346
   D28        0.00254  -0.00001   0.00000  -0.00066  -0.00066   0.00188
   D29        0.00035  -0.00001   0.00000  -0.00045  -0.00045  -0.00010
   D30       -3.14137  -0.00001   0.00000  -0.00026  -0.00026   3.14155
   D31       -3.14107  -0.00001   0.00000  -0.00046  -0.00046  -3.14153
   D32        0.00039  -0.00001   0.00000  -0.00027  -0.00027   0.00011
         Item               Value     Threshold  Converged?
 Maximum Force            0.015689     0.000450     NO 
 RMS     Force            0.002259     0.000300     NO 
 Maximum Displacement     0.107243     0.001800     NO 
 RMS     Displacement     0.014242     0.001200     NO 
 Predicted change in Energy=-5.077649D-04
 GradGradGradGradGradGradGradGradGradGradGradGradGradGradGradGradGradGrad

                          Input orientation:                          
 ---------------------------------------------------------------------
 Center     Atomic      Atomic             Coordinates (Angstroms)
 Number     Number       Type             X           Y           Z
 ---------------------------------------------------------------------
      1          6           0       -0.306378   -0.737544    0.005330
      2          6           0        1.084970   -0.767828   -0.082370
      3          6           0        1.801107    0.429993   -0.115258
      4          6           0        1.153145    1.675847   -0.061883
      5          6           0       -0.245477    1.675672    0.025880
      6          6           0       -0.978537    0.487296    0.059937
      7          1           0       -0.863351   -1.670453    0.030859
      8          1           0        1.633606   -1.703996   -0.126322
      9          1           0       -0.764707    2.630828    0.068213
     10          1           0       -2.062455    0.517695    0.128303
     11          8           0        3.171661    0.313032   -0.202804
     12          1           0        3.574135    1.193791   -0.219370
     13          6           0        1.945682    2.961863   -0.098618
     14          1           0        2.644820    3.039570    0.746844
     15          1           0        2.530925    3.059141   -1.024709
     16          1           0        1.282359    3.830651   -0.046285
 ---------------------------------------------------------------------
                    Distance matrix (angstroms):
                    1          2          3          4          5
     1  C    0.000000
     2  C    1.394438   0.000000
     3  C    2.412297   1.395962   0.000000
     4  C    2.821202   2.444711   1.405296   0.000000
     5  C    2.414072   2.784331   2.400030   1.401372   0.000000
     6  C    1.398218   2.419432   2.785750   2.443678   1.396701
     7  H    1.086825   2.150234   3.395962   3.908014   3.402697
     8  H    2.171382   1.085976   2.140581   3.414430   3.869919
     9  H    3.399992   3.872317   3.385371   2.146408   1.087986
    10  H    2.162072   3.406352   3.872225   3.423093   2.157038
    11  O    3.639201   2.353092   1.378318   2.439576   3.685908
    12  H    4.340384   3.172170   1.933354   2.473535   3.857693
    13  C    4.332227   3.827752   2.536049   1.511060   2.543809
    14  H    4.850361   4.197262   2.874885   2.176896   3.276251
    15  H    4.850370   4.198152   2.876136   2.176882   3.275078
    16  H    4.836854   4.602854   3.440687   2.158731   2.642617
                    6          7          8          9         10
     6  C    0.000000
     7  H    2.161017   0.000000
     8  H    3.414637   2.502125   0.000000
     9  H    2.154186   4.302574   4.957867   0.000000
    10  H    1.086497   2.497065   4.319909   2.480543   0.000000
    11  O    4.162156   4.502236   2.537688   4.576092   5.248570
    12  H    4.615623   5.287513   3.488764   4.579665   5.687630
    13  C    3.834016   5.419020   4.676366   2.735621   4.700065
    14  H    4.484937   5.916436   4.928122   3.500355   5.375955
    15  H    4.484102   5.916451   4.929478   3.498446   5.374712
    16  H    4.037444   5.905266   5.546358   2.375534   4.711044
                   11         12         13         14         15
    11  O    0.000000
    12  H    0.968502   0.000000
    13  C    2.920649   2.406766   0.000000
    14  H    2.934860   2.281249   1.099836   0.000000
    15  H    2.937208   2.283942   1.099827   1.775319   0.000000
    16  H    3.995948   3.497889   1.094316   1.763849   1.763933
                   16
    16  H    0.000000
 Symmetry turned off by external request.
 Stoichiometry    C7H8O
 Framework group  C1[X(C7H8O)]
 Deg. of freedom    42
 Full point group                 C1      NOp   1
 Rotational constants (GHZ):           3.2228803           2.1961236           1.3169262
 Standard basis: 6-31+G(d) (6D, 7F)
   168 basis functions,   288 primitive gaussians,   168 cartesian basis functions
    29 alpha electrons       29 beta electrons
       nuclear repulsion energy       347.1279174841 Hartrees.
 NAtoms=   16 NActive=   16 NUniq=   16 SFac= 1.00D+00 NAtFMM=   60 NAOKFM=F Big=F
 Integral buffers will be    131072 words long.
 Raffenetti 2 integral format.
 Two-electron integral symmetry is turned off.
 Nuclear repulsion after empirical dispersion term =      347.1180978697 Hartrees.
 One-electron integrals computed using PRISM.
 NBasis=   168 RedAO= T EigKep=  3.61D-06  NBF=   168
 NBsUse=   168 1.00D-06 EigRej= -1.00D+00 NBFU=   168
 Initial guess from the checkpoint file:  "MOLECULE_28.chk"
 B after Tr=     0.002106    0.000115   -0.000036
         Rot=    1.000000   -0.000021   -0.000038    0.000177 Ang=  -0.02 deg.
 ExpMin= 4.38D-02 ExpMax= 5.48D+03 ExpMxC= 8.25D+02 IAcc=3 IRadAn=         5 AccDes= 0.00D+00
 Harris functional with IExCor=  402 and IRadAn=       5 diagonalized for initial guess.
 HarFok:  IExCor=  402 AccDes= 0.00D+00 IRadAn=         5 IDoV= 1 UseB2=F ITyADJ=14
 ICtDFT=  3500011 ScaDFX=  1.000000  1.000000  1.000000  1.000000
 FoFCou: FMM=F IPFlag=           0 FMFlag=      100000 FMFlg1=           0
         NFxFlg=           0 DoJE=T BraDBF=F KetDBF=T FulRan=T
         wScrn=  0.000000 ICntrl=       500 IOpCl=  0 I1Cent=   200000004 NGrid=           0
         NMat0=    1 NMatS0=      1 NMatT0=    0 NMatD0=    1 NMtDS0=    0 NMtDT0=    0
 Symmetry not used in FoFCou.
 Requested convergence on RMS density matrix=1.00D-08 within 128 cycles.
 Requested convergence on MAX density matrix=1.00D-06.
 Requested convergence on             energy=1.00D-06.
 No special actions if energy rises.
 SCF Done:  E(RB3LYP) =  -346.808304658     A.U. after   12 cycles
            NFock= 12  Conv=0.36D-08     -V/T= 2.0098
 Calling FoFJK, ICntrl=      2127 FMM=F ISym2X=0 I1Cent= 0 IOpClX= 0 NMat=1 NMatS=1 NMatT=0.
 -------------------------------------------------------------------
 Center     Atomic                   Forces (Hartrees/Bohr)
 Number     Number              X              Y              Z
 -------------------------------------------------------------------
      1        6           0.000043167   -0.000342148   -0.000003021
      2        6          -0.001714441   -0.000186192    0.000107111
      3        6           0.003931659   -0.001955135   -0.000286609
      4        6          -0.001052079    0.000448428    0.000068942
      5        6          -0.000042924   -0.000097638    0.000019906
      6        6          -0.000480512    0.000170692    0.000025398
      7        1          -0.000073463   -0.000058306    0.000005831
      8        1          -0.000094167    0.000038172    0.000005002
      9        1          -0.000143044    0.000057857    0.000009222
     10        1           0.000025050    0.000067982    0.000000542
     11        8          -0.002097934    0.001996489    0.000159312
     12        1           0.001478983   -0.000267109   -0.000096255
     13        6          -0.000008169   -0.000346284    0.000002230
     14        1           0.000070656    0.000261867    0.000136552
     15        1           0.000059479    0.000265611   -0.000141070
     16        1           0.000097740   -0.000054285   -0.000013093
 -------------------------------------------------------------------
 Cartesian Forces:  Max     0.003931659 RMS     0.000855132

 GradGradGradGradGradGradGradGradGradGradGradGradGradGradGradGradGradGrad
 Berny optimization.
 Using GEDIIS/GDIIS optimizer.
 FormGI is forming the generalized inverse of G from B-inverse, IUseBI=4.
 Internal  Forces:  Max     0.002670251 RMS     0.000501230
 Search for a local minimum.
 Step number   2 out of a maximum of   83
 All quantities printed in internal units (Hartrees-Bohrs-Radians)
 Mixed Optimization -- En-DIIS/RFO-DIIS
 Update second derivatives using D2CorX and points    1    2
 DE= -4.53D-04 DEPred=-5.08D-04 R= 8.93D-01
 TightC=F SS=  1.41D+00  RLast= 5.91D-02 DXNew= 5.0454D-01 1.7733D-01
 Trust test= 8.93D-01 RLast= 5.91D-02 DXMaxT set to 3.00D-01
 ITU=  1  0
 Use linear search instead of GDIIS.
     Eigenvalues ---    0.00604   0.01431   0.01742   0.01992   0.02016
     Eigenvalues ---    0.02071   0.02086   0.02093   0.02109   0.02116
     Eigenvalues ---    0.02129   0.06922   0.07103   0.15931   0.16000
     Eigenvalues ---    0.16000   0.16000   0.16000   0.16000   0.16000
     Eigenvalues ---    0.18559   0.21966   0.22488   0.24824   0.24973
     Eigenvalues ---    0.25379   0.31156   0.33678   0.33681   0.34419
     Eigenvalues ---    0.35145   0.35335   0.35413   0.35566   0.39853
     Eigenvalues ---    0.41498   0.43456   0.44832   0.45586   0.46006
     Eigenvalues ---    0.47550   0.52779
 RFO step:  Lambda=-5.34255188D-05 EMin= 6.03821181D-03
 Quartic linear search produced a step of -0.10351.
 Iteration  1 RMS(Cart)=  0.00308829 RMS(Int)=  0.00001097
 Iteration  2 RMS(Cart)=  0.00001151 RMS(Int)=  0.00000087
 Iteration  3 RMS(Cart)=  0.00000000 RMS(Int)=  0.00000087
 Variable       Old X    -DE/DX   Delta X   Delta X   Delta X     New X
                                 (Linear)    (Quad)   (Total)
    R1        2.63511   0.00026   0.00035  -0.00005   0.00030   2.63541
    R2        2.64225   0.00014   0.00050  -0.00060  -0.00010   2.64215
    R3        2.05380   0.00009  -0.00032   0.00072   0.00040   2.05420
    R4        2.63799   0.00151   0.00035   0.00250   0.00285   2.64083
    R5        2.05220  -0.00008  -0.00047   0.00052   0.00006   2.05225
    R6        2.65562   0.00124   0.00064   0.00161   0.00226   2.65788
    R7        2.60464  -0.00077   0.00350  -0.00690  -0.00339   2.60125
    R8        2.64821   0.00041   0.00046   0.00011   0.00057   2.64878
    R9        2.85549   0.00022   0.00023   0.00028   0.00051   2.85600
   R10        2.63938  -0.00006   0.00036  -0.00077  -0.00041   2.63897
   R11        2.05600   0.00012  -0.00029   0.00075   0.00046   2.05646
   R12        2.05318  -0.00002  -0.00032   0.00044   0.00012   2.05330
   R13        1.83020   0.00037   0.00127  -0.00132  -0.00005   1.83016
   R14        2.07839   0.00017   0.00004   0.00039   0.00043   2.07882
   R15        2.07837   0.00017   0.00003   0.00041   0.00044   2.07881
   R16        2.06796  -0.00010  -0.00016  -0.00002  -0.00018   2.06778
    A1        2.09571   0.00010  -0.00004   0.00016   0.00012   2.09584
    A2        2.08768  -0.00001   0.00009  -0.00001   0.00009   2.08777
    A3        2.09979  -0.00008  -0.00006  -0.00015  -0.00021   2.09958
    A4        2.08830   0.00070   0.00020   0.00262   0.00282   2.09113
    A5        2.12392  -0.00041   0.00031  -0.00232  -0.00201   2.12191
    A6        2.07096  -0.00028  -0.00051  -0.00030  -0.00081   2.07015
    A7        2.12148  -0.00145  -0.00036  -0.00436  -0.00472   2.11676
    A8        2.02506   0.00157   0.00017   0.00521   0.00538   2.03044
    A9        2.13664  -0.00011   0.00019  -0.00085  -0.00066   2.13598
   A10        2.05155   0.00050   0.00037   0.00137   0.00174   2.05329
   A11        2.10802  -0.00016  -0.00031  -0.00016  -0.00047   2.10754
   A12        2.12362  -0.00034  -0.00006  -0.00121  -0.00127   2.12235
   A13        2.12405   0.00033  -0.00030   0.00158   0.00128   2.12533
   A14        2.06989  -0.00006   0.00009  -0.00014  -0.00004   2.06985
   A15        2.08925  -0.00027   0.00020  -0.00144  -0.00124   2.08801
   A16        2.08527  -0.00017   0.00013  -0.00138  -0.00125   2.08403
   A17        2.10198   0.00016  -0.00007   0.00109   0.00102   2.10300
   A18        2.09594   0.00002  -0.00006   0.00029   0.00023   2.09616
   A19        1.91467   0.00267   0.00454   0.00768   0.01222   1.92690
   A20        1.95503   0.00027   0.00003   0.00175   0.00178   1.95681
   A21        1.95502   0.00027   0.00007   0.00170   0.00176   1.95678
   A22        1.93541  -0.00010  -0.00007  -0.00099  -0.00106   1.93435
   A23        1.87840  -0.00013  -0.00007   0.00038   0.00031   1.87872
   A24        1.86760  -0.00018   0.00002  -0.00153  -0.00151   1.86609
   A25        1.86774  -0.00018   0.00002  -0.00156  -0.00154   1.86620
    D1       -0.00002   0.00000   0.00001  -0.00002  -0.00001  -0.00003
    D2       -3.14157   0.00000  -0.00001  -0.00001  -0.00002  -3.14159
    D3        3.14155   0.00000   0.00001  -0.00001   0.00000   3.14155
    D4        0.00000   0.00000   0.00000   0.00000  -0.00001  -0.00001
    D5        0.00002   0.00000  -0.00002  -0.00003  -0.00005  -0.00003
    D6        3.14156   0.00000   0.00000   0.00001   0.00001   3.14157
    D7       -3.14155   0.00000  -0.00002  -0.00005  -0.00007   3.14157
    D8        0.00000   0.00000   0.00000  -0.00001  -0.00001  -0.00001
    D9        0.00008   0.00000  -0.00002   0.00009   0.00007   0.00015
   D10       -3.14137   0.00000  -0.00004  -0.00009  -0.00013  -3.14150
   D11       -3.14155   0.00000  -0.00001   0.00008   0.00007  -3.14148
   D12        0.00018   0.00000  -0.00003  -0.00010  -0.00013   0.00006
   D13       -0.00015   0.00000   0.00005  -0.00010  -0.00005  -0.00019
   D14        3.14154   0.00000  -0.00001  -0.00001  -0.00001   3.14153
   D15        3.14129   0.00001   0.00007   0.00010   0.00016   3.14146
   D16       -0.00020   0.00000   0.00001   0.00019   0.00020   0.00000
   D17        3.14137   0.00000   0.00003   0.00008   0.00011   3.14148
   D18       -0.00008   0.00000   0.00001  -0.00011  -0.00010  -0.00017
   D19        0.00015   0.00000  -0.00006   0.00004  -0.00002   0.00013
   D20        3.14159   0.00000  -0.00006   0.00015   0.00009  -3.14151
   D21       -3.14154   0.00000   0.00000  -0.00005  -0.00006  -3.14159
   D22       -0.00010   0.00000   0.00000   0.00005   0.00005  -0.00005
   D23       -1.05465  -0.00012   0.00013  -0.00240  -0.00228  -1.05692
   D24        1.05804   0.00011   0.00011   0.00056   0.00067   1.05871
   D25       -3.13981   0.00000   0.00013  -0.00095  -0.00082  -3.14064
   D26        2.08705  -0.00012   0.00007  -0.00231  -0.00224   2.08481
   D27       -2.08346   0.00011   0.00005   0.00066   0.00071  -2.08275
   D28        0.00188  -0.00001   0.00007  -0.00086  -0.00079   0.00109
   D29       -0.00010   0.00000   0.00005   0.00003   0.00007  -0.00002
   D30        3.14155   0.00000   0.00003  -0.00001   0.00001   3.14156
   D31       -3.14153   0.00000   0.00005  -0.00008  -0.00004  -3.14157
   D32        0.00011   0.00000   0.00003  -0.00012  -0.00010   0.00002
         Item               Value     Threshold  Converged?
 Maximum Force            0.002670     0.000450     NO 
 RMS     Force            0.000501     0.000300     NO 
 Maximum Displacement     0.019541     0.001800     NO 
 RMS     Displacement     0.003085     0.001200     NO 
 Predicted change in Energy=-3.343220D-05
 GradGradGradGradGradGradGradGradGradGradGradGradGradGradGradGradGradGrad

                          Input orientation:                          
 ---------------------------------------------------------------------
 Center     Atomic      Atomic             Coordinates (Angstroms)
 Number     Number       Type             X           Y           Z
 ---------------------------------------------------------------------
      1          6           0       -0.307780   -0.737503    0.005404
      2          6           0        1.083713   -0.768125   -0.082419
      3          6           0        1.804281    0.428788   -0.115620
      4          6           0        1.153715    1.674619   -0.061917
      5          6           0       -0.245198    1.674557    0.025997
      6          6           0       -0.979764    0.487369    0.060103
      7          1           0       -0.865164   -1.670412    0.030977
      8          1           0        1.630252   -1.705555   -0.126313
      9          1           0       -0.764423    2.629993    0.068379
     10          1           0       -2.063704    0.519004    0.128575
     11          8           0        3.173321    0.315156   -0.202982
     12          1           0        3.584476    1.191859   -0.220061
     13          6           0        1.944874    2.961805   -0.098562
     14          1           0        2.643115    3.043017    0.747606
     15          1           0        2.530172    3.061955   -1.024592
     16          1           0        1.279619    3.829029   -0.046828
 ---------------------------------------------------------------------
                    Distance matrix (angstroms):
                    1          2          3          4          5
     1  C    0.000000
     2  C    1.394598   0.000000
     3  C    2.415716   1.397469   0.000000
     4  C    2.821141   2.443833   1.406490   0.000000
     5  C    2.412960   2.782886   2.402573   1.401672   0.000000
     6  C    1.398165   2.419610   2.790200   2.444624   1.396484
     7  H    1.087037   2.150605   3.399127   3.908162   3.401941
     8  H    2.170356   1.086005   2.141453   3.414207   3.868549
     9  H    3.398900   3.871117   3.387831   2.146851   1.088232
    10  H    2.162695   3.406971   3.876735   3.423962   2.157033
    11  O    3.642744   2.356798   1.376523   2.438615   3.686010
    12  H    4.350050   3.180299   1.939660   2.483277   3.867808
    13  C    4.332452   3.828086   2.536974   1.511332   2.543410
    14  H    4.852935   4.200652   2.878019   2.178567   3.276546
    15  H    4.852912   4.201125   2.878666   2.178550   3.275864
    16  H    4.834851   4.601464   3.441169   2.158139   2.640477
                    6          7          8          9         10
     6  C    0.000000
     7  H    2.161018   0.000000
     8  H    3.414067   2.500616   0.000000
     9  H    2.153434   4.301747   4.956748   0.000000
    10  H    1.086561   2.497912   4.319600   2.479522   0.000000
    11  O    4.164971   4.506282   2.543661   4.575798   5.251467
    12  H    4.626779   5.296689   3.496111   4.589591   5.698791
    13  C    3.834256   5.419458   4.678035   2.734640   4.699741
    14  H    4.486563   5.919290   4.933413   3.499036   5.376615
    15  H    4.486057   5.919276   4.934158   3.497933   5.375880
    16  H    4.035213   5.903389   5.546250   2.372566   4.707955
                   11         12         13         14         15
    11  O    0.000000
    12  H    0.968478   0.000000
    13  C    2.919715   2.415733   0.000000
    14  H    2.936999   2.291141   1.100063   0.000000
    15  H    2.938297   2.292616   1.100061   1.775895   0.000000
    16  H    3.994721   3.506714   1.094220   1.762970   1.763040
                   16
    16  H    0.000000
 Symmetry turned off by external request.
 Stoichiometry    C7H8O
 Framework group  C1[X(C7H8O)]
 Deg. of freedom    42
 Full point group                 C1      NOp   1
 Rotational constants (GHZ):           3.2235833           2.1932876           1.3160301
 Standard basis: 6-31+G(d) (6D, 7F)
   168 basis functions,   288 primitive gaussians,   168 cartesian basis functions
    29 alpha electrons       29 beta electrons
       nuclear repulsion energy       347.0324488528 Hartrees.
 NAtoms=   16 NActive=   16 NUniq=   16 SFac= 1.00D+00 NAtFMM=   60 NAOKFM=F Big=F
 Integral buffers will be    131072 words long.
 Raffenetti 2 integral format.
 Two-electron integral symmetry is turned off.
 Nuclear repulsion after empirical dispersion term =      347.0226240422 Hartrees.
 One-electron integrals computed using PRISM.
 NBasis=   168 RedAO= T EigKep=  3.63D-06  NBF=   168
 NBsUse=   168 1.00D-06 EigRej= -1.00D+00 NBFU=   168
 Initial guess from the checkpoint file:  "MOLECULE_28.chk"
 B after Tr=     0.000456   -0.000367   -0.000035
         Rot=    1.000000   -0.000018   -0.000017   -0.000059 Ang=  -0.01 deg.
 Requested convergence on RMS density matrix=1.00D-08 within 128 cycles.
 Requested convergence on MAX density matrix=1.00D-06.
 Requested convergence on             energy=1.00D-06.
 No special actions if energy rises.
 SCF Done:  E(RB3LYP) =  -346.808343593     A.U. after   10 cycles
            NFock= 10  Conv=0.64D-08     -V/T= 2.0098
 Calling FoFJK, ICntrl=      2127 FMM=F ISym2X=0 I1Cent= 0 IOpClX= 0 NMat=1 NMatS=1 NMatT=0.
 -------------------------------------------------------------------
 Center     Atomic                   Forces (Hartrees/Bohr)
 Number     Number              X              Y              Z
 -------------------------------------------------------------------
      1        6           0.000126539   -0.000186900   -0.000008678
      2        6          -0.000325196    0.000032450    0.000017703
      3        6           0.001472743   -0.000514180   -0.000095300
      4        6          -0.000606657    0.000132800    0.000030241
      5        6           0.000077356    0.000262327    0.000004306
      6        6          -0.000279992    0.000046771    0.000019215
      7        1           0.000099926    0.000022039   -0.000005238
      8        1          -0.000031621    0.000013501    0.000000921
      9        1           0.000022342   -0.000019632    0.000000534
     10        1           0.000084015    0.000026149   -0.000004292
     11        8          -0.000906746    0.000113060    0.000058461
     12        1           0.000253864    0.000088582   -0.000015983
     13        6          -0.000042662   -0.000106332    0.000004449
     14        1           0.000022040    0.000024887    0.000000190
     15        1           0.000023343    0.000028591   -0.000001294
     16        1           0.000010705    0.000035887   -0.000005234
 -------------------------------------------------------------------
 Cartesian Forces:  Max     0.001472743 RMS     0.000291949

 GradGradGradGradGradGradGradGradGradGradGradGradGradGradGradGradGradGrad
 Berny optimization.
 Using GEDIIS/GDIIS optimizer.
 FormGI is forming the generalized inverse of G from B-inverse, IUseBI=4.
 Internal  Forces:  Max     0.000668676 RMS     0.000132437
 Search for a local minimum.
 Step number   3 out of a maximum of   83
 All quantities printed in internal units (Hartrees-Bohrs-Radians)
 Mixed Optimization -- En-DIIS/RFO-DIIS
 Swapping is turned off.
 Update second derivatives using D2CorX and points    1    2    3
 DE= -3.89D-05 DEPred=-3.34D-05 R= 1.16D+00
 TightC=F SS=  1.41D+00  RLast= 1.66D-02 DXNew= 5.0454D-01 4.9804D-02
 Trust test= 1.16D+00 RLast= 1.66D-02 DXMaxT set to 3.00D-01
 ITU=  1  1  0
     Eigenvalues ---    0.00603   0.01431   0.01742   0.01992   0.02016
     Eigenvalues ---    0.02071   0.02086   0.02093   0.02109   0.02116
     Eigenvalues ---    0.02129   0.06925   0.07107   0.15591   0.16000
     Eigenvalues ---    0.16000   0.16000   0.16000   0.16000   0.16016
     Eigenvalues ---    0.17835   0.21055   0.22100   0.23166   0.24999
     Eigenvalues ---    0.25453   0.31166   0.33651   0.33681   0.34430
     Eigenvalues ---    0.35165   0.35367   0.35429   0.35567   0.37770
     Eigenvalues ---    0.41495   0.43554   0.45012   0.45589   0.46014
     Eigenvalues ---    0.48202   0.52517
 En-DIIS/RFO-DIIS/Sim-DIIS IScMMF=       -3 using points:     3    2
 RFO step:  Lambda=-5.36755151D-06.
 DidBck=F Rises=F RFO-DIIS coefs:    1.24466   -0.24466
 Iteration  1 RMS(Cart)=  0.00068346 RMS(Int)=  0.00000064
 Iteration  2 RMS(Cart)=  0.00000068 RMS(Int)=  0.00000027
 Variable       Old X    -DE/DX   Delta X   Delta X   Delta X     New X
                                 (Linear)    (Quad)   (Total)
    R1        2.63541  -0.00006   0.00007  -0.00031  -0.00023   2.63517
    R2        2.64215   0.00022  -0.00002   0.00051   0.00048   2.64263
    R3        2.05420  -0.00007   0.00010  -0.00027  -0.00018   2.05403
    R4        2.64083   0.00012   0.00070  -0.00032   0.00038   2.64122
    R5        2.05225  -0.00003   0.00001  -0.00003  -0.00002   2.05224
    R6        2.65788   0.00049   0.00055   0.00082   0.00137   2.65925
    R7        2.60125  -0.00067  -0.00083  -0.00168  -0.00251   2.59874
    R8        2.64878  -0.00007   0.00014  -0.00036  -0.00022   2.64856
    R9        2.85600  -0.00001   0.00013  -0.00017  -0.00005   2.85596
   R10        2.63897   0.00009  -0.00010   0.00026   0.00016   2.63913
   R11        2.05646  -0.00003   0.00011  -0.00014  -0.00003   2.05643
   R12        2.05330  -0.00008   0.00003  -0.00026  -0.00023   2.05307
   R13        1.83016   0.00019  -0.00001   0.00025   0.00023   1.83039
   R14        2.07882   0.00002   0.00010  -0.00003   0.00007   2.07889
   R15        2.07881   0.00002   0.00011  -0.00004   0.00007   2.07889
   R16        2.06778   0.00002  -0.00004   0.00014   0.00010   2.06787
    A1        2.09584   0.00009   0.00003   0.00039   0.00042   2.09626
    A2        2.08777  -0.00012   0.00002  -0.00083  -0.00081   2.08696
    A3        2.09958   0.00003  -0.00005   0.00044   0.00039   2.09997
    A4        2.09113   0.00014   0.00069   0.00012   0.00081   2.09193
    A5        2.12191  -0.00009  -0.00049  -0.00017  -0.00066   2.12124
    A6        2.07015  -0.00005  -0.00020   0.00006  -0.00014   2.07001
    A7        2.11676  -0.00035  -0.00115  -0.00066  -0.00181   2.11495
    A8        2.03044   0.00019   0.00132  -0.00021   0.00111   2.03154
    A9        2.13598   0.00016  -0.00016   0.00087   0.00071   2.13669
   A10        2.05329   0.00024   0.00043   0.00086   0.00129   2.05458
   A11        2.10754  -0.00015  -0.00012  -0.00065  -0.00077   2.10678
   A12        2.12235  -0.00009  -0.00031  -0.00021  -0.00052   2.12183
   A13        2.12533  -0.00007   0.00031  -0.00054  -0.00023   2.12510
   A14        2.06985   0.00002  -0.00001   0.00008   0.00007   2.06991
   A15        2.08801   0.00004  -0.00030   0.00046   0.00016   2.08817
   A16        2.08403  -0.00006  -0.00030  -0.00017  -0.00047   2.08355
   A17        2.10300   0.00006   0.00025   0.00023   0.00048   2.10348
   A18        2.09616   0.00000   0.00006  -0.00006  -0.00001   2.09616
   A19        1.92690   0.00035   0.00299  -0.00057   0.00242   1.92932
   A20        1.95681   0.00003   0.00043  -0.00017   0.00026   1.95707
   A21        1.95678   0.00003   0.00043  -0.00014   0.00030   1.95708
   A22        1.93435   0.00003  -0.00026   0.00048   0.00023   1.93457
   A23        1.87872  -0.00004   0.00008  -0.00035  -0.00028   1.87844
   A24        1.86609  -0.00003  -0.00037   0.00011  -0.00025   1.86583
   A25        1.86620  -0.00003  -0.00038   0.00007  -0.00031   1.86589
    D1       -0.00003   0.00000   0.00000   0.00001   0.00001  -0.00002
    D2       -3.14159   0.00000  -0.00001  -0.00003  -0.00003   3.14156
    D3        3.14155   0.00000   0.00000   0.00004   0.00004   3.14159
    D4       -0.00001   0.00000   0.00000   0.00000  -0.00001  -0.00001
    D5       -0.00003   0.00000  -0.00001   0.00005   0.00003   0.00000
    D6        3.14157   0.00000   0.00000   0.00002   0.00002  -3.14159
    D7        3.14157   0.00000  -0.00002   0.00002   0.00001   3.14158
    D8       -0.00001   0.00000   0.00000   0.00000  -0.00001  -0.00002
    D9        0.00015   0.00000   0.00002  -0.00012  -0.00010   0.00004
   D10       -3.14150   0.00000  -0.00003  -0.00004  -0.00008  -3.14158
   D11       -3.14148   0.00000   0.00002  -0.00008  -0.00006  -3.14154
   D12        0.00006   0.00000  -0.00003   0.00000  -0.00004   0.00002
   D13       -0.00019   0.00000  -0.00001   0.00015   0.00014  -0.00005
   D14        3.14153   0.00000   0.00000   0.00000  -0.00001   3.14152
   D15        3.14146   0.00000   0.00004   0.00008   0.00012   3.14158
   D16        0.00000   0.00000   0.00005  -0.00008  -0.00003  -0.00003
   D17        3.14148   0.00000   0.00003  -0.00003  -0.00001   3.14147
   D18       -0.00017   0.00000  -0.00002   0.00004   0.00002  -0.00015
   D19        0.00013   0.00000  -0.00001  -0.00009  -0.00010   0.00003
   D20       -3.14151   0.00000   0.00002  -0.00012  -0.00010   3.14158
   D21       -3.14159   0.00000  -0.00001   0.00006   0.00005  -3.14154
   D22       -0.00005   0.00000   0.00001   0.00004   0.00005   0.00000
   D23       -1.05692   0.00000  -0.00056   0.00012  -0.00044  -1.05736
   D24        1.05871   0.00000   0.00017  -0.00056  -0.00040   1.05831
   D25       -3.14064   0.00000  -0.00020  -0.00024  -0.00044  -3.14108
   D26        2.08481   0.00000  -0.00055  -0.00004  -0.00059   2.08421
   D27       -2.08275   0.00000   0.00017  -0.00073  -0.00055  -2.08330
   D28        0.00109   0.00000  -0.00019  -0.00040  -0.00060   0.00049
   D29       -0.00002   0.00000   0.00002   0.00000   0.00001  -0.00001
   D30        3.14156   0.00000   0.00000   0.00002   0.00002   3.14159
   D31       -3.14157   0.00000  -0.00001   0.00002   0.00001  -3.14156
   D32        0.00002   0.00000  -0.00002   0.00005   0.00002   0.00004
         Item               Value     Threshold  Converged?
 Maximum Force            0.000669     0.000450     NO 
 RMS     Force            0.000132     0.000300     YES
 Maximum Displacement     0.003487     0.001800     NO 
 RMS     Displacement     0.000683     0.001200     YES
 Predicted change in Energy=-2.683856D-06
 GradGradGradGradGradGradGradGradGradGradGradGradGradGradGradGradGradGrad

                          Input orientation:                          
 ---------------------------------------------------------------------
 Center     Atomic      Atomic             Coordinates (Angstroms)
 Number     Number       Type             X           Y           Z
 ---------------------------------------------------------------------
      1          6           0       -0.307671   -0.737253    0.005384
      2          6           0        1.083692   -0.767993   -0.082506
      3          6           0        1.805434    0.428447   -0.115748
      4          6           0        1.153388    1.674321   -0.061962
      5          6           0       -0.245401    1.674775    0.026077
      6          6           0       -0.980179    0.487617    0.060214
      7          1           0       -0.864334   -1.670484    0.030914
      8          1           0        1.629520   -1.705828   -0.126405
      9          1           0       -0.764326    2.630352    0.068527
     10          1           0       -2.063986    0.519409    0.128756
     11          8           0        3.173178    0.315214   -0.203006
     12          1           0        3.586321    1.191117   -0.220198
     13          6           0        1.944341    2.961607   -0.098546
     14          1           0        2.642330    3.043365    0.747827
     15          1           0        2.530109    3.061968   -1.024300
     16          1           0        1.279088    3.828925   -0.047280
 ---------------------------------------------------------------------
                    Distance matrix (angstroms):
                    1          2          3          4          5
     1  C    0.000000
     2  C    1.394475   0.000000
     3  C    2.416348   1.397671   0.000000
     4  C    2.820447   2.443395   1.407217   0.000000
     5  C    2.412920   2.783055   2.404032   1.401558   0.000000
     6  C    1.398420   2.420018   2.791792   2.444444   1.396570
     7  H    1.086943   2.149920   3.399217   3.907371   3.402037
     8  H    2.169842   1.085997   2.141538   3.414127   3.868728
     9  H    3.399012   3.871270   3.389102   2.146777   1.088216
    10  H    2.163114   3.407332   3.878204   3.423696   2.157004
    11  O    3.642447   2.356653   1.375195   2.438568   3.686132
    12  H    4.351169   3.181230   1.940138   2.485495   3.869971
    13  C    4.331734   3.827648   2.537024   1.511307   2.542919
    14  H    4.852504   4.200626   2.878186   2.178758   3.276119
    15  H    4.852559   4.200917   2.878551   2.178765   3.275829
    16  H    4.834310   4.601204   3.441654   2.158317   2.640040
                    6          7          8          9         10
     6  C    0.000000
     7  H    2.161406   0.000000
     8  H    3.414170   2.499061   0.000000
     9  H    2.153596   4.302163   4.956910   0.000000
    10  H    1.086438   2.498873   4.319580   2.479682   0.000000
    11  O    4.165259   4.505465   2.544279   4.575755   5.251633
    12  H    4.628873   5.297183   3.497164   4.591611   5.700784
    13  C    3.833881   5.418642   4.678123   2.733957   4.699222
    14  H    4.486338   5.918701   4.934055   3.498191   5.376153
    15  H    4.486154   5.918769   4.934487   3.497695   5.375859
    16  H    4.034871   5.902870   5.546400   2.371821   4.707445
                   11         12         13         14         15
    11  O    0.000000
    12  H    0.968602   0.000000
    13  C    2.919648   2.417753   0.000000
    14  H    2.937463   2.293254   1.100100   0.000000
    15  H    2.938149   2.293959   1.100099   1.775774   0.000000
    16  H    3.994745   3.508740   1.094272   1.762875   1.762908
                   16
    16  H    0.000000
 Symmetry turned off by external request.
 Stoichiometry    C7H8O
 Framework group  C1[X(C7H8O)]
 Deg. of freedom    42
 Full point group                 C1      NOp   1
 Rotational constants (GHZ):           3.2229400           2.1935524           1.3160167
 Standard basis: 6-31+G(d) (6D, 7F)
   168 basis functions,   288 primitive gaussians,   168 cartesian basis functions
    29 alpha electrons       29 beta electrons
       nuclear repulsion energy       347.0309887347 Hartrees.
 NAtoms=   16 NActive=   16 NUniq=   16 SFac= 1.00D+00 NAtFMM=   60 NAOKFM=F Big=F
 Integral buffers will be    131072 words long.
 Raffenetti 2 integral format.
 Two-electron integral symmetry is turned off.
 Nuclear repulsion after empirical dispersion term =      347.0211617596 Hartrees.
 One-electron integrals computed using PRISM.
 NBasis=   168 RedAO= T EigKep=  3.65D-06  NBF=   168
 NBsUse=   168 1.00D-06 EigRej= -1.00D+00 NBFU=   168
 Initial guess from the checkpoint file:  "MOLECULE_28.chk"
 B after Tr=    -0.000051   -0.000009    0.000000
         Rot=    1.000000   -0.000006   -0.000009   -0.000006 Ang=   0.00 deg.
 Requested convergence on RMS density matrix=1.00D-08 within 128 cycles.
 Requested convergence on MAX density matrix=1.00D-06.
 Requested convergence on             energy=1.00D-06.
 No special actions if energy rises.
 SCF Done:  E(RB3LYP) =  -346.808346358     A.U. after    9 cycles
            NFock=  9  Conv=0.79D-08     -V/T= 2.0098
 Calling FoFJK, ICntrl=      2127 FMM=F ISym2X=0 I1Cent= 0 IOpClX= 0 NMat=1 NMatS=1 NMatT=0.
 -------------------------------------------------------------------
 Center     Atomic                   Forces (Hartrees/Bohr)
 Number     Number              X              Y              Z
 -------------------------------------------------------------------
      1        6          -0.000046979    0.000040177    0.000005214
      2        6          -0.000001496    0.000035054    0.000000292
      3        6           0.000067713    0.000014738   -0.000007375
      4        6          -0.000137950   -0.000022743    0.000009235
      5        6           0.000069252    0.000045565   -0.000001463
      6        6          -0.000020510   -0.000083479    0.000001121
      7        1           0.000008888   -0.000000339   -0.000000592
      8        1          -0.000005613   -0.000006729   -0.000000690
      9        1           0.000025444   -0.000016151   -0.000001270
     10        1           0.000007622   -0.000013217    0.000000552
     11        8          -0.000023161   -0.000038366    0.000000317
     12        1           0.000009768    0.000044096   -0.000000908
     13        6           0.000017165    0.000003579   -0.000000399
     14        1           0.000009958   -0.000003099   -0.000000601
     15        1           0.000010480   -0.000001379   -0.000000507
     16        1           0.000009421    0.000002295   -0.000002925
 -------------------------------------------------------------------
 Cartesian Forces:  Max     0.000137950 RMS     0.000032215

 GradGradGradGradGradGradGradGradGradGradGradGradGradGradGradGradGradGrad
 Berny optimization.
 Using GEDIIS/GDIIS optimizer.
 FormGI is forming the generalized inverse of G from B-inverse, IUseBI=4.
 Internal  Forces:  Max     0.000082561 RMS     0.000019966
 Search for a local minimum.
 Step number   4 out of a maximum of   83
 All quantities printed in internal units (Hartrees-Bohrs-Radians)
 Mixed Optimization -- En-DIIS/RFO-DIIS
 Swapping is turned off.
 Update second derivatives using D2CorX and points    1    2    3    4
 DE= -2.76D-06 DEPred=-2.68D-06 R= 1.03D+00
 TightC=F SS=  1.41D+00  RLast= 5.19D-03 DXNew= 5.0454D-01 1.5581D-02
 Trust test= 1.03D+00 RLast= 5.19D-03 DXMaxT set to 3.00D-01
 ITU=  1  1  1  0
     Eigenvalues ---    0.00603   0.01432   0.01742   0.01992   0.02016
     Eigenvalues ---    0.02071   0.02086   0.02093   0.02109   0.02116
     Eigenvalues ---    0.02129   0.06941   0.07104   0.15201   0.16000
     Eigenvalues ---    0.16000   0.16000   0.16000   0.16000   0.16053
     Eigenvalues ---    0.17926   0.20072   0.22058   0.23045   0.25376
     Eigenvalues ---    0.25670   0.31151   0.33646   0.33681   0.34427
     Eigenvalues ---    0.35237   0.35383   0.35468   0.35571   0.38109
     Eigenvalues ---    0.41532   0.43373   0.45239   0.45905   0.46507
     Eigenvalues ---    0.47683   0.52556
 En-DIIS/RFO-DIIS/Sim-DIIS IScMMF=       -3 using points:     4    3    2
 RFO step:  Lambda=-1.05531253D-07.
 DidBck=F Rises=F RFO-DIIS coefs:    1.09818   -0.10947    0.01129
 Iteration  1 RMS(Cart)=  0.00023638 RMS(Int)=  0.00000003
 Iteration  2 RMS(Cart)=  0.00000004 RMS(Int)=  0.00000001
 Variable       Old X    -DE/DX   Delta X   Delta X   Delta X     New X
                                 (Linear)    (Quad)   (Total)
    R1        2.63517   0.00001  -0.00003   0.00005   0.00003   2.63520
    R2        2.64263  -0.00006   0.00005  -0.00017  -0.00012   2.64251
    R3        2.05403   0.00000  -0.00002   0.00001  -0.00001   2.05401
    R4        2.64122  -0.00001   0.00001   0.00000   0.00000   2.64122
    R5        2.05224   0.00000   0.00000   0.00001   0.00001   2.05225
    R6        2.65925  -0.00002   0.00011  -0.00013  -0.00002   2.65924
    R7        2.59874  -0.00001  -0.00021   0.00011  -0.00010   2.59864
    R8        2.64856  -0.00006  -0.00003  -0.00011  -0.00013   2.64843
    R9        2.85596   0.00003  -0.00001   0.00010   0.00009   2.85604
   R10        2.63913   0.00006   0.00002   0.00012   0.00014   2.63928
   R11        2.05643  -0.00003  -0.00001  -0.00007  -0.00008   2.05635
   R12        2.05307  -0.00001  -0.00002   0.00000  -0.00003   2.05304
   R13        1.83039   0.00004   0.00002   0.00006   0.00009   1.83048
   R14        2.07889   0.00001   0.00000   0.00002   0.00002   2.07891
   R15        2.07889   0.00001   0.00000   0.00002   0.00002   2.07891
   R16        2.06787   0.00000   0.00001  -0.00002  -0.00001   2.06786
    A1        2.09626   0.00000   0.00004  -0.00002   0.00002   2.09627
    A2        2.08696  -0.00001  -0.00008   0.00001  -0.00007   2.08689
    A3        2.09997   0.00001   0.00004   0.00001   0.00005   2.10002
    A4        2.09193   0.00002   0.00005   0.00005   0.00010   2.09203
    A5        2.12124  -0.00002  -0.00004  -0.00007  -0.00011   2.12113
    A6        2.07001   0.00000   0.00000   0.00002   0.00001   2.07002
    A7        2.11495  -0.00003  -0.00012  -0.00005  -0.00017   2.11478
    A8        2.03154   0.00003   0.00005   0.00012   0.00017   2.03171
    A9        2.13669   0.00000   0.00008  -0.00007   0.00000   2.13670
   A10        2.05458   0.00002   0.00011   0.00002   0.00013   2.05470
   A11        2.10678  -0.00008  -0.00007  -0.00029  -0.00036   2.10642
   A12        2.12183   0.00006  -0.00004   0.00027   0.00023   2.12206
   A13        2.12510   0.00000  -0.00004   0.00004   0.00001   2.12511
   A14        2.06991  -0.00001   0.00001  -0.00011  -0.00010   2.06981
   A15        2.08817   0.00002   0.00003   0.00006   0.00009   2.08826
   A16        2.08355  -0.00002  -0.00003  -0.00005  -0.00008   2.08347
   A17        2.10348  -0.00001   0.00004  -0.00008  -0.00004   2.10344
   A18        2.09616   0.00002   0.00000   0.00012   0.00012   2.09628
   A19        1.92932  -0.00002   0.00010  -0.00014  -0.00004   1.92928
   A20        1.95707   0.00000   0.00001  -0.00004  -0.00003   1.95704
   A21        1.95708   0.00000   0.00001  -0.00002  -0.00001   1.95707
   A22        1.93457   0.00002   0.00003   0.00011   0.00014   1.93472
   A23        1.87844  -0.00001  -0.00003  -0.00009  -0.00012   1.87832
   A24        1.86583   0.00000  -0.00001   0.00003   0.00002   1.86585
   A25        1.86589   0.00000  -0.00001   0.00001   0.00000   1.86588
    D1       -0.00002   0.00000   0.00000   0.00001   0.00001  -0.00001
    D2        3.14156   0.00000   0.00000   0.00002   0.00001   3.14158
    D3        3.14159   0.00000   0.00000  -0.00001  -0.00001   3.14158
    D4       -0.00001   0.00000   0.00000  -0.00001  -0.00001  -0.00002
    D5        0.00000   0.00000   0.00000  -0.00001  -0.00001  -0.00001
    D6       -3.14159   0.00000   0.00000  -0.00002  -0.00001   3.14158
    D7        3.14158   0.00000   0.00000   0.00001   0.00001   3.14159
    D8       -0.00002   0.00000   0.00000   0.00001   0.00001  -0.00001
    D9        0.00004   0.00000  -0.00001   0.00001  -0.00001   0.00004
   D10       -3.14158   0.00000  -0.00001  -0.00002  -0.00003   3.14158
   D11       -3.14154   0.00000  -0.00001   0.00000   0.00000  -3.14154
   D12        0.00002   0.00000   0.00000  -0.00002  -0.00003   0.00000
   D13       -0.00005   0.00000   0.00001  -0.00002  -0.00001  -0.00006
   D14        3.14152   0.00000   0.00000  -0.00001  -0.00001   3.14152
   D15        3.14158   0.00000   0.00001   0.00001   0.00002  -3.14159
   D16       -0.00003   0.00000  -0.00001   0.00002   0.00002  -0.00002
   D17        3.14147   0.00000   0.00000   0.00003   0.00003   3.14150
   D18       -0.00015   0.00000   0.00000   0.00001   0.00001  -0.00015
   D19        0.00003   0.00000  -0.00001   0.00002   0.00001   0.00004
   D20        3.14158   0.00000  -0.00001   0.00003   0.00002  -3.14159
   D21       -3.14154   0.00000   0.00001   0.00000   0.00001  -3.14153
   D22        0.00000   0.00000   0.00000   0.00001   0.00002   0.00002
   D23       -1.05736   0.00001  -0.00002  -0.00009  -0.00011  -1.05747
   D24        1.05831  -0.00001  -0.00005  -0.00024  -0.00029   1.05802
   D25       -3.14108   0.00000  -0.00003  -0.00017  -0.00021  -3.14129
   D26        2.08421   0.00001  -0.00003  -0.00008  -0.00011   2.08411
   D27       -2.08330  -0.00001  -0.00006  -0.00023  -0.00029  -2.08359
   D28        0.00049   0.00000  -0.00005  -0.00016  -0.00021   0.00029
   D29       -0.00001   0.00000   0.00000   0.00000   0.00000  -0.00001
   D30        3.14159   0.00000   0.00000   0.00000   0.00000   3.14159
   D31       -3.14156   0.00000   0.00000  -0.00001  -0.00001  -3.14156
   D32        0.00004   0.00000   0.00000  -0.00001   0.00000   0.00004
         Item               Value     Threshold  Converged?
 Maximum Force            0.000083     0.000450     YES
 RMS     Force            0.000020     0.000300     YES
 Maximum Displacement     0.000821     0.001800     YES
 RMS     Displacement     0.000236     0.001200     YES
 Predicted change in Energy=-5.272609D-08
 Optimization completed.
    -- Stationary point found.
                           ----------------------------
                           !   Optimized Parameters   !
                           ! (Angstroms and Degrees)  !
 --------------------------                            --------------------------
 ! Name  Definition              Value          Derivative Info.                !
 --------------------------------------------------------------------------------
 ! R1    R(1,2)                  1.3945         -DE/DX =    0.0                 !
 ! R2    R(1,6)                  1.3984         -DE/DX =   -0.0001              !
 ! R3    R(1,7)                  1.0869         -DE/DX =    0.0                 !
 ! R4    R(2,3)                  1.3977         -DE/DX =    0.0                 !
 ! R5    R(2,8)                  1.086          -DE/DX =    0.0                 !
[...]

 ----------------------------------------------------------------------

 Dipole orientation:
     6         -0.50564063          0.00750816         -1.42247645
     6          2.12811707          0.03192882         -1.33958346
     6          3.37032782          0.04346393          0.99125370
     6          2.01009211          0.03076749          3.27625529
     6         -0.63460917          0.00626277          3.13545663
     6         -1.90241334         -0.00547171          0.82081486
     1         -1.46266047         -0.00137537         -3.23990705
     1          3.25601971          0.04235596         -3.05405261
     1         -1.71346723         -0.00382948          4.88613215
     1         -3.95479176         -0.02450205          0.77105175
     8          5.96786962          0.06757632          0.91608704
     1          6.65941481          0.07420635          2.61080107
     6          3.37385645          0.04326205          5.78553269
     1          4.59437191         -1.62294616          6.02189262
     1          4.56192584          1.73262378          6.02284240
     1          2.02731646          0.02973536          7.35484712

 Electric dipole moment (dipole orientation):
 (Debye = 10**-18 statcoulomb cm , SI units = C m)
                  (au)            (Debye)         (10**-30 SI)
   Tot        0.708016D+00      0.179960D+01      0.600281D+01
   x          0.000000D+00      0.000000D+00      0.000000D+00
   y          0.000000D+00      0.000000D+00      0.000000D+00
   z          0.708016D+00      0.179960D+01      0.600281D+01

 Dipole polarizability, Alpha (dipole orientation).
 (esu units = cm**3 , SI units = C**2 m**2 J**-1)
 Alpha(0;0):
               (au)            (10**-24 esu)      (10**-40 SI)
   iso        0.836218D+02      0.123915D+02      0.137874D+02
   aniso      0.490083D+02      0.726228D+01      0.808038D+01
   xx         0.100188D+03      0.148464D+02      0.165188D+02
   yx         0.448052D+00      0.663945D-01      0.738738D-01
   yy         0.516975D+02      0.766077D+01      0.852376D+01
   zx         0.597201D+01      0.884961D+00      0.984651D+00
   zy         0.553299D-01      0.819904D-02      0.912266D-02
   zz         0.989795D+02      0.146672D+02      0.163195D+02

 ----------------------------------------------------------------------
 1\1\GINC-IP-172-31-13-49\Freq\RB3LYP\6-31+G(d)\C7H8O1\UBUNTU\15-Sep-20
 23\0\\#N Geom=AllCheck Guess=TCheck SCRF=Check GenChk RB3LYP/6-31+G(d)
  Freq\\molecule_28\\0,1\C,-0.3076709411,-0.7372527864,0.0053837099\C,1
 .0836915977,-0.767993243,-0.0825059314\C,1.8054337607,0.4284466742,-0.
 1157478864\C,1.1533884437,1.6743212234,-0.0619622022\C,-0.2454011959,1
 .6747745789,0.0260769676\C,-0.9801789791,0.4876167177,0.0602139205\H,-
 0.8643339074,-1.6704839605,0.0309142277\H,1.6295202685,-1.7058278557,-
 0.1264050986\H,-0.764326382,2.6303516915,0.0685271597\H,-2.0639862827,
 0.5194085878,0.1287560563\O,3.1731779732,0.3152138049,-0.2030063868\H,
 3.5863210924,1.1911169879,-0.2201980184\C,1.9443409168,2.9616065597,-0
 .0985455624\H,2.642330272,3.0433646671,0.7478269281\H,2.5301089526,3.0
 619684705,-1.0243001404\H,1.2790884106,3.8289248821,-0.0472797432\\Ver
 sion=EM64L-G16RevB.01\HF=-346.8083464\RMSD=5.194e-09\RMSF=3.221e-05\Ze
 roPoint=0.1322963\Thermal=0.1394785\Dipole=0.0382441,0.7069663,0.00479
 91\DipoleDeriv=0.1170483,-0.0970929,-0.0172549,0.020304,0.1408605,0.00
 15133,-0.0161672,0.0089693,-0.1414252,-0.2131148,0.0622718,0.003341,-0
 .2431,0.0333999,0.0174916,0.0001248,-0.0018284,-0.171918,1.41802,-0.05
 55101,-0.0842021,-0.0567743,0.0054183,0.0026841,-0.0839242,0.0026241,0
 .0994758,-0.2218311,0.0383176,0.008284,0.3191987,0.1120937,-0.0180814,
 0.0110654,-0.0003271,-0.0987839,0.1212529,0.0462506,-0.0162366,-0.0273
 39,0.0932251,0.0042844,-0.0171252,-0.0003932,-0.1448849,-0.0019447,-0.
 0212518,-0.0108344,-0.0281111,-0.2043725,0.0013971,-0.0107443,0.000956
 2,-0.167457,0.0180373,-0.0835492,0.0068231,-0.0859173,-0.0746237,0.003
 2238,0.0068072,0.0030856,0.1397239,0.0299046,0.0675642,0.0082003,0.065
 1423,-0.0404812,-0.0060343,0.0081869,-0.0061942,0.1488622,0.0307971,0.
 0635688,0.0069472,0.0838763,-0.0986571,-0.007644,0.0071823,-0.0063931,
 0.1306971,-0.1268437,-0.0017393,0.0174979,0.0057713,0.0556944,-0.00134
 24,0.0176018,-0.0008688,0.1504408,-1.5075094,0.0451067,0.0714581,0.027
 8328,-0.2072255,-0.0000313,0.0711592,-0.0011039,-0.3859133,0.3549167,-
 0.0088708,-0.0025926,-0.0297885,0.1713008,0.0004595,-0.0027978,-0.0008
 826,0.3155876,0.0631477,-0.0239005,0.0059219,-0.0021339,0.0744825,-0.0
 007938,0.0061787,0.0006652,0.1604543,-0.0495603,-0.0860649,-0.093645,-
 0.0340139,-0.0014811,0.0251503,-0.1105263,-0.0263583,-0.0471525,-0.024
 1153,-0.0839622,0.0889518,-0.0391818,-0.0017437,-0.0192464,0.1068216,0
 .0383371,-0.0723428,-0.0082053,0.1388621,0.0073403,0.0242344,-0.057890
 2,-0.0030304,0.0061572,-0.0102877,0.0846358\Polar=100.640737,5.8912052
 ,98.3401993,-3.0192361,0.1046322,51.8843259\Quadrupole=0.6414868,3.865
 8504,-4.5073372,4.7110287,-0.2780795,-0.2195751\PG=C01 [X(C7H8O1)]\NIm
 ag=0\\0.68872103,0.03300581,0.72023479,-0.03473679,0.00392076,0.133867
 87,-0.34865908,-0.02524176,0.01815000,0.71789499,0.03526022,-0.1283421
 0,-0.00294823,-0.03471961,0.71430446,0.01877351,0.00084896,-0.05745841
 ,-0.03782058,0.00820258,0.12542766,-0.03048071,-0.02751719,0.00165879,
 -0.16033605,-0.11530182,0.00489442,0.66344307,-0.07800438,0.04179915,0
 .00533301,-0.04316082,-0.28495875,0.00048027,0.02633683,0.70636940,0.0
 0114875,0.00215357,0.00028650,0.00562731,0.00501121,-0.06435046,-0.032
 11724,0.00401218,0.15136034,-0.04480785,0.03125808,0.00298372,0.058099
 19,0.01751169,-0.00315084,-0.14880330,0.02424854,0.00545600,0.67589996
 ,0.02756798,-0.01859035,-0.00189553,-0.02382348,-0.04810170,0.00095751
 ,0.09570355,-0.26587026,-0.00806177,-0.00220023,0.62946113,0.00294695,
 -0.00212842,-0.00262408,-0.00356810,-0.00164249,0.00542239,0.00619483,
 -0.00358537,-0.06630931,-0.03284674,0.00500643,0.15651286,0.05967186,-
 0.02605085,-0.00360750,-0.04658587,-0.02399673,0.00251558,-0.02573041,
 0.08072620,0.00246019,-0.32381663,-0.03132159,0.01649192,0.67186289,0.
 02132648,-0.05887552,-0.00200746,-0.02793829,-0.01775001,0.00160103,0.
 03165116,0.03634774,-0.00162623,0.03439848,-0.12371363,-0.00284366,-0.
 01675321,0.72600059,-0.00313126,0.00097860,0.00673638,0.00247384,0.001
 35087,-0.00284290,0.00195856,-0.00471229,0.00006915,0.01718664,0.00127
 942,-0.05772230,-0.03423758,0.00713103,0.13336893,-0.17432393,0.118377
 03,0.00841248,-0.02663705,0.02880414,0.00241025,0.00404326,-0.00211475
 ,-0.00043203,-0.03035834,-0.02461640,0.00196223,-0.18528878,-0.1262044
 9,0.00663614,0.74107041,0.05730017,-0.28726759,-0.00593519,0.07299418,
 0.03012727,-0.00435950,-0.00244208,-0.07303983,-0.00056649,-0.07063923
 ,0.03537472,0.00475748,-0.06438780,-0.27958636,0.00181423,-0.00171648,
 0.66296970,0.00778046,-0.00976983,-0.06051840,0.00286583,-0.00157975,0
 .00682614,-0.00043643,-0.00058583,-0.00251889,0.00149766,0.00186026,0.
 00475571,0.00726482,0.00569987,-0.06004103,-0.03888605,0.00561302,0.12
 628248,-0.13299935,-0.12231777,0.00485296,-0.01162351,-0.02865165,0.00
 062693,-0.00424236,0.00220918,0.00075387,-0.00089353,0.00072838,0.0000
 1951,-0.00085912,0.00302059,0.00050464,0.01227060,0.01400915,-0.000438
 64,0.13776603,-0.12264285,-0.26551509,0.00538258,0.00220332,0.00433723
 ,-0.00012482,0.00123317,0.00154390,-0.00013656,0.00079451,0.00022684,-
 0.00004056,0.00425837,-0.00327256,-0.00036915,-0.01690070,-0.01822707,
 0.00084689,0.13205309,0.28025371,0.00484979,0.00536202,-0.03635503,0.0
 0094197,0.00181799,0.00293417,0.00074309,-0.00019882,0.00732432,0.0000
 2004,-0.00003631,-0.00070340,0.00051748,-0.00029111,0.00663138,-0.0007
 5345,-0.00109994,0.00308124,-0.00573408,-0.00571486,0.02560156,-0.0096
 0385,0.02853993,0.00103411,-0.12797333,0.12197816,0.00715233,0.0110345
 3,-0.01473219,-0.00052253,-0.00170222,-0.00277011,0.00041482,-0.000790
 84,-0.00082470,0.00000370,-0.00531174,-0.00161849,0.00073985,0.0007491
 5,-0.00035006,-0.00031248,0.13220213,-0.00165296,0.00461940,0.00012840
 ,0.11991227,-0.27215878,-0.00996948,0.01744530,-0.02018675,-0.00135473
 ,-0.00408705,-0.00259313,0.00017635,-0.00113268,0.00017192,0.00007937,
 -0.00063391,0.00175209,-0.00001090,0.00039299,0.00081083,0.00002624,-0
 .13126539,0.28660845,0.00072680,-0.00177236,0.00214319,0.00713204,-0.0
 1009984,-0.03464963,-0.00019526,0.00066940,0.00513457,0.00040155,0.000
 09313,0.00531486,0.00000118,0.00005935,-0.00059748,0.00074947,0.000051
 14,0.00665356,-0.00030506,0.00007257,-0.00414347,-0.00815146,0.0109334
 5,0.02458104,-0.00117339,-0.00315806,0.00045127,-0.00089763,-0.0006347
 2,0.00000348,-0.00469476,-0.00209506,0.00067690,-0.01194725,0.02805798
 ,0.00127017,-0.12163998,0.11469793,0.00659785,0.01207409,-0.01557781,-
 0.00072415,0.00045994,-0.00087250,-0.00002185,0.00010649,0.00009302,-0
 .00004921,0.12779236,-0.00443152,-0.00300662,0.00018154,-0.00068742,0.
 00041846,0.00005527,-0.00079238,0.00147005,-0.00000136,-0.00121660,0.0
 0057955,0.00004507,0.11564776,-0.27028924,-0.00967957,0.01549679,-0.01
 893002,-0.00120062,0.00080670,-0.00110368,-0.00006463,0.00010727,-0.00
 004472,-0.00000020,-0.12298175,0.28823470,0.00043880,0.00010062,0.0064
 8047,0.00000255,0.00005101,-0.00073855,0.00068876,0.00008300,0.0063507
 5,0.00097020,-0.00179636,0.00353515,0.00661133,-0.00962382,-0.03607348
 ,-0.00040486,0.00075880,0.00314724,-0.00000471,0.00004100,0.00025417,-
 0.00004903,0.00000062,-0.00068616,-0.00774646,0.01043507,0.02546341,-0
 .01067226,-0.00219745,0.00075611,0.00084523,0.00297526,0.00037539,0.00
 080392,-0.00005707,-0.00006944,0.00089020,-0.00289871,0.00031672,-0.01
 225205,0.00305861,0.00089969,-0.33809566,0.00807500,0.01933517,0.00073
 360,0.00045766,-0.00028330,-0.00059528,-0.00019891,0.00006669,0.000753
 42,-0.00050069,-0.00029980,0.35843583,0.02908316,0.00419258,-0.0018052
 8,0.00176049,-0.00477232,-0.00022398,-0.00015167,-0.00170134,-0.000004
 79,-0.00173661,-0.00429096,0.00000019,-0.02848463,0.00516312,0.0018297
 6,0.00820179,-0.05957018,-0.00079582,-0.00038315,0.00072896,0.00007118
 ,0.00143321,0.00012506,-0.00009399,0.00026988,0.00068452,0.00002936,-0
 .00877888,0.05898978,0.00107606,0.00016316,0.00164007,0.00036379,-0.00
 030019,0.00630400,-0.00007142,-0.00001085,-0.00029562,0.00032870,0.000
 07306,0.00637409,0.00057960,-0.00015462,0.00151028,0.01933269,-0.00078
 905,-0.03341252,-0.00029164,0.00001767,-0.00381955,0.00008341,0.000008
 72,0.00049110,-0.00029116,0.00007896,-0.00390163,-0.02113099,0.0009091
 8,0.02543503,0.00550005,-0.00171659,-0.00005471,-0.04558843,-0.0107217
 3,0.00314389,-0.28560961,0.04405537,0.01605257,-0.04119132,0.00880626,
 0.00314297,0.00309279,0.00202506,0.00027959,-0.00601293,0.00154906,0.0
 0030532,-0.00099163,-0.00024035,0.00007332,0.00116771,0.00036842,-0.00
 028323,-0.00152782,0.00010009,0.00009769,-0.00017072,0.00002698,-0.000
 03503,0.48372441,0.00424656,-0.00907268,-0.00041008,-0.04845506,0.0064
 2331,0.00305251,-0.00867314,-0.11016413,-0.00017839,0.04052692,0.00051
 492,-0.00262042,-0.00470520,-0.00871590,0.00013311,0.00004421,0.005555
 36,0.00006852,-0.00177623,0.00008581,0.00011042,0.00017577,0.00150287,
 0.00004166,0.00171053,0.00011435,-0.00010656,0.00000762,0.00042143,0.0
 0001140,0.15128068,0.53573644,0.00000644,-0.00003397,0.00490310,0.0027
 5770,0.00067832,0.00586578,0.01550864,-0.00350745,-0.03894890,0.003463
 67,-0.00062367,0.00706119,0.00021170,-0.00029094,0.00719940,0.00028874
 ,-0.00002615,-0.00144878,0.00005793,0.00001384,0.00020956,-0.00028462,
 0.00002649,-0.00335801,0.00011402,-0.00000506,-0.00000356,-0.00003530,
 0.00001007,-0.00073119,-0.02751204,-0.00434630,0.02415407,0.00048803,-
 0.00233037,0.00005571,-0.00726386,0.00333210,0.00062362,-0.02273039,-0
 .04516597,0.00068428,0.00100610,-0.00107988,0.00000044,-0.00062519,-0.
 00104758,-0.00001013,0.00034284,0.00064390,-0.00001129,-0.00052231,0.0
 0013578,0.00002592,0.00011277,0.00005460,-0.00005089,0.00029659,0.0000
 0398,-0.00001650,0.00006031,0.00011506,-0.00000932,-0.11738623,-0.1385
 5264,0.00590805,0.14462502,-0.00041681,0.00001084,0.00000876,0.0018286
 3,0.00181060,-0.00011794,0.00223719,0.00312159,-0.00004567,0.00480063,
 0.00076539,-0.00029889,-0.00016593,-0.00064922,0.00001003,0.00049521,-
 0.00031769,-0.00003488,0.00003082,0.00006664,0.00000024,0.00024087,0.0
 0039812,-0.00000361,0.00028738,0.00006196,-0.00001771,-0.00004128,-0.0
 0003110,0.00000336,-0.19181997,-0.42426918,0.00782105,0.18154423,0.420
 60508,0.00007482,0.00012894,0.00174985,0.00060886,-0.00021182,0.002055
 22,0.00116691,0.00293300,-0.00469829,0.00005594,0.00005957,0.00100718,
 -0.00000035,0.00006577,-0.00061376,-0.00001259,-0.00004473,0.00005910,
 0.00002484,-0.00000649,-0.00013426,-0.00004890,0.00000810,-0.00070140,
 -0.00001364,-0.00000003,0.00003429,-0.00001092,-0.00000650,-0.00010595
 ,0.00536004,0.00445517,-0.00151832,-0.00707801,-0.00725131,0.00350825,
 -0.00141567,-0.00073068,0.00002909,-0.00166046,0.00508042,0.00051061,0
 .01051309,0.00703575,-0.00035690,-0.11982159,-0.04815794,0.00261485,-0
 .01793823,-0.03069567,0.00101909,-0.00304576,0.00254464,0.00071192,0.0
 0014535,-0.00004737,-0.00007435,0.00074425,0.00108982,-0.00003736,0.00
 053900,-0.00136930,-0.00032474,-0.00049267,-0.00106780,0.00005157,0.00
 105786,0.00386458,-0.00031830,0.00065971,0.00063931,0.00014507,0.54320
 714,0.00108849,-0.00059929,-0.00006625,0.00332011,-0.00200236,-0.00028
 671,-0.00902769,-0.03068840,0.00021573,-0.05546582,-0.17571323,0.00241
 496,-0.00782325,-0.00129537,0.00044676,0.00209673,0.00253911,-0.000187
 99,-0.00006064,0.00001395,0.00001471,-0.00075514,-0.00056671,0.0000421
 9,0.00214084,0.00092778,-0.00008109,0.00037256,0.00042403,-0.00002412,
 -0.00761867,-0.00118065,0.00051413,0.00063177,0.00209056,-0.00004599,-
 0.04699800,0.51766483,0.00004933,0.00004915,-0.00083636,0.00049239,-0.
 00039916,0.00559356,-0.00051455,-0.00079512,0.00375525,0.00253425,0.00
 194458,-0.07050315,0.00125018,0.00188585,0.00317992,0.00070542,-0.0002
 1407,0.00779230,-0.00007438,0.00001351,-0.00102106,-0.00005639,-0.0000
 7412,-0.00002326,-0.00028592,0.00014027,-0.00436446,0.00006615,0.00006
 634,0.00049493,-0.00043856,-0.00021176,-0.00458770,0.00013807,-0.00004
 423,0.00278333,-0.00114072,0.00282920,0.53290914,-0.00013494,0.0000629
 7,-0.00008535,-0.00018699,-0.00020914,0.00016867,-0.00192961,0.0018259
 2,0.00059930,-0.01272048,-0.00403073,-0.01044271,0.00015707,-0.0023296
 8,-0.00071315,-0.00043683,-0.00044416,0.00118326,-0.00000030,-0.000056
 90,-0.00009364,0.00000500,-0.00007230,-0.00001260,0.00014709,-0.000049
 28,-0.00071871,-0.00013937,-0.00017339,0.00005934,0.00186396,-0.000045
 81,0.00012526,0.00021034,0.00037686,-0.00039999,-0.14596674,-0.0071241
 2,-0.12284842,0.15930613,-0.00078197,0.00001470,-0.00011536,0.00033095
 ,0.00074862,0.00104541,-0.00324615,-0.00042938,0.00040133,-0.01918064,
 -0.00214087,-0.02198289,0.00070240,-0.00242460,-0.00075224,-0.00042385
 ,-0.00059142,0.00106478,-0.00000293,-0.00000061,-0.00010921,0.00006259
 ,-0.00003629,-0.00006287,-0.00022733,0.00018450,-0.00024477,-0.0001289
 2,-0.00019402,0.00014935,0.00228654,0.00126513,0.00003736,0.00089450,-
 0.00176137,-0.00155912,-0.01002930,-0.04902045,-0.01324095,0.01253614,
 0.05265760,-0.00020344,0.00011471,-0.00002355,0.00033984,-0.00000748,-
 0.00035581,-0.00244033,0.00031560,0.00113639,0.00237320,-0.00163476,0.
 00475757,0.00092634,0.00028523,-0.00033982,0.00015470,-0.00025318,-0.0
 0031886,0.00001928,-0.00000747,0.00005954,-0.00003225,-0.00006404,0.00
 000056,0.00009389,0.00000658,0.00009507,0.00001925,0.00000400,0.000027
 20,0.00145248,0.00055059,0.00011733,0.00039374,-0.00154715,-0.00107423
 ,-0.12285818,-0.01106040,-0.19919656,0.13597481,0.01315285,0.21547180,
 -0.00009727,0.00004556,0.00009548,-0.00025398,-0.00020144,-0.00018809,
 -0.00165047,0.00178190,-0.00021475,-0.01146783,-0.00404956,0.01244714,
 0.00012183,-0.00236029,0.00060464,-0.00060206,-0.00038435,-0.00115745,
 0.00000980,-0.00005746,0.00009910,0.00001048,-0.00006383,0.00000996,0.
 00022368,-0.00006252,0.00069897,-0.00014680,-0.00017150,-0.00004096,0.
 00164115,-0.00011187,-0.00031779,0.00018988,0.00055139,0.00025458,-0.1
 1609305,-0.00792767,0.11216403,0.01260528,0.00175764,-0.01818126,0.126
 21549,-0.00076633,0.00001439,0.00021379,0.00020732,0.00077030,-0.00105
 778,-0.00332123,-0.00040482,-0.00003479,-0.01624382,-0.00266080,0.0240
 7044,0.00081104,-0.00243136,0.00061502,-0.00055056,-0.00057824,-0.0010
 1026,0.00001105,-0.00000302,0.00010752,0.00006924,-0.00003881,0.000053
 68,-0.00019160,0.00017964,0.00027250,-0.00014661,-0.00019098,-0.000136
 52,0.00228728,0.00127650,-0.00030679,0.00107885,-0.00186085,0.00144517
 ,-0.01052378,-0.04960472,0.01799817,0.00131949,-0.00065584,-0.00068824
 ,0.01329678,0.05332495,0.00019704,-0.00012106,-0.00005956,-0.00034840,
 0.00005611,-0.00031111,0.00272203,-0.00057062,0.00084460,-0.00065334,0
 .00199757,0.00401391,-0.00096758,-0.00003254,-0.00029315,-0.00012893,0
 .00029988,-0.00016869,-0.00001271,0.00001357,0.00005178,0.00003252,0.0
 0007193,-0.00000241,-0.00011361,0.00000405,0.00002189,-0.00000015,0.00
 001324,0.00003184,-0.00159909,-0.00051970,0.00032335,-0.00053187,0.001
 46794,-0.00099366,0.11210619,0.01546835,-0.22846053,0.01378045,0.00095
 077,-0.02224336,-0.12437905,-0.01853626,0.24791442,-0.00001270,-0.0000
 2866,0.00000462,0.00082684,-0.00050515,-0.00003919,-0.00363019,-0.0028
 8945,0.00025371,0.01163490,-0.01591552,-0.00096501,0.00062066,-0.00202
 440,-0.00007225,0.00031187,0.00009431,-0.00003029,-0.00000236,0.000032
 28,0.00000243,-0.00015524,-0.00024939,-0.00000260,-0.00051180,-0.00007
 111,0.00005651,0.00004231,0.00005706,-0.00000465,0.00043077,0.00046307
 ,0.00002592,0.00053638,-0.00058854,-0.00012667,-0.15043224,0.13315051,
 0.00795911,-0.01277961,0.01545034,0.00196794,-0.01070613,0.01266287,-0
 .00010348,0.16382652,-0.00018205,0.00038339,0.00001455,0.00146916,-0.0
 0085423,-0.00010333,-0.00413386,-0.00320818,0.00021677,0.01723114,-0.0
 2324763,-0.00132823,0.00267610,0.00132040,-0.00015494,-0.00035476,-0.0
 0020985,0.00002254,-0.00006958,0.00005418,0.00000454,-0.00029094,-0.00
 036354,0.00001630,-0.00151872,0.00051878,0.00009832,0.00000181,0.00002
 143,0.00000050,-0.00066841,0.00050642,0.00003907,-0.00025834,-0.000041
 38,0.00003027,0.12936532,-0.21298909,-0.00994767,-0.00158587,0.0023842
 9,0.00083315,-0.00204277,0.00286367,-0.00056323,-0.13963822,0.23286136
 ,0.00000273,0.00000516,0.00006796,-0.00001904,0.00002085,0.00027794,0.
 00023920,0.00013988,0.00085960,-0.00062066,0.00077686,-0.00089264,-0.0
 0001730,0.00014224,-0.00017152,-0.00003421,-0.00000625,-0.00017061,0.0
 0000127,-0.00000172,0.00002904,-0.00000310,0.00001361,-0.00015706,0.00
 003842,0.00000466,0.00038540,-0.00000528,-0.00000297,-0.00004208,0.000
 01481,-0.00003018,0.00076272,-0.00012183,0.00005001,-0.00135732,0.0079
 2216,-0.01019348,-0.04751535,-0.01657652,0.02126557,0.00188674,0.01810
 545,-0.02300566,-0.00066933,-0.00892610,0.01082139,0.04670652\\0.00004
 704,-0.00004020,-0.00000522,0.00000148,-0.00003503,-0.00000029,-0.0000
 6770,-0.00001477,0.00000737,0.00013792,0.00002274,-0.00000923,-0.00006
 918,-0.00004554,0.00000146,0.00002048,0.00008348,-0.00000112,-0.000008
 90,0.00000034,0.00000059,0.00000561,0.00000673,0.00000069,-0.00002546,
 0.00001616,0.00000127,-0.00000764,0.00001322,-0.00000055,0.00002313,0.
 00003837,-0.00000031,-0.00000977,-0.00004410,0.00000091,-0.00001715,-0
 .00000359,0.00000040,-0.00000996,0.00000310,0.00000060,-0.00001048,0.0
 0000138,0.00000051,-0.00000943,-0.00000229,0.00000293\\\@


 MY DESCRIPTION OF EXPERIENCE IS NOT WHAT HAPPENS
 TO A MAN.  EXPERIENCE IS WHAT A MAN DOES WITH WHAT
 HAPPENS TO HIM.
                         - CHUCK KNOX, SEATTLE SEAHAWKS, 1985
 Job cpu time:       0 days  0 hours 25 minutes 23.7 seconds.
 Elapsed time:       0 days  0 hours  0 minutes 50.8 seconds.
 File lengths (MBytes):  RWF=     54 Int=      0 D2E=      0 Chk=      4 Scr=      1
 Normal termination of Gaussian 16 at Fri Sep 15 03:57:37 2023.
