 Entering Gaussian System, Link 0=/home/ubuntu/g16/g16
 Input=/home/ubuntu/Downloads/molecule38vol.gjf
 Output=/home/ubuntu/Downloads/molecule38vol.log
 Initial command:
 /home/ubuntu/g16/l1.exe "/home/ubuntu/Scratch/Gau-81326.inp" -scrdir="/home/ubuntu/Scratch/"
 Entering Link 1 = /home/ubuntu/g16/l1.exe PID=     81328.
  
 Copyright (c) 1988-2017, Gaussian, Inc.  All Rights Reserved.
  
 This is part of the Gaussian(R) 16 program.  It is based on
 the Gaussian(R) 09 system (copyright 2009, Gaussian, Inc.),
 the Gaussian(R) 03 system (copyright 2003, Gaussian, Inc.),
 the Gaussian(R) 98 system (copyright 1998, Gaussian, Inc.),
 the Gaussian(R) 94 system (copyright 1995, Gaussian, Inc.),
 the Gaussian 92(TM) system (copyright 1992, Gaussian, Inc.),
 the Gaussian 90(TM) system (copyright 1990, Gaussian, Inc.),
 the Gaussian 88(TM) system (copyright 1988, Gaussian, Inc.),
 the Gaussian 86(TM) system (copyright 1986, Carnegie Mellon
 University), and the Gaussian 82(TM) system (copyright 1983,
 Carnegie Mellon University). Gaussian is a federally registered
 trademark of Gaussian, Inc.
  
 This software contains proprietary and confidential information,
 including trade secrets, belonging to Gaussian, Inc.
  
 This software is provided under written license and may be
 used, copied, transmitted, or stored only in accord with that
 written license.
  
 The following legend is applicable only to US Government
 contracts under FAR:
  
                    RESTRICTED RIGHTS LEGEND
  
 Use, reproduction and disclosure by the US Government is
 subject to restrictions as set forth in subparagraphs (a)
 and (c) of the Commercial Computer Software - Restricted
 Rights clause in FAR 52.227-19.
  
 Gaussian, Inc.
 340 Quinnipiac St., Bldg. 40, Wallingford CT 06492
  
  
 ---------------------------------------------------------------
 Warning -- This program may not be used in any manner that
 competes with the business of Gaussian, Inc. or will provide
 assistance to any competitor of Gaussian, Inc.  The licensee
 of this program is prohibited from giving any competitor of
 Gaussian, Inc. access to this program.  By using this program,
 the user acknowledges that Gaussian, Inc. is engaged in the
 business of creating and licensing software in the field of
 computational chemistry and represents and warrants to the
 licensee that it is not a competitor of Gaussian, Inc. and that
 it will not use this program in any manner prohibited above.
 ---------------------------------------------------------------
  

 Cite this work as:
 Gaussian 16, Revision B.01,
 M. J. Frisch, G. W. Trucks, H. B. Schlegel, G. E. Scuseria, 
 M. A. Robb, J. R. Cheeseman, G. Scalmani, V. Barone, 
 G. A. Petersson, H. Nakatsuji, X. Li, M. Caricato, A. V. Marenich, 
 J. Bloino, B. G. Janesko, R. Gomperts, B. Mennucci, H. P. Hratchian, 
 J. V. Ortiz, A. F. Izmaylov, J. L. Sonnenberg, D. Williams-Young, 
 F. Ding, F. Lipparini, F. Egidi, J. Goings, B. Peng, A. Petrone, 
 T. Henderson, D. Ranasinghe, V. G. Zakrzewski, J. Gao, N. Rega, 
 G. Zheng, W. Liang, M. Hada, M. Ehara, K. Toyota, R. Fukuda, 
 J. Hasegawa, M. Ishida, T. Nakajima, Y. Honda, O. Kitao, H. Nakai, 
 T. Vreven, K. Throssell, J. A. Montgomery, Jr., J. E. Peralta, 
 F. Ogliaro, M. J. Bearpark, J. J. Heyd, E. N. Brothers, K. N. Kudin, 
 V. N. Staroverov, T. A. Keith, R. Kobayashi, J. Normand, 
 K. Raghavachari, A. P. Rendell, J. C. Burant, S. S. Iyengar, 
 J. Tomasi, M. Cossi, J. M. Millam, M. Klene, C. Adamo, R. Cammi, 
 J. W. Ochterski, R. L. Martin, K. Morokuma, O. Farkas, 
 J. B. Foresman, and D. J. Fox, Gaussian, Inc., Wallingford CT, 2016.
 
 ******************************************
 Gaussian 16:  EM64L-G16RevB.01 20-Dec-2017
                19-Sep-2023 
 ******************************************
 %nprocshared=32
 Will use up to   32 processors via shared memory.
 %mem=60GB
 %chk=molecule38vol.chk
 ----------------------------------------------------------------------
 # opt freq b3lyp/6-31+g(d) empiricaldispersion=gd3 scf=maxcycle=1000 v
 olume
 ----------------------------------------------------------------------
 1/18=20,19=15,26=3,38=1/1,3;
 2/9=110,12=2,17=6,18=5,40=1/2;
 3/5=1,6=6,7=11,11=2,25=1,30=1,71=1,74=-5,124=31/1,2,3;
 4//1;
 5/5=2,7=1000,38=5/2;
 6/7=2,8=2,9=2,10=2,28=1,44=1/1,4;
 7//1,2,3,16;
 1/18=20,19=15,26=3/3(2);
 2/9=110/2;
 99//99;
 2/9=110/2;
 3/5=1,6=6,7=11,11=2,25=1,30=1,71=1,74=-5,124=31/1,2,3;
 4/5=5,16=3,69=1/1;
 5/5=2,7=1000,38=5/2;
 7//1,2,3,16;
 1/18=20,19=15,26=3/3(-5);
 2/9=110/2;
 6/7=2,8=2,9=2,10=2,19=2,28=1,44=1/1,4;
 99/9=1/99;
 -------------------
 Title Card Required
 -------------------
 Symbolic Z-matrix:
 Charge =  0 Multiplicity = 1
 C                     1.94874   1.58061   0.00001 
 C                     0.62032   1.94337   0. 
 C                    -0.39454   0.94597  0. 
 C                    -0.02753  -0.43967  0. 
 C                     1.36108  -0.77056  -0.00001 
 C                     2.32749   0.21553  -0.00001 
 H                    -2.06088   2.32797  -0.00001 
 H                     0.33193   2.99144   0.00001 
 C                    -1.77773   1.27767  0. 
 C                    -1.04215  -1.43379   0.00001 
 H                     3.38188  -0.05471  -0.00003 
 C                    -2.37347  -1.07305   0.00001 
 C                    -2.74466   0.29495  0. 
 H                    -0.75124  -2.47888   0.00001 
 H                    -3.14385  -1.83977   0.00001 
 H                    -3.79716   0.56689  0. 
 H                     2.72447   2.34207   0.00001 
 O                     1.66305  -2.10907  -0.00003 
 H                     2.62517  -2.22868   0.00018 
 

 GradGradGradGradGradGradGradGradGradGradGradGradGradGradGradGradGradGrad
 Berny optimization.
 Initialization pass.
                           ----------------------------
                           !    Initial Parameters    !
                           ! (Angstroms and Degrees)  !
 --------------------------                            --------------------------
 ! Name  Definition              Value          Derivative Info.                !
 --------------------------------------------------------------------------------
 ! R1    R(1,2)                  1.3771         estimate D2E/DX2                !
 ! R2    R(1,6)                  1.4166         estimate D2E/DX2                !
 ! R3    R(1,17)                 1.087          estimate D2E/DX2                !
 ! R4    R(2,3)                  1.4229         estimate D2E/DX2                !
 ! R5    R(2,8)                  1.087          estimate D2E/DX2                !
 ! R6    R(3,4)                  1.4334         estimate D2E/DX2                !
 ! R7    R(3,9)                  1.4224         estimate D2E/DX2                !
 ! R8    R(4,5)                  1.4275         estimate D2E/DX2                !
 ! R9    R(4,10)                 1.4205         estimate D2E/DX2                !
 ! R10   R(5,6)                  1.3807         estimate D2E/DX2                !
 ! R11   R(5,18)                 1.3721         estimate D2E/DX2                !
 ! R12   R(6,11)                 1.0885         estimate D2E/DX2                !
 ! R13   R(7,9)                  1.0878         estimate D2E/DX2                !
 ! R14   R(9,13)                 1.3787         estimate D2E/DX2                !
 ! R15   R(10,12)                1.3793         estimate D2E/DX2                !
 ! R16   R(10,14)                1.0848         estimate D2E/DX2                !
 ! R17   R(12,13)                1.4175         estimate D2E/DX2                !
 ! R18   R(12,15)                1.0869         estimate D2E/DX2                !
 ! R19   R(13,16)                1.0871         estimate D2E/DX2                !
 ! R20   R(18,19)                0.9695         estimate D2E/DX2                !
 ! A1    A(2,1,6)              120.7803         estimate D2E/DX2                !
 ! A2    A(2,1,17)             120.2586         estimate D2E/DX2                !
 ! A3    A(6,1,17)             118.9611         estimate D2E/DX2                !
 ! A4    A(1,2,3)              120.2237         estimate D2E/DX2                !
 ! A5    A(1,2,8)              120.6582         estimate D2E/DX2                !
 ! A6    A(3,2,8)              119.1181         estimate D2E/DX2                !
 ! A7    A(2,3,4)              119.6675         estimate D2E/DX2                !
 ! A8    A(2,3,9)              122.0116         estimate D2E/DX2                !
 ! A9    A(4,3,9)              118.3209         estimate D2E/DX2                !
 ! A10   A(3,4,5)              118.2384         estimate D2E/DX2                !
 ! A11   A(3,4,10)             119.5803         estimate D2E/DX2                !
 ! A12   A(5,4,10)             122.1812         estimate D2E/DX2                !
 ! A13   A(4,5,6)              121.0192         estimate D2E/DX2                !
 ! A14   A(4,5,18)             116.116          estimate D2E/DX2                !
 ! A15   A(6,5,18)             122.8648         estimate D2E/DX2                !
 ! A16   A(1,6,5)              120.0708         estimate D2E/DX2                !
 ! A17   A(1,6,11)             119.8824         estimate D2E/DX2                !
 ! A18   A(5,6,11)             120.0468         estimate D2E/DX2                !
 ! A19   A(3,9,7)              118.5731         estimate D2E/DX2                !
 ! A20   A(3,9,13)             121.05           estimate D2E/DX2                !
 ! A21   A(7,9,13)             120.3769         estimate D2E/DX2                !
 ! A22   A(4,10,12)            120.4233         estimate D2E/DX2                !
 ! A23   A(4,10,14)            118.8608         estimate D2E/DX2                !
 ! A24   A(12,10,14)           120.7159         estimate D2E/DX2                !
 ! A25   A(10,12,13)           120.3418         estimate D2E/DX2                !
 ! A26   A(10,12,15)           119.9755         estimate D2E/DX2                !
 ! A27   A(13,12,15)           119.6827         estimate D2E/DX2                !
 ! A28   A(9,13,12)            120.2837         estimate D2E/DX2                !
 ! A29   A(9,13,16)            120.0487         estimate D2E/DX2                !
 ! A30   A(12,13,16)           119.6675         estimate D2E/DX2                !
 ! A31   A(5,18,19)            109.7997         estimate D2E/DX2                !
 ! D1    D(6,1,2,3)              0.0007         estimate D2E/DX2                !
 ! D2    D(6,1,2,8)           -179.9997         estimate D2E/DX2                !
 ! D3    D(17,1,2,3)          -179.9999         estimate D2E/DX2                !
 ! D4    D(17,1,2,8)            -0.0003         estimate D2E/DX2                !
 ! D5    D(2,1,6,5)             -0.0009         estimate D2E/DX2                !
 ! D6    D(2,1,6,11)           179.9984         estimate D2E/DX2                !
 ! D7    D(17,1,6,5)           179.9997         estimate D2E/DX2                !
 ! D8    D(17,1,6,11)           -0.001          estimate D2E/DX2                !
 ! D9    D(1,2,3,4)              0.0            estimate D2E/DX2                !
 ! D10   D(1,2,3,9)            179.9998         estimate D2E/DX2                !
 ! D11   D(8,2,3,4)           -179.9996         estimate D2E/DX2                !
 ! D12   D(8,2,3,9)              0.0001         estimate D2E/DX2                !
 ! D13   D(2,3,4,5)             -0.0004         estimate D2E/DX2                !
 ! D14   D(2,3,4,10)           179.9994         estimate D2E/DX2                !
 ! D15   D(9,3,4,5)            179.9998         estimate D2E/DX2                !
 ! D16   D(9,3,4,10)            -0.0004         estimate D2E/DX2                !
 ! D17   D(2,3,9,7)              0.0005         estimate D2E/DX2                !
 ! D18   D(2,3,9,13)          -179.9996         estimate D2E/DX2                !
 ! D19   D(4,3,9,7)           -179.9997         estimate D2E/DX2                !
 ! D20   D(4,3,9,13)             0.0001         estimate D2E/DX2                !
 ! D21   D(3,4,5,6)              0.0002         estimate D2E/DX2                !
 ! D22   D(3,4,5,18)          -179.999          estimate D2E/DX2                !
 ! D23   D(10,4,5,6)          -179.9996         estimate D2E/DX2                !
 ! D24   D(10,4,5,18)            0.0012         estimate D2E/DX2                !
 ! D25   D(3,4,10,12)            0.0003         estimate D2E/DX2                !
 ! D26   D(3,4,10,14)         -179.9996         estimate D2E/DX2                !
 ! D27   D(5,4,10,12)         -179.9999         estimate D2E/DX2                !
 ! D28   D(5,4,10,14)            0.0002         estimate D2E/DX2                !
 ! D29   D(4,5,6,1)              0.0005         estimate D2E/DX2                !
 ! D30   D(4,5,6,11)          -179.9989         estimate D2E/DX2                !
 ! D31   D(18,5,6,1)           179.9996         estimate D2E/DX2                !
 ! D32   D(18,5,6,11)            0.0003         estimate D2E/DX2                !
 ! D33   D(4,5,18,19)         -179.9873         estimate D2E/DX2                !
 ! D34   D(6,5,18,19)            0.0135         estimate D2E/DX2                !
 ! D35   D(3,9,13,12)            0.0001         estimate D2E/DX2                !
 ! D36   D(3,9,13,16)         -179.9999         estimate D2E/DX2                !
 ! D37   D(7,9,13,12)         -180.0            estimate D2E/DX2                !
 ! D38   D(7,9,13,16)            0.0            estimate D2E/DX2                !
 ! D39   D(4,10,12,13)           0.0            estimate D2E/DX2                !
 ! D40   D(4,10,12,15)        -179.9999         estimate D2E/DX2                !
 ! D41   D(14,10,12,13)        179.9999         estimate D2E/DX2                !
 ! D42   D(14,10,12,15)          0.0001         estimate D2E/DX2                !
 ! D43   D(10,12,13,9)          -0.0002         estimate D2E/DX2                !
 ! D44   D(10,12,13,16)        179.9999         estimate D2E/DX2                !
 ! D45   D(15,12,13,9)         179.9997         estimate D2E/DX2                !
 ! D46   D(15,12,13,16)         -0.0003         estimate D2E/DX2                !
 --------------------------------------------------------------------------------
 Trust Radius=3.00D-01 FncErr=1.00D-07 GrdErr=1.00D-06 EigMax=2.50D+02 EigMin=1.00D-04
 Number of steps in this run=    107 maximum allowed number of steps=    114.
 GradGradGradGradGradGradGradGradGradGradGradGradGradGradGradGradGradGrad

                          Input orientation:                          
 ---------------------------------------------------------------------
 Center     Atomic      Atomic             Coordinates (Angstroms)
 Number     Number       Type             X           Y           Z
 ---------------------------------------------------------------------
      1          6           0        1.948742    1.580611    0.000008
      2          6           0        0.620316    1.943366    0.000002
      3          6           0       -0.394544    0.945968   -0.000003
      4          6           0       -0.027530   -0.439665   -0.000002
      5          6           0        1.361084   -0.770559   -0.000005
      6          6           0        2.327488    0.215533   -0.000005
      7          1           0       -2.060878    2.327966   -0.000009
      8          1           0        0.331929    2.991439    0.000007
      9          6           0       -1.777733    1.277674   -0.000004
     10          6           0       -1.042145   -1.433793    0.000006
     11          1           0        3.381877   -0.054708   -0.000026
     12          6           0       -2.373473   -1.073050    0.000006
     13          6           0       -2.744655    0.294948   -0.000001
     14          1           0       -0.751239   -2.478881    0.000013
     15          1           0       -3.143853   -1.839766    0.000014
     16          1           0       -3.797162    0.566887   -0.000003
     17          1           0        2.724472    2.342066    0.000013
     18          8           0        1.663047   -2.109066   -0.000025
     19          1           0        2.625173   -2.228679    0.000177
 ---------------------------------------------------------------------
                    Distance matrix (angstroms):
                    1          2          3          4          5
     1  C    0.000000
     2  C    1.377065   0.000000
     3  C    2.427707   1.422935   0.000000
     4  C    2.826157   2.469522   1.433415   0.000000
     5  C    2.423498   2.813206   2.455340   1.427494   0.000000
     6  C    1.416646   2.428959   2.818332   2.444462   1.380693
     7  H    4.078675   2.708638   2.164853   3.434281   4.616349
     8  H    2.145815   1.087025   2.170648   3.449882   3.900229
     9  C    3.738768   2.488732   1.422407   2.452033   3.747990
    10  C    4.246415   3.764170   2.466303   1.420470   2.493068
    11  H    2.174430   3.408595   3.906752   3.431071   2.143839
    12  C    5.071830   4.249887   2.827118   2.429943   3.746788
    13  C    4.866303   3.747040   2.438616   2.814680   4.241745
    14  H    4.875384   4.630057   3.443374   2.163829   2.716666
    15  H    6.134615   5.336765   3.913951   3.416395   4.630082
    16  H    5.834642   4.626965   3.423669   3.901701   5.328814
    17  H    1.087001   2.141596   3.417214   3.912997   3.398126
    18  O    3.700721   4.184435   3.683329   2.375910   1.372145
    19  H    3.868882   4.628759   4.381447   3.199594   1.929776
                    6          7          8          9         10
     6  C    0.000000
     7  H    4.870332   0.000000
     8  H    3.418759   2.483087   0.000000
     9  C    4.240399   1.087789   2.718026   0.000000
    10  C    3.751627   3.897262   4.633655   2.809474   0.000000
    11  H    1.088470   5.941441   4.310591   5.328866   4.633988
    12  C    4.874370   3.415351   4.882548   2.425038   1.379337
    13  C    5.072765   2.144927   4.091019   1.378655   2.426332
    14  H    4.091262   4.982061   5.576527   3.894277   1.084820
    15  H    5.844641   4.306138   5.951605   3.403633   2.140558
    16  H    6.134720   2.473071   4.788303   2.140867   3.404826
    17  H    2.163270   4.785371   2.479102   4.626314   5.333340
    18  O    2.417694   5.792657   5.271340   4.827937   2.788200
    19  H    2.462273   6.536214   5.701631   5.628507   3.752475
                   11         12         13         14         15
    11  H    0.000000
    12  C    5.844748   0.000000
    13  C    6.136502   1.417461   0.000000
    14  H    4.791582   2.146626   3.415821   0.000000
    15  H    6.765470   1.086894   2.171719   2.476504   0.000000
    16  H    7.205899   2.171701   1.087070   4.307476   2.493750
    17  H    2.485298   6.136127   5.839695   5.943240   7.205897
    18  O    2.678575   4.167352   5.020669   2.442446   4.814438
    19  H    2.301902   5.130491   5.933274   3.385670   5.782120
                   16         17         18         19
    16  H    0.000000
    17  H    6.758918   0.000000
    18  O    6.080675   4.575937   0.000000
    19  H    7.004397   4.571824   0.969533   0.000000
 Stoichiometry    C10H8O
 Framework group  C1[X(C10H8O)]
 Deg. of freedom    51
 Full point group                 C1      NOp   1
 Largest Abelian subgroup         C1      NOp   1
 Largest concise Abelian subgroup C1      NOp   1
                         Standard orientation:                         
 ---------------------------------------------------------------------
 Center     Atomic      Atomic             Coordinates (Angstroms)
 Number     Number       Type             X           Y           Z
 ---------------------------------------------------------------------
      1          6           0        1.948743    1.580611    0.000008
      2          6           0        0.620317    1.943366    0.000002
      3          6           0       -0.394544    0.945968   -0.000003
      4          6           0       -0.027530   -0.439665   -0.000002
      5          6           0        1.361084   -0.770559   -0.000005
      6          6           0        2.327488    0.215532   -0.000005
      7          1           0       -2.060877    2.327967   -0.000009
      8          1           0        0.331930    2.991439    0.000007
      9          6           0       -1.777733    1.277675   -0.000004
     10          6           0       -1.042145   -1.433793    0.000006
     11          1           0        3.381877   -0.054709   -0.000026
     12          6           0       -2.373473   -1.073049    0.000006
     13          6           0       -2.744655    0.294949   -0.000001
     14          1           0       -0.751240   -2.478881    0.000013
     15          1           0       -3.143853   -1.839765    0.000014
     16          1           0       -3.797162    0.566888   -0.000003
     17          1           0        2.724473    2.342065    0.000013
     18          8           0        1.663046   -2.109066   -0.000025
     19          1           0        2.625172   -2.228680    0.000177
 ---------------------------------------------------------------------
 Rotational constants (GHZ):           1.9347259           1.1282826           0.7126711
 Standard basis: 6-31+G(d) (6D, 7F)
 There are   225 symmetry adapted cartesian basis functions of A   symmetry.
 There are   225 symmetry adapted basis functions of A   symmetry.
   225 basis functions,   384 primitive gaussians,   225 cartesian basis functions
    38 alpha electrons       38 beta electrons
       nuclear repulsion energy       550.3451243430 Hartrees.
 NAtoms=   19 NActive=   19 NUniq=   19 SFac= 1.00D+00 NAtFMM=   60 NAOKFM=F Big=F
 Integral buffers will be    131072 words long.
 Raffenetti 2 integral format.
 Two-electron integral symmetry is turned on.
 Nuclear repulsion after empirical dispersion term =      550.3320439418 Hartrees.
 One-electron integrals computed using PRISM.
 NBasis=   225 RedAO= T EigKep=  1.32D-06  NBF=   225
 NBsUse=   224 1.00D-06 EigRej=  6.55D-07 NBFU=   224
 ExpMin= 4.38D-02 ExpMax= 5.48D+03 ExpMxC= 8.25D+02 IAcc=3 IRadAn=         5 AccDes= 0.00D+00
 Harris functional with IExCor=  402 and IRadAn=       5 diagonalized for initial guess.
 HarFok:  IExCor=  402 AccDes= 0.00D+00 IRadAn=         5 IDoV= 1 UseB2=F ITyADJ=14
 ICtDFT=  3500011 ScaDFX=  1.000000  1.000000  1.000000  1.000000
 FoFCou: FMM=F IPFlag=           0 FMFlag=      100000 FMFlg1=           0
         NFxFlg=           0 DoJE=T BraDBF=F KetDBF=T FulRan=T
         wScrn=  0.000000 ICntrl=       500 IOpCl=  0 I1Cent=   200000004 NGrid=           0
         NMat0=    1 NMatS0=      1 NMatT0=    0 NMatD0=    1 NMtDS0=    0 NMtDT0=    0
 Petite list used in FoFCou.
 Requested convergence on RMS density matrix=1.00D-08 within1000 cycles.
 Requested convergence on MAX density matrix=1.00D-06.
 Requested convergence on             energy=1.00D-06.
 No special actions if energy rises.
 SCF Done:  E(RB3LYP) =  -461.141540236     A.U. after   15 cycles
            NFock= 15  Conv=0.30D-08     -V/T= 2.0098

 **********************************************************************

            Population analysis using the SCF Density.

 **********************************************************************

 Orbital symmetries:
       Occupied  (A) (A) (A) (A) (A) (A) (A) (A) (A) (A) (A) (A)
                 (A) (A) (A) (A) (A) (A) (A) (A) (A) (A) (A) (A)
                 (A) (A) (A) (A) (A) (A) (A) (A) (A) (A) (A) (A)
                 (A) (A)
       Virtual   (A) (A) (A) (A) (A) (A) (A) (A) (A) (A) (A) (A)
                 (A) (A) (A) (A) (A) (A) (A) (A) (A) (A) (A) (A)
                 (A) (A) (A) (A) (A) (A) (A) (A) (A) (A) (A) (A)
                 (A) (A) (A) (A) (A) (A) (A) (A) (A) (A) (A) (A)
                 (A) (A) (A) (A) (A) (A) (A) (A) (A) (A) (A) (A)
                 (A) (A) (A) (A) (A) (A) (A) (A) (A) (A) (A) (A)
                 (A) (A) (A) (A) (A) (A) (A) (A) (A) (A) (A) (A)
                 (A) (A) (A) (A) (A) (A) (A) (A) (A) (A) (A) (A)
                 (A) (A) (A) (A) (A) (A) (A) (A) (A) (A) (A) (A)
                 (A) (A) (A) (A) (A) (A) (A) (A) (A) (A) (A) (A)
                 (A) (A) (A) (A) (A) (A) (A) (A) (A) (A) (A) (A)
                 (A) (A) (A) (A) (A) (A) (A) (A) (A) (A) (A) (A)
                 (A) (A) (A) (A) (A) (A) (A) (A) (A) (A) (A) (A)
                 (A) (A) (A) (A) (A) (A) (A) (A) (A) (A) (A) (A)
                 (A) (A) (A) (A) (A) (A) (A) (A) (A) (A) (A) (A)
                 (A) (A) (A) (A) (A) (A)
 The electronic state is 1-A.
 Alpha  occ. eigenvalues --  -19.19754 -10.26244 -10.20691 -10.20467 -10.20176
 Alpha  occ. eigenvalues --  -10.19882 -10.19814 -10.19704 -10.19628 -10.19548
 Alpha  occ. eigenvalues --  -10.19233  -1.07442  -0.87622  -0.82510  -0.77429
 Alpha  occ. eigenvalues --   -0.74889  -0.72184  -0.64077  -0.62494  -0.60588
 Alpha  occ. eigenvalues --   -0.54947  -0.52270  -0.50776  -0.48461  -0.45510
 Alpha  occ. eigenvalues --   -0.43454  -0.43011  -0.42366  -0.41194  -0.39590
 Alpha  occ. eigenvalues --   -0.37882  -0.37068  -0.34644  -0.34018  -0.32535
 Alpha  occ. eigenvalues --   -0.27301  -0.25139  -0.21141
 Alpha virt. eigenvalues --   -0.04383  -0.02149  -0.00823   0.01035   0.01528
 Alpha virt. eigenvalues --    0.02143   0.02905   0.03662   0.05458   0.05659
 Alpha virt. eigenvalues --    0.05733   0.06308   0.07248   0.07888   0.08521
 Alpha virt. eigenvalues --    0.09586   0.09858   0.10516   0.12044   0.12406
 Alpha virt. eigenvalues --    0.12571   0.13333   0.14307   0.14805   0.15290
 Alpha virt. eigenvalues --    0.16275   0.16488   0.16526   0.17175   0.17837
 Alpha virt. eigenvalues --    0.18687   0.19360   0.20348   0.20569   0.20928
 Alpha virt. eigenvalues --    0.21588   0.21933   0.22153   0.22341   0.22671
 Alpha virt. eigenvalues --    0.23273   0.24410   0.25619   0.26380   0.26633
 Alpha virt. eigenvalues --    0.27043   0.27281   0.28200   0.28589   0.28768
 Alpha virt. eigenvalues --    0.29874   0.30427   0.31850   0.32291   0.33465
 Alpha virt. eigenvalues --    0.33555   0.34772   0.35840   0.36691   0.38135
 Alpha virt. eigenvalues --    0.39645   0.41343   0.43869   0.45411   0.52975
 Alpha virt. eigenvalues --    0.54385   0.61556   0.64058   0.66491   0.67358
 Alpha virt. eigenvalues --    0.67780   0.68703   0.71659   0.71795   0.72216
 Alpha virt. eigenvalues --    0.73079   0.73675   0.74563   0.75230   0.76137
 Alpha virt. eigenvalues --    0.76901   0.77439   0.77512   0.80047   0.81943
 Alpha virt. eigenvalues --    0.82460   0.87779   0.89386   0.89833   0.90389
 Alpha virt. eigenvalues --    0.92543   0.95236   0.95912   0.98039   1.01307
 Alpha virt. eigenvalues --    1.02087   1.05869   1.06572   1.10882   1.11297
 Alpha virt. eigenvalues --    1.12823   1.14036   1.14309   1.17274   1.19907
 Alpha virt. eigenvalues --    1.20432   1.22176   1.22655   1.24078   1.24791
 Alpha virt. eigenvalues --    1.27390   1.29677   1.33322   1.37280   1.37458
 Alpha virt. eigenvalues --    1.38700   1.41202   1.43878   1.43902   1.46483
 Alpha virt. eigenvalues --    1.48123   1.48564   1.49126   1.49803   1.49978
 Alpha virt. eigenvalues --    1.59226   1.70792   1.71066   1.77710   1.79463
 Alpha virt. eigenvalues --    1.81300   1.82580   1.90315   1.91604   1.93401
 Alpha virt. eigenvalues --    1.93931   1.95266   1.97486   1.98014   2.00575
 Alpha virt. eigenvalues --    2.02939   2.06868   2.09472   2.09652   2.15397
 Alpha virt. eigenvalues --    2.18390   2.19554   2.21164   2.26039   2.28123
 Alpha virt. eigenvalues --    2.29602   2.32845   2.34761   2.35408   2.37426
 Alpha virt. eigenvalues --    2.44804   2.48180   2.51570   2.61233   2.62904
 Alpha virt. eigenvalues --    2.64911   2.65856   2.66881   2.69926   2.74127
 Alpha virt. eigenvalues --    2.78816   2.80059   2.82097   2.88171   2.92911
 Alpha virt. eigenvalues --    2.97555   3.06564   3.13947   3.36608   3.47608
 Alpha virt. eigenvalues --    4.22840   4.23482   4.26243   4.28290   4.32138
 Alpha virt. eigenvalues --    4.32761   4.39932   4.42806   4.48678   4.60993
 Alpha virt. eigenvalues --    4.85237
          Condensed to atoms (all electrons):
               1          2          3          4          5          6
     1  C    6.439066  -0.135538  -0.200395   0.011268  -0.025654   0.664455
     2  C   -0.135538  10.511926  -0.972496  -3.517577  -0.495122  -0.684260
     3  C   -0.200395  -0.972496  16.267306  -1.911393  -1.312981  -0.174395
     4  C    0.011268  -3.517577  -1.911393  20.333116  -5.323841  -2.623600
     5  C   -0.025654  -0.495122  -1.312981  -5.323841  11.992102   1.060064
     6  C    0.664455  -0.684260  -0.174395  -2.623600   1.060064   8.249926
     7  H   -0.005206  -0.068646   0.007217   0.071003   0.011014   0.000981
     8  H    0.051975   0.204007   0.023889   0.062488  -0.013656   0.012559
     9  C   -0.537224   1.778309  -3.613854  -1.473569  -0.171008   0.191043
    10  C    0.216432  -0.768405  -3.110560  -0.534017   2.189857  -0.178943
    11  H    0.026829   0.036726  -0.010528  -0.021930  -0.116019   0.369822
    12  C   -0.035496   1.034888   1.409564  -0.033684  -2.641814  -0.638827
    13  C   -0.262716  -0.799278   0.281654   0.538832   0.419418   0.101640
    14  H    0.001533   0.003438   0.060819   0.003660  -0.040731   0.004318
    15  H   -0.000938   0.007952   0.012250   0.025697  -0.021491  -0.000229
    16  H    0.001294  -0.018119   0.016442   0.022833   0.007325  -0.001210
    17  H    0.316055  -0.036174   0.024282   0.005485   0.045697  -0.044779
    18  O   -0.025255   0.013791   0.039515   0.289136  -0.212250  -0.279007
    19  H   -0.016692  -0.003247  -0.010340   0.241614  -0.036584  -0.194740
               7          8          9         10         11         12
     1  C   -0.005206   0.051975  -0.537224   0.216432   0.026829  -0.035496
     2  C   -0.068646   0.204007   1.778309  -0.768405   0.036726   1.034888
     3  C    0.007217   0.023889  -3.613854  -3.110560  -0.010528   1.409564
     4  C    0.071003   0.062488  -1.473569  -0.534017  -0.021930  -0.033684
     5  C    0.011014  -0.013656  -0.171008   2.189857  -0.116019  -2.641814
     6  C    0.000981   0.012559   0.191043  -0.178943   0.369822  -0.638827
     7  H    0.542379   0.003883   0.221704  -0.016174   0.000000   0.001515
     8  H    0.003883   0.540319  -0.065570   0.006750  -0.000164  -0.001326
     9  C    0.221704  -0.065570   9.922408   0.102991   0.010028   0.116157
    10  C   -0.016174   0.006750   0.102991  10.422507  -0.001324  -2.500122
    11  H    0.000000  -0.000164   0.010028  -0.001324   0.553371  -0.000614
    12  C    0.001515  -0.001326   0.116157  -2.500122  -0.000614   9.090833
    13  C    0.052974  -0.000425  -0.603950  -0.299599  -0.000365   0.220235
    14  H    0.000017   0.000001  -0.013827   0.271768  -0.000007  -0.015634
    15  H   -0.000162   0.000000   0.037331  -0.053873   0.000000   0.342332
    16  H   -0.004592  -0.000010  -0.044723   0.045344   0.000000  -0.060300
    17  H   -0.000007  -0.004082  -0.018809   0.006280  -0.004158  -0.000330
    18  O    0.000022   0.000118  -0.004267  -0.002333  -0.013237   0.073510
    19  H    0.000000  -0.000001   0.002755   0.016887   0.008377   0.005812
              13         14         15         16         17         18
     1  C   -0.262716   0.001533  -0.000938   0.001294   0.316055  -0.025255
     2  C   -0.799278   0.003438   0.007952  -0.018119  -0.036174   0.013791
     3  C    0.281654   0.060819   0.012250   0.016442   0.024282   0.039515
     4  C    0.538832   0.003660   0.025697   0.022833   0.005485   0.289136
     5  C    0.419418  -0.040731  -0.021491   0.007325   0.045697  -0.212250
     6  C    0.101640   0.004318  -0.000229  -0.001210  -0.044779  -0.279007
     7  H    0.052974   0.000017  -0.000162  -0.004592  -0.000007   0.000022
     8  H   -0.000425   0.000001   0.000000  -0.000010  -0.004082   0.000118
     9  C   -0.603950  -0.013827   0.037331  -0.044723  -0.018809  -0.004267
    10  C   -0.299599   0.271768  -0.053873   0.045344   0.006280  -0.002333
    11  H   -0.000365  -0.000007   0.000000   0.000000  -0.004158  -0.013237
    12  C    0.220235  -0.015634   0.342332  -0.060300  -0.000330   0.073510
    13  C    6.420181   0.004266  -0.053127   0.326876   0.000721  -0.004503
    14  H    0.004266   0.510191  -0.004250  -0.000159   0.000000   0.005425
    15  H   -0.053127  -0.004250   0.532125  -0.003928   0.000000   0.000068
    16  H    0.326876  -0.000159  -0.003928   0.533206   0.000000   0.000008
    17  H    0.000721   0.000000   0.000000   0.000000   0.529676  -0.000667
    18  O   -0.004503   0.005425   0.000068   0.000008  -0.000667   8.693206
    19  H   -0.000729  -0.000133   0.000000   0.000000  -0.000014   0.130984
              19
     1  C   -0.016692
     2  C   -0.003247
     3  C   -0.010340
     4  C    0.241614
     5  C   -0.036584
     6  C   -0.194740
     7  H    0.000000
     8  H   -0.000001
     9  C    0.002755
    10  C    0.016887
    11  H    0.008377
    12  C    0.005812
    13  C   -0.000729
    14  H   -0.000133
    15  H    0.000000
    16  H    0.000000
    17  H   -0.000014
    18  O    0.130984
    19  H    0.351567
 Mulliken charges:
               1
     1  C   -0.483793
     2  C   -0.092175
     3  C   -0.825996
     4  C   -0.165521
     5  C    0.685674
     6  C    0.165182
     7  H    0.182077
     8  H    0.179244
     9  C    0.164076
    10  C    0.186536
    11  H    0.163194
    12  C   -0.366700
    13  C   -0.342104
    14  H    0.209305
    15  H    0.180243
    16  H    0.179713
    17  H    0.180824
    18  O   -0.704262
    19  H    0.504483
 Sum of Mulliken charges =   0.00000
 Mulliken charges with hydrogens summed into heavy atoms:
               1
     1  C   -0.302969
     2  C    0.087068
     3  C   -0.825996
     4  C   -0.165521
     5  C    0.685674
     6  C    0.328377
     9  C    0.346153
    10  C    0.395841
    12  C   -0.186457
    13  C   -0.162391
    18  O   -0.199779
 Electronic spatial extent (au):  <R**2>=           1559.6273
 Charge=              0.0000 electrons
 Dipole moment (field-independent basis, Debye):
    X=              1.2774    Y=              0.2035    Z=              0.0003  Tot=              1.2935
 Quadrupole moment (field-independent basis, Debye-Ang):
   XX=            -50.9063   YY=            -59.9064   ZZ=            -70.1258
   XY=             -2.7384   XZ=              0.0010   YZ=             -0.0009
 Traceless Quadrupole moment (field-independent basis, Debye-Ang):
   XX=              9.4065   YY=              0.4064   ZZ=             -9.8130
   XY=             -2.7384   XZ=              0.0010   YZ=             -0.0009
 Octapole moment (field-independent basis, Debye-Ang**2):
  XXX=             27.3045  YYY=             -0.6187  ZZZ=              0.0000  XYY=              6.1877
  XXY=            -17.3062  XXZ=              0.0026  XZZ=              4.0778  YZZ=             -5.2122
  YYZ=              0.0022  XYZ=             -0.0024
 Hexadecapole moment (field-independent basis, Debye-Ang**3):
 XXXX=          -1121.0472 YYYY=           -732.5331 ZZZZ=            -85.6168 XXXY=            -62.1827
 XXXZ=              0.0068 YYYX=            -23.2357 YYYZ=             -0.0051 ZZZX=              0.0003
 ZZZY=             -0.0003 XXYY=           -286.1406 XXZZ=           -259.1917 YYZZ=           -158.0336
 XXYZ=             -0.0069 YYXZ=              0.0060 ZZXY=             -9.7153
 N-N= 5.503320439418D+02 E-N=-2.170851526867D+03  KE= 4.566794764315D+02
 Evaluate density.
 Using the total density.
 Monte-Carlo method of calculating molar volume:
 based on  0.001 e/bohr**3 density envelope.
 Number of points per bohr**3 =   20 CutOff= 1.00D-04
 Using the SCF density.
 There are       357 points.  Will hold       357 in memory.
 LenV=  8052931077 MDV=  8053063680.
 Box volume = 5715.739 fraction occupied=0.216
 Integrated density= 6.8553492512948509D+01 error=-7.4465074870514911D+00
 Molar volume = 1232.807 bohr**3/mol (110.014 cm**3/mol)
 Recommended a0 for SCRF calculation =  4.37 angstrom (  8.27 bohr)
 Calling FoFJK, ICntrl=      2127 FMM=F ISym2X=0 I1Cent= 0 IOpClX= 0 NMat=1 NMatS=1 NMatT=0.
 ***** Axes restored to original set *****
 -------------------------------------------------------------------
 Center     Atomic                   Forces (Hartrees/Bohr)
 Number     Number              X              Y              Z
 -------------------------------------------------------------------
      1        6           0.000167693    0.000039116   -0.000000590
      2        6           0.000058121   -0.000023769    0.000000544
      3        6          -0.000221651   -0.000072465   -0.000000158
      4        6          -0.000179677    0.000249621   -0.000000289
      5        6           0.000138874   -0.000080716   -0.000000328
      6        6          -0.000285376    0.000159211    0.000000367
      7        1          -0.000025478    0.000021581    0.000000108
      8        1          -0.000010511    0.000027925   -0.000000054
      9        6           0.000205915    0.000014057   -0.000000176
     10        6           0.000277648    0.000128035   -0.000000200
     11        1           0.000093672   -0.000054527    0.000000402
     12        6          -0.000233221    0.000151163    0.000000163
     13        6          -0.000004715   -0.000260168   -0.000000037
     14        1          -0.000054196   -0.000037125   -0.000000046
     15        1           0.000019465   -0.000040162   -0.000000077
     16        1          -0.000015509    0.000050870    0.000000044
     17        1          -0.000064677   -0.000089964   -0.000000039
     18        8           0.000280700   -0.000217605    0.000002081
     19        1          -0.000147074    0.000034924   -0.000001715
 -------------------------------------------------------------------
 Cartesian Forces:  Max     0.000285376 RMS     0.000117006

 GradGradGradGradGradGradGradGradGradGradGradGradGradGradGradGradGradGrad
 Berny optimization.
 FormGI is forming the generalized inverse of G from B-inverse, IUseBI=4.
 Internal  Forces:  Max     0.000207515 RMS     0.000060791
 Search for a local minimum.
 Step number   1 out of a maximum of  107
 All quantities printed in internal units (Hartrees-Bohrs-Radians)
 Mixed Optimization -- En-DIIS/RFO-DIIS
 Second derivative matrix not updated -- first step.
 ITU=  0
     Eigenvalues ---    0.01732   0.01750   0.01761   0.01958   0.01981
     Eigenvalues ---    0.01993   0.02005   0.02060   0.02073   0.02091
     Eigenvalues ---    0.02109   0.02113   0.02139   0.02162   0.02226
     Eigenvalues ---    0.02240   0.16000   0.16000   0.16000   0.16000
     Eigenvalues ---    0.16000   0.16000   0.16000   0.16000   0.22000
     Eigenvalues ---    0.22079   0.22556   0.23519   0.24494   0.24926
     Eigenvalues ---    0.25000   0.34990   0.35069   0.35153   0.35159
     Eigenvalues ---    0.35162   0.35174   0.35418   0.36430   0.39438
     Eigenvalues ---    0.40000   0.40869   0.41659   0.42408   0.42519
     Eigenvalues ---    0.47422   0.47614   0.48721   0.48812   0.50567
     Eigenvalues ---    0.53473
 RFO step:  Lambda=-1.09832952D-06 EMin= 1.73246300D-02
 Linear search not attempted -- first point.
 Iteration  1 RMS(Cart)=  0.00031252 RMS(Int)=  0.00000008
 Iteration  2 RMS(Cart)=  0.00000009 RMS(Int)=  0.00000001
 Variable       Old X    -DE/DX   Delta X   Delta X   Delta X     New X
                                 (Linear)    (Quad)   (Total)
    R1        2.60227   0.00002   0.00000   0.00004   0.00004   2.60232
    R2        2.67707  -0.00008   0.00000  -0.00020  -0.00020   2.67687
    R3        2.05413  -0.00011   0.00000  -0.00031  -0.00031   2.05382
    R4        2.68896   0.00007   0.00000   0.00017   0.00017   2.68912
    R5        2.05418   0.00003   0.00000   0.00008   0.00008   2.05426
    R6        2.70876  -0.00007   0.00000  -0.00018  -0.00018   2.70859
    R7        2.68796  -0.00010   0.00000  -0.00025  -0.00025   2.68770
    R8        2.69757   0.00020   0.00000   0.00050   0.00050   2.69807
    R9        2.68430  -0.00009   0.00000  -0.00022  -0.00022   2.68408
   R10        2.60913  -0.00005   0.00000  -0.00011  -0.00011   2.60902
   R11        2.59298   0.00021   0.00000   0.00041   0.00041   2.59339
   R12        2.05691   0.00010   0.00000   0.00030   0.00030   2.05721
   R13        2.05562   0.00003   0.00000   0.00008   0.00008   2.05570
   R14        2.60528   0.00011   0.00000   0.00022   0.00022   2.60550
   R15        2.60657   0.00014   0.00000   0.00029   0.00029   2.60686
   R16        2.05001   0.00002   0.00000   0.00006   0.00006   2.05007
   R17        2.67861  -0.00015   0.00000  -0.00034  -0.00034   2.67827
   R18        2.05393   0.00001   0.00000   0.00004   0.00004   2.05397
   R19        2.05427   0.00003   0.00000   0.00008   0.00008   2.05434
   R20        1.83215  -0.00015   0.00000  -0.00028  -0.00028   1.83187
    A1        2.10801  -0.00001   0.00000  -0.00011  -0.00011   2.10790
    A2        2.09891   0.00003   0.00000   0.00018   0.00018   2.09909
    A3        2.07626  -0.00001   0.00000  -0.00006  -0.00006   2.07620
    A4        2.09830   0.00001   0.00000   0.00004   0.00004   2.09834
    A5        2.10588   0.00000   0.00000   0.00000   0.00000   2.10588
    A6        2.07900  -0.00001   0.00000  -0.00004  -0.00004   2.07896
    A7        2.08859  -0.00005   0.00000  -0.00018  -0.00018   2.08841
    A8        2.12950   0.00003   0.00000   0.00013   0.00013   2.12964
    A9        2.06509   0.00002   0.00000   0.00004   0.00004   2.06513
   A10        2.06365   0.00008   0.00000   0.00036   0.00036   2.06401
   A11        2.08707  -0.00003   0.00000  -0.00014  -0.00014   2.08693
   A12        2.13246  -0.00006   0.00000  -0.00022  -0.00022   2.13224
   A13        2.11218  -0.00014   0.00000  -0.00059  -0.00059   2.11159
   A14        2.02661   0.00020   0.00000   0.00083   0.00083   2.02743
   A15        2.14440  -0.00006   0.00000  -0.00023  -0.00023   2.14416
   A16        2.09563   0.00012   0.00000   0.00048   0.00048   2.09611
   A17        2.09234  -0.00003   0.00000  -0.00005  -0.00005   2.09229
   A18        2.09521  -0.00009   0.00000  -0.00043  -0.00043   2.09478
   A19        2.06949   0.00001   0.00000   0.00008   0.00008   2.06957
   A20        2.11272   0.00002   0.00000   0.00009   0.00009   2.11281
   A21        2.10097  -0.00003   0.00000  -0.00017  -0.00017   2.10080
   A22        2.10178   0.00005   0.00000   0.00024   0.00024   2.10203
   A23        2.07451   0.00004   0.00000   0.00028   0.00028   2.07479
   A24        2.10689  -0.00009   0.00000  -0.00052  -0.00052   2.10637
   A25        2.10036  -0.00005   0.00000  -0.00021  -0.00021   2.10015
   A26        2.09397  -0.00002   0.00000  -0.00017  -0.00017   2.09380
   A27        2.08886   0.00007   0.00000   0.00038   0.00038   2.08923
   A28        2.09935  -0.00001   0.00000  -0.00003  -0.00003   2.09932
   A29        2.09525  -0.00004   0.00000  -0.00028  -0.00028   2.09497
   A30        2.08859   0.00005   0.00000   0.00031   0.00031   2.08890
   A31        1.91637  -0.00003   0.00000  -0.00019  -0.00019   1.91618
    D1        0.00001   0.00000   0.00000  -0.00001  -0.00001   0.00000
    D2       -3.14159   0.00000   0.00000   0.00000   0.00000  -3.14159
    D3       -3.14159   0.00000   0.00000   0.00000   0.00000   3.14159
    D4       -0.00001   0.00000   0.00000   0.00000   0.00000   0.00000
    D5       -0.00002   0.00000   0.00000   0.00001   0.00001  -0.00001
    D6        3.14157   0.00000   0.00000   0.00001   0.00001   3.14158
    D7        3.14159   0.00000   0.00000   0.00000   0.00000   3.14159
    D8       -0.00002   0.00000   0.00000   0.00001   0.00001  -0.00001
    D9        0.00000   0.00000   0.00000   0.00000   0.00000   0.00000
   D10        3.14159   0.00000   0.00000   0.00000   0.00000  -3.14159
   D11       -3.14159   0.00000   0.00000   0.00000   0.00000  -3.14159
   D12        0.00000   0.00000   0.00000   0.00000   0.00000   0.00000
   D13       -0.00001   0.00000   0.00000   0.00000   0.00000  -0.00001
   D14        3.14158   0.00000   0.00000   0.00000   0.00000   3.14159
   D15        3.14159   0.00000   0.00000   0.00000   0.00000   3.14159
   D16       -0.00001   0.00000   0.00000   0.00000   0.00000   0.00000
   D17        0.00001   0.00000   0.00000   0.00000   0.00000   0.00000
   D18       -3.14159   0.00000   0.00000   0.00000   0.00000  -3.14159
   D19       -3.14159   0.00000   0.00000   0.00000   0.00000  -3.14159
   D20        0.00000   0.00000   0.00000   0.00000   0.00000   0.00000
   D21        0.00000   0.00000   0.00000   0.00000   0.00000   0.00000
   D22       -3.14158   0.00000   0.00000   0.00000   0.00000  -3.14158
   D23       -3.14159   0.00000   0.00000  -0.00001  -0.00001   3.14159
   D24        0.00002   0.00000   0.00000   0.00000   0.00000   0.00002
   D25        0.00001   0.00000   0.00000   0.00000   0.00000   0.00000
   D26       -3.14159   0.00000   0.00000   0.00000   0.00000  -3.14159
   D27       -3.14159   0.00000   0.00000   0.00000   0.00000  -3.14159
   D28        0.00000   0.00000   0.00000   0.00000   0.00000   0.00000
   D29        0.00001   0.00000   0.00000   0.00000   0.00000   0.00001
   D30       -3.14157   0.00000   0.00000  -0.00001  -0.00001  -3.14158
   D31        3.14159   0.00000   0.00000   0.00000   0.00000   3.14158
   D32        0.00000   0.00000   0.00000  -0.00001  -0.00001   0.00000
   D33       -3.14137   0.00000   0.00000  -0.00007  -0.00007  -3.14144
   D34        0.00024   0.00000   0.00000  -0.00007  -0.00007   0.00017
   D35        0.00000   0.00000   0.00000   0.00000   0.00000   0.00000
   D36       -3.14159   0.00000   0.00000   0.00000   0.00000  -3.14159
   D37       -3.14159   0.00000   0.00000   0.00000   0.00000  -3.14159
   D38        0.00000   0.00000   0.00000   0.00000   0.00000   0.00000
   D39        0.00000   0.00000   0.00000   0.00000   0.00000   0.00000
   D40       -3.14159   0.00000   0.00000   0.00000   0.00000  -3.14159
   D41        3.14159   0.00000   0.00000   0.00000   0.00000   3.14159
   D42        0.00000   0.00000   0.00000   0.00000   0.00000   0.00000
   D43        0.00000   0.00000   0.00000   0.00000   0.00000   0.00000
   D44        3.14159   0.00000   0.00000   0.00000   0.00000   3.14159
   D45        3.14159   0.00000   0.00000   0.00000   0.00000   3.14159
   D46        0.00000   0.00000   0.00000   0.00000   0.00000   0.00000
         Item               Value     Threshold  Converged?
 Maximum Force            0.000208     0.000450     YES
 RMS     Force            0.000061     0.000300     YES
 Maximum Displacement     0.001629     0.001800     YES
 RMS     Displacement     0.000313     0.001200     YES
 Predicted change in Energy=-5.491653D-07
 Optimization completed.
    -- Stationary point found.
                           ----------------------------
                           !   Optimized Parameters   !
                           ! (Angstroms and Degrees)  !
 --------------------------                            --------------------------
 ! Name  Definition              Value          Derivative Info.                !
 --------------------------------------------------------------------------------
 ! R1    R(1,2)                  1.3771         -DE/DX =    0.0                 !
 ! R2    R(1,6)                  1.4166         -DE/DX =   -0.0001              !
 ! R3    R(1,17)                 1.087          -DE/DX =   -0.0001              !
 ! R4    R(2,3)                  1.4229         -DE/DX =    0.0001              !
 ! R5    R(2,8)                  1.087          -DE/DX =    0.0                 !
 ! R6    R(3,4)                  1.4334         -DE/DX =   -0.0001              !
 ! R7    R(3,9)                  1.4224         -DE/DX =   -0.0001              !
 ! R8    R(4,5)                  1.4275         -DE/DX =    0.0002              !
 ! R9    R(4,10)                 1.4205         -DE/DX =   -0.0001              !
 ! R10   R(5,6)                  1.3807         -DE/DX =   -0.0001              !
 ! R11   R(5,18)                 1.3721         -DE/DX =    0.0002              !
 ! R12   R(6,11)                 1.0885         -DE/DX =    0.0001              !
 ! R13   R(7,9)                  1.0878         -DE/DX =    0.0                 !
 ! R14   R(9,13)                 1.3787         -DE/DX =    0.0001              !
 ! R15   R(10,12)                1.3793         -DE/DX =    0.0001              !
 ! R16   R(10,14)                1.0848         -DE/DX =    0.0                 !
 ! R17   R(12,13)                1.4175         -DE/DX =   -0.0002              !
 ! R18   R(12,15)                1.0869         -DE/DX =    0.0                 !
 ! R19   R(13,16)                1.0871         -DE/DX =    0.0                 !
 ! R20   R(18,19)                0.9695         -DE/DX =   -0.0002              !
 ! A1    A(2,1,6)              120.7803         -DE/DX =    0.0                 !
 ! A2    A(2,1,17)             120.2586         -DE/DX =    0.0                 !
 ! A3    A(6,1,17)             118.9611         -DE/DX =    0.0                 !
 ! A4    A(1,2,3)              120.2237         -DE/DX =    0.0                 !
 ! A5    A(1,2,8)              120.6582         -DE/DX =    0.0                 !
 ! A6    A(3,2,8)              119.1181         -DE/DX =    0.0                 !
 ! A7    A(2,3,4)              119.6675         -DE/DX =   -0.0001              !
 ! A8    A(2,3,9)              122.0116         -DE/DX =    0.0                 !
 ! A9    A(4,3,9)              118.3209         -DE/DX =    0.0                 !
 ! A10   A(3,4,5)              118.2384         -DE/DX =    0.0001              !
 ! A11   A(3,4,10)             119.5803         -DE/DX =    0.0                 !
 ! A12   A(5,4,10)             122.1812         -DE/DX =   -0.0001              !
 ! A13   A(4,5,6)              121.0192         -DE/DX =   -0.0001              !
 ! A14   A(4,5,18)             116.116          -DE/DX =    0.0002              !
 ! A15   A(6,5,18)             122.8648         -DE/DX =   -0.0001              !
 ! A16   A(1,6,5)              120.0708         -DE/DX =    0.0001              !
 ! A17   A(1,6,11)             119.8824         -DE/DX =    0.0                 !
 ! A18   A(5,6,11)             120.0468         -DE/DX =   -0.0001              !
 ! A19   A(3,9,7)              118.5731         -DE/DX =    0.0                 !
 ! A20   A(3,9,13)             121.05           -DE/DX =    0.0                 !
 ! A21   A(7,9,13)             120.3769         -DE/DX =    0.0                 !
 ! A22   A(4,10,12)            120.4233         -DE/DX =    0.0001              !
 ! A23   A(4,10,14)            118.8608         -DE/DX =    0.0                 !
 ! A24   A(12,10,14)           120.7159         -DE/DX =   -0.0001              !
 ! A25   A(10,12,13)           120.3418         -DE/DX =   -0.0001              !
 ! A26   A(10,12,15)           119.9755         -DE/DX =    0.0                 !
 ! A27   A(13,12,15)           119.6827         -DE/DX =    0.0001              !
 ! A28   A(9,13,12)            120.2837         -DE/DX =    0.0                 !
 ! A29   A(9,13,16)            120.0487         -DE/DX =    0.0                 !
 ! A30   A(12,13,16)           119.6675         -DE/DX =    0.0001              !
 ! A31   A(5,18,19)            109.7997         -DE/DX =    0.0                 !
 ! D1    D(6,1,2,3)              0.0007         -DE/DX =    0.0                 !
 ! D2    D(6,1,2,8)           -179.9997         -DE/DX =    0.0                 !
 ! D3    D(17,1,2,3)           180.0001         -DE/DX =    0.0                 !
 ! D4    D(17,1,2,8)            -0.0003         -DE/DX =    0.0                 !
 ! D5    D(2,1,6,5)             -0.0009         -DE/DX =    0.0                 !
 ! D6    D(2,1,6,11)           179.9984         -DE/DX =    0.0                 !
 ! D7    D(17,1,6,5)           179.9997         -DE/DX =    0.0                 !
 ! D8    D(17,1,6,11)           -0.001          -DE/DX =    0.0                 !
 ! D9    D(1,2,3,4)              0.0            -DE/DX =    0.0                 !
 ! D10   D(1,2,3,9)           -180.0002         -DE/DX =    0.0                 !
 ! D11   D(8,2,3,4)           -179.9996         -DE/DX =    0.0                 !
 ! D12   D(8,2,3,9)              0.0001         -DE/DX =    0.0                 !
 ! D13   D(2,3,4,5)             -0.0004         -DE/DX =    0.0                 !
 ! D14   D(2,3,4,10)           179.9994         -DE/DX =    0.0                 !
 ! D15   D(9,3,4,5)            179.9998         -DE/DX =    0.0                 !
 ! D16   D(9,3,4,10)            -0.0004         -DE/DX =    0.0                 !
 ! D17   D(2,3,9,7)              0.0005         -DE/DX =    0.0                 !
 ! D18   D(2,3,9,13)          -179.9996         -DE/DX =    0.0                 !
 ! D19   D(4,3,9,7)           -179.9997         -DE/DX =    0.0                 !
 ! D20   D(4,3,9,13)             0.0001         -DE/DX =    0.0                 !
 ! D21   D(3,4,5,6)              0.0002         -DE/DX =    0.0                 !
 ! D22   D(3,4,5,18)          -179.999          -DE/DX =    0.0                 !
 ! D23   D(10,4,5,6)           180.0004         -DE/DX =    0.0                 !
 ! D24   D(10,4,5,18)            0.0012         -DE/DX =    0.0                 !
 ! D25   D(3,4,10,12)            0.0003         -DE/DX =    0.0                 !
 ! D26   D(3,4,10,14)         -179.9996         -DE/DX =    0.0                 !
 ! D27   D(5,4,10,12)         -179.9999         -DE/DX =    0.0                 !
 ! D28   D(5,4,10,14)            0.0002         -DE/DX =    0.0                 !
 ! D29   D(4,5,6,1)              0.0005         -DE/DX =    0.0                 !
 ! D30   D(4,5,6,11)          -179.9989         -DE/DX =    0.0                 !
 ! D31   D(18,5,6,1)           179.9996         -DE/DX =    0.0                 !
 ! D32   D(18,5,6,11)            0.0003         -DE/DX =    0.0                 !
 ! D33   D(4,5,18,19)         -179.9873         -DE/DX =    0.0                 !
 ! D34   D(6,5,18,19)            0.0135         -DE/DX =    0.0                 !
 ! D35   D(3,9,13,12)            0.0001         -DE/DX =    0.0                 !
 ! D36   D(3,9,13,16)         -179.9999         -DE/DX =    0.0                 !
 ! D37   D(7,9,13,12)         -180.0            -DE/DX =    0.0                 !
 ! D38   D(7,9,13,16)            0.0            -DE/DX =    0.0                 !
 ! D39   D(4,10,12,13)           0.0            -DE/DX =    0.0                 !
 ! D40   D(4,10,12,15)        -179.9999         -DE/DX =    0.0                 !
 ! D41   D(14,10,12,13)        179.9999         -DE/DX =    0.0                 !
 ! D42   D(14,10,12,15)          0.0001         -DE/DX =    0.0                 !
 ! D43   D(10,12,13,9)          -0.0002         -DE/DX =    0.0                 !
 ! D44   D(10,12,13,16)        179.9999         -DE/DX =    0.0                 !
 ! D45   D(15,12,13,9)         179.9997         -DE/DX =    0.0                 !
 ! D46   D(15,12,13,16)         -0.0003         -DE/DX =    0.0                 !
 --------------------------------------------------------------------------------
 GradGradGradGradGradGradGradGradGradGradGradGradGradGradGradGradGradGrad

                          Input orientation:                          
 ---------------------------------------------------------------------
 Center     Atomic      Atomic             Coordinates (Angstroms)
 Number     Number       Type             X           Y           Z
 ---------------------------------------------------------------------
      1          6           0        1.948742    1.580611    0.000008
      2          6           0        0.620316    1.943366    0.000002
      3          6           0       -0.394544    0.945968   -0.000003
      4          6           0       -0.027530   -0.439665   -0.000002
      5          6           0        1.361084   -0.770559   -0.000005
      6          6           0        2.327488    0.215533   -0.000005
      7          1           0       -2.060878    2.327966   -0.000009
      8          1           0        0.331929    2.991439    0.000007
      9          6           0       -1.777733    1.277674   -0.000004
     10          6           0       -1.042145   -1.433793    0.000006
     11          1           0        3.381877   -0.054708   -0.000026
     12          6           0       -2.373473   -1.073050    0.000006
     13          6           0       -2.744655    0.294948   -0.000001
     14          1           0       -0.751239   -2.478881    0.000013
     15          1           0       -3.143853   -1.839766    0.000014
     16          1           0       -3.797162    0.566887   -0.000003
     17          1           0        2.724472    2.342066    0.000013
     18          8           0        1.663047   -2.109066   -0.000025
     19          1           0        2.625173   -2.228679    0.000177
 ---------------------------------------------------------------------
                    Distance matrix (angstroms):
                    1          2          3          4          5
     1  C    0.000000
     2  C    1.377065   0.000000
     3  C    2.427707   1.422935   0.000000
     4  C    2.826157   2.469522   1.433415   0.000000
     5  C    2.423498   2.813206   2.455340   1.427494   0.000000
     6  C    1.416646   2.428959   2.818332   2.444462   1.380693
     7  H    4.078675   2.708638   2.164853   3.434281   4.616349
     8  H    2.145815   1.087025   2.170648   3.449882   3.900229
     9  C    3.738768   2.488732   1.422407   2.452033   3.747990
    10  C    4.246415   3.764170   2.466303   1.420470   2.493068
    11  H    2.174430   3.408595   3.906752   3.431071   2.143839
    12  C    5.071830   4.249887   2.827118   2.429943   3.746788
    13  C    4.866303   3.747040   2.438616   2.814680   4.241745
    14  H    4.875384   4.630057   3.443374   2.163829   2.716666
    15  H    6.134615   5.336765   3.913951   3.416395   4.630082
    16  H    5.834642   4.626965   3.423669   3.901701   5.328814
    17  H    1.087001   2.141596   3.417214   3.912997   3.398126
    18  O    3.700721   4.184435   3.683329   2.375910   1.372145
    19  H    3.868882   4.628759   4.381447   3.199594   1.929776
                    6          7          8          9         10
     6  C    0.000000
     7  H    4.870332   0.000000
     8  H    3.418759   2.483087   0.000000
     9  C    4.240399   1.087789   2.718026   0.000000
    10  C    3.751627   3.897262   4.633655   2.809474   0.000000
    11  H    1.088470   5.941441   4.310591   5.328866   4.633988
    12  C    4.874370   3.415351   4.882548   2.425038   1.379337
    13  C    5.072765   2.144927   4.091019   1.378655   2.426332
    14  H    4.091262   4.982061   5.576527   3.894277   1.084820
    15  H    5.844641   4.306138   5.951605   3.403633   2.140558
    16  H    6.134720   2.473071   4.788303   2.140867   3.404826
    17  H    2.163270   4.785371   2.479102   4.626314   5.333340
    18  O    2.417694   5.792657   5.271340   4.827937   2.788200
    19  H    2.462273   6.536214   5.701631   5.628507   3.752475
                   11         12         13         14         15
    11  H    0.000000
    12  C    5.844748   0.000000
    13  C    6.136502   1.417461   0.000000
    14  H    4.791582   2.146626   3.415821   0.000000
    15  H    6.765470   1.086894   2.171719   2.476504   0.000000
    16  H    7.205899   2.171701   1.087070   4.307476   2.493750
    17  H    2.485298   6.136127   5.839695   5.943240   7.205897
    18  O    2.678575   4.167352   5.020669   2.442446   4.814438
    19  H    2.301902   5.130491   5.933274   3.385670   5.782120
                   16         17         18         19
    16  H    0.000000
    17  H    6.758918   0.000000
    18  O    6.080675   4.575937   0.000000
    19  H    7.004397   4.571824   0.969533   0.000000
 Stoichiometry    C10H8O
 Framework group  C1[X(C10H8O)]
 Deg. of freedom    51
 Full point group                 C1      NOp   1
 Largest Abelian subgroup         C1      NOp   1
 Largest concise Abelian subgroup C1      NOp   1
                         Standard orientation:                         
 ---------------------------------------------------------------------
 Center     Atomic      Atomic             Coordinates (Angstroms)
 Number     Number       Type             X           Y           Z
 ---------------------------------------------------------------------
      1          6           0        1.948743    1.580611    0.000008
      2          6           0        0.620317    1.943366    0.000002
      3          6           0       -0.394544    0.945968   -0.000003
      4          6           0       -0.027530   -0.439665   -0.000002
      5          6           0        1.361084   -0.770559   -0.000005
      6          6           0        2.327488    0.215532   -0.000005
      7          1           0       -2.060877    2.327967   -0.000009
      8          1           0        0.331930    2.991439    0.000007
      9          6           0       -1.777733    1.277675   -0.000004
     10          6           0       -1.042145   -1.433793    0.000006
     11          1           0        3.381877   -0.054709   -0.000026
     12          6           0       -2.373473   -1.073049    0.000006
     13          6           0       -2.744655    0.294949   -0.000001
     14          1           0       -0.751240   -2.478881    0.000013
     15          1           0       -3.143853   -1.839765    0.000014
     16          1           0       -3.797162    0.566888   -0.000003
     17          1           0        2.724473    2.342065    0.000013
     18          8           0        1.663046   -2.109066   -0.000025
     19          1           0        2.625172   -2.228680    0.000177
 ---------------------------------------------------------------------
 Rotational constants (GHZ):           1.9347259           1.1282826           0.7126711
 1\1\GINC-IP-172-31-28-242\FOpt\RB3LYP\6-31+G(d)\C10H8O1\UBUNTU\19-Sep-
 2023\0\\# opt freq b3lyp/6-31+g(d) empiricaldispersion=gd3 scf=maxcycl
 e=1000 volume\\Title Card Required\\0,1\C,1.948742,1.580611,0.000008\C
 ,0.620316,1.943366,0.000002\C,-0.394544,0.945968,-0.000003\C,-0.02753,
 -0.439665,-0.000002\C,1.361084,-0.770559,-0.000005\C,2.327488,0.215533
 ,-0.000005\H,-2.060878,2.327966,-0.000009\H,0.331929,2.991439,0.000007
 \C,-1.777733,1.277674,-0.000004\C,-1.042145,-1.433793,0.000006\H,3.381
 877,-0.054708,-0.000026\C,-2.373473,-1.07305,0.000006\C,-2.744655,0.29
 4948,-0.000001\H,-0.751239,-2.478881,0.000013\H,-3.143853,-1.839766,0.
 000014\H,-3.797162,0.566887,-0.000003\H,2.724472,2.342066,0.000013\O,1
 .663047,-2.109066,-0.000025\H,2.625173,-2.228679,0.000177\\Version=EM6
 4L-G16RevB.01\State=1-A\HF=-461.1415402\RMSD=2.960e-09\RMSF=1.170e-04\
 Dipole=0.5025692,0.0800734,0.0001293\Quadrupole=6.9935377,0.3021572,-7
 .2956949,-2.0359121,0.0007211,-0.0006697\PG=C01 [X(C10H8O1)]\\@


 IBM COMPATIBILITY IS LIKE PREGNANCY. YOU ARE OR
 OR YOU ARE NOT. -- ADAM OSBORNE
 Job cpu time:       0 days  0 hours  9 minutes 21.6 seconds.
 Elapsed time:       0 days  0 hours  0 minutes 17.7 seconds.
 File lengths (MBytes):  RWF=     33 Int=      0 D2E=      0 Chk=      5 Scr=      1
 Normal termination of Gaussian 16 at Tue Sep 19 06:54:16 2023.
 Link1:  Proceeding to internal job step number  2.
 ---------------------------------------------------------------------
 #N Geom=AllCheck Guess=TCheck SCRF=Check GenChk RB3LYP/6-31+G(d) Freq
 ---------------------------------------------------------------------
 1/10=4,29=7,30=1,38=1,40=1/1,3;
 2/12=2,40=1/2;
 3/5=1,6=6,7=11,11=2,14=-4,25=1,30=1,70=2,71=2,74=-5,116=1,124=31,140=1/1,2,3;
 4/5=101/1;
 5/5=2,7=1000,38=6,98=1/2;
 8/6=4,10=90,11=11/1;
 11/6=1,8=1,9=11,15=111,16=1/1,2,10;
 10/6=1/2;
 6/7=2,8=2,9=2,10=2,28=1/1;
 7/8=1,10=1,25=1/1,2,3,16;
 1/10=4,30=1/3;
 99//99;
 Structure from the checkpoint file:  "molecule38vol.chk"
 -------------------
 Title Card Required
 -------------------
 Charge =  0 Multiplicity = 1
 Redundant internal coordinates found in file.  (old form).
 C,0,1.948742,1.580611,0.000008
 C,0,0.620316,1.943366,0.000002
 C,0,-0.394544,0.945968,-0.000003
 C,0,-0.02753,-0.439665,-0.000002
 C,0,1.361084,-0.770559,-0.000005
 C,0,2.327488,0.215533,-0.000005
 H,0,-2.060878,2.327966,-0.000009
 H,0,0.331929,2.991439,0.000007
 C,0,-1.777733,1.277674,-0.000004
 C,0,-1.042145,-1.433793,0.000006
 H,0,3.381877,-0.054708,-0.000026
 C,0,-2.373473,-1.07305,0.000006
 C,0,-2.744655,0.294948,-0.000001
 H,0,-0.751239,-2.478881,0.000013
 H,0,-3.143853,-1.839766,0.000014
 H,0,-3.797162,0.566887,-0.000003
 H,0,2.724472,2.342066,0.000013
 O,0,1.663047,-2.109066,-0.000025
 H,0,2.625173,-2.228679,0.000177
 Recover connectivity data from disk.

 GradGradGradGradGradGradGradGradGradGradGradGradGradGradGradGradGradGrad
 Berny optimization.
 Initialization pass.
                           ----------------------------
                           !    Initial Parameters    !
                           ! (Angstroms and Degrees)  !
 --------------------------                            --------------------------
 ! Name  Definition              Value          Derivative Info.                !
 --------------------------------------------------------------------------------
 ! R1    R(1,2)                  1.3771         calculate D2E/DX2 analytically  !
 ! R2    R(1,6)                  1.4166         calculate D2E/DX2 analytically  !
 ! R3    R(1,17)                 1.087          calculate D2E/DX2 analytically  !
 ! R4    R(2,3)                  1.4229         calculate D2E/DX2 analytically  !
 ! R5    R(2,8)                  1.087          calculate D2E/DX2 analytically  !
 ! R6    R(3,4)                  1.4334         calculate D2E/DX2 analytically  !
 ! R7    R(3,9)                  1.4224         calculate D2E/DX2 analytically  !
 ! R8    R(4,5)                  1.4275         calculate D2E/DX2 analytically  !
 ! R9    R(4,10)                 1.4205         calculate D2E/DX2 analytically  !
 ! R10   R(5,6)                  1.3807         calculate D2E/DX2 analytically  !
 ! R11   R(5,18)                 1.3721         calculate D2E/DX2 analytically  !
 ! R12   R(6,11)                 1.0885         calculate D2E/DX2 analytically  !
 ! R13   R(7,9)                  1.0878         calculate D2E/DX2 analytically  !
 ! R14   R(9,13)                 1.3787         calculate D2E/DX2 analytically  !
 ! R15   R(10,12)                1.3793         calculate D2E/DX2 analytically  !
 ! R16   R(10,14)                1.0848         calculate D2E/DX2 analytically  !
 ! R17   R(12,13)                1.4175         calculate D2E/DX2 analytically  !
 ! R18   R(12,15)                1.0869         calculate D2E/DX2 analytically  !
 ! R19   R(13,16)                1.0871         calculate D2E/DX2 analytically  !
 ! R20   R(18,19)                0.9695         calculate D2E/DX2 analytically  !
 ! A1    A(2,1,6)              120.7803         calculate D2E/DX2 analytically  !
 ! A2    A(2,1,17)             120.2586         calculate D2E/DX2 analytically  !
 ! A3    A(6,1,17)             118.9611         calculate D2E/DX2 analytically  !
 ! A4    A(1,2,3)              120.2237         calculate D2E/DX2 analytically  !
 ! A5    A(1,2,8)              120.6582         calculate D2E/DX2 analytically  !
 ! A6    A(3,2,8)              119.1181         calculate D2E/DX2 analytically  !
 ! A7    A(2,3,4)              119.6675         calculate D2E/DX2 analytically  !
 ! A8    A(2,3,9)              122.0116         calculate D2E/DX2 analytically  !
 ! A9    A(4,3,9)              118.3209         calculate D2E/DX2 analytically  !
 ! A10   A(3,4,5)              118.2384         calculate D2E/DX2 analytically  !
 ! A11   A(3,4,10)             119.5803         calculate D2E/DX2 analytically  !
 ! A12   A(5,4,10)             122.1812         calculate D2E/DX2 analytically  !
 ! A13   A(4,5,6)              121.0192         calculate D2E/DX2 analytically  !
 ! A14   A(4,5,18)             116.116          calculate D2E/DX2 analytically  !
 ! A15   A(6,5,18)             122.8648         calculate D2E/DX2 analytically  !
 ! A16   A(1,6,5)              120.0708         calculate D2E/DX2 analytically  !
 ! A17   A(1,6,11)             119.8824         calculate D2E/DX2 analytically  !
 ! A18   A(5,6,11)             120.0468         calculate D2E/DX2 analytically  !
 ! A19   A(3,9,7)              118.5731         calculate D2E/DX2 analytically  !
 ! A20   A(3,9,13)             121.05           calculate D2E/DX2 analytically  !
 ! A21   A(7,9,13)             120.3769         calculate D2E/DX2 analytically  !
 ! A22   A(4,10,12)            120.4233         calculate D2E/DX2 analytically  !
 ! A23   A(4,10,14)            118.8608         calculate D2E/DX2 analytically  !
 ! A24   A(12,10,14)           120.7159         calculate D2E/DX2 analytically  !
 ! A25   A(10,12,13)           120.3418         calculate D2E/DX2 analytically  !
 ! A26   A(10,12,15)           119.9755         calculate D2E/DX2 analytically  !
 ! A27   A(13,12,15)           119.6827         calculate D2E/DX2 analytically  !
 ! A28   A(9,13,12)            120.2837         calculate D2E/DX2 analytically  !
 ! A29   A(9,13,16)            120.0487         calculate D2E/DX2 analytically  !
 ! A30   A(12,13,16)           119.6675         calculate D2E/DX2 analytically  !
 ! A31   A(5,18,19)            109.7997         calculate D2E/DX2 analytically  !
 ! D1    D(6,1,2,3)              0.0007         calculate D2E/DX2 analytically  !
 ! D2    D(6,1,2,8)           -179.9997         calculate D2E/DX2 analytically  !
 ! D3    D(17,1,2,3)          -179.9999         calculate D2E/DX2 analytically  !
 ! D4    D(17,1,2,8)            -0.0003         calculate D2E/DX2 analytically  !
 ! D5    D(2,1,6,5)             -0.0009         calculate D2E/DX2 analytically  !
 ! D6    D(2,1,6,11)           179.9984         calculate D2E/DX2 analytically  !
 ! D7    D(17,1,6,5)           179.9997         calculate D2E/DX2 analytically  !
 ! D8    D(17,1,6,11)           -0.001          calculate D2E/DX2 analytically  !
 ! D9    D(1,2,3,4)              0.0            calculate D2E/DX2 analytically  !
 ! D10   D(1,2,3,9)            179.9998         calculate D2E/DX2 analytically  !
 ! D11   D(8,2,3,4)           -179.9996         calculate D2E/DX2 analytically  !
 ! D12   D(8,2,3,9)              0.0001         calculate D2E/DX2 analytically  !
 ! D13   D(2,3,4,5)             -0.0004         calculate D2E/DX2 analytically  !
 ! D14   D(2,3,4,10)           179.9994         calculate D2E/DX2 analytically  !
 ! D15   D(9,3,4,5)            179.9998         calculate D2E/DX2 analytically  !
 ! D16   D(9,3,4,10)            -0.0004         calculate D2E/DX2 analytically  !
 ! D17   D(2,3,9,7)              0.0005         calculate D2E/DX2 analytically  !
 ! D18   D(2,3,9,13)          -179.9996         calculate D2E/DX2 analytically  !
 ! D19   D(4,3,9,7)           -179.9997         calculate D2E/DX2 analytically  !
 ! D20   D(4,3,9,13)             0.0001         calculate D2E/DX2 analytically  !
 ! D21   D(3,4,5,6)              0.0002         calculate D2E/DX2 analytically  !
 ! D22   D(3,4,5,18)          -179.999          calculate D2E/DX2 analytically  !
 ! D23   D(10,4,5,6)          -179.9996         calculate D2E/DX2 analytically  !
 ! D24   D(10,4,5,18)            0.0012         calculate D2E/DX2 analytically  !
 ! D25   D(3,4,10,12)            0.0003         calculate D2E/DX2 analytically  !
 ! D26   D(3,4,10,14)         -179.9996         calculate D2E/DX2 analytically  !
 ! D27   D(5,4,10,12)         -179.9999         calculate D2E/DX2 analytically  !
 ! D28   D(5,4,10,14)            0.0002         calculate D2E/DX2 analytically  !
 ! D29   D(4,5,6,1)              0.0005         calculate D2E/DX2 analytically  !
 ! D30   D(4,5,6,11)          -179.9989         calculate D2E/DX2 analytically  !
 ! D31   D(18,5,6,1)           179.9996         calculate D2E/DX2 analytically  !
 ! D32   D(18,5,6,11)            0.0003         calculate D2E/DX2 analytically  !
 ! D33   D(4,5,18,19)         -179.9873         calculate D2E/DX2 analytically  !
 ! D34   D(6,5,18,19)            0.0135         calculate D2E/DX2 analytically  !
 ! D35   D(3,9,13,12)            0.0001         calculate D2E/DX2 analytically  !
 ! D36   D(3,9,13,16)         -179.9999         calculate D2E/DX2 analytically  !
 ! D37   D(7,9,13,12)         -180.0            calculate D2E/DX2 analytically  !
 ! D38   D(7,9,13,16)            0.0            calculate D2E/DX2 analytically  !
 ! D39   D(4,10,12,13)           0.0            calculate D2E/DX2 analytically  !
 ! D40   D(4,10,12,15)        -179.9999         calculate D2E/DX2 analytically  !
 ! D41   D(14,10,12,13)        179.9999         calculate D2E/DX2 analytically  !
 ! D42   D(14,10,12,15)          0.0001         calculate D2E/DX2 analytically  !
 ! D43   D(10,12,13,9)          -0.0002         calculate D2E/DX2 analytically  !
 ! D44   D(10,12,13,16)        179.9999         calculate D2E/DX2 analytically  !
 ! D45   D(15,12,13,9)         179.9997         calculate D2E/DX2 analytically  !
 ! D46   D(15,12,13,16)         -0.0003         calculate D2E/DX2 analytically  !
 --------------------------------------------------------------------------------
 Trust Radius=3.00D-01 FncErr=1.00D-07 GrdErr=1.00D-07 EigMax=2.50D+02 EigMin=1.00D-04
 Number of steps in this run=      2 maximum allowed number of steps=      2.
 GradGradGradGradGradGradGradGradGradGradGradGradGradGradGradGradGradGrad

                          Input orientation:                          
 ---------------------------------------------------------------------
 Center     Atomic      Atomic             Coordinates (Angstroms)
 Number     Number       Type             X           Y           Z
 ---------------------------------------------------------------------
      1          6           0        1.948742    1.580611    0.000008
      2          6           0        0.620316    1.943366    0.000002
      3          6           0       -0.394544    0.945968   -0.000003
      4          6           0       -0.027530   -0.439665   -0.000002
      5          6           0        1.361084   -0.770559   -0.000005
      6          6           0        2.327488    0.215533   -0.000005
      7          1           0       -2.060878    2.327966   -0.000009
      8          1           0        0.331929    2.991439    0.000007
      9          6           0       -1.777733    1.277674   -0.000004
     10          6           0       -1.042145   -1.433793    0.000006
     11          1           0        3.381877   -0.054708   -0.000026
     12          6           0       -2.373473   -1.073050    0.000006
     13          6           0       -2.744655    0.294948   -0.000001
     14          1           0       -0.751239   -2.478881    0.000013
     15          1           0       -3.143853   -1.839766    0.000014
     16          1           0       -3.797162    0.566887   -0.000003
     17          1           0        2.724472    2.342066    0.000013
     18          8           0        1.663047   -2.109066   -0.000025
     19          1           0        2.625173   -2.228679    0.000177
 ---------------------------------------------------------------------
                    Distance matrix (angstroms):
                    1          2          3          4          5
     1  C    0.000000
     2  C    1.377065   0.000000
     3  C    2.427707   1.422935   0.000000
     4  C    2.826157   2.469522   1.433415   0.000000
     5  C    2.423498   2.813206   2.455340   1.427494   0.000000
     6  C    1.416646   2.428959   2.818332   2.444462   1.380693
     7  H    4.078675   2.708638   2.164853   3.434281   4.616349
     8  H    2.145815   1.087025   2.170648   3.449882   3.900229
     9  C    3.738768   2.488732   1.422407   2.452033   3.747990
    10  C    4.246415   3.764170   2.466303   1.420470   2.493068
    11  H    2.174430   3.408595   3.906752   3.431071   2.143839
    12  C    5.071830   4.249887   2.827118   2.429943   3.746788
    13  C    4.866303   3.747040   2.438616   2.814680   4.241745
    14  H    4.875384   4.630057   3.443374   2.163829   2.716666
    15  H    6.134615   5.336765   3.913951   3.416395   4.630082
    16  H    5.834642   4.626965   3.423669   3.901701   5.328814
    17  H    1.087001   2.141596   3.417214   3.912997   3.398126
    18  O    3.700721   4.184435   3.683329   2.375910   1.372145
    19  H    3.868882   4.628759   4.381447   3.199594   1.929776
                    6          7          8          9         10
     6  C    0.000000
     7  H    4.870332   0.000000
     8  H    3.418759   2.483087   0.000000
     9  C    4.240399   1.087789   2.718026   0.000000
    10  C    3.751627   3.897262   4.633655   2.809474   0.000000
    11  H    1.088470   5.941441   4.310591   5.328866   4.633988
    12  C    4.874370   3.415351   4.882548   2.425038   1.379337
    13  C    5.072765   2.144927   4.091019   1.378655   2.426332
    14  H    4.091262   4.982061   5.576527   3.894277   1.084820
    15  H    5.844641   4.306138   5.951605   3.403633   2.140558
    16  H    6.134720   2.473071   4.788303   2.140867   3.404826
    17  H    2.163270   4.785371   2.479102   4.626314   5.333340
    18  O    2.417694   5.792657   5.271340   4.827937   2.788200
    19  H    2.462273   6.536214   5.701631   5.628507   3.752475
                   11         12         13         14         15
    11  H    0.000000
    12  C    5.844748   0.000000
    13  C    6.136502   1.417461   0.000000
    14  H    4.791582   2.146626   3.415821   0.000000
    15  H    6.765470   1.086894   2.171719   2.476504   0.000000
    16  H    7.205899   2.171701   1.087070   4.307476   2.493750
    17  H    2.485298   6.136127   5.839695   5.943240   7.205897
    18  O    2.678575   4.167352   5.020669   2.442446   4.814438
    19  H    2.301902   5.130491   5.933274   3.385670   5.782120
                   16         17         18         19
    16  H    0.000000
    17  H    6.758918   0.000000
    18  O    6.080675   4.575937   0.000000
    19  H    7.004397   4.571824   0.969533   0.000000
 Stoichiometry    C10H8O
 Framework group  C1[X(C10H8O)]
 Deg. of freedom    51
 Full point group                 C1      NOp   1
 Largest Abelian subgroup         C1      NOp   1
 Largest concise Abelian subgroup C1      NOp   1
                         Standard orientation:                         
 ---------------------------------------------------------------------
 Center     Atomic      Atomic             Coordinates (Angstroms)
 Number     Number       Type             X           Y           Z
 ---------------------------------------------------------------------
      1          6           0        1.948743    1.580611    0.000008
      2          6           0        0.620317    1.943366    0.000002
      3          6           0       -0.394544    0.945968   -0.000003
      4          6           0       -0.027530   -0.439665   -0.000002
      5          6           0        1.361084   -0.770559   -0.000005
      6          6           0        2.327488    0.215532   -0.000005
      7          1           0       -2.060877    2.327967   -0.000009
      8          1           0        0.331930    2.991439    0.000007
      9          6           0       -1.777733    1.277675   -0.000004
     10          6           0       -1.042145   -1.433793    0.000006
     11          1           0        3.381877   -0.054709   -0.000026
     12          6           0       -2.373473   -1.073049    0.000006
     13          6           0       -2.744655    0.294949   -0.000001
[...]
 55,-0.0409949,0.0000011,-0.0000006,0.0000025,0.135968,-0.0393246,-0.09
 45449,0.0000007,-0.1034038,-0.0329904,0.0000014,0.0000024,0.0000017,0.
 1420687,-0.1262348,0.0460486,-0.0000004,0.0518163,0.055925,0.0000004,-
 0.0000007,0.0000002,0.1405574,-0.0350034,-0.0989557,-0.0000008,-0.0975
 158,-0.0283103,-0.000001,-0.0000022,0.0000017,0.1411452,-0.3427458,0.3
 843156,0.000053,0.5444006,-1.3877566,0.000016,0.0000876,-0.0000475,-0.
 3696833,0.1623945,-0.0584067,-0.0000361,-0.1435879,0.3340274,-0.000024
 9,-0.0000565,0.0000243,0.3398594\Polar=169.2566936,7.7810244,132.72128
 33,0.0004312,-0.0001907,63.2907285\Quadrupole=6.9935375,0.3021572,-7.2
 956947,-2.0359121,0.0007211,-0.0006697\PG=C01 [X(C10H8O1)]\NImag=0\\0.
 74388288,0.03005718,0.66593154,0.00000174,0.00000339,0.12788948,-0.370
 66244,0.03791105,-0.00000172,0.70499524,0.09284031,-0.14378696,0.00000
 011,-0.05889923,0.70697605,-0.00000151,0.00000017,-0.05707296,0.000002
 06,0.00000228,0.12350571,-0.06281731,0.00291866,0.00000007,-0.17814282
 ,-0.09881383,-0.00000069,0.68190131,-0.03178361,0.03815097,0.00000021,
 -0.07201536,-0.21406414,-0.00000086,0.01565170,0.63667930,-0.00000030,
 0.00000004,0.00507980,-0.00000032,-0.00000053,-0.06335746,0.00000060,0
 .00000043,0.15980532,-0.02948352,0.02860295,0.00000016,0.04663187,-0.0
 0959865,-0.00000007,-0.14791623,0.03187292,0.00000011,0.67713280,0.012
 68835,-0.00969576,-0.00000005,-0.02093787,-0.03492796,-0.00000004,0.02
 732538,-0.25200838,-0.00000021,0.01148456,0.65209531,-0.00000018,-0.00
 000012,-0.00148488,0.00000006,0.00000012,0.00364222,0.00000064,-0.0000
 0038,-0.06670396,-0.00000127,-0.00000143,0.15182657,0.05518223,-0.0507
 0327,-0.00000018,-0.05502550,-0.01089288,-0.00000006,0.01843436,0.0556
 2622,0.00000010,-0.25313238,0.02272290,-0.00000046,0.69343302,-0.00604
 933,-0.05351521,0.00000014,-0.01800270,0.00061790,-0.00000014,0.039648
 94,0.00402830,0.00000008,0.05082129,-0.11849828,-0.00000084,0.04299114
 ,0.69015173,-0.00000066,-0.00000023,-0.00136344,0.00000025,0.00000039,
 0.00058340,0.00000021,-0.00000002,-0.00179094,-0.00000123,-0.00000060,
 -0.06755393,0.00000827,0.00000139,0.15271779,-0.13436914,0.07647841,0.
 00000066,-0.00055186,0.03501037,0.00000024,-0.00577350,-0.00862110,-0.
 00000002,-0.03971674,-0.01821908,0.00000061,-0.26010621,-0.14892237,-0
 .00000037,0.73512037,0.01677799,-0.28887754,-0.00000181,0.07494940,-0.
 00513250,-0.00000021,-0.03022916,-0.03502837,-0.00000014,-0.04740829,0
 .02306337,0.00000046,-0.08149559,-0.22920284,-0.00000091,0.00470639,0.
 67148379,0.00000133,-0.00000244,-0.05276028,0.00000005,-0.00000031,0.0
 0655893,-0.00000032,-0.00000001,-0.00341280,0.00000056,0.00000020,0.00
 509642,-0.00000004,0.00000039,-0.05984492,-0.00000704,0.00000553,0.112
 54717,0.00014503,-0.00025055,0.,0.00088950,0.00168434,0.00000003,-0.00
 435396,0.03032563,-0.00000012,-0.00533213,-0.00038788,0.00000004,0.000
 62605,0.00160204,0.00000002,-0.00003626,-0.00002422,-0.00000002,0.0807
 4891,0.00034893,0.00008793,0.,-0.00152199,0.00076517,-0.00000003,0.000
 60913,-0.00506882,0.00000002,0.00118140,0.00154961,0.00000001,-0.00070
 758,-0.00029831,0.,0.00006313,0.00021135,0.,-0.07473258,0.33649416,0.0
 0000003,-0.00000004,-0.00015524,-0.00000003,0.,-0.00312449,0.00000016,
 0.,0.00315994,0.,0.00000002,0.00505810,0.,-0.00000002,0.00012446,0.,0.
 00000003,-0.00002309,0.00000038,-0.00000141,0.02456707,-0.00371236,0.0
 3157678,0.00000016,-0.07797142,0.06995555,0.00000013,0.00891252,-0.021
 97718,-0.00000009,-0.00337355,-0.00215883,-0.00000004,-0.00116399,-0.0
 0062539,0.,-0.00507270,-0.00004897,-0.00000004,-0.00072695,0.00048178,
 0.,0.08074621,-0.00013738,-0.00392432,-0.00000005,0.07055263,-0.318090
 31,-0.00000136,0.00761969,-0.01804816,-0.00000007,-0.00380343,-0.00047
 822,-0.00000004,-0.00074098,0.00036153,-0.00000001,0.00130045,0.001760
 86,0.,-0.00115738,0.00048213,-0.00000001,-0.07612208,0.33747870,-0.000
 00010,0.00000022,0.00240596,0.00000023,-0.00000151,-0.03200463,0.00000
 006,-0.00000015,0.00206101,-0.00000002,0.00000008,0.00431570,-0.000000
 04,0.,-0.00020901,-0.00000004,-0.00000017,0.00743578,-0.00000002,0.000
 00002,0.00033243,-0.00000019,0.00000148,0.02338454,0.01938410,-0.01944
 191,-0.00000012,-0.06093167,-0.01116550,-0.00000009,-0.26454194,0.0408
 6886,0.,0.01226454,0.05295260,-0.00000034,-0.01475944,-0.00264086,-0.0
 0000001,0.00280581,0.01888754,0.00000007,-0.07867269,0.07001766,-0.000
 00053,0.00100052,0.00174146,0.,0.65672953,-0.00045981,-0.00769043,-0.0
 0000006,-0.03117596,0.01032975,-0.00000004,0.07007534,-0.13082925,0.00
 000021,0.03758700,0.00129436,-0.00000010,-0.00470952,-0.00749466,-0.00
 000013,0.00068054,0.00337868,0.00000004,0.07033530,-0.31605943,0.00000
 134,-0.00155081,0.00064165,0.,0.02782323,0.75282407,0.00000005,-0.0000
 0007,0.00503168,-0.00000022,-0.00000011,0.00453689,-0.00000036,0.00000
 038,-0.06535104,-0.00000002,-0.00000006,0.00511495,0.00000002,0.000000
 09,0.00506840,-0.00000003,0.,-0.00031761,-0.00000039,0.00000127,-0.035
 68940,0.00000003,0.00000002,-0.00295109,0.00000036,-0.00000227,0.13238
 292,0.01096474,-0.01288560,-0.00000015,-0.01390903,-0.00053850,0.00000
 005,0.05009198,-0.02734125,0.00000008,-0.18179919,-0.06921530,0.000000
 70,-0.06176483,-0.02561965,0.00000026,0.00269064,0.02393801,0.00000007
 ,-0.00098112,-0.00024279,-0.00000003,0.00059803,0.00107755,0.00000002,
 -0.05133059,-0.01634281,0.00000009,0.70381124,0.00446060,-0.00459002,-
 0.00000007,-0.00022744,-0.00484037,0.00000005,-0.01059326,-0.03693829,
 -0.00000001,-0.09820520,-0.21472659,0.00000125,-0.01360291,0.01617274,
 0.,0.00610974,0.00648551,-0.00000001,-0.00043769,0.00049063,0.,-0.0010
 5474,-0.00081874,0.00000002,-0.01082770,-0.00439849,-0.00000002,-0.058
 89991,0.71367528,-0.00000003,0.00000005,-0.00050296,0.00000002,-0.0000
 0001,0.00492919,0.00000009,0.00000012,0.00435629,0.00000046,0.00000145
 ,-0.06381483,0.00000033,-0.00000046,0.00386699,-0.00000007,0.,0.004189
 12,0.,0.,-0.00059936,0.,0.,0.00029420,0.00000008,-0.00000005,-0.003645
 20,-0.00000059,-0.00000351,0.13527535,-0.00437766,0.00007282,0.0000000
 3,0.00181225,0.00140207,0.00000013,0.00033820,-0.00048620,-0.00000001,
 -0.00042508,-0.00433334,0.00000011,-0.01949632,0.01104965,0.00000038,-
 0.31635017,0.06319028,0.00000544,-0.00000650,0.00003553,0.,-0.00035849
 ,-0.00005400,0.00000002,0.00015245,0.00005377,-0.00000001,-0.00060431,
 0.00110296,-0.00000002,0.33660684,0.03139142,-0.00235052,-0.00000040,0
 .00006702,-0.00568174,-0.00000011,-0.00070995,-0.00095436,-0.00000003,
 -0.00256614,-0.00340259,-0.00000010,-0.02192556,0.00668993,0.00000030,
 0.06345062,-0.07471452,-0.00000139,-0.00007173,0.00003277,0.,0.0015666
 9,-0.00030940,0.00000005,0.00035872,0.00023111,0.00000002,-0.00068009,
 0.00085996,-0.00000003,-0.06962701,0.07641606,0.00000003,0.00000026,0.
 00129337,0.00000020,-0.00000001,0.00466372,-0.00000012,-0.00000008,-0.
 00035195,-0.00000014,-0.00000013,0.00630612,-0.00000019,0.00000047,0.0
 0450050,0.00000614,-0.00000220,-0.03058110,0.,0.,0.00005030,0.,0.,0.00
 058660,0.00000009,0.00000003,-0.00063176,0.00000002,0.00000002,0.00028
 882,-0.00000610,0.00000142,0.02127844,-0.00939318,0.00903609,0.0000000
 8,0.01075470,0.00436267,-0.00000001,-0.03055102,0.01635364,0.00000008,
 -0.06217573,-0.03487511,-0.00000003,0.02109346,-0.00351015,0.,-0.00379
 029,-0.01374341,0.00000003,-0.00303866,-0.00432074,0.,0.00019783,-0.00
 010051,0.,0.05042490,-0.00663288,-0.00000006,-0.36578586,0.09325909,0.
 00000016,-0.00034933,-0.00036771,-0.00000005,0.73825681,0.01032515,-0.
 01108591,-0.00000007,-0.01485608,-0.00572520,-0.00000002,0.03402184,-0
 .01298852,0.00000005,0.00149081,0.04020506,-0.00000015,-0.02111904,-0.
 00926409,0.00000015,0.00388061,0.01514488,0.00000009,-0.00278444,-0.00
 065550,0.00000002,-0.00012274,0.00024412,-0.00000001,-0.04785823,-0.05
 061202,0.00000031,0.03494178,-0.14586160,0.00000042,-0.00038481,-0.000
 05925,0.,0.03448128,0.66904300,-0.00000004,0.00000002,-0.00010100,0.00
 000003,0.00000004,-0.00049149,-0.00000018,0.00000007,-0.00599662,0.000
 00024,-0.00000014,0.00616860,0.00000009,0.00000018,0.00557781,0.000000
 02,-0.00000010,0.00056019,0.,0.00000004,0.00797897,0.,0.,-0.00014182,0
 .00000018,0.00000027,0.00763387,0.00000026,0.00000032,-0.06078913,-0.0
 0000002,0.00000001,-0.00080635,-0.00000161,-0.00000365,0.13062856,-0.0
 0488780,0.00398221,0.00000004,0.00407520,0.00720725,0.00000002,-0.0474
 5039,-0.01964819,-0.00000006,-0.00532238,-0.00957809,0.00000013,0.0039
 1475,0.00076919,-0.00000006,-0.00158187,-0.00469407,-0.00000008,0.0101
 6982,0.00843492,0.,0.00015688,-0.00035095,0.,-0.25619244,-0.15661537,0
 .00000048,0.00096213,0.03678141,-0.00000025,0.00002117,-0.00000602,0.,
 -0.13786977,0.07399584,-0.00000027,0.75127759,-0.01534155,0.01461075,0
 .00000010,0.02575397,0.00831229,0.00000004,-0.05431950,0.02863376,-0.0
 0000008,-0.02933031,-0.03950156,0.00000012,0.02065465,0.00167685,-0.00
 000006,-0.00379028,-0.01833903,0.,-0.02334897,-0.01768487,0.00000008,0
 .00042194,0.00000627,0.00000002,-0.09887276,-0.25785612,0.00000052,0.0
 7790198,-0.00078470,0.,-0.00017209,-0.00032882,-0.00000007,0.01211617,
 -0.28513912,0.00000133,0.01446181,0.65726001,0.00000008,-0.00000009,0.
 00063202,-0.00000014,-0.00000006,0.00569700,0.00000018,-0.00000005,0.0
 0574704,0.00000013,0.00000011,-0.00660823,-0.00000013,-0.00000009,-0.0
 0001605,0.00000005,0.00000012,-0.00025584,0.00000010,0.00000010,0.0038
 1142,0.,0.,-0.00018103,0.00000028,0.00000063,-0.05960956,-0.00000029,0
 .00000008,0.00769966,0.,0.,0.00011975,0.,0.00000119,-0.06176590,0.0000
 0034,-0.00000243,0.13180330,0.00027509,-0.00027821,0.,0.00054341,-0.00
 104831,0.,-0.00358790,-0.00234666,-0.00000009,0.01099027,-0.02220512,0
 .00000016,0.00028217,-0.00203434,0.,0.00038906,0.00073387,0.,0.0001659
 6,0.00004381,0.,-0.00027383,-0.00031015,0.00000001,-0.00085864,-0.0005
 1500,0.00000003,-0.07916241,0.07297238,-0.00000041,-0.00003157,0.00002
 864,0.00000001,-0.00330899,0.03068085,-0.00000011,-0.00537042,0.000192
 68,0.00000002,0.08289716,0.00003239,-0.00018227,0.00000002,0.00076328,
 -0.00072491,-0.00000001,-0.00373642,-0.00019635,0.00000009,0.00604121,
 -0.01725960,0.00000012,0.00123337,-0.00260951,0.00000001,0.00011749,0.
 00028900,0.,0.00008675,-0.00006244,0.,-0.00024847,-0.00022329,-0.00000
 001,-0.00048915,0.00046565,0.,0.07183414,-0.32515679,0.00000191,-0.000
 08913,0.00003261,0.,-0.00014480,-0.00263848,0.00000003,0.00114392,0.00
 159702,0.00000002,-0.07831702,0.34381640,0.,0.00000002,-0.00031135,0.,
 0.00000002,0.00016483,0.00000002,0.,0.00477908,-0.00000010,0.00000012,
 0.00358351,0.00000001,-0.00000001,-0.00251012,-0.00000005,-0.00000001,
 -0.00011804,0.,0.,-0.00119618,0.,0.,0.00026188,0.00000002,0.,-0.000583
 25,-0.00000036,0.00000196,-0.03719457,0.00000001,0.,0.00028715,0.,0.,0
 .00422400,0.00000003,0.00000003,0.00822730,0.00000031,-0.00000212,0.02
 550069,-0.00011204,0.00024860,0.,0.00030893,-0.00003839,-0.00000001,-0
 .00044312,0.00068920,0.00000001,-0.00428438,0.00344265,-0.00000002,0.0
 0012059,-0.00172602,0.00000002,-0.00057709,0.00012500,0.,0.00033616,0.
 00047286,0.,-0.00002045,-0.00006533,0.,0.00039631,0.00220295,0.0000000
 1,-0.01749091,-0.02366727,0.00000024,-0.00014101,-0.00010780,0.,-0.199
 20661,-0.13927459,0.00000147,0.00980868,0.00775793,-0.00000008,0.00073
 123,0.00037171,-0.00000002,0.20992228,0.00013318,-0.00017878,0.,-0.000
 29410,0.00004996,0.,0.00106160,-0.00006230,0.,0.00241981,0.00039218,0.
 00000006,0.00003995,0.00029729,0.,0.00009005,0.00017841,-0.00000001,-0
 .00119622,-0.00097177,0.,0.00004762,0.00004804,0.,0.00339725,-0.004640
 00,0.00000007,0.00760274,0.00987487,-0.00000008,0.00002875,0.00004284,
 0.,-0.13962209,-0.19920432,0.00000163,-0.02364954,-0.01618434,0.000000
 18,-0.00025230,0.00090115,-0.00000004,0.14982120,0.20872195,-0.0000000
 4,0.00000004,0.00017691,0.00000006,0.00000003,-0.00094677,-0.00000006,
 -0.00000003,-0.00036407,0.00000004,0.00000003,0.00833023,0.,0.00000010
 ,0.00052401,-0.00000002,-0.00000005,-0.00078285,0.00000001,0.,0.000270
 71,0.,0.,0.00004349,0.00000002,0.00000007,0.00520077,0.00000006,-0.000
 00005,0.00334352,0.,0.,0.00000870,0.00000145,0.00000175,-0.03578521,0.
 00000013,0.,0.00249401,-0.00000004,-0.00000003,-0.00505522,-0.00000162
 ,-0.00000177,0.02504097,-0.00027725,-0.00039991,0.,-0.00068310,0.00092
 739,0.,-0.00033277,-0.00399799,-0.00000001,0.00038028,-0.00040617,0.,0
 .00020216,-0.00012728,0.,0.00003687,-0.00004954,0.,0.00079534,-0.00049
 811,0.,0.00000824,-0.00005454,0.,-0.01750395,0.00795833,-0.00000003,0.
 00154780,0.00149932,-0.00000002,-0.00003090,0.00001602,0.,-0.00381506,
 -0.00046476,0.,-0.32056604,0.06756562,-0.00000049,-0.00029714,-0.00012
 236,0.,0.00075604,0.00045791,0.,0.34002594,-0.00041696,-0.00010863,0.,
 -0.00053809,0.00090766,0.,-0.00284711,-0.00346383,0.00000004,-0.000907
 90,-0.00083470,0.,0.00034377,-0.00004229,0.,0.00003113,-0.00027954,0.,
 0.00018868,0.00077879,-0.00000002,0.00001578,-0.00001734,0.,-0.0235739
 9,0.01008906,-0.00000002,0.00038382,-0.00594383,0.00000006,0.00000359,
 0.00001730,0.,0.03086200,-0.00224608,0.00000004,0.06800800,-0.07771584
 ,0.00000022,0.00147816,-0.00020344,0.,-0.00041961,0.00067144,-0.000000
 02,-0.07252914,0.07815238,0.,0.00000001,-0.00075308,0.00000002,0.,0.00
 032641,0.00000006,0.,0.00857688,0.,0.00000001,-0.00024285,0.,-0.000000
 02,-0.00100004,0.,0.,0.00020948,0.,-0.00000003,-0.00486575,0.,0.,0.000
 16688,0.00000002,-0.00000007,0.00356116,-0.00000003,0.00000007,0.00525
 441,0.,0.,0.00009648,-0.00000011,-0.00000001,0.00277735,-0.00000050,0.
 00000032,-0.03665707,0.,0.00000001,0.00018489,-0.00000001,-0.00000003,
 -0.00286176,0.00000054,-0.00000028,0.02525853,-0.20123605,-0.13938275,
 -0.00000097,-0.01675353,-0.02391468,-0.00000013,-0.00444587,0.00361687
 ,-0.00000004,-0.00032049,0.00063283,0.00000001,0.00024854,0.00240213,0
 .00000002,0.00937515,0.00772207,0.00000002,-0.00000931,0.00006139,0.,0
 .00067806,0.00042176,0.00000002,-0.00007701,-0.00153050,-0.00000001,0.
 00029559,-0.00006135,0.,0.00085075,-0.00035755,-0.00000002,-0.00010009
 ,0.00026674,0.,-0.00059257,0.00005846,0.,-0.00002243,-0.00003983,0.,-0
 .00000878,-0.00002361,0.,-0.00012566,-0.00011994,0.,0.21180085,-0.1395
 9726,-0.19713626,-0.00000102,0.00712308,0.01007542,0.00000005,0.002343
 75,0.00038725,0.,0.00089799,-0.00009602,-0.00000001,0.00361968,-0.0034
 8554,-0.00000018,-0.02289558,-0.01664115,0.00000001,-0.00002192,-0.000
 00375,0.,-0.00025239,0.00086933,0.00000001,-0.00002713,0.00035284,0.,-
 0.00022794,0.00002645,0.,0.00033055,0.00069879,0.00000006,0.00010583,-
 0.00017513,0.,0.00013050,0.00017346,0.,0.00003771,0.00001904,0.,-0.000
 01987,-0.00000563,0.,0.00002659,0.00003216,0.,0.14980242,0.20647680,-0
 .00000071,-0.00000108,-0.03589699,-0.00000032,-0.00000008,0.00375488,0
 .00000005,0.00000010,0.00845057,0.00000008,0.00000002,-0.00059925,-0.0
 0000003,-0.00000008,0.00507404,-0.00000005,0.,0.00250141,0.,0.,0.00013
 095,0.00000002,0.00000003,-0.00485816,-0.00000005,-0.00000002,0.000273
 81,-0.00000004,-0.00000002,-0.00059749,-0.00000009,0.00000005,-0.00281
 846,0.00000003,-0.00000003,0.00014403,0.,0.00000004,-0.00069893,0.,0.,
 0.00003146,0.,0.,0.00007135,0.,0.,-0.00001898,0.00000108,0.00000110,0.
 02491839,-0.00736802,0.00207528,-0.00000053,0.00420326,0.00201051,0.00
 000001,-0.00845615,-0.00620511,-0.00000032,-0.01677332,0.05012697,0.00
 000103,-0.11539963,0.05962695,-0.00000696,0.01283998,-0.02794938,0.000
 00014,-0.00065553,0.00026847,0.00000002,0.00038983,0.00014793,0.000000
 13,0.00169749,0.00249385,0.00000007,0.00178036,0.00166188,0.00000040,0
 .00275829,-0.00117803,0.00000059,-0.00162523,0.00261453,-0.00000040,-0
 .00048191,-0.00182971,0.00000003,-0.00360610,0.00128194,0.00000024,-0.
 00008977,-0.00006436,0.,-0.00013417,0.00002529,0.00000002,0.00040661,-
 0.00113347,0.00000007,0.62172686,-0.00563098,0.00509202,0.,0.00210267,
 -0.00532992,0.00000013,-0.00217642,0.00079672,0.00000049,0.01969126,-0
 .01969530,0.00000077,0.00834651,-0.28537939,-0.00000882,0.00906625,-0.
 05615741,-0.00000172,0.00003281,-0.00007596,0.00000004,0.00029884,-0.0
 0001845,-0.00000009,-0.00078963,0.00068369,-0.00000012,-0.00419375,-0.
 00288564,-0.00000004,0.00010995,0.00365875,-0.00000028,0.00239698,0.00
 090839,-0.00000015,-0.00019727,0.00094835,0.00000005,0.00081129,0.0015
 5943,0.00000018,0.00022549,0.00009375,-0.00000005,0.00023514,0.0001526
 3,0.00000003,0.00045714,-0.00182294,-0.00000002,-0.09918041,0.40529961
 ,0.00000070,-0.00000016,0.00864476,-0.00000055,-0.00000068,-0.00145441
 ,-0.00000080,0.00000084,0.00412146,0.00000127,0.00000147,0.00498815,-0
 .00001020,0.00000304,-0.04103989,-0.00000051,-0.00000002,0.00995707,-0
 .00000008,0.00000001,0.00013407,0.,0.00000003,-0.00095223,-0.00000004,
 0.00000029,0.00021242,-0.00000063,-0.00000023,-0.00222174,-0.00000023,
 -0.00000015,-0.00490948,0.00000016,-0.00000006,0.00018781,-0.00000003,
 0.00000015,-0.00048164,0.00000021,0.00000003,-0.00010841,0.,0.,0.00034
 831,0.,0.00000002,-0.00003042,-0.00000002,0.00000008,0.00011049,0.0001
 1165,-0.00000634,0.02670248,-0.00113732,0.00038215,0.00000071,0.000417
 03,-0.00049050,-0.00000010,-0.00086536,-0.00058237,0.00000037,0.002655
 35,0.00094055,-0.00000118,-0.01268905,0.00034674,-0.00000012,0.0046679
 6,-0.00538792,-0.00000017,-0.00006366,0.00000479,0.,-0.00001438,0.0000
 3525,-0.00000011,0.00001273,0.00032235,0.,0.00008574,-0.00026991,-0.00
 000042,-0.00036861,0.00071844,-0.00000044,0.00028213,0.00016526,0.0000
 0033,-0.00007064,0.00011996,-0.00000008,0.00024508,0.00028098,-0.00000
 011,-0.00000605,0.00000217,0.,0.00001336,0.00001250,0.,0.00003625,-0.0
 0024255,-0.00000004,-0.49121285,0.06839413,-0.00010088,0.49801229,0.00
 036139,-0.00075059,-0.00000042,-0.00075429,0.00026982,0.00000011,0.002
 14960,0.00097446,-0.00000038,-0.00027127,-0.00747494,0.00000028,0.0503
 1914,-0.01020616,0.00000871,0.00146322,0.00237704,-0.00000035,0.000158
 01,-0.00001168,-0.00000002,-0.00020340,0.00003559,0.00000005,-0.000360
 45,-0.00071048,0.,-0.00149243,-0.00064040,0.00000018,-0.00223335,-0.00
 087891,0.00000051,0.00034367,0.00010978,0.00000005,-0.00017554,0.00031
 567,0.,0.00032772,0.00057679,-0.00000013,-0.00003872,-0.00002476,0.,-0
 .00003653,0.00005409,-0.00000001,-0.00001159,0.00025487,-0.00000002,0.
 01520685,-0.04782835,0.00000165,-0.06475202,0.06355816,-0.00000037,0.,
 -0.00075180,0.00000032,0.00000033,0.00008905,0.00000039,-0.00000058,0.
 00119145,-0.00000019,-0.00000085,0.00257736,0.00000250,-0.00000420,-0.
 00270906,0.00000048,-0.00000053,-0.00095906,0.00000005,-0.00000001,0.0
 0003508,0.00000003,-0.00000003,0.00000948,0.00000006,-0.00000013,-0.00
 023795,0.00000050,0.00000015,-0.00013227,0.00000034,0.00000038,0.00061
 915,-0.00000012,0.00000002,-0.00000366,0.00000005,-0.00000012,0.000042
 76,-0.00000010,-0.00000006,-0.00016765,0.00000001,0.,-0.00005711,0.,-0
 .00000001,0.00001749,0.00000002,-0.00000010,0.00002688,-0.00010620,0.0
 0001595,-0.00420881,0.00010223,-0.00001021,0.00461867\\-0.00016769,-0.
 00003911,0.00000059,-0.00005812,0.00002378,-0.00000054,0.00022164,0.00
 007246,0.00000016,0.00017967,-0.00024963,0.00000029,-0.00013888,0.0000
 8071,0.00000033,0.00028538,-0.00015921,-0.00000037,0.00002548,-0.00002
 158,-0.00000011,0.00001051,-0.00002793,0.00000005,-0.00020593,-0.00001
 406,0.00000018,-0.00027764,-0.00012803,0.00000020,-0.00009367,0.000054
 53,-0.00000040,0.00023322,-0.00015116,-0.00000016,0.00000472,0.0002601
 8,0.00000004,0.00005420,0.00003712,0.00000005,-0.00001947,0.00004016,0
 .00000008,0.00001551,-0.00005087,-0.00000004,0.00006468,0.00008996,0.0
 0000004,-0.00028070,0.00021760,-0.00000208,0.00014707,-0.00003492,0.00
 000172\\\@


 IN THE UNIVERSE THE DIFFICULT THINGS ARE DONE AS IF THEY WERE EASY.

                                                          -- LAO-TSU
 Job cpu time:       0 days  0 hours 57 minutes 58.3 seconds.
 Elapsed time:       0 days  0 hours  1 minutes 49.2 seconds.
 File lengths (MBytes):  RWF=    105 Int=      0 D2E=      0 Chk=      5 Scr=      1
 Normal termination of Gaussian 16 at Tue Sep 19 06:56:05 2023.
