 Entering Gaussian System, Link 0=/home/ubuntu/g16/g16
 Input=/home/ubuntu/ML substrates/MOLECULE_27.gjf
 Output=/home/ubuntu/ML substrates/MOLECULE_27.log
 Initial command:
 /home/ubuntu/g16/l1.exe "/home/ubuntu/Scratch/Gau-26104.inp" -scrdir="/home/ubuntu/Scratch/"
 Entering Link 1 = /home/ubuntu/g16/l1.exe PID=     26106.
  
 Copyright (c) 1988-2017, Gaussian, Inc.  All Rights Reserved.
  
 This is part of the Gaussian(R) 16 program.  It is based on
 the Gaussian(R) 09 system (copyright 2009, Gaussian, Inc.),
 the Gaussian(R) 03 system (copyright 2003, Gaussian, Inc.),
 the Gaussian(R) 98 system (copyright 1998, Gaussian, Inc.),
 the Gaussian(R) 94 system (copyright 1995, Gaussian, Inc.),
 the Gaussian 92(TM) system (copyright 1992, Gaussian, Inc.),
 the Gaussian 90(TM) system (copyright 1990, Gaussian, Inc.),
 the Gaussian 88(TM) system (copyright 1988, Gaussian, Inc.),
 the Gaussian 86(TM) system (copyright 1986, Carnegie Mellon
 University), and the Gaussian 82(TM) system (copyright 1983,
 Carnegie Mellon University). Gaussian is a federally registered
 trademark of Gaussian, Inc.
  
 This software contains proprietary and confidential information,
 including trade secrets, belonging to Gaussian, Inc.
  
 This software is provided under written license and may be
 used, copied, transmitted, or stored only in accord with that
 written license.
  
 The following legend is applicable only to US Government
 contracts under FAR:
  
                    RESTRICTED RIGHTS LEGEND
  
 Use, reproduction and disclosure by the US Government is
 subject to restrictions as set forth in subparagraphs (a)
 and (c) of the Commercial Computer Software - Restricted
 Rights clause in FAR 52.227-19.
  
 Gaussian, Inc.
 340 Quinnipiac St., Bldg. 40, Wallingford CT 06492
  
  
 ---------------------------------------------------------------
 Warning -- This program may not be used in any manner that
 competes with the business of Gaussian, Inc. or will provide
 assistance to any competitor of Gaussian, Inc.  The licensee
 of this program is prohibited from giving any competitor of
 Gaussian, Inc. access to this program.  By using this program,
 the user acknowledges that Gaussian, Inc. is engaged in the
 business of creating and licensing software in the field of
 computational chemistry and represents and warrants to the
 licensee that it is not a competitor of Gaussian, Inc. and that
 it will not use this program in any manner prohibited above.
 ---------------------------------------------------------------
  

 Cite this work as:
 Gaussian 16, Revision B.01,
 M. J. Frisch, G. W. Trucks, H. B. Schlegel, G. E. Scuseria, 
 M. A. Robb, J. R. Cheeseman, G. Scalmani, V. Barone, 
 G. A. Petersson, H. Nakatsuji, X. Li, M. Caricato, A. V. Marenich, 
 J. Bloino, B. G. Janesko, R. Gomperts, B. Mennucci, H. P. Hratchian, 
 J. V. Ortiz, A. F. Izmaylov, J. L. Sonnenberg, D. Williams-Young, 
 F. Ding, F. Lipparini, F. Egidi, J. Goings, B. Peng, A. Petrone, 
 T. Henderson, D. Ranasinghe, V. G. Zakrzewski, J. Gao, N. Rega, 
 G. Zheng, W. Liang, M. Hada, M. Ehara, K. Toyota, R. Fukuda, 
 J. Hasegawa, M. Ishida, T. Nakajima, Y. Honda, O. Kitao, H. Nakai, 
 T. Vreven, K. Throssell, J. A. Montgomery, Jr., J. E. Peralta, 
 F. Ogliaro, M. J. Bearpark, J. J. Heyd, E. N. Brothers, K. N. Kudin, 
 V. N. Staroverov, T. A. Keith, R. Kobayashi, J. Normand, 
 K. Raghavachari, A. P. Rendell, J. C. Burant, S. S. Iyengar, 
 J. Tomasi, M. Cossi, J. M. Millam, M. Klene, C. Adamo, R. Cammi, 
 J. W. Ochterski, R. L. Martin, K. Morokuma, O. Farkas, 
 J. B. Foresman, and D. J. Fox, Gaussian, Inc., Wallingford CT, 2016.
 
 ******************************************
 Gaussian 16:  EM64L-G16RevB.01 20-Dec-2017
                15-Sep-2023 
 ******************************************
 %nprocshared=30
 Will use up to   30 processors via shared memory.
 %mem=30GB
 %chk=MOLECULE_27.chk
 ----------------------------------------------------------------
 # opt freq b3lyp/6-31+g(d) nosymm empiricaldispersion=gd3 volume
 ----------------------------------------------------------------
 1/18=20,19=15,26=3,38=1/1,3;
 2/9=110,12=2,15=1,17=6,18=5,40=1/2;
 3/5=1,6=6,7=11,11=2,25=1,30=1,71=1,74=-5,124=31/1,2,3;
 4//1;
 5/5=2,38=5/2;
 6/7=2,8=2,9=2,10=2,28=1,44=1/1,4;
 7/30=1/1,2,3,16;
 1/18=20,19=15,26=3/3(2);
 2/9=110,15=1/2;
 99//99;
 2/9=110,15=1/2;
 3/5=1,6=6,7=11,11=2,25=1,30=1,71=1,74=-5,124=31/1,2,3;
 4/5=5,16=3,69=1/1;
 5/5=2,38=5/2;
 7/30=1/1,2,3,16;
 1/18=20,19=15,26=3/3(-5);
 2/9=110,15=1/2;
 6/7=2,8=2,9=2,10=2,19=2,28=1,44=1/1,4;
 99/9=1/99;
 -----------
 molecule_27
 -----------
 Symbolic Z-matrix:
 Charge =  0 Multiplicity = 1
 C                    -0.30113  -0.71244   0.02358 
 C                     1.09757  -0.71644  -0.0223 
 C                     1.78771   0.50005  -0.04439 
 C                     1.09777   1.71668  -0.02394 
 C                    -0.30092   1.71299   0.02195 
 C                    -1.00241   0.50035   0.04245 
 H                    -0.84189  -1.65336   0.04754 
 H                     1.66152  -1.64273  -0.02472 
 H                     1.66189   2.64287  -0.02761 
 H                    -0.84153   2.65403   0.04463 
 H                    -2.08695   0.50047   0.07941 
 O                     3.196     0.49992  -0.04843 
 C                     3.81057   0.49923  -1.3762 
 H                     3.52137   1.39327  -1.94303 
 H                     4.8873    0.49924  -1.20535 
 H                     3.52125  -0.39533  -1.94215 
 

 GradGradGradGradGradGradGradGradGradGradGradGradGradGradGradGradGradGrad
 Berny optimization.
 Initialization pass.
                           ----------------------------
                           !    Initial Parameters    !
                           ! (Angstroms and Degrees)  !
 --------------------------                            --------------------------
 ! Name  Definition              Value          Derivative Info.                !
 --------------------------------------------------------------------------------
 ! R1    R(1,2)                  1.3995         estimate D2E/DX2                !
 ! R2    R(1,6)                  1.4011         estimate D2E/DX2                !
 ! R3    R(1,7)                  1.0855         estimate D2E/DX2                !
 ! R4    R(2,3)                  1.3988         estimate D2E/DX2                !
 ! R5    R(2,8)                  1.0845         estimate D2E/DX2                !
 ! R6    R(3,4)                  1.3988         estimate D2E/DX2                !
 ! R7    R(3,12)                 1.4083         estimate D2E/DX2                !
 ! R8    R(4,5)                  1.3995         estimate D2E/DX2                !
 ! R9    R(4,9)                  1.0845         estimate D2E/DX2                !
 ! R10   R(5,6)                  1.4011         estimate D2E/DX2                !
 ! R11   R(5,10)                 1.0855         estimate D2E/DX2                !
 ! R12   R(6,11)                 1.0852         estimate D2E/DX2                !
 ! R13   R(12,13)                1.4631         estimate D2E/DX2                !
 ! R14   R(13,14)                1.0974         estimate D2E/DX2                !
 ! R15   R(13,15)                1.0902         estimate D2E/DX2                !
 ! R16   R(13,16)                1.0974         estimate D2E/DX2                !
 ! A1    A(2,1,6)              120.2099         estimate D2E/DX2                !
 ! A2    A(2,1,7)              119.7452         estimate D2E/DX2                !
 ! A3    A(6,1,7)              120.0447         estimate D2E/DX2                !
 ! A4    A(1,2,3)              119.4162         estimate D2E/DX2                !
 ! A5    A(1,2,8)              121.4833         estimate D2E/DX2                !
 ! A6    A(3,2,8)              119.0927         estimate D2E/DX2                !
 ! A7    A(2,3,4)              120.8528         estimate D2E/DX2                !
 ! A8    A(2,3,12)             119.5608         estimate D2E/DX2                !
 ! A9    A(4,3,12)             119.561          estimate D2E/DX2                !
 ! A10   A(3,4,5)              119.4164         estimate D2E/DX2                !
 ! A11   A(3,4,9)              119.092          estimate D2E/DX2                !
 ! A12   A(5,4,9)              121.4838         estimate D2E/DX2                !
 ! A13   A(4,5,6)              120.2097         estimate D2E/DX2                !
 ! A14   A(4,5,10)             119.7459         estimate D2E/DX2                !
 ! A15   A(6,5,10)             120.0441         estimate D2E/DX2                !
 ! A16   A(1,6,5)              119.8941         estimate D2E/DX2                !
 ! A17   A(1,6,11)             120.0527         estimate D2E/DX2                !
 ! A18   A(5,6,11)             120.052          estimate D2E/DX2                !
 ! A19   A(3,12,13)            115.0018         estimate D2E/DX2                !
 ! A20   A(12,13,14)           110.9573         estimate D2E/DX2                !
 ! A21   A(12,13,15)           105.8211         estimate D2E/DX2                !
 ! A22   A(12,13,16)           110.957          estimate D2E/DX2                !
 ! A23   A(14,13,15)           109.9512         estimate D2E/DX2                !
 ! A24   A(14,13,16)           109.163          estimate D2E/DX2                !
 ! A25   A(15,13,16)           109.9513         estimate D2E/DX2                !
 ! D1    D(6,1,2,3)              0.2217         estimate D2E/DX2                !
 ! D2    D(6,1,2,8)            179.1995         estimate D2E/DX2                !
 ! D3    D(7,1,2,3)           -179.5958         estimate D2E/DX2                !
 ! D4    D(7,1,2,8)             -0.618          estimate D2E/DX2                !
 ! D5    D(2,1,6,5)             -0.3137         estimate D2E/DX2                !
 ! D6    D(2,1,6,11)          -179.9166         estimate D2E/DX2                !
 ! D7    D(7,1,6,5)            179.5032         estimate D2E/DX2                !
 ! D8    D(7,1,6,11)            -0.0997         estimate D2E/DX2                !
 ! D9    D(1,2,3,4)             -0.1309         estimate D2E/DX2                !
 ! D10   D(1,2,3,12)           178.0289         estimate D2E/DX2                !
 ! D11   D(8,2,3,4)           -179.1333         estimate D2E/DX2                !
 ! D12   D(8,2,3,12)            -0.9736         estimate D2E/DX2                !
 ! D13   D(2,3,4,5)              0.1309         estimate D2E/DX2                !
 ! D14   D(2,3,4,9)            179.1334         estimate D2E/DX2                !
 ! D15   D(12,3,4,5)          -178.0289         estimate D2E/DX2                !
 ! D16   D(12,3,4,9)             0.9737         estimate D2E/DX2                !
 ! D17   D(2,3,12,13)           90.9192         estimate D2E/DX2                !
 ! D18   D(4,3,12,13)          -90.8971         estimate D2E/DX2                !
 ! D19   D(3,4,5,6)             -0.2217         estimate D2E/DX2                !
 ! D20   D(3,4,5,10)           179.5961         estimate D2E/DX2                !
 ! D21   D(9,4,5,6)           -179.1996         estimate D2E/DX2                !
 ! D22   D(9,4,5,10)             0.6182         estimate D2E/DX2                !
 ! D23   D(4,5,6,1)              0.3137         estimate D2E/DX2                !
 ! D24   D(4,5,6,11)           179.9166         estimate D2E/DX2                !
 ! D25   D(10,5,6,1)          -179.5035         estimate D2E/DX2                !
 ! D26   D(10,5,6,11)            0.0994         estimate D2E/DX2                !
 ! D27   D(3,12,13,14)          60.7691         estimate D2E/DX2                !
 ! D28   D(3,12,13,15)         179.9988         estimate D2E/DX2                !
 ! D29   D(3,12,13,16)         -60.7716         estimate D2E/DX2                !
 --------------------------------------------------------------------------------
 Trust Radius=3.00D-01 FncErr=1.00D-07 GrdErr=1.00D-06 EigMax=2.50D+02 EigMin=1.00D-04
 Number of steps in this run=     80 maximum allowed number of steps=    100.
 GradGradGradGradGradGradGradGradGradGradGradGradGradGradGradGradGradGrad

                          Input orientation:                          
 ---------------------------------------------------------------------
 Center     Atomic      Atomic             Coordinates (Angstroms)
 Number     Number       Type             X           Y           Z
 ---------------------------------------------------------------------
      1          6           0       -0.301133   -0.712443    0.023581
      2          6           0        1.097569   -0.716437   -0.022303
      3          6           0        1.787705    0.500046   -0.044387
      4          6           0        1.097774    1.716682   -0.023944
      5          6           0       -0.300921    1.712994    0.021945
      6          6           0       -1.002409    0.500345    0.042451
      7          1           0       -0.841892   -1.653362    0.047543
      8          1           0        1.661515   -1.642734   -0.024718
      9          1           0        1.661891    2.642874   -0.027610
     10          1           0       -0.841529    2.654032    0.044633
     11          1           0       -2.086948    0.500469    0.079407
     12          8           0        3.196003    0.499920   -0.048427
     13          6           0        3.810572    0.499227   -1.376200
     14          1           0        3.521373    1.393271   -1.943033
     15          1           0        4.887299    0.499236   -1.205350
     16          1           0        3.521247   -0.395334   -1.942153
 ---------------------------------------------------------------------
                    Distance matrix (angstroms):
                    1          2          3          4          5
     1  C    0.000000
     2  C    1.399460   0.000000
     3  C    2.416194   1.398787   0.000000
     4  C    2.803542   2.433120   1.398794   0.000000
     5  C    2.425438   2.803545   2.416196   1.399452   0.000000
     6  C    1.401071   2.427892   2.791465   2.427891   1.401079
     7  H    1.085506   2.155044   3.400058   3.889037   3.409642
     8  H    2.172501   1.084466   2.146583   3.406388   3.887704
     9  H    3.887703   3.406385   2.146584   1.084469   2.172502
    10  H    3.409637   3.889041   3.400066   2.155046   1.085506
    11  H    2.159492   3.410624   3.876630   3.410617   2.159493
    12  O    3.702022   2.425620   1.408304   2.425629   3.702024
    13  C    4.509285   3.266690   2.421924   3.266507   4.509148
    14  H    4.786769   3.743648   2.721821   3.108268   4.309674
    15  H    5.467931   4.152049   3.309882   4.151915   5.467823
    16  H    4.309902   3.108560   2.721836   3.743442   4.786616
                    6          7          8          9         10
     6  C    0.000000
     7  H    2.159686   0.000000
     8  H    3.419618   2.504472   0.000000
     9  H    3.419625   4.973150   4.285609   0.000000
    10  H    2.159689   4.307395   4.973152   2.504487   0.000000
    11  H    1.085168   2.488005   4.319159   4.319160   2.487993
    12  O    4.199395   4.577164   2.635561   2.635562   4.577174
    13  C    5.017704   5.320348   3.321588   3.321257   5.320150
    14  H    5.020365   5.681764   4.044296   2.947546   4.957343
    15  H    6.020438   6.247163   4.048161   4.047902   6.247005
    16  H    5.020394   4.957671   2.948079   4.043932   5.681528
                   11         12         13         14         15
    11  H    0.000000
    12  O    5.284497   0.000000
    13  C    6.074499   1.463105   0.000000
    14  H    6.028318   2.119781   1.097383   0.000000
    15  H    7.091595   2.049135   1.090198   1.791432   0.000000
    16  H    6.028351   2.119779   1.097384   1.788605   1.791433
                   16
    16  H    0.000000
 Symmetry turned off by external request.
 Stoichiometry    C7H8O
 Framework group  C1[X(C7H8O)]
 Deg. of freedom    42
 Full point group                 C1      NOp   1
 Rotational constants (GHZ):           4.7585064           1.5163903           1.2352250
 Standard basis: 6-31+G(d) (6D, 7F)
   168 basis functions,   288 primitive gaussians,   168 cartesian basis functions
    29 alpha electrons       29 beta electrons
       nuclear repulsion energy       342.5494356424 Hartrees.
 NAtoms=   16 NActive=   16 NUniq=   16 SFac= 1.00D+00 NAtFMM=   60 NAOKFM=F Big=F
 Integral buffers will be    131072 words long.
 Raffenetti 2 integral format.
 Two-electron integral symmetry is turned off.
 Nuclear repulsion after empirical dispersion term =      342.5399392937 Hartrees.
 One-electron integrals computed using PRISM.
 NBasis=   168 RedAO= T EigKep=  5.25D-06  NBF=   168
 NBsUse=   168 1.00D-06 EigRej= -1.00D+00 NBFU=   168
 ExpMin= 4.38D-02 ExpMax= 5.48D+03 ExpMxC= 8.25D+02 IAcc=3 IRadAn=         5 AccDes= 0.00D+00
 Harris functional with IExCor=  402 and IRadAn=       5 diagonalized for initial guess.
 HarFok:  IExCor=  402 AccDes= 0.00D+00 IRadAn=         5 IDoV= 1 UseB2=F ITyADJ=14
 ICtDFT=  3500011 ScaDFX=  1.000000  1.000000  1.000000  1.000000
 FoFCou: FMM=F IPFlag=           0 FMFlag=      100000 FMFlg1=           0
         NFxFlg=           0 DoJE=T BraDBF=F KetDBF=T FulRan=T
         wScrn=  0.000000 ICntrl=       500 IOpCl=  0 I1Cent=   200000004 NGrid=           0
         NMat0=    1 NMatS0=      1 NMatT0=    0 NMatD0=    1 NMtDS0=    0 NMtDT0=    0
 Symmetry not used in FoFCou.
 Requested convergence on RMS density matrix=1.00D-08 within 128 cycles.
 Requested convergence on MAX density matrix=1.00D-06.
 Requested convergence on             energy=1.00D-06.
 No special actions if energy rises.
 SCF Done:  E(RB3LYP) =  -346.789203758     A.U. after   13 cycles
            NFock= 13  Conv=0.32D-08     -V/T= 2.0101

 **********************************************************************

            Population analysis using the SCF Density.

 **********************************************************************

 Alpha  occ. eigenvalues --  -19.17052 -10.24990 -10.24191 -10.20225 -10.20221
 Alpha  occ. eigenvalues --  -10.19835 -10.19812 -10.19811  -1.03772  -0.85610
 Alpha  occ. eigenvalues --   -0.75451  -0.75222  -0.69178  -0.61736  -0.59575
 Alpha  occ. eigenvalues --   -0.52979  -0.48905  -0.47426  -0.45560  -0.44786
 Alpha  occ. eigenvalues --   -0.43607  -0.42855  -0.38385  -0.36752  -0.36011
 Alpha  occ. eigenvalues --   -0.34217  -0.27836  -0.25999  -0.24785
 Alpha virt. eigenvalues --   -0.01766  -0.01328   0.00549   0.01854   0.02487
 Alpha virt. eigenvalues --    0.03384   0.04360   0.04637   0.04937   0.06617
 Alpha virt. eigenvalues --    0.07412   0.07727   0.09134   0.09297   0.11304
 Alpha virt. eigenvalues --    0.12310   0.12556   0.12835   0.13263   0.14787
 Alpha virt. eigenvalues --    0.15105   0.15791   0.16160   0.16263   0.17994
 Alpha virt. eigenvalues --    0.18723   0.18727   0.20296   0.20427   0.21246
 Alpha virt. eigenvalues --    0.22051   0.22876   0.24087   0.24357   0.24706
 Alpha virt. eigenvalues --    0.25624   0.26059   0.27453   0.28205   0.28604
 Alpha virt. eigenvalues --    0.31201   0.33102   0.34530   0.35082   0.36324
 Alpha virt. eigenvalues --    0.37807   0.38061   0.38363   0.40734   0.56914
 Alpha virt. eigenvalues --    0.59900   0.61356   0.63964   0.66689   0.67978
 Alpha virt. eigenvalues --    0.68992   0.71671   0.72495   0.72827   0.74017
 Alpha virt. eigenvalues --    0.74478   0.77492   0.78978   0.80229   0.81090
 Alpha virt. eigenvalues --    0.82868   0.88564   0.91907   0.93036   0.93562
 Alpha virt. eigenvalues --    0.95320   0.96427   0.96937   0.99969   1.03422
 Alpha virt. eigenvalues --    1.06340   1.07823   1.09430   1.13644   1.15045
 Alpha virt. eigenvalues --    1.16136   1.22763   1.24080   1.24483   1.26647
 Alpha virt. eigenvalues --    1.29976   1.38395   1.38464   1.41879   1.43293
 Alpha virt. eigenvalues --    1.46179   1.47835   1.50054   1.51938   1.53843
 Alpha virt. eigenvalues --    1.59201   1.69651   1.77467   1.80322   1.84453
 Alpha virt. eigenvalues --    1.88151   1.94399   1.95792   1.98231   1.99394
 Alpha virt. eigenvalues --    2.02792   2.08195   2.10479   2.11339   2.13306
 Alpha virt. eigenvalues --    2.16492   2.16923   2.23518   2.25799   2.28430
 Alpha virt. eigenvalues --    2.29540   2.29981   2.39129   2.52225   2.56620
 Alpha virt. eigenvalues --    2.60243   2.64561   2.65785   2.71806   2.74509
 Alpha virt. eigenvalues --    2.78482   2.83008   2.83302   3.05719   3.09113
 Alpha virt. eigenvalues --    3.40660   4.22121   4.23701   4.27782   4.31303
 Alpha virt. eigenvalues --    4.34909   4.37774   4.47321   4.75785
          Condensed to atoms (all electrons):
               1          2          3          4          5          6
     1  C    5.273981  -0.116110   0.271364   0.173242  -0.092062   0.454468
     2  C   -0.116110   7.763109  -0.363655  -1.608816   0.173227   0.000558
     3  C    0.271364  -0.363655   6.267715  -0.362814   0.271150  -0.149340
     4  C    0.173242  -1.608816  -0.362814   7.762173  -0.115830   0.000191
     5  C   -0.092062   0.173227   0.271150  -0.115830   5.273842   0.454567
     6  C    0.454468   0.000558  -0.149340   0.000191   0.454567   5.084275
     7  H    0.289557  -0.000594   0.006161  -0.021116   0.016067   0.004266
     8  H   -0.026564   0.283286   0.005591   0.030127  -0.010310   0.008764
     9  H   -0.010309   0.030112   0.005558   0.283312  -0.026549   0.008766
    10  H    0.016069  -0.021119   0.006162  -0.000590   0.289555   0.004261
    11  H    0.003233   0.003988  -0.004873   0.003990   0.003235   0.284392
    12  O    0.042212  -0.229013   0.483584  -0.228960   0.042211  -0.005059
    13  C   -0.040884   0.100139  -0.383938   0.100227  -0.040882   0.028796
    14  H    0.008888  -0.034767   0.004851   0.036162  -0.013185  -0.001045
    15  H   -0.001370   0.005718  -0.003882   0.005729  -0.001368   0.000317
    16  H   -0.013181   0.036196   0.004823  -0.034764   0.008884  -0.001040
               7          8          9         10         11         12
     1  C    0.289557  -0.026564  -0.010309   0.016069   0.003233   0.042212
     2  C   -0.000594   0.283286   0.030112  -0.021119   0.003988  -0.229013
     3  C    0.006161   0.005591   0.005558   0.006162  -0.004873   0.483584
     4  C   -0.021116   0.030127   0.283312  -0.000590   0.003990  -0.228960
     5  C    0.016067  -0.010310  -0.026549   0.289555   0.003235   0.042211
     6  C    0.004266   0.008764   0.008766   0.004261   0.284392  -0.005059
     7  H    0.535002  -0.004780   0.000014  -0.000168  -0.004809  -0.000620
     8  H   -0.004780   0.529214  -0.000145   0.000014  -0.000138  -0.004290
     9  H    0.000014  -0.000145   0.529219  -0.004780  -0.000138  -0.004289
    10  H   -0.000168   0.000014  -0.004780   0.535002  -0.004809  -0.000620
    11  H   -0.004809  -0.000138  -0.000138  -0.004809   0.538354   0.000052
    12  O   -0.000620  -0.004290  -0.004289  -0.000620   0.000052   8.339847
    13  C   -0.000129   0.000627   0.000626  -0.000129  -0.000060   0.126406
    14  H    0.000000   0.000031   0.000156   0.000006   0.000000  -0.048056
    15  H    0.000000  -0.000058  -0.000058   0.000000   0.000000  -0.048287
    16  H    0.000006   0.000155   0.000031   0.000000   0.000000  -0.048062
              13         14         15         16
     1  C   -0.040884   0.008888  -0.001370  -0.013181
     2  C    0.100139  -0.034767   0.005718   0.036196
     3  C   -0.383938   0.004851  -0.003882   0.004823
     4  C    0.100227   0.036162   0.005729  -0.034764
     5  C   -0.040882  -0.013185  -0.001368   0.008884
     6  C    0.028796  -0.001045   0.000317  -0.001040
     7  H   -0.000129   0.000000   0.000000   0.000006
     8  H    0.000627   0.000031  -0.000058   0.000155
     9  H    0.000626   0.000156  -0.000058   0.000031
    10  H   -0.000129   0.000006   0.000000   0.000000
    11  H   -0.000060   0.000000   0.000000   0.000000
    12  O    0.126406  -0.048056  -0.048287  -0.048062
    13  C    5.299900   0.383621   0.391712   0.383611
    14  H    0.383621   0.541525  -0.029758  -0.043799
    15  H    0.391712  -0.029758   0.506733  -0.029758
    16  H    0.383611  -0.043799  -0.029758   0.541522
 Mulliken charges:
               1
     1  C   -0.232533
     2  C   -0.022259
     3  C   -0.058457
     4  C   -0.022262
     5  C   -0.232554
     6  C   -0.177137
     7  H    0.181146
     8  H    0.188478
     9  H    0.188474
    10  H    0.181146
    11  H    0.177582
    12  O   -0.417056
    13  C   -0.349645
    14  H    0.195370
    15  H    0.204331
    16  H    0.195376
 Sum of Mulliken charges =   0.00000
 Mulliken charges with hydrogens summed into heavy atoms:
               1
     1  C   -0.051387
     2  C    0.166219
     3  C   -0.058457
     4  C    0.166212
     5  C   -0.051408
     6  C    0.000445
    12  O   -0.417056
    13  C    0.245432
 Electronic spatial extent (au):  <R**2>=           1388.5854
 Charge=              0.0000 electrons
 Dipole moment (field-independent basis, Debye):
    X=             -0.3573    Y=             -0.0007    Z=             -1.4848  Tot=              1.5272
 Quadrupole moment (field-independent basis, Debye-Ang):
   XX=            -44.9398   YY=            -43.6117   ZZ=            -50.1515
   XY=             -0.1818   XZ=             -6.3890   YZ=             -0.7469
 Traceless Quadrupole moment (field-independent basis, Debye-Ang):
   XX=              1.2945   YY=              2.6226   ZZ=             -3.9172
   XY=             -0.1818   XZ=             -6.3890   YZ=             -0.7469
 Octapole moment (field-independent basis, Debye-Ang**2):
  XXX=           -163.5530  YYY=            -65.4171  ZZZ=             31.3079  XYY=            -56.0295
  XXY=            -22.4818  XXZ=            -12.8289  XZZ=            -51.8799  YZZ=            -25.0782
  YYZ=             10.3608  XYZ=             -3.1924
 Hexadecapole moment (field-independent basis, Debye-Ang**3):
 XXXX=          -1211.3824 YYYY=           -361.8453 ZZZZ=           -160.1678 XXXY=            -81.7581
 XXXZ=             36.5197 YYYX=            -83.8869 YYYZ=             15.9453 ZZZX=            123.4099
 ZZZY=             15.7262 XXYY=           -276.0147 XXZZ=           -227.0370 YYZZ=            -98.9522
 XXYZ=             -6.3899 YYXZ=             39.6853 ZZXY=            -25.9193
 N-N= 3.425399392937D+02 E-N=-1.490256615474D+03  KE= 3.433066968983D+02
 Evaluate density.
 Using the total density.
 Monte-Carlo method of calculating molar volume:
 based on  0.001 e/bohr**3 density envelope.
 Number of points per bohr**3 =   20 CutOff= 1.00D-04
 Using the SCF density.
 There are       365 points.  Will hold       365 in memory.
 LenV=  4026440668 MDV=  4026531840.
 Box volume = 6123.017 fraction occupied=0.162
 Integrated density= 2.4559448554941054D+02 error= 1.8759448554941054D+02
 Molar volume =  989.748 bohr**3/mol ( 88.324 cm**3/mol)
 Recommended a0 for SCRF calculation =  4.10 angstrom (  7.75 bohr)
 Calling FoFJK, ICntrl=      2127 FMM=F ISym2X=0 I1Cent= 0 IOpClX= 0 NMat=1 NMatS=1 NMatT=0.
 -------------------------------------------------------------------
 Center     Atomic                   Forces (Hartrees/Bohr)
 Number     Number              X              Y              Z
 -------------------------------------------------------------------
      1        6           0.001115850    0.002897375   -0.000151853
      2        6          -0.000702637    0.002628281    0.000454933
      3        6           0.015135036   -0.000000655   -0.003888140
      4        6          -0.000697634   -0.002628329    0.000457796
      5        6           0.001109647   -0.002901561   -0.000148990
      6        6           0.002630614    0.000003737    0.000028595
      7        1          -0.000454408   -0.000980890    0.000039508
      8        1           0.000539804   -0.001111118   -0.000138752
      9        1           0.000538139    0.001110090   -0.000139918
     10        1          -0.000453163    0.000981141    0.000038496
     11        1          -0.001089639   -0.000000332    0.000056563
     12        8          -0.007448448   -0.000006877   -0.012737290
     13        6          -0.009975590    0.000007714    0.013537883
     14        1          -0.000542185    0.000633338    0.000907410
     15        1           0.000837037    0.000000401    0.000775502
     16        1          -0.000542422   -0.000632313    0.000908256
 -------------------------------------------------------------------
 Cartesian Forces:  Max     0.015135036 RMS     0.004075121

 GradGradGradGradGradGradGradGradGradGradGradGradGradGradGradGradGradGrad
 Berny optimization.
 FormGI is forming the generalized inverse of G from B-inverse, IUseBI=4.
 Internal  Forces:  Max     0.018933941 RMS     0.003309488
 Search for a local minimum.
 Step number   1 out of a maximum of   80
 All quantities printed in internal units (Hartrees-Bohrs-Radians)
 Mixed Optimization -- RFO/linear search
 Second derivative matrix not updated -- first step.
 ITU=  0
     Eigenvalues ---    0.00857   0.01582   0.02013   0.02075   0.02080
     Eigenvalues ---    0.02084   0.02087   0.02093   0.02100   0.02101
     Eigenvalues ---    0.02104   0.09931   0.10466   0.15997   0.15998
     Eigenvalues ---    0.16000   0.16000   0.16000   0.16000   0.16000
     Eigenvalues ---    0.16000   0.22000   0.22000   0.23490   0.24987
     Eigenvalues ---    0.25000   0.33973   0.33973   0.34790   0.35337
     Eigenvalues ---    0.35337   0.35377   0.35460   0.35460   0.36578
     Eigenvalues ---    0.41527   0.41618   0.44272   0.45493   0.45639
     Eigenvalues ---    0.45711   0.45801
 RFO step:  Lambda=-2.03917028D-03 EMin= 8.57020254D-03
 Linear search not attempted -- first point.
 Iteration  1 RMS(Cart)=  0.03036502 RMS(Int)=  0.00016420
 Iteration  2 RMS(Cart)=  0.00020536 RMS(Int)=  0.00000837
 Iteration  3 RMS(Cart)=  0.00000007 RMS(Int)=  0.00000837
 Variable       Old X    -DE/DX   Delta X   Delta X   Delta X     New X
                                 (Linear)    (Quad)   (Total)
    R1        2.64460  -0.00143   0.00000  -0.00312  -0.00312   2.64148
    R2        2.64764  -0.00189   0.00000  -0.00413  -0.00413   2.64351
    R3        2.05131   0.00108   0.00000   0.00303   0.00303   2.05434
    R4        2.64333  -0.00210   0.00000  -0.00456  -0.00456   2.63876
    R5        2.04934   0.00123   0.00000   0.00345   0.00345   2.05279
    R6        2.64334  -0.00210   0.00000  -0.00457  -0.00457   2.63877
    R7        2.66131  -0.01768   0.00000  -0.03975  -0.03975   2.62156
    R8        2.64458  -0.00143   0.00000  -0.00311  -0.00311   2.64147
    R9        2.04935   0.00123   0.00000   0.00344   0.00344   2.05279
   R10        2.64766  -0.00189   0.00000  -0.00414  -0.00414   2.64352
   R11        2.05131   0.00108   0.00000   0.00303   0.00303   2.05434
   R12        2.05067   0.00109   0.00000   0.00307   0.00307   2.05374
   R13        2.76487  -0.01893   0.00000  -0.05148  -0.05148   2.71339
   R14        2.07375   0.00019   0.00000   0.00055   0.00055   2.07431
   R15        2.06017   0.00095   0.00000   0.00271   0.00271   2.06289
   R16        2.07375   0.00019   0.00000   0.00055   0.00055   2.07431
    A1        2.09806   0.00018   0.00000   0.00085   0.00085   2.09890
    A2        2.08995  -0.00018   0.00000  -0.00102  -0.00102   2.08893
    A3        2.09517   0.00001   0.00000   0.00017   0.00017   2.09535
    A4        2.08421  -0.00016   0.00000  -0.00070  -0.00069   2.08351
    A5        2.12028  -0.00004   0.00000  -0.00035  -0.00036   2.11993
    A6        2.07856   0.00020   0.00000   0.00109   0.00108   2.07964
    A7        2.10928   0.00022   0.00000   0.00078   0.00076   2.11004
    A8        2.08673  -0.00012   0.00000  -0.00056  -0.00059   2.08614
    A9        2.08673  -0.00011   0.00000  -0.00055  -0.00058   2.08615
   A10        2.08421  -0.00016   0.00000  -0.00070  -0.00069   2.08352
   A11        2.07855   0.00020   0.00000   0.00110   0.00109   2.07964
   A12        2.12029  -0.00004   0.00000  -0.00036  -0.00036   2.11993
   A13        2.09806   0.00018   0.00000   0.00085   0.00085   2.09890
   A14        2.08996  -0.00019   0.00000  -0.00103  -0.00103   2.08893
   A15        2.09516   0.00001   0.00000   0.00018   0.00018   2.09534
   A16        2.09255  -0.00025   0.00000  -0.00106  -0.00106   2.09148
   A17        2.09531   0.00013   0.00000   0.00053   0.00053   2.09584
   A18        2.09530   0.00013   0.00000   0.00053   0.00054   2.09584
   A19        2.00716  -0.00775   0.00000  -0.03077  -0.03077   1.97639
   A20        1.93657  -0.00134   0.00000  -0.00827  -0.00829   1.92828
   A21        1.84693  -0.00047   0.00000  -0.00288  -0.00290   1.84403
   A22        1.93657  -0.00134   0.00000  -0.00827  -0.00830   1.92827
   A23        1.91901   0.00084   0.00000   0.00522   0.00520   1.92422
   A24        1.90525   0.00143   0.00000   0.00878   0.00875   1.91400
   A25        1.91901   0.00084   0.00000   0.00522   0.00521   1.92422
    D1        0.00387  -0.00006   0.00000  -0.00266  -0.00266   0.00121
    D2        3.12762   0.00000   0.00000  -0.00020  -0.00020   3.12742
    D3       -3.13454  -0.00002   0.00000  -0.00092  -0.00092  -3.13545
    D4       -0.01079   0.00004   0.00000   0.00155   0.00154  -0.00924
    D5       -0.00548   0.00004   0.00000   0.00154   0.00154  -0.00393
    D6       -3.14014   0.00003   0.00000   0.00124   0.00124  -3.13890
    D7        3.13292   0.00000   0.00000  -0.00021  -0.00021   3.13271
    D8       -0.00174  -0.00001   0.00000  -0.00051  -0.00051  -0.00225
    D9       -0.00228   0.00008   0.00000   0.00384   0.00384   0.00155
   D10        3.10719  -0.00019   0.00000  -0.00844  -0.00844   3.09875
   D11       -3.12647   0.00003   0.00000   0.00145   0.00145  -3.12502
   D12       -0.01699  -0.00024   0.00000  -0.01083  -0.01083  -0.02782
   D13        0.00228  -0.00008   0.00000  -0.00384  -0.00384  -0.00156
   D14        3.12647  -0.00003   0.00000  -0.00145  -0.00145   3.12501
   D15       -3.10719   0.00019   0.00000   0.00843   0.00843  -3.09876
   D16        0.01699   0.00024   0.00000   0.01082   0.01082   0.02781
   D17        1.58684   0.00013   0.00000   0.00607   0.00607   1.59291
   D18       -1.58645  -0.00013   0.00000  -0.00602  -0.00601  -1.59246
   D19       -0.00387   0.00006   0.00000   0.00267   0.00267  -0.00120
   D20        3.13454   0.00002   0.00000   0.00091   0.00091   3.13546
   D21       -3.12762   0.00000   0.00000   0.00021   0.00021  -3.12741
   D22        0.01079  -0.00004   0.00000  -0.00155  -0.00155   0.00924
   D23        0.00548  -0.00004   0.00000  -0.00155  -0.00155   0.00393
   D24        3.14014  -0.00003   0.00000  -0.00124  -0.00124   3.13889
   D25       -3.13293   0.00000   0.00000   0.00022   0.00022  -3.13271
   D26        0.00173   0.00001   0.00000   0.00052   0.00052   0.00226
   D27        1.06062  -0.00001   0.00000  -0.00008  -0.00007   1.06055
   D28        3.14157   0.00000   0.00000   0.00000   0.00000   3.14157
   D29       -1.06066   0.00001   0.00000   0.00008   0.00007  -1.06059
         Item               Value     Threshold  Converged?
 Maximum Force            0.018934     0.000450     NO 
 RMS     Force            0.003309     0.000300     NO 
 Maximum Displacement     0.113650     0.001800     NO 
 RMS     Displacement     0.030295     0.001200     NO 
 Predicted change in Energy=-1.025833D-03
 GradGradGradGradGradGradGradGradGradGradGradGradGradGradGradGradGradGrad

                          Input orientation:                          
 ---------------------------------------------------------------------
 Center     Atomic      Atomic             Coordinates (Angstroms)
 Number     Number       Type             X           Y           Z
 ---------------------------------------------------------------------
      1          6           0       -0.281403   -0.710186    0.013860
      2          6           0        1.115759   -0.714612   -0.028462
      3          6           0        1.804227    0.500033   -0.051073
      4          6           0        1.115974    1.714834   -0.030115
      5          6           0       -0.281185    1.710718    0.012206
      6          6           0       -0.982247    0.500340    0.031883
      7          1           0       -0.822323   -1.652873    0.037407
      8          1           0        1.680022   -1.642854   -0.029961
      9          1           0        1.680406    2.642971   -0.032871
     10          1           0       -0.821941    2.653530    0.034471
     11          1           0       -2.068460    0.500464    0.067329
     12          8           0        3.191461    0.499907   -0.041381
     13          6           0        3.767213    0.499250   -1.356759
     14          1           0        3.461243    1.396329   -1.910407
     15          1           0        4.848263    0.499240   -1.205130
     16          1           0        3.461106   -0.398303   -1.909563
 ---------------------------------------------------------------------
                    Distance matrix (angstroms):
                    1          2          3          4          5
     1  C    0.000000
     2  C    1.397810   0.000000
     3  C    2.412198   1.396374   0.000000
     4  C    2.799163   2.429446   1.396379   0.000000
     5  C    2.420904   2.799166   2.412199   1.397806   0.000000
     6  C    1.398885   2.425155   2.787708   2.425154   1.398889
     7  H    1.087110   2.154260   3.397293   3.886258   3.406935
     8  H    2.172321   1.086291   2.146587   3.404735   3.885171
     9  H    3.885169   3.404733   2.146590   1.086292   2.172319
    10  H    3.406933   3.886261   3.397297   2.154260   1.087110
    11  H    2.159190   3.409521   3.874496   3.409517   2.159191
    12  O    3.678065   2.404945   1.387268   2.404958   3.678071
    13  C    4.442141   3.204378   2.357568   3.204168   4.441986
    14  H    4.706124   3.674109   2.646917   3.022785   4.219128
    15  H    5.409447   4.097507   3.255457   4.097354   5.409327
    16  H    4.219384   3.023118   2.646930   3.673869   4.705944
                    6          7          8          9         10
     6  C    0.000000
     7  H    2.159150   0.000000
     8  H    3.418301   2.503272   0.000000
     9  H    3.418301   4.972210   4.285826   0.000000
    10  H    2.159151   4.306404   4.972212   2.503275   0.000000
    11  H    1.086791   2.488094   4.319073   4.319071   2.488088
    12  O    4.174351   4.555341   2.622214   2.622229   4.555353
    13  C    4.948302   5.257297   3.271906   3.271541   5.257069
    14  H    4.931520   5.607187   3.993176   2.872392   4.869165
    15  H    5.960289   6.191206   4.000917   4.000636   6.191025
    16  H    4.931547   4.869538   2.872990   3.992770   5.606910
                   11         12         13         14         15
    11  H    0.000000
    12  O    5.261044   0.000000
    13  C    6.006921   1.435865   0.000000
    14  H    5.940675   2.090362   1.097677   0.000000
    15  H    7.032795   2.024674   1.091632   1.796109   0.000000
    16  H    5.940705   2.090358   1.097677   1.794632   1.796111
                   16
    16  H    0.000000
 Symmetry turned off by external request.
 Stoichiometry    C7H8O
 Framework group  C1[X(C7H8O)]
 Deg. of freedom    42
 Full point group                 C1      NOp   1
 Rotational constants (GHZ):           4.7746194           1.5512499           1.2585854
 Standard basis: 6-31+G(d) (6D, 7F)
   168 basis functions,   288 primitive gaussians,   168 cartesian basis functions
    29 alpha electrons       29 beta electrons
       nuclear repulsion energy       344.7564202865 Hartrees.
 NAtoms=   16 NActive=   16 NUniq=   16 SFac= 1.00D+00 NAtFMM=   60 NAOKFM=F Big=F
 Integral buffers will be    131072 words long.
 Raffenetti 2 integral format.
 Two-electron integral symmetry is turned off.
 Nuclear repulsion after empirical dispersion term =      344.7468543141 Hartrees.
 One-electron integrals computed using PRISM.
 NBasis=   168 RedAO= T EigKep=  5.19D-06  NBF=   168
 NBsUse=   168 1.00D-06 EigRej= -1.00D+00 NBFU=   168
 Initial guess from the checkpoint file:  "MOLECULE_27.chk"
 B after Tr=     0.009687   -0.000009   -0.006203
         Rot=    1.000000    0.000001    0.000618    0.000000 Ang=   0.07 deg.
 ExpMin= 4.38D-02 ExpMax= 5.48D+03 ExpMxC= 8.25D+02 IAcc=3 IRadAn=         5 AccDes= 0.00D+00
 Harris functional with IExCor=  402 and IRadAn=       5 diagonalized for initial guess.
 HarFok:  IExCor=  402 AccDes= 0.00D+00 IRadAn=         5 IDoV= 1 UseB2=F ITyADJ=14
 ICtDFT=  3500011 ScaDFX=  1.000000  1.000000  1.000000  1.000000
 FoFCou: FMM=F IPFlag=           0 FMFlag=      100000 FMFlg1=           0
         NFxFlg=           0 DoJE=T BraDBF=F KetDBF=T FulRan=T
         wScrn=  0.000000 ICntrl=       500 IOpCl=  0 I1Cent=   200000004 NGrid=           0
         NMat0=    1 NMatS0=      1 NMatT0=    0 NMatD0=    1 NMtDS0=    0 NMtDT0=    0
 Symmetry not used in FoFCou.
 Requested convergence on RMS density matrix=1.00D-08 within 128 cycles.
 Requested convergence on MAX density matrix=1.00D-06.
 Requested convergence on             energy=1.00D-06.
 No special actions if energy rises.
 SCF Done:  E(RB3LYP) =  -346.790215175     A.U. after   11 cycles
            NFock= 11  Conv=0.46D-08     -V/T= 2.0098
 Calling FoFJK, ICntrl=      2127 FMM=F ISym2X=0 I1Cent= 0 IOpClX= 0 NMat=1 NMatS=1 NMatT=0.
 -------------------------------------------------------------------
 Center     Atomic                   Forces (Hartrees/Bohr)
 Number     Number              X              Y              Z
 -------------------------------------------------------------------
      1        6          -0.000088070   -0.000242110   -0.000216163
      2        6          -0.001359714   -0.000110194   -0.000036263
      3        6           0.004527458    0.000002227    0.002005275
      4        6          -0.001357288    0.000109206   -0.000037130
      5        6          -0.000090313    0.000240144   -0.000216305
      6        6          -0.000169599    0.000001507    0.000022677
      7        1          -0.000039940   -0.000046329    0.000038531
      8        1           0.000012989   -0.000031791    0.000066492
      9        1           0.000012433    0.000032248    0.000066512
     10        1          -0.000039542    0.000046664    0.000038413
     11        1           0.000009142   -0.000000198    0.000036174
     12        8          -0.002514240   -0.000002455   -0.003431999
     13        6          -0.000876184    0.000003334    0.005870835
     14        1           0.000608849    0.000099339   -0.001219543
     15        1           0.000755397   -0.000000857   -0.001768131
     16        1           0.000608621   -0.000100735   -0.001219376
 -------------------------------------------------------------------
 Cartesian Forces:  Max     0.005870835 RMS     0.001363830

 GradGradGradGradGradGradGradGradGradGradGradGradGradGradGradGradGradGrad
 Berny optimization.
 Using GEDIIS/GDIIS optimizer.
 FormGI is forming the generalized inverse of G from B-inverse, IUseBI=4.
 Internal  Forces:  Max     0.003401494 RMS     0.000731549
 Search for a local minimum.
 Step number   2 out of a maximum of   80
 All quantities printed in internal units (Hartrees-Bohrs-Radians)
 Mixed Optimization -- En-DIIS/RFO-DIIS
 Update second derivatives using D2CorX and points    1    2
 DE= -1.01D-03 DEPred=-1.03D-03 R= 9.86D-01
 TightC=F SS=  1.41D+00  RLast= 7.83D-02 DXNew= 5.0454D-01 2.3489D-01
 Trust test= 9.86D-01 RLast= 7.83D-02 DXMaxT set to 3.00D-01
 ITU=  1  0
 Use linear search instead of GDIIS.
     Eigenvalues ---    0.00857   0.01582   0.02029   0.02075   0.02080
     Eigenvalues ---    0.02084   0.02087   0.02093   0.02100   0.02101
     Eigenvalues ---    0.02109   0.10018   0.10519   0.15848   0.15998
     Eigenvalues ---    0.15998   0.16000   0.16000   0.16000   0.16000
     Eigenvalues ---    0.16434   0.22000   0.22002   0.23253   0.24976
     Eigenvalues ---    0.26714   0.33543   0.33973   0.34615   0.35336
     Eigenvalues ---    0.35337   0.35381   0.35460   0.35468   0.35916
     Eigenvalues ---    0.41488   0.41515   0.43029   0.45493   0.45702
     Eigenvalues ---    0.45801   0.46738
 RFO step:  Lambda=-1.69067784D-04 EMin= 8.57020254D-03
 Quartic linear search produced a step of -0.03032.
 Iteration  1 RMS(Cart)=  0.00465030 RMS(Int)=  0.00002419
 Iteration  2 RMS(Cart)=  0.00002698 RMS(Int)=  0.00001354
 Iteration  3 RMS(Cart)=  0.00000000 RMS(Int)=  0.00001354
 Variable       Old X    -DE/DX   Delta X   Delta X   Delta X     New X
                                 (Linear)    (Quad)   (Total)
    R1        2.64148   0.00020   0.00009   0.00007   0.00016   2.64164
    R2        2.64351   0.00002   0.00013  -0.00051  -0.00038   2.64312
    R3        2.05434   0.00006  -0.00009   0.00052   0.00043   2.05477
    R4        2.63876   0.00116   0.00014   0.00200   0.00214   2.64090
    R5        2.05279   0.00003  -0.00010   0.00049   0.00039   2.05318
    R6        2.63877   0.00116   0.00014   0.00199   0.00214   2.64091
    R7        2.62156  -0.00143   0.00121  -0.00773  -0.00653   2.61503
    R8        2.64147   0.00020   0.00009   0.00007   0.00017   2.64164
    R9        2.05279   0.00003  -0.00010   0.00049   0.00039   2.05318
   R10        2.64352   0.00002   0.00013  -0.00051  -0.00039   2.64313
   R11        2.05434   0.00006  -0.00009   0.00052   0.00043   2.05477
   R12        2.05374  -0.00001  -0.00009   0.00034   0.00024   2.05398
   R13        2.71339  -0.00109   0.00156  -0.00886  -0.00730   2.70609
   R14        2.07431   0.00053  -0.00002   0.00157   0.00155   2.07586
   R15        2.06289   0.00050  -0.00008   0.00172   0.00163   2.06452
   R16        2.07431   0.00053  -0.00002   0.00157   0.00155   2.07586
    A1        2.09890   0.00008  -0.00003   0.00019   0.00017   2.09907
    A2        2.08893  -0.00003   0.00003  -0.00009  -0.00006   2.08886
    A3        2.09535  -0.00005  -0.00001  -0.00011  -0.00011   2.09523
    A4        2.08351   0.00063   0.00002   0.00268   0.00271   2.08622
    A5        2.11993  -0.00032   0.00001  -0.00145  -0.00145   2.11848
    A6        2.07964  -0.00031  -0.00003  -0.00120  -0.00124   2.07840
    A7        2.11004  -0.00136  -0.00002  -0.00496  -0.00499   2.10506
    A8        2.08614   0.00069   0.00002   0.00266   0.00266   2.08880
    A9        2.08615   0.00069   0.00002   0.00266   0.00266   2.08882
   A10        2.08352   0.00063   0.00002   0.00268   0.00271   2.08622
   A11        2.07964  -0.00031  -0.00003  -0.00120  -0.00123   2.07841
   A12        2.11993  -0.00032   0.00001  -0.00146  -0.00145   2.11848
   A13        2.09890   0.00008  -0.00003   0.00019   0.00017   2.09907
   A14        2.08893  -0.00003   0.00003  -0.00010  -0.00007   2.08887
   A15        2.09534  -0.00005  -0.00001  -0.00010  -0.00011   2.09523
   A16        2.09148  -0.00006   0.00003  -0.00078  -0.00075   2.09073
   A17        2.09584   0.00003  -0.00002   0.00039   0.00038   2.09622
   A18        2.09584   0.00003  -0.00002   0.00039   0.00038   2.09622
   A19        1.97639   0.00340   0.00093   0.00958   0.01051   1.98690
   A20        1.92828   0.00119   0.00025   0.00612   0.00633   1.93461
   A21        1.84403   0.00226   0.00009   0.01349   0.01353   1.85756
   A22        1.92827   0.00118   0.00025   0.00611   0.00633   1.93460
   A23        1.92422  -0.00159  -0.00016  -0.00889  -0.00909   1.91512
   A24        1.91400  -0.00134  -0.00027  -0.00734  -0.00763   1.90637
   A25        1.92422  -0.00159  -0.00016  -0.00889  -0.00909   1.91513
    D1        0.00121  -0.00001   0.00008  -0.00100  -0.00092   0.00029
    D2        3.12742   0.00002   0.00001   0.00072   0.00073   3.12815
    D3       -3.13545   0.00002   0.00003   0.00069   0.00071  -3.13474
    D4       -0.00924   0.00005  -0.00005   0.00241   0.00237  -0.00688
    D5       -0.00393   0.00003  -0.00005   0.00169   0.00164  -0.00229
    D6       -3.13890   0.00003  -0.00004   0.00163   0.00160  -3.13730
    D7        3.13271   0.00000   0.00001  -0.00001   0.00000   3.13271
    D8       -0.00225   0.00000   0.00002  -0.00006  -0.00005  -0.00230
    D9        0.00155  -0.00001  -0.00012   0.00031   0.00020   0.00175
   D10        3.09875   0.00024   0.00026   0.00993   0.01018   3.10893
   D11       -3.12502  -0.00003  -0.00004  -0.00137  -0.00141  -3.12643
   D12       -0.02782   0.00022   0.00033   0.00825   0.00857  -0.01925
   D13       -0.00156   0.00001   0.00012  -0.00031  -0.00020  -0.00176
   D14        3.12501   0.00003   0.00004   0.00137   0.00141   3.12642
   D15       -3.09876  -0.00024  -0.00026  -0.00993  -0.01018  -3.10894
   D16        0.02781  -0.00022  -0.00033  -0.00825  -0.00857   0.01924
   D17        1.59291  -0.00010  -0.00018  -0.00461  -0.00482   1.58809
   D18       -1.59246   0.00010   0.00018   0.00468   0.00488  -1.58759
   D19       -0.00120   0.00001  -0.00008   0.00100   0.00092  -0.00028
   D20        3.13546  -0.00002  -0.00003  -0.00069  -0.00071   3.13474
   D21       -3.12741  -0.00002  -0.00001  -0.00072  -0.00073  -3.12814
   D22        0.00924  -0.00005   0.00005  -0.00241  -0.00236   0.00688
   D23        0.00393  -0.00003   0.00005  -0.00169  -0.00164   0.00229
   D24        3.13889  -0.00003   0.00004  -0.00163  -0.00160   3.13730
   D25       -3.13271   0.00000  -0.00001   0.00001   0.00000  -3.13270
   D26        0.00226   0.00000  -0.00002   0.00006   0.00005   0.00231
   D27        1.06055  -0.00006   0.00000  -0.00054  -0.00056   1.05999
   D28        3.14157   0.00000   0.00000   0.00000   0.00000   3.14157
   D29       -1.06059   0.00006   0.00000   0.00054   0.00056  -1.06003
         Item               Value     Threshold  Converged?
 Maximum Force            0.003401     0.000450     NO 
 RMS     Force            0.000732     0.000300     NO 
 Maximum Displacement     0.014421     0.001800     NO 
 RMS     Displacement     0.004635     0.001200     NO 
 Predicted change in Energy=-8.591574D-05
 GradGradGradGradGradGradGradGradGradGradGradGradGradGradGradGradGradGrad

                          Input orientation:                          
 ---------------------------------------------------------------------
 Center     Atomic      Atomic             Coordinates (Angstroms)
 Number     Number       Type             X           Y           Z
 ---------------------------------------------------------------------
      1          6           0       -0.283416   -0.709747    0.014169
      2          6           0        1.113937   -0.713878   -0.024629
      3          6           0        1.806043    0.500027   -0.045732
      4          6           0        1.114160    1.714091   -0.026296
      5          6           0       -0.283191    1.710274    0.012501
      6          6           0       -0.984630    0.500339    0.031420
      7          1           0       -0.824226   -1.652773    0.037124
      8          1           0        1.677124   -1.643014   -0.026090
      9          1           0        1.677517    2.643122   -0.029024
     10          1           0       -0.823829    2.653429    0.034163
     11          1           0       -2.071011    0.500464    0.065625
     12          8           0        3.189857    0.499888   -0.044886
     13          6           0        3.769477    0.499260   -1.354339
     14          1           0        3.468850    1.394601   -1.915306
     15          1           0        4.852761    0.499231   -1.212761
     16          1           0        3.468695   -0.396529   -1.914506
 ---------------------------------------------------------------------
                    Distance matrix (angstroms):
                    1          2          3          4          5
     1  C    0.000000
     2  C    1.397897   0.000000
     3  C    2.415157   1.397505   0.000000
     4  C    2.798186   2.427969   1.397509   0.000000
     5  C    2.420022   2.798188   2.415158   1.397895   0.000000
     6  C    1.398681   2.425170   2.791740   2.425169   1.398684
     7  H    1.087337   2.154488   3.399961   3.885504   3.406378
     8  H    2.171709   1.086497   2.147006   3.403980   3.884439
     9  H    3.884437   3.403981   2.147010   1.086497   2.171705
    10  H    3.406377   3.885505   3.399963   2.154487   1.087337
    11  H    2.159342   3.409790   3.878653   3.409788   2.159343
    12  O    3.678359   2.404803   1.383814   2.404818   3.678368
    13  C    4.445273   3.208071   2.359560   3.207837   4.445101
    14  H    4.714940   3.683199   2.657160   3.035622   4.230119
    15  H    5.417315   4.106349   3.262584   4.106181   5.417186
    16  H    4.230393   3.035989   2.657168   3.682919   4.714724
                    6          7          8          9         10
     6  C    0.000000
     7  H    2.159087   0.000000
     8  H    3.417924   2.502168   0.000000
     9  H    3.417923   4.971701   4.286137   0.000000
    10  H    2.159088   4.306204   4.971702   2.502165   0.000000
    11  H    1.086919   2.488316   4.318730   4.318727   2.488315
    12  O    4.175184   4.555605   2.623117   2.623142   4.555619
    13  C    4.951955   5.260183   3.275901   3.275500   5.259928
    14  H    4.941956   5.615067   4.000816   2.885436   4.879772
    15  H    5.968511   6.198510   4.010247   4.009948   6.198312
    16  H    4.941974   4.880183   2.886099   4.000355   5.614741
                   11         12         13         14         15
    11  H    0.000000
    12  O    5.262029   0.000000
    13  C    6.010624   1.432001   0.000000
    14  H    5.950935   2.092085   1.098497   0.000000
    15  H    7.040803   2.032040   1.092497   1.791777   0.000000
    16  H    5.950954   2.092078   1.098497   1.791130   1.791779
                   16
    16  H    0.000000
 Symmetry turned off by external request.
 Stoichiometry    C7H8O
 Framework group  C1[X(C7H8O)]
 Deg. of freedom    42
 Full point group                 C1      NOp   1
 Rotational constants (GHZ):           4.7787846           1.5488671           1.2571940
 Standard basis: 6-31+G(d) (6D, 7F)
   168 basis functions,   288 primitive gaussians,   168 cartesian basis functions
    29 alpha electrons       29 beta electrons
       nuclear repulsion energy       344.7152783317 Hartrees.
 NAtoms=   16 NActive=   16 NUniq=   16 SFac= 1.00D+00 NAtFMM=   60 NAOKFM=F Big=F
 Integral buffers will be    131072 words long.
 Raffenetti 2 integral format.
 Two-electron integral symmetry is turned off.
 Nuclear repulsion after empirical dispersion term =      344.7057244630 Hartrees.
 One-electron integrals computed using PRISM.
 NBasis=   168 RedAO= T EigKep=  5.17D-06  NBF=   168
 NBsUse=   168 1.00D-06 EigRej= -1.00D+00 NBFU=   168
 Initial guess from the checkpoint file:  "MOLECULE_27.chk"
 B after Tr=    -0.001376   -0.000004    0.001524
         Rot=    1.000000    0.000000    0.000044    0.000000 Ang=   0.00 deg.
 Requested convergence on RMS density matrix=1.00D-08 within 128 cycles.
 Requested convergence on MAX density matrix=1.00D-06.
 Requested convergence on             energy=1.00D-06.
 No special actions if energy rises.
 SCF Done:  E(RB3LYP) =  -346.790318066     A.U. after   10 cycles
            NFock= 10  Conv=0.48D-08     -V/T= 2.0098
 Calling FoFJK, ICntrl=      2127 FMM=F ISym2X=0 I1Cent= 0 IOpClX= 0 NMat=1 NMatS=1 NMatT=0.
 -------------------------------------------------------------------
 Center     Atomic                   Forces (Hartrees/Bohr)
 Number     Number              X              Y              Z
 -------------------------------------------------------------------
      1        6           0.000072241   -0.000311769    0.000126494
      2        6          -0.000507075   -0.000162134   -0.000041811
      3        6           0.000948301    0.000001007    0.000314148
      4        6          -0.000506255    0.000161422   -0.000042502
      5        6           0.000071452    0.000311411    0.000126093
      6        6          -0.000279209    0.000000471   -0.000058109
      7        1           0.000092097    0.000064576   -0.000007342
      8        1          -0.000035440    0.000020630    0.000011227
      9        1          -0.000035632   -0.000020326    0.000011219
     10        1           0.000092181   -0.000064469   -0.000007323
     11        1           0.000094707   -0.000000092   -0.000033184
     12        8           0.000016223   -0.000001538   -0.001233081
     13        6          -0.000251809    0.000001271    0.001733451
     14        1           0.000096734    0.000148622   -0.000389955
     15        1           0.000034831   -0.000000034   -0.000119539
     16        1           0.000096652   -0.000149048   -0.000389787
 -------------------------------------------------------------------
 Cartesian Forces:  Max     0.001733451 RMS     0.000379024

 GradGradGradGradGradGradGradGradGradGradGradGradGradGradGradGradGradGrad
 Berny optimization.
 Using GEDIIS/GDIIS optimizer.
 FormGI is forming the generalized inverse of G from B-inverse, IUseBI=4.
 Internal  Forces:  Max     0.001259919 RMS     0.000228508
 Search for a local minimum.
 Step number   3 out of a maximum of   80
 All quantities printed in internal units (Hartrees-Bohrs-Radians)
 Mixed Optimization -- En-DIIS/RFO-DIIS
 Swapping is turned off.
 Update second derivatives using D2CorX and points    1    2    3
 DE= -1.03D-04 DEPred=-8.59D-05 R= 1.20D+00
 TightC=F SS=  1.41D+00  RLast= 3.47D-02 DXNew= 5.0454D-01 1.0410D-01
 Trust test= 1.20D+00 RLast= 3.47D-02 DXMaxT set to 3.00D-01
 ITU=  1  1  0
     Eigenvalues ---    0.00857   0.01582   0.02053   0.02075   0.02079
     Eigenvalues ---    0.02084   0.02089   0.02093   0.02101   0.02101
     Eigenvalues ---    0.02187   0.09948   0.10415   0.14104   0.15998
     Eigenvalues ---    0.15999   0.16000   0.16000   0.16000   0.16006
     Eigenvalues ---    0.16639   0.21491   0.22000   0.22003   0.24294
     Eigenvalues ---    0.24985   0.33352   0.33973   0.34682   0.35337
     Eigenvalues ---    0.35356   0.35405   0.35460   0.35483   0.35841
     Eigenvalues ---    0.41506   0.41730   0.43485   0.45493   0.45801
     Eigenvalues ---    0.45817   0.46424
 En-DIIS/RFO-DIIS/Sim-DIIS IScMMF=       -3 using points:     3    2
 RFO step:  Lambda=-2.04410837D-05.
 DidBck=F Rises=F RFO-DIIS coefs:    1.09693   -0.09693
 Iteration  1 RMS(Cart)=  0.00515969 RMS(Int)=  0.00001378
 Iteration  2 RMS(Cart)=  0.00001657 RMS(Int)=  0.00000228
 Iteration  3 RMS(Cart)=  0.00000000 RMS(Int)=  0.00000228
 Variable       Old X    -DE/DX   Delta X   Delta X   Delta X     New X
                                 (Linear)    (Quad)   (Total)
    R1        2.64164  -0.00007   0.00002  -0.00028  -0.00026   2.64138
    R2        2.64312   0.00019  -0.00004   0.00039   0.00035   2.64348
    R3        2.05477  -0.00010   0.00004  -0.00030  -0.00025   2.05451
    R4        2.64090   0.00043   0.00021   0.00101   0.00122   2.64212
    R5        2.05318  -0.00004   0.00004  -0.00005  -0.00001   2.05317
    R6        2.64091   0.00043   0.00021   0.00101   0.00121   2.64212
    R7        2.61503  -0.00001  -0.00063  -0.00085  -0.00148   2.61355
    R8        2.64164  -0.00007   0.00002  -0.00028  -0.00026   2.64138
    R9        2.05318  -0.00004   0.00004  -0.00005  -0.00001   2.05317
   R10        2.64313   0.00018  -0.00004   0.00039   0.00035   2.64348
   R11        2.05477  -0.00010   0.00004  -0.00030  -0.00025   2.05451
   R12        2.05398  -0.00010   0.00002  -0.00027  -0.00024   2.05374
   R13        2.70609  -0.00077  -0.00071  -0.00378  -0.00448   2.70160
   R14        2.07586   0.00029   0.00015   0.00104   0.00119   2.07705
   R15        2.06452   0.00002   0.00016   0.00009   0.00024   2.06476
   R16        2.07586   0.00029   0.00015   0.00104   0.00119   2.07705
    A1        2.09907   0.00001   0.00002  -0.00001   0.00001   2.09908
    A2        2.08886  -0.00005  -0.00001  -0.00039  -0.00040   2.08846
    A3        2.09523   0.00004  -0.00001   0.00041   0.00040   2.09563
    A4        2.08622   0.00018   0.00026   0.00092   0.00118   2.08740
    A5        2.11848  -0.00011  -0.00014  -0.00064  -0.00079   2.11770
    A6        2.07840  -0.00007  -0.00012  -0.00029  -0.00041   2.07799
    A7        2.10506  -0.00036  -0.00048  -0.00158  -0.00206   2.10299
    A8        2.08880   0.00018   0.00026   0.00072   0.00098   2.08978
    A9        2.08882   0.00018   0.00026   0.00073   0.00098   2.08980
   A10        2.08622   0.00018   0.00026   0.00092   0.00118   2.08740
   A11        2.07841  -0.00007  -0.00012  -0.00029  -0.00041   2.07800
   A12        2.11848  -0.00011  -0.00014  -0.00065  -0.00079   2.11769
   A13        2.09907   0.00001   0.00002  -0.00001   0.00001   2.09908
   A14        2.08887  -0.00005  -0.00001  -0.00039  -0.00040   2.08847
   A15        2.09523   0.00004  -0.00001   0.00041   0.00040   2.09563
   A16        2.09073  -0.00002  -0.00007  -0.00024  -0.00032   2.09041
   A17        2.09622   0.00001   0.00004   0.00012   0.00016   2.09638
   A18        2.09622   0.00001   0.00004   0.00012   0.00016   2.09637
   A19        1.98690   0.00126   0.00102   0.00512   0.00614   1.99305
   A20        1.93461   0.00038   0.00061   0.00262   0.00323   1.93783
   A21        1.85756   0.00002   0.00131  -0.00063   0.00067   1.85823
   A22        1.93460   0.00038   0.00061   0.00262   0.00322   1.93782
   A23        1.91512  -0.00024  -0.00088  -0.00159  -0.00248   1.91264
   A24        1.90637  -0.00030  -0.00074  -0.00146  -0.00221   1.90416
   A25        1.91513  -0.00024  -0.00088  -0.00159  -0.00248   1.91264
    D1        0.00029   0.00002  -0.00009   0.00111   0.00102   0.00130
    D2        3.12815   0.00000   0.00007  -0.00021  -0.00014   3.12801
    D3       -3.13474   0.00000   0.00007  -0.00025  -0.00018  -3.13492
    D4       -0.00688  -0.00003   0.00023  -0.00157  -0.00134  -0.00821
    D5       -0.00229  -0.00004   0.00016  -0.00243  -0.00227  -0.00456
    D6       -3.13730  -0.00003   0.00015  -0.00154  -0.00138  -3.13868
    D7        3.13271  -0.00002   0.00000  -0.00107  -0.00107   3.13164
    D8       -0.00230   0.00000   0.00000  -0.00018  -0.00018  -0.00248
    D9        0.00175   0.00000   0.00002   0.00022   0.00024   0.00199
   D10        3.10893  -0.00005   0.00099  -0.00404  -0.00305   3.10588
   D11       -3.12643   0.00002  -0.00014   0.00151   0.00137  -3.12506
   D12       -0.01925  -0.00003   0.00083  -0.00275  -0.00192  -0.02117
   D13       -0.00176   0.00000  -0.00002  -0.00022  -0.00024  -0.00199
   D14        3.12642  -0.00002   0.00014  -0.00151  -0.00137   3.12505
   D15       -3.10894   0.00005  -0.00099   0.00404   0.00305  -3.10589
   D16        0.01924   0.00003  -0.00083   0.00275   0.00192   0.02116
   D17        1.58809   0.00003  -0.00047   0.00218   0.00171   1.58980
   D18       -1.58759  -0.00003   0.00047  -0.00209  -0.00162  -1.58920
   D19       -0.00028  -0.00002   0.00009  -0.00111  -0.00102  -0.00129
   D20        3.13474   0.00000  -0.00007   0.00025   0.00018   3.13492
   D21       -3.12814   0.00000  -0.00007   0.00021   0.00014  -3.12800
   D22        0.00688   0.00003  -0.00023   0.00157   0.00134   0.00822
   D23        0.00229   0.00004  -0.00016   0.00243   0.00227   0.00455
   D24        3.13730   0.00003  -0.00015   0.00153   0.00138   3.13868
   D25       -3.13270   0.00002   0.00000   0.00107   0.00107  -3.13164
   D26        0.00231   0.00000   0.00000   0.00017   0.00018   0.00249
   D27        1.05999   0.00007  -0.00005   0.00085   0.00080   1.06079
   D28        3.14157   0.00000   0.00000   0.00000   0.00000   3.14157
   D29       -1.06003  -0.00007   0.00005  -0.00086  -0.00080  -1.06083
         Item               Value     Threshold  Converged?
 Maximum Force            0.001260     0.000450     NO 
 RMS     Force            0.000229     0.000300     YES
 Maximum Displacement     0.019349     0.001800     NO 
 RMS     Displacement     0.005153     0.001200     NO 
 Predicted change in Energy=-1.022289D-05
 GradGradGradGradGradGradGradGradGradGradGradGradGradGradGradGradGradGrad

                          Input orientation:                          
 ---------------------------------------------------------------------
 Center     Atomic      Atomic             Coordinates (Angstroms)
 Number     Number       Type             X           Y           Z
 ---------------------------------------------------------------------
      1          6           0       -0.285880   -0.709801    0.016291
      2          6           0        1.111211   -0.713734   -0.026691
      3          6           0        1.804826    0.500009   -0.050074
      4          6           0        1.111448    1.713920   -0.028381
      5          6           0       -0.285643    1.710322    0.014600
      6          6           0       -0.987355    0.500342    0.034266
      7          1           0       -0.826046   -1.653002    0.040802
      8          1           0        1.673825   -1.643209   -0.028624
      9          1           0        1.674240    2.643285   -0.031598
     10          1           0       -0.825624    2.653662    0.037798
     11          1           0       -2.073545    0.500474    0.070429
     12          8           0        3.187856    0.499858   -0.049732
     13          6           0        3.774059    0.499277   -1.353650
     14          1           0        3.479090    1.394450   -1.919105
     15          1           0        4.856734    0.499237   -1.206525
     16          1           0        3.478921   -0.396304   -1.918372
 ---------------------------------------------------------------------
                    Distance matrix (angstroms):
                    1          2          3          4          5
     1  C    0.000000
     2  C    1.397758   0.000000
     3  C    2.416422   1.398148   0.000000
     4  C    2.798025   2.427655   1.398151   0.000000
     5  C    2.420123   2.798026   2.416423   1.397756   0.000000
     6  C    1.398869   2.425217   2.793455   2.425216   1.398871
     7  H    1.087202   2.154006   3.400764   3.885207   3.406563
     8  H    2.171109   1.086491   2.147325   3.403908   3.884270
     9  H    3.884269   3.403909   2.147330   1.086492   2.171104
    10  H    3.406562   3.885208   3.400766   2.154005   1.087202
    11  H    2.159500   3.409751   3.880243   3.409750   2.159501
    12  O    3.678923   2.405367   1.383030   2.405385   3.678934
    13  C    4.452158   3.212938   2.361607   3.212662   4.451956
    14  H    4.727434   3.692224   2.663919   3.046741   4.244078
    15  H    5.422503   4.110019   3.263668   4.109824   5.422353
    16  H    4.244400   3.047174   2.663927   3.691889   4.727176
                    6          7          8          9         10
     6  C    0.000000
     7  H    2.159387   0.000000
     8  H    3.417696   2.500854   0.000000
     9  H    3.417694   4.971393   4.286495   0.000000
    10  H    2.159388   4.306665   4.971394   2.500848   0.000000
    11  H    1.086791   2.488894   4.318330   4.318326   2.488894
    12  O    4.176057   4.555701   2.624018   2.624051   4.555717
    13  C    4.959574   5.266665   3.279774   3.279303   5.266363
    14  H    4.956231   5.626935   4.007527   2.894781   4.893428
    15  H    5.974358   6.203382   4.013532   4.013186   6.203151
    16  H    4.956248   4.893914   2.895564   4.006980   5.626544
                   11         12         13         14         15
    11  H    0.000000
    12  O    5.262773   0.000000
    13  C    6.018511   1.429627   0.000000
    14  H    5.965668   2.092766   1.099128   0.000000
    15  H    7.046942   2.030597   1.092626   1.790833   0.000000
    16  H    5.965687   2.092759   1.099128   1.790755   1.790835
                   16
    16  H    0.000000
 Symmetry turned off by external request.
 Stoichiometry    C7H8O
 Framework group  C1[X(C7H8O)]
 Deg. of freedom    42
 Full point group                 C1      NOp   1
 Rotational constants (GHZ):           4.7870609           1.5459578           1.2547276
 Standard basis: 6-31+G(d) (6D, 7F)
   168 basis functions,   288 primitive gaussians,   168 cartesian basis functions
    29 alpha electrons       29 beta electrons
       nuclear repulsion energy       344.6333319074 Hartrees.
 NAtoms=   16 NActive=   16 NUniq=   16 SFac= 1.00D+00 NAtFMM=   60 NAOKFM=F Big=F
 Integral buffers will be    131072 words long.
 Raffenetti 2 integral format.
 Two-electron integral symmetry is turned off.
 Nuclear repulsion after empirical dispersion term =      344.6237938291 Hartrees.
 One-electron integrals computed using PRISM.
 NBasis=   168 RedAO= T EigKep=  5.16D-06  NBF=   168
 NBsUse=   168 1.00D-06 EigRej= -1.00D+00 NBFU=   168
 Initial guess from the checkpoint file:  "MOLECULE_27.chk"
 B after Tr=    -0.001840   -0.000008   -0.000136
         Rot=    1.000000    0.000000   -0.000224    0.000001 Ang=   0.03 deg.
 Requested convergence on RMS density matrix=1.00D-08 within 128 cycles.
 Requested convergence on MAX density matrix=1.00D-06.
 Requested convergence on             energy=1.00D-06.
 No special actions if energy rises.
 SCF Done:  E(RB3LYP) =  -346.790328124     A.U. after   10 cycles
            NFock= 10  Conv=0.28D-08     -V/T= 2.0098
 Calling FoFJK, ICntrl=      2127 FMM=F ISym2X=0 I1Cent= 0 IOpClX= 0 NMat=1 NMatS=1 NMatT=0.
 -------------------------------------------------------------------
 Center     Atomic                   Forces (Hartrees/Bohr)
 Number     Number              X              Y              Z
 -------------------------------------------------------------------
      1        6           0.000015582    0.000006251   -0.000059744
      2        6           0.000070697    0.000018746   -0.000010448
      3        6          -0.000282800    0.000000759    0.000180034
      4        6           0.000070471   -0.000019003   -0.000011070
      5        6           0.000015597   -0.000006227   -0.000059855
      6        6          -0.000040181    0.000000039    0.000070429
      7        1           0.000018530    0.000011024   -0.000001079
      8        1          -0.000004221    0.000000430   -0.000004826
      9        1          -0.000004322   -0.000000305   -0.000004811
     10        1           0.000018534   -0.000011013   -0.000001079
     11        1           0.000012701    0.000000014    0.000008987
     12        8           0.000039693   -0.000001352   -0.000146676
     13        6           0.000168371    0.000000658    0.000036762
     14        1          -0.000042520   -0.000003684   -0.000005872
     15        1          -0.000013547    0.000000042    0.000015015
     16        1          -0.000042586    0.000003620   -0.000005767
 -------------------------------------------------------------------
 Cartesian Forces:  Max     0.000282800 RMS     0.000063862

 GradGradGradGradGradGradGradGradGradGradGradGradGradGradGradGradGradGrad
 Berny optimization.
 Using GEDIIS/GDIIS optimizer.
 FormGI is forming the generalized inverse of G from B-inverse, IUseBI=4.
 Internal  Forces:  Max     0.000177497 RMS     0.000033956
 Search for a local minimum.
 Step number   4 out of a maximum of   80
 All quantities printed in internal units (Hartrees-Bohrs-Radians)
 Mixed Optimization -- En-DIIS/RFO-DIIS
 Swapping is turned off.
 Update second derivatives using D2CorX and points    1    2    3    4
 DE= -1.01D-05 DEPred=-1.02D-05 R= 9.84D-01
 TightC=F SS=  1.41D+00  RLast= 1.32D-02 DXNew= 5.0454D-01 3.9698D-02
 Trust test= 9.84D-01 RLast= 1.32D-02 DXMaxT set to 3.00D-01
 ITU=  1  1  1  0
     Eigenvalues ---    0.00857   0.01582   0.02057   0.02075   0.02084
     Eigenvalues ---    0.02087   0.02093   0.02096   0.02101   0.02109
     Eigenvalues ---    0.02235   0.10029   0.10399   0.14132   0.15998
     Eigenvalues ---    0.15999   0.16000   0.16000   0.16000   0.16039
     Eigenvalues ---    0.16607   0.20774   0.22000   0.22037   0.23867
     Eigenvalues ---    0.24982   0.33499   0.33973   0.34648   0.35337
     Eigenvalues ---    0.35338   0.35382   0.35460   0.35464   0.36053
     Eigenvalues ---    0.41503   0.41990   0.43313   0.45493   0.45765
     Eigenvalues ---    0.45801   0.46530
 En-DIIS/RFO-DIIS/Sim-DIIS IScMMF=       -3 using points:     4    3    2
 RFO step:  Lambda=-5.38529118D-07.
 DidBck=F Rises=F RFO-DIIS coefs:    0.85516    0.19989   -0.05505
 Iteration  1 RMS(Cart)=  0.00030319 RMS(Int)=  0.00000097
 Iteration  2 RMS(Cart)=  0.00000014 RMS(Int)=  0.00000097
 Variable       Old X    -DE/DX   Delta X   Delta X   Delta X     New X
                                 (Linear)    (Quad)   (Total)
    R1        2.64138  -0.00002   0.00005  -0.00009  -0.00004   2.64133
    R2        2.64348   0.00001  -0.00007   0.00011   0.00003   2.64351
    R3        2.05451  -0.00002   0.00006  -0.00011  -0.00005   2.05446
    R4        2.64212  -0.00008  -0.00006  -0.00009  -0.00014   2.64197
    R5        2.05317   0.00000   0.00002  -0.00003  -0.00001   2.05316
    R6        2.64212  -0.00008  -0.00006  -0.00009  -0.00014   2.64198
    R7        2.61355   0.00011  -0.00014   0.00035   0.00021   2.61376
    R8        2.64138  -0.00002   0.00005  -0.00009  -0.00005   2.64133
    R9        2.05317   0.00000   0.00002  -0.00003  -0.00001   2.05316
   R10        2.64348   0.00001  -0.00007   0.00011   0.00003   2.64352
   R11        2.05451  -0.00002   0.00006  -0.00011  -0.00005   2.05446
   R12        2.05374  -0.00001   0.00005  -0.00008  -0.00003   2.05370
   R13        2.70160  -0.00001   0.00025  -0.00033  -0.00009   2.70152
   R14        2.07705   0.00001  -0.00009   0.00013   0.00004   2.07709
   R15        2.06476  -0.00001   0.00005  -0.00008  -0.00003   2.06474
   R16        2.07705   0.00001  -0.00009   0.00013   0.00004   2.07709
    A1        2.09908   0.00000   0.00001   0.00003   0.00004   2.09911
    A2        2.08846  -0.00001   0.00005  -0.00014  -0.00009   2.08838
    A3        2.09563   0.00001  -0.00006   0.00011   0.00005   2.09568
    A4        2.08740  -0.00003  -0.00002  -0.00009  -0.00011   2.08729
    A5        2.11770   0.00001   0.00003   0.00000   0.00003   2.11773
    A6        2.07799   0.00002  -0.00001   0.00009   0.00008   2.07807
    A7        2.10299   0.00007   0.00002   0.00019   0.00021   2.10320
    A8        2.08978  -0.00003   0.00000  -0.00009  -0.00008   2.08969
    A9        2.08980  -0.00003   0.00000  -0.00009  -0.00008   2.08972
   A10        2.08740  -0.00003  -0.00002  -0.00009  -0.00011   2.08729
   A11        2.07800   0.00002  -0.00001   0.00009   0.00008   2.07808
   A12        2.11769   0.00001   0.00003   0.00000   0.00003   2.11772
   A13        2.09908   0.00000   0.00001   0.00003   0.00004   2.09911
   A14        2.08847  -0.00001   0.00005  -0.00014  -0.00009   2.08838
   A15        2.09563   0.00001  -0.00006   0.00011   0.00005   2.09568
   A16        2.09041  -0.00002   0.00000  -0.00006  -0.00005   2.09036
   A17        2.09638   0.00001   0.00000   0.00003   0.00003   2.09640
   A18        2.09637   0.00001   0.00000   0.00003   0.00003   2.09640
   A19        1.99305   0.00018  -0.00031   0.00099   0.00068   1.99372
   A20        1.93783  -0.00003  -0.00012  -0.00004  -0.00016   1.93767
   A21        1.85823   0.00000   0.00065  -0.00062   0.00002   1.85826
   A22        1.93782  -0.00003  -0.00012  -0.00004  -0.00016   1.93766
   A23        1.91264   0.00004  -0.00014   0.00040   0.00026   1.91290
   A24        1.90416  -0.00002  -0.00010  -0.00010  -0.00021   1.90396
   A25        1.91264   0.00004  -0.00014   0.00040   0.00026   1.91290
    D1        0.00130  -0.00001  -0.00020  -0.00003  -0.00023   0.00107
    D2        3.12801   0.00000   0.00006  -0.00023  -0.00017   3.12785
    D3       -3.13492   0.00001   0.00007   0.00016   0.00023  -3.13469
    D4       -0.00821   0.00001   0.00032  -0.00003   0.00029  -0.00792
    D5       -0.00456   0.00003   0.00042   0.00076   0.00118  -0.00338
    D6       -3.13868   0.00001   0.00029   0.00008   0.00037  -3.13831
    D7        3.13164   0.00002   0.00015   0.00057   0.00072   3.13237
    D8       -0.00248   0.00000   0.00002  -0.00012  -0.00009  -0.00257
    D9        0.00199  -0.00002  -0.00002  -0.00071  -0.00073   0.00126
   D10        3.10588   0.00002   0.00100  -0.00038   0.00063   3.10651
   D11       -3.12506  -0.00002  -0.00028  -0.00052  -0.00079  -3.12585
   D12       -0.02117   0.00001   0.00075  -0.00018   0.00057  -0.02060
   D13       -0.00199   0.00002   0.00002   0.00071   0.00073  -0.00126
   D14        3.12505   0.00002   0.00028   0.00052   0.00079   3.12585
   D15       -3.10589  -0.00002  -0.00100   0.00037  -0.00063  -3.10651
   D16        0.02116  -0.00001  -0.00075   0.00018  -0.00057   0.02059
   D17        1.58980  -0.00002  -0.00051  -0.00012  -0.00064   1.58916
   D18       -1.58920   0.00002   0.00050   0.00021   0.00072  -1.58849
   D19       -0.00129   0.00001   0.00020   0.00003   0.00023  -0.00106
   D20        3.13492  -0.00001  -0.00007  -0.00016  -0.00023   3.13469
   D21       -3.12800   0.00000  -0.00006   0.00023   0.00017  -3.12783
   D22        0.00822  -0.00001  -0.00032   0.00003  -0.00029   0.00792
   D23        0.00455  -0.00003  -0.00042  -0.00076  -0.00118   0.00337
   D24        3.13868  -0.00001  -0.00029  -0.00008  -0.00037   3.13831
   D25       -3.13164  -0.00002  -0.00015  -0.00057  -0.00072  -3.13236
   D26        0.00249   0.00000  -0.00002   0.00012   0.00009   0.00258
   D27        1.06079  -0.00003  -0.00015  -0.00009  -0.00024   1.06055
   D28        3.14157   0.00000   0.00000   0.00000   0.00000   3.14157
   D29       -1.06083   0.00003   0.00015   0.00009   0.00024  -1.06060
         Item               Value     Threshold  Converged?
 Maximum Force            0.000177     0.000450     YES
 RMS     Force            0.000034     0.000300     YES
 Maximum Displacement     0.001350     0.001800     YES
 RMS     Displacement     0.000303     0.001200     YES
 Predicted change in Energy=-2.660413D-07
 Optimization completed.
    -- Stationary point found.
                           ----------------------------
                           !   Optimized Parameters   !
                           ! (Angstroms and Degrees)  !
 --------------------------                            --------------------------
 ! Name  Definition              Value          Derivative Info.                !
 --------------------------------------------------------------------------------
 ! R1    R(1,2)                  1.3978         -DE/DX =    0.0                 !
 ! R2    R(1,6)                  1.3989         -DE/DX =    0.0                 !
 ! R3    R(1,7)                  1.0872         -DE/DX =    0.0                 !
 ! R4    R(2,3)                  1.3981         -DE/DX =   -0.0001              !
 ! R5    R(2,8)                  1.0865         -DE/DX =    0.0                 !
 ! R6    R(3,4)                  1.3982         -DE/DX =   -0.0001              !
 ! R7    R(3,12)                 1.383          -DE/DX =    0.0001              !
 ! R8    R(4,5)                  1.3978         -DE/DX =    0.0                 !
 ! R9    R(4,9)                  1.0865         -DE/DX =    0.0                 !
 ! R10   R(5,6)                  1.3989         -DE/DX =    0.0                 !
 ! R11   R(5,10)                 1.0872         -DE/DX =    0.0                 !
 ! R12   R(6,11)                 1.0868         -DE/DX =    0.0                 !
 ! R13   R(12,13)                1.4296         -DE/DX =    0.0                 !
 ! R14   R(13,14)                1.0991         -DE/DX =    0.0                 !
 ! R15   R(13,15)                1.0926         -DE/DX =    0.0                 !
 ! R16   R(13,16)                1.0991         -DE/DX =    0.0                 !
 ! A1    A(2,1,6)              120.2682         -DE/DX =    0.0                 !
 ! A2    A(2,1,7)              119.6602         -DE/DX =    0.0                 !
[...]
   zy        -0.236401D-01     -0.350310D-02     -0.389772D-02
   zz         0.553570D+02      0.820306D+01      0.912714D+01

 ----------------------------------------------------------------------

 Dipole orientation:
     6         -0.53300176          1.34131702          0.09349846
     6          2.05628290          1.34883071         -0.42845099
     6          3.34257017         -0.94477079         -0.68465929
     6          2.05725333         -3.23877146         -0.42710955
     6         -0.53202856         -3.23205195          0.09484830
     6         -1.83161809         -0.94556359          0.36137496
     1         -1.53743276          3.12368381          0.28142773
     1          3.09245659          3.10532758         -0.66630123
     1          3.09416004         -4.99497350         -0.66394663
     1         -1.53570460         -5.01473389          0.28381965
     1         -3.84587769         -0.94587407          0.76212236
     8          5.88734280         -0.94437619         -1.28028312
     6          7.52697676         -0.94412623          0.86687006
     1          7.22739767         -2.63617020          2.03365222
     1          9.45591804         -0.94386515          0.13036598
     1          7.22691314          0.74786584          2.03360430

 Electric dipole moment (dipole orientation):
 (Debye = 10**-18 statcoulomb cm , SI units = C m)
                  (au)            (Debye)         (10**-30 SI)
   Tot        0.561876D+00      0.142815D+01      0.476378D+01
   x          0.000000D+00      0.000000D+00      0.000000D+00
   y          0.000000D+00      0.000000D+00      0.000000D+00
   z          0.561876D+00      0.142815D+01      0.476378D+01

 Dipole polarizability, Alpha (dipole orientation).
 (esu units = cm**3 , SI units = C**2 m**2 J**-1)
 Alpha(0;0):
               (au)            (10**-24 esu)      (10**-40 SI)
   iso        0.834437D+02      0.123651D+02      0.137580D+02
   aniso      0.461104D+02      0.683286D+01      0.760258D+01
   xx         0.106085D+03      0.157201D+02      0.174910D+02
   yx         0.630780D-03      0.934720D-04      0.104002D-03
   yy         0.895601D+02      0.132714D+02      0.147665D+02
   zx        -0.449518D+01     -0.666118D+00     -0.741156D+00
   zy        -0.113574D-01     -0.168300D-02     -0.187259D-02
   zz         0.546861D+02      0.810364D+01      0.901651D+01

 ----------------------------------------------------------------------
 1\1\GINC-IP-172-31-13-49\Freq\RB3LYP\6-31+G(d)\C7H8O1\UBUNTU\15-Sep-20
 23\0\\#N Geom=AllCheck Guess=TCheck SCRF=Check GenChk RB3LYP/6-31+G(d)
  Freq\\molecule_27\\0,1\C,-0.285880184,-0.7098005049,0.0162911506\C,1.
 1112107837,-0.7137336824,-0.0266914749\C,1.804825937,0.5000085955,-0.0
 50073609\C,1.1114475721,1.7139203955,-0.0283808705\C,-0.2856426626,1.7
 103216905,0.0145998258\C,-0.987355451,0.5003418353,0.0342662779\H,-0.8
 260456395,-1.6530021748,0.0408023555\H,1.6738251274,-1.6432090029,-0.0
 286236061\H,1.6742397412,2.643284952,-0.0315981523\H,-0.8256236285,2.6
 536622195,0.0377982788\H,-2.0735450323,0.5004737834,0.0704293408\O,3.1
 87856182,0.4998578146,-0.0497321208\C,3.7740586517,0.4992767497,-1.353
 6497024\H,3.4790895702,1.3944503041,-1.9191053489\H,4.8567343765,0.499
 2373364,-1.2065251215\H,3.478920656,-0.3963043115,-1.918372223\\Versio
 n=EM64L-G16RevB.01\HF=-346.7903281\RMSD=1.266e-09\RMSF=6.386e-05\ZeroP
 oint=0.1325247\Thermal=0.1388257\Dipole=-0.1279155,-0.000204,-0.547121
 3\DipoleDeriv=0.0706726,0.0169768,-0.0097765,0.0463336,0.1116899,-0.00
 00757,-0.0012488,-0.0030921,-0.1411181,-0.1858499,-0.0233393,0.0524017
 ,-0.1849146,-0.0063805,-0.0048447,0.0181925,-0.0029997,-0.1396038,1.32
 12138,-0.000189,-0.2311446,-0.0001168,0.19367,-0.0000719,-0.0452456,-0
 .0000928,0.0169034,-0.1858187,0.0234156,0.0523633,0.1849785,-0.006417,
 0.0046484,0.0178854,0.0027975,-0.1396159,0.0706603,-0.0169779,-0.00974
 7,-0.0463269,0.1117121,-0.0002714,-0.0011928,0.0027394,-0.1411158,0.04
 19216,-0.0000115,0.0069174,-0.0000157,-0.1062893,-0.0000369,-0.0062512
 ,-0.0000344,-0.1532849,0.0103692,-0.0768629,0.0103522,-0.0851321,-0.07
 44727,0.0059172,0.0037593,0.0051192,0.138902,0.0237479,0.0762275,-0.00
 1577,0.0769389,-0.0336712,-0.0038751,-0.0038949,-0.0022831,0.1420121,0
 .0237102,-0.0762454,-0.0014727,-0.0769663,-0.0336383,0.0041198,-0.0037
 899,0.0025335,0.1419988,0.0103994,0.0768583,0.0102433,0.0851212,-0.074
 5202,-0.0056218,0.0036472,-0.0048196,0.138916,-0.1238974,0.0000259,0.0
 108493,0.0000245,0.0627637,0.0000566,0.0088391,0.0000586,0.1456671,-1.
 476968,0.0002542,0.37213,0.0001779,-0.3862815,-0.0001437,0.3646014,-0.
 0001575,-0.6740927,0.5207539,-0.0001105,-0.2174238,-0.0001799,0.347327
 ,0.000209,-0.483325,0.0002492,0.7546761,0.0319273,0.0750986,-0.0397422
 ,0.0177475,-0.0953857,0.1139204,0.0693261,0.050147,-0.0620728,-0.18475
 93,0.0000395,0.0353341,0.0000235,0.0853998,-0.0000271,-0.0106605,-0.00
 00222,0.0337783,0.0319173,-0.0751598,-0.0397076,-0.0176933,-0.0955059,
 -0.1139031,0.0693577,-0.050143,-0.0619496\Polar=105.4139058,-0.0052095
 ,89.5601002,-7.3648499,-0.0236401,55.3570025\Quadrupole=0.9753655,1.98
 76787,-2.9630442,-0.1226321,-4.4385568,-0.520499\PG=C01 [X(C7H8O1)]\NI
 mag=1\\0.68261950,0.03198158,0.71924374,-0.01752531,-0.00424649,0.1335
 2200,-0.33979309,-0.03094466,0.00899350,0.69902541,0.03205467,-0.12946
 301,-0.00091199,-0.03945432,0.71602473,0.00846447,0.00107624,-0.059297
 78,-0.01644433,-0.00435631,0.12732169,-0.02711529,-0.02630009,0.001571
 47,-0.15434750,-0.10998502,0.00491910,0.64336163,-0.07926573,0.0387857
 7,0.00233374,-0.04052460,-0.28546563,0.00334971,-0.00001127,0.67819982
 ,0.00069652,0.00088108,0.00115913,0.00349086,0.00563945,-0.06545244,-0
 .03199308,-0.00035531,0.18428138,-0.04802231,0.02888874,0.00138763,0.0
 5963394,0.02228507,-0.00060914,-0.15431666,0.04050047,0.00343193,0.699
 04287,0.02760379,-0.01852886,-0.00077539,-0.02230860,-0.05234173,0.000
 42752,0.10996085,-0.28550152,-0.00532992,0.03943642,0.71601277,0.00095
 231,-0.00060873,-0.00331182,-0.00057817,-0.00034502,0.00763524,0.00476
 520,-0.00304245,-0.06544015,-0.01649621,0.00354128,0.12731021,0.061891
 69,-0.02343385,-0.00182615,-0.04803372,-0.02759644,0.00099098,-0.02709
 576,0.07927980,0.00058696,-0.33979734,-0.03200194,0.00850954,0.6826101
 9,0.02340753,-0.05740454,-0.00083161,-0.02888086,-0.01851583,0.0006306
 1,0.02631507,0.03876088,-0.00093265,0.03099835,-0.12946201,-0.00098077
 ,-0.03199990,0.71926528,-0.00185816,0.00092154,0.00705948,0.00142738,0
 .00079602,-0.00331381,0.00153522,-0.00238620,0.00116418,0.00895047,0.0
 0100806,-0.05929682,-0.01748053,0.00343249,0.13351140,-0.18009411,0.12
 098721,0.00337080,-0.02731667,0.02818245,0.00098953,0.00130312,-0.0000
 0718,0.00007828,-0.02733664,-0.02816873,0.00102804,-0.18012868,-0.1210
 0133,0.00354048,0.74132729,0.05855554,-0.28306873,-0.00049871,0.073217
 89,0.03388908,-0.00214561,-0.00000654,-0.07244735,0.00004670,-0.073204
 57,0.03391328,0.00210593,-0.05856916,-0.28302582,0.00080886,-0.0000225
 7,0.66088616,0.00374813,-0.00316822,-0.06123230,0.00074444,-0.00104726
 ,0.00633138,0.00026708,0.00004735,-0.00444070,0.00084637,0.00100862,0.
 00632721,0.00383146,0.00347785,-0.06123835,-0.01930401,-0.00036954,0.1
 2985032,-0.12849939,-0.11989106,0.00380257,-0.01123617,-0.02936170,0.0
 0069475,-0.00397941,0.00241048,0.00041928,-0.00085889,0.00072648,0.000
 01805,-0.00103928,0.00304750,0.00024424,0.01217915,0.01490045,-0.00040
 124,0.13307170,-0.11976755,-0.26941866,0.00558973,0.00182701,0.0039193
 6,-0.00007129,0.00102770,0.00174307,0.00008174,0.00084279,0.00035387,-
 0.00002944,0.00428884,-0.00319182,-0.00007872,-0.01626513,-0.01844838,
 0.00070745,0.12899497,0.28456065,0.00378736,0.00581692,-0.03652563,0.0
 0056753,0.00123093,0.00330283,0.00005973,-0.00032541,0.00754034,-0.000
 17704,0.00002320,-0.00067895,0.00028027,0.00001693,0.00659451,-0.00015
 250,-0.00054795,0.00323679,-0.00442230,-0.00607440,0.02549378,-0.01011
 871,0.02840814,0.00011418,-0.13213159,0.12393094,0.00090507,0.01060893
 ,-0.01390991,0.00008494,-0.00138408,-0.00305592,0.00017914,-0.00075575
 ,-0.00070788,-0.00001383,-0.00533464,-0.00178880,0.00036027,0.00075253
 ,-0.00037565,-0.00011582,0.13657806,-0.00213284,0.00491663,0.00004768,
 0.12236134,-0.26709184,-0.00025548,0.01868914,-0.01991265,-0.00007814,
 -0.00422805,-0.00321900,0.00022317,-0.00104107,0.00021567,0.00002792,-
 0.00075717,0.00169585,0.00017697,0.00041107,0.00081683,-0.00012317,-0.
 13411377,0.28080094,0.00059295,-0.00107758,0.00242420,0.00089543,0.000
 84822,-0.03484793,-0.00140763,0.00004052,0.00513740,0.00032829,-0.0000
 6009,0.00539472,0.00001738,0.00005857,-0.00073813,0.00047782,0.0001056
 0,0.00703257,-0.00017213,-0.00003195,-0.00409203,-0.00145478,-0.000075
 96,0.02466260,-0.00075544,0.00070805,-0.00001481,-0.00138266,0.0030558
 9,0.00017491,0.01060876,0.01390368,0.00006587,-0.13217856,-0.12395353,
 0.00107612,-0.01012410,-0.02840565,0.00015362,-0.00533424,0.00179072,0
 .00035774,0.00009953,-0.00011472,-0.00002649,0.00056003,0.00083317,-0.
 00001250,0.13662954,0.00104126,0.00021523,-0.00002929,0.00422824,-0.00
 322056,-0.00021115,-0.01869741,-0.01991146,0.00011267,-0.12238488,-0.2
 6704375,0.00057635,0.00213649,0.00492279,-0.00005107,0.00075912,0.0016
 9500,-0.00016961,-0.00010657,-0.00000872,0.00001822,-0.00083351,-0.001
 07740,0.00007174,0.13413838,0.28074818,0.00001581,-0.00005985,-0.00073
 801,0.00032232,0.00007224,0.00539507,-0.00138103,-0.00000531,0.0051367
 9,0.00106384,-0.00052705,-0.03484710,0.00059031,0.00107386,0.00242279,
 0.00047670,-0.00009835,0.00703304,-0.00003645,-0.00000153,-0.00091941,
 -0.00001132,-0.00006980,0.00026324,-0.00164055,-0.00027811,0.02466274,
 -0.00104073,-0.00304758,0.00024853,-0.00085920,-0.00072620,0.00001903,
 -0.00398014,-0.00240888,0.00042251,-0.01123094,0.02936552,0.00065418,-
 0.12845264,0.11986881,0.00363470,0.01217943,-0.01490695,-0.00038059,0.
 00048834,-0.00083892,0.00000481,0.00009957,0.00010650,-0.00003660,0.00
 075255,-0.00041125,-0.00017149,0.13302147,-0.00428888,-0.00319029,0.00
 009226,-0.00084281,0.00035418,0.00002802,-0.00102648,0.00174409,-0.000
 07374,-0.00182328,0.00391232,0.00007034,0.11974531,-0.26948147,-0.0052
 6621,0.01625892,-0.01844879,-0.00067718,0.00083862,-0.00108520,-0.0000
 0239,0.00011466,-0.00000879,0.00000027,0.00037550,0.00081709,0.0000251
 5,-0.12897155,0.28462801,0.00028643,-0.00000350,0.00659426,-0.00017588
 ,-0.00002456,-0.00067891,0.00006123,0.00033364,0.00754009,0.00056978,-
 0.00123198,0.00330439,0.00361934,-0.00549371,-0.03651032,-0.00017487,0
 .00057876,0.00323690,0.00000364,0.00000419,0.00018985,-0.00002665,-0.0
 0001949,-0.00091935,-0.00011633,0.00011639,-0.00409230,-0.00424173,0.0
 0571453,0.02547755,-0.01138144,-0.00261831,0.00048325,0.00061992,0.003
 03528,0.00019851,0.00097308,-0.00000030,-0.00003773,0.00061890,-0.0030
 3599,0.00020276,-0.01138652,0.00262217,0.00047978,-0.33868633,0.000034
 39,0.01007513,0.00076253,0.00045706,-0.00015653,-0.00063093,-0.0002038
 5,0.00003583,-0.00063119,0.00020403,0.00003557,0.00076249,-0.00045729,
 -0.00015590,0.35920023,0.02879831,0.00467987,-0.00099408,0.00191963,-0
 .00459808,-0.00000514,-0.00000039,-0.00177531,0.00000108,-0.00192031,-
 0.00459698,0.00002099,-0.02879464,0.00468613,0.00099069,0.00003450,-0.
 05967693,0.00001628,-0.00033289,0.00070872,-0.00000728,0.00144256,0.00
 013815,-0.00005738,-0.00144242,0.00013841,0.00005765,0.00033268,0.0007
 0881,0.00000084,-0.00003721,0.05913738,0.00031396,0.00017287,0.0023174
 4,0.00025443,-0.00003249,0.00677058,-0.00017635,0.00000114,-0.00017609
 ,0.00025670,0.00004836,0.00677029,0.00035449,-0.00017600,0.00231620,0.
 01020783,0.00001608,-0.03502328,-0.00015586,-0.00004899,-0.00391681,0.
 00001399,0.00002435,0.00034397,0.00001601,-0.00002411,0.00034391,-0.00
 015636,0.00004259,-0.00391681,-0.01109437,-0.00002256,0.02532200,0.002
 84521,-0.00475604,0.00101940,-0.04529617,-0.00773779,-0.00100228,-0.26
 405446,0.00001640,-0.01959371,-0.04528819,0.00774629,-0.00101508,0.002
 84610,0.00475660,0.00101078,-0.00344597,0.00000029,-0.00019237,-0.0018
 2354,-0.00015527,0.00027194,0.00177992,0.00039698,0.00008545,0.0017794
 5,-0.00039632,0.00008631,-0.00182336,0.00015599,0.00027174,-0.00031101
 ,0.00000009,-0.00001974,0.45562720,0.00062733,-0.00552731,0.00109720,-
 0.03660388,0.00638906,0.00201046,0.00003032,-0.07066321,0.00001268,0.0
 3661820,0.00638108,-0.00200880,-0.00062731,-0.00553233,-0.00107864,-0.
 00000049,0.00156840,-0.00000157,-0.00153235,0.00007317,-0.00017190,0.0
 0114379,0.00295403,0.00000375,-0.00114464,0.00295433,-0.00001483,0.001
 53337,0.00007305,0.00017105,0.00000011,0.00045746,-0.00000127,-0.00008
 005,0.09567607,0.00024261,0.00085834,0.00745562,0.00519695,-0.00108575
 ,0.00595654,0.01241438,0.00001010,-0.07046489,0.00514613,0.00108259,0.
 00595688,0.00024195,-0.00084012,0.00745752,0.00050926,-0.00000131,-0.0
 0114655,0.00037556,0.00008636,-0.00016371,-0.00036629,-0.00015767,-0.0
 0433624,-0.00036481,0.00014808,-0.00433645,0.00037322,-0.00008677,-0.0
 0016367,0.00009074,-0.00000101,-0.00100088,-0.08580256,0.00008588,0.32
 282491,-0.00044577,0.00004993,-0.00136927,0.00107285,0.00259028,0.0014
 6927,-0.03987399,0.00001557,0.03654757,0.00107381,-0.00258693,0.001473
 65,-0.00044451,-0.00005241,-0.00136835,0.00070684,-0.00000039,0.000098
 66,0.00010914,0.00009415,-0.00004708,-0.00007683,-0.00030580,0.0003904
 9,-0.00007692,0.00030614,0.00038953,0.00010940,-0.00009421,-0.00004694
 ,0.00010073,0.00000006,0.00013288,-0.09100834,0.00001839,0.02789785,0.
 59515865,0.00052198,-0.00122989,-0.00097436,-0.00457032,0.00069799,-0.
 00100063,0.00000768,-0.00653365,-0.00000240,0.00456460,0.00069910,0.00
 099964,-0.00052291,-0.00122647,0.00097670,0.00000012,0.00089514,-0.000
 00079,-0.00014801,-0.00002126,0.00012494,-0.00018039,-0.00042610,0.000
 48743,0.00018104,-0.00042730,-0.00048677,0.00014726,-0.00002129,-0.000
 12466,-0.00000014,-0.00003590,0.00000003,0.00003157,-0.05011054,-0.000
 06121,0.00002118,0.56565635,0.00025754,-0.00124357,0.00018267,-0.00766
 165,-0.00075691,0.00005101,0.02185338,-0.00000010,-0.00138341,-0.00766
 585,0.00075657,0.00004858,0.00025757,0.00124508,0.00017942,-0.00142227
 ,0.00000011,0.00017109,-0.00065848,-0.00018453,-0.00002566,0.00043952,
 -0.00005384,0.00031212,0.00043944,0.00005510,0.00031313,-0.00065861,0.
 00018463,-0.00002588,-0.00018241,0.00000004,-0.00006340,0.05496619,-0.
 00006442,-0.19667981,0.06063729,-0.00004928,0.46035525,0.00021997,-0.0
 0024377,-0.00002583,-0.00070271,-0.00013208,-0.00056741,0.00318116,-0.
 00289562,0.00140504,0.00095981,0.00053850,-0.00035713,-0.00028678,-0.0
 0021428,-0.00010518,0.00006826,0.00028654,-0.00002648,-0.00002241,0.00
 000538,0.00007009,0.00002933,0.00008782,0.00000936,-0.00000157,0.00007
 869,0.00022979,0.00005752,-0.00000506,0.00006335,0.00000946,0.00001736
 ,0.00001789,0.00232793,-0.01192715,0.01473306,-0.07646216,0.06211861,-
 0.03852942,0.07280130,0.00019846,0.00000840,0.00000970,-0.00032116,-0.
 00053087,0.00028875,0.00168684,0.00111814,-0.00052132,-0.00107887,-0.0
 0002375,-0.00026338,-0.00028669,0.00007961,-0.00003568,-0.00014532,0.0
 0012469,0.00004443,-0.00002158,-0.00001311,-0.00001985,0.00005086,0.00
 013364,-0.00007959,0.00013457,0.00000257,0.00006641,-0.00006123,0.0000
 1623,-0.00000906,-0.00001631,0.00000946,-0.00000040,-0.00429594,0.0071
 4848,0.00391755,0.06083309,-0.22709141,0.09808325,-0.06557525,0.238752
 27,-0.00056487,0.00039755,0.00009397,0.00176047,0.00021187,0.00042737,
 -0.00684682,0.00061959,-0.00011705,0.00026236,0.00010807,0.00040390,0.
 00053517,-0.00005702,-0.00005114,0.00012899,-0.00051545,-0.00003947,0.
 00010249,0.00002072,-0.00003152,-0.00008433,-0.00006505,-0.00008107,0.
 00002262,-0.00028910,-0.00032874,0.00008962,-0.00001569,0.00000063,0.0
 0000787,-0.00003476,-0.00001696,0.00413660,0.02461299,-0.03358935,-0.0
 3509176,0.09573937,-0.10356213,0.03397318,-0.11227729,0.12699387,-0.00
 002319,-0.00000265,-0.00012440,-0.00021320,0.00039806,0.00015478,0.001
 54419,0.00000093,0.00299215,-0.00021315,-0.00039773,0.00015523,-0.0000
 2298,0.00000249,-0.00012435,-0.00015502,-0.00000009,0.00000141,-0.0000
 6137,-0.00002583,-0.00000724,0.00002549,-0.00002532,0.00002120,0.00002
 550,0.00002535,0.00002111,-0.00006135,0.00002583,-0.00000726,-0.000029
 36,0.00000001,0.00001658,-0.01648497,0.00000358,0.00458807,-0.31345686
 ,0.00000613,-0.04357527,-0.00620414,-0.00035057,-0.00234672,0.34153947
 ,0.00037791,-0.00009809,0.00005644,-0.00018216,-0.00002330,-0.00002856
 ,0.00000080,0.00074079,-0.00000227,0.00018309,-0.00002313,0.00002838,-
 0.00037793,-0.00009832,-0.00005610,0.00000009,0.00032370,-0.00000025,0
 .00000331,-0.00000476,0.00003222,0.00000904,0.00006146,-0.00016694,-0.
 00000915,0.00006172,0.00016689,-0.00000322,-0.00000483,-0.00003221,0.0
 0000001,0.00000934,-0.00000002,0.00001831,0.00103534,-0.00000209,0.000
 00081,-0.05359792,0.00000233,0.02711112,0.00177349,0.00399919,-0.00001
 042,0.04806777,0.00005566,0.00022688,0.00034816,0.00094543,-0.00013152
 ,-0.00000475,0.00120447,-0.00000150,-0.00436739,0.00094475,0.00013124,
 -0.00000471,0.00005597,-0.00022623,0.00034854,0.00011673,-0.00000020,-
 0.00005847,0.00009635,0.00001499,-0.00000498,-0.00004660,0.00011023,-0
 .00022743,-0.00004662,-0.00011074,-0.00022751,0.00009631,-0.00001502,-
 0.00000496,0.00000962,-0.00000005,-0.00005316,0.04164682,-0.00000649,-
 0.00420324,-0.05605331,0.00000390,-0.05647013,-0.01481536,-0.00168394,
 -0.00051414,0.04058241,0.00000358,0.06595637,-0.00028691,0.00021437,-0
 .00010556,0.00096057,-0.00053910,-0.00035723,0.00318234,0.00289617,0.0
 0140262,-0.00070255,0.00013152,-0.00056763,0.00022010,0.00024379,-0.00
 002629,0.00006822,-0.00028675,-0.00002601,0.00005754,0.00000515,0.0000
 6326,-0.00000132,-0.00007814,0.00022943,0.00002932,-0.00008776,0.00000
 954,-0.00002240,-0.00000528,0.00007006,0.00000946,-0.00001732,0.000017
 92,0.00233021,0.01194079,0.01472387,-0.07648604,-0.06217841,-0.0384969
 6,0.00402504,0.00924911,0.00391515,-0.00620905,-0.02712162,-0.01479264
 ,0.07282549,0.00028663,0.00007975,0.00003518,0.00107926,-0.00002355,0.
 00026285,-0.00169120,0.00111821,0.00052035,0.00032223,-0.00053169,-0.0
 0028750,-0.00019858,0.00000824,-0.00000966,0.00014552,0.00012470,-0.00
 004454,0.00006130,0.00001625,0.00000900,-0.00013417,0.00000258,-0.0000
 6661,-0.00005090,0.00013388,0.00007940,0.00002166,-0.00001312,0.000019
 78,0.00001634,0.00000948,0.00000042,0.00429890,0.00712294,-0.00395298,
 -0.06088985,-0.22722685,-0.09797447,-0.00925080,-0.02150782,-0.0124549
 9,0.00035020,0.00177673,0.00168487,0.06563349,0.23891027,0.00053459,0.
 00005652,-0.00005139,0.00026130,-0.00010691,0.00040392,-0.00684634,-0.
 00061952,-0.00011718,0.00176001,-0.00021108,0.00042814,-0.00056472,-0.
 00039728,0.00009454,0.00012919,0.00051507,-0.00004017,0.00008954,0.000
 01567,0.00000061,0.00002251,0.00028828,-0.00032864,-0.00008421,0.00006
 462,-0.00008119,0.00010245,-0.00002078,-0.00003147,0.00000787,0.000034
 68,-0.00001698,0.00413052,-0.02464609,-0.03356667,-0.03506048,-0.09563
 192,-0.10340285,0.00392506,0.01248042,0.01041183,-0.00234772,-0.004000
 59,-0.00051220,0.03394046,0.11217890,0.12680970\\-0.00001558,-0.000006
 26,0.00005975,-0.00007070,-0.00001876,0.00001045,0.00028281,-0.0000007
 6,-0.00018003,-0.00007047,0.00001901,0.00001107,-0.00001560,0.00000624
 ,0.00005986,0.00004017,-0.00000004,-0.00007043,-0.00001853,-0.00001102
 ,0.00000108,0.00000422,-0.00000043,0.00000483,0.00000432,0.00000030,0.
 00000481,-0.00001853,0.00001101,0.00000108,-0.00001270,-0.00000001,-0.
 00000899,-0.00003970,0.00000135,0.00014667,-0.00016837,-0.00000066,-0.
 00003676,0.00004252,0.00000368,0.00000587,0.00001355,-0.00000004,-0.00
 001501,0.00004259,-0.00000362,0.00000577\\\@


 SOME PEOPLE TRY TO PULL THE WOOL OVER YOUR EYES
 USING THE WRONG YARN.
 Job cpu time:       0 days  0 hours 24 minutes 35.4 seconds.
 Elapsed time:       0 days  0 hours  0 minutes 49.2 seconds.
 File lengths (MBytes):  RWF=     54 Int=      0 D2E=      0 Chk=      4 Scr=      1
 Normal termination of Gaussian 16 at Fri Sep 15 03:56:12 2023.
