 Entering Gaussian System, Link 0=/home/ubuntu/g16/g16
 Input=/home/ubuntu/substrates/molecule_3.gjf
 Output=/home/ubuntu/substrates/molecule_3.log
 Initial command:
 /home/ubuntu/g16/l1.exe "/home/ubuntu/Scratch/Gau-8721.inp" -scrdir="/home/ubuntu/Scratch/"
 Entering Link 1 = /home/ubuntu/g16/l1.exe PID=      8723.
  
 Copyright (c) 1988-2017, Gaussian, Inc.  All Rights Reserved.
  
 This is part of the Gaussian(R) 16 program.  It is based on
 the Gaussian(R) 09 system (copyright 2009, Gaussian, Inc.),
 the Gaussian(R) 03 system (copyright 2003, Gaussian, Inc.),
 the Gaussian(R) 98 system (copyright 1998, Gaussian, Inc.),
 the Gaussian(R) 94 system (copyright 1995, Gaussian, Inc.),
 the Gaussian 92(TM) system (copyright 1992, Gaussian, Inc.),
 the Gaussian 90(TM) system (copyright 1990, Gaussian, Inc.),
 the Gaussian 88(TM) system (copyright 1988, Gaussian, Inc.),
 the Gaussian 86(TM) system (copyright 1986, Carnegie Mellon
 University), and the Gaussian 82(TM) system (copyright 1983,
 Carnegie Mellon University). Gaussian is a federally registered
 trademark of Gaussian, Inc.
  
 This software contains proprietary and confidential information,
 including trade secrets, belonging to Gaussian, Inc.
  
 This software is provided under written license and may be
 used, copied, transmitted, or stored only in accord with that
 written license.
  
 The following legend is applicable only to US Government
 contracts under FAR:
  
                    RESTRICTED RIGHTS LEGEND
  
 Use, reproduction and disclosure by the US Government is
 subject to restrictions as set forth in subparagraphs (a)
 and (c) of the Commercial Computer Software - Restricted
 Rights clause in FAR 52.227-19.
  
 Gaussian, Inc.
 340 Quinnipiac St., Bldg. 40, Wallingford CT 06492
  
  
 ---------------------------------------------------------------
 Warning -- This program may not be used in any manner that
 competes with the business of Gaussian, Inc. or will provide
 assistance to any competitor of Gaussian, Inc.  The licensee
 of this program is prohibited from giving any competitor of
 Gaussian, Inc. access to this program.  By using this program,
 the user acknowledges that Gaussian, Inc. is engaged in the
 business of creating and licensing software in the field of
 computational chemistry and represents and warrants to the
 licensee that it is not a competitor of Gaussian, Inc. and that
 it will not use this program in any manner prohibited above.
 ---------------------------------------------------------------
  

 Cite this work as:
 Gaussian 16, Revision B.01,
 M. J. Frisch, G. W. Trucks, H. B. Schlegel, G. E. Scuseria, 
 M. A. Robb, J. R. Cheeseman, G. Scalmani, V. Barone, 
 G. A. Petersson, H. Nakatsuji, X. Li, M. Caricato, A. V. Marenich, 
 J. Bloino, B. G. Janesko, R. Gomperts, B. Mennucci, H. P. Hratchian, 
 J. V. Ortiz, A. F. Izmaylov, J. L. Sonnenberg, D. Williams-Young, 
 F. Ding, F. Lipparini, F. Egidi, J. Goings, B. Peng, A. Petrone, 
 T. Henderson, D. Ranasinghe, V. G. Zakrzewski, J. Gao, N. Rega, 
 G. Zheng, W. Liang, M. Hada, M. Ehara, K. Toyota, R. Fukuda, 
 J. Hasegawa, M. Ishida, T. Nakajima, Y. Honda, O. Kitao, H. Nakai, 
 T. Vreven, K. Throssell, J. A. Montgomery, Jr., J. E. Peralta, 
 F. Ogliaro, M. J. Bearpark, J. J. Heyd, E. N. Brothers, K. N. Kudin, 
 V. N. Staroverov, T. A. Keith, R. Kobayashi, J. Normand, 
 K. Raghavachari, A. P. Rendell, J. C. Burant, S. S. Iyengar, 
 J. Tomasi, M. Cossi, J. M. Millam, M. Klene, C. Adamo, R. Cammi, 
 J. W. Ochterski, R. L. Martin, K. Morokuma, O. Farkas, 
 J. B. Foresman, and D. J. Fox, Gaussian, Inc., Wallingford CT, 2016.
 
 ******************************************
 Gaussian 16:  EM64L-G16RevB.01 20-Dec-2017
                17-Sep-2023 
 ******************************************
 %nprocshared=30
 Will use up to   30 processors via shared memory.
 %mem=30GB
 %chk=molecule_3.chk
 ----------------------------------------------------------------------
 # opt freq ub3lyp/6-31+g(d) geom=connectivity empiricaldispersion=gd3 
 volume
 ----------------------------------------------------------------------
 1/18=20,19=15,26=3,38=1,57=2/1,3;
 2/9=110,12=2,17=6,18=5,40=1/2;
 3/5=1,6=6,7=11,11=2,25=1,30=1,71=1,74=-5,116=2,124=31/1,2,3;
 4//1;
 5/5=2,38=5/2;
 6/7=2,8=2,9=2,10=2,28=1,44=1/1,4;
 7//1,2,3,16;
 1/18=20,19=15,26=3/3(2);
 2/9=110/2;
 99//99;
 2/9=110/2;
 3/5=1,6=6,7=11,11=2,25=1,30=1,71=1,74=-5,116=2,124=31/1,2,3;
 4/5=5,16=3,69=1/1;
 5/5=2,38=5/2;
 7//1,2,3,16;
 1/18=20,19=15,26=3/3(-5);
 2/9=110/2;
 6/7=2,8=2,9=2,10=2,19=2,28=1,44=1/1,4;
 99/9=1/99;
 -------------------
 Title Card Required
 -------------------
 Symbolic Z-matrix:
 Charge =  0 Multiplicity = 2
 C                    -0.92486   1.21373  -0.01207 
 C                     0.45948   1.22359  -0.00452 
 C                     1.19238   0.00002   0.00019 
 C                     0.4595   -1.22357  -0.00451 
 C                    -0.92484  -1.21373  -0.01207 
 C                    -1.64406  -0.00001  -0.01324 
 H                    -1.47055   2.15427  -0.0185 
 H                     1.01137   2.15843  -0.0048 
 H                     1.01142  -2.1584   -0.0048 
 H                    -1.47051  -2.15428  -0.01851 
 C                     2.58767   0.00001   0.00719 
 C                     3.86978  -0.00002   0.01133 
 C                    -3.14951  -0.00002   0.01669 
 H                    -3.56288  -0.88893  -0.47136 
 H                    -3.5092   -0.00005   1.05539 
 H                    -3.56289   0.88893  -0.4713 
 

 GradGradGradGradGradGradGradGradGradGradGradGradGradGradGradGradGradGrad
 Berny optimization.
 Initialization pass.
                           ----------------------------
                           !    Initial Parameters    !
                           ! (Angstroms and Degrees)  !
 --------------------------                            --------------------------
 ! Name  Definition              Value          Derivative Info.                !
 --------------------------------------------------------------------------------
 ! R1    R(1,2)                  1.3844         estimate D2E/DX2                !
 ! R2    R(1,6)                  1.4108         estimate D2E/DX2                !
 ! R3    R(1,7)                  1.0874         estimate D2E/DX2                !
 ! R4    R(2,3)                  1.4263         estimate D2E/DX2                !
 ! R5    R(2,8)                  1.0856         estimate D2E/DX2                !
 ! R6    R(3,4)                  1.4263         estimate D2E/DX2                !
 ! R7    R(3,11)                 1.3953         estimate D2E/DX2                !
 ! R8    R(4,5)                  1.3844         estimate D2E/DX2                !
 ! R9    R(4,9)                  1.0856         estimate D2E/DX2                !
 ! R10   R(5,6)                  1.4108         estimate D2E/DX2                !
 ! R11   R(5,10)                 1.0874         estimate D2E/DX2                !
 ! R12   R(6,13)                 1.5057         estimate D2E/DX2                !
 ! R13   R(11,12)                1.2821         estimate D2E/DX2                !
 ! R14   R(13,14)                1.0951         estimate D2E/DX2                !
 ! R15   R(13,15)                1.0992         estimate D2E/DX2                !
 ! R16   R(13,16)                1.0951         estimate D2E/DX2                !
 ! A1    A(2,1,6)              121.0571         estimate D2E/DX2                !
 ! A2    A(2,1,7)              119.7142         estimate D2E/DX2                !
 ! A3    A(6,1,7)              119.2286         estimate D2E/DX2                !
 ! A4    A(1,2,3)              120.5131         estimate D2E/DX2                !
 ! A5    A(1,2,8)              120.9637         estimate D2E/DX2                !
 ! A6    A(3,2,8)              118.523          estimate D2E/DX2                !
 ! A7    A(2,3,4)              118.1582         estimate D2E/DX2                !
 ! A8    A(2,3,11)             120.9218         estimate D2E/DX2                !
 ! A9    A(4,3,11)             120.92           estimate D2E/DX2                !
 ! A10   A(3,4,5)              120.5129         estimate D2E/DX2                !
 ! A11   A(3,4,9)              118.5224         estimate D2E/DX2                !
 ! A12   A(5,4,9)              120.9645         estimate D2E/DX2                !
 ! A13   A(4,5,6)              121.0572         estimate D2E/DX2                !
 ! A14   A(4,5,10)             119.7142         estimate D2E/DX2                !
 ! A15   A(6,5,10)             119.2286         estimate D2E/DX2                !
 ! A16   A(1,6,5)              118.701          estimate D2E/DX2                !
 ! A17   A(1,6,13)             120.6416         estimate D2E/DX2                !
 ! A18   A(5,6,13)             120.6417         estimate D2E/DX2                !
 ! A19   A(6,13,14)            111.6258         estimate D2E/DX2                !
 ! A20   A(6,13,15)            110.2395         estimate D2E/DX2                !
 ! A21   A(6,13,16)            111.6258         estimate D2E/DX2                !
 ! A22   A(14,13,15)           107.3127         estimate D2E/DX2                !
 ! A23   A(14,13,16)           108.5318         estimate D2E/DX2                !
 ! A24   A(15,13,16)           107.3127         estimate D2E/DX2                !
 ! A25   L(3,11,12,9,-1)       179.9988         estimate D2E/DX2                !
 ! A26   L(3,11,12,9,-2)       179.8723         estimate D2E/DX2                !
 ! D1    D(6,1,2,3)              0.0977         estimate D2E/DX2                !
 ! D2    D(6,1,2,8)            179.928          estimate D2E/DX2                !
 ! D3    D(7,1,2,3)           -179.8233         estimate D2E/DX2                !
 ! D4    D(7,1,2,8)              0.007          estimate D2E/DX2                !
 ! D5    D(2,1,6,5)             -0.2562         estimate D2E/DX2                !
 ! D6    D(2,1,6,13)           178.3116         estimate D2E/DX2                !
 ! D7    D(7,1,6,5)            179.6652         estimate D2E/DX2                !
 ! D8    D(7,1,6,13)            -1.7671         estimate D2E/DX2                !
 ! D9    D(1,2,3,4)              0.0638         estimate D2E/DX2                !
 ! D10   D(1,2,3,11)           179.9707         estimate D2E/DX2                !
 ! D11   D(8,2,3,4)           -179.7706         estimate D2E/DX2                !
 ! D12   D(8,2,3,11)             0.1363         estimate D2E/DX2                !
 ! D13   D(2,3,4,5)             -0.0635         estimate D2E/DX2                !
 ! D14   D(2,3,4,9)            179.7702         estimate D2E/DX2                !
 ! D15   D(11,3,4,5)          -179.9704         estimate D2E/DX2                !
 ! D16   D(11,3,4,9)            -0.1367         estimate D2E/DX2                !
 ! D17   D(3,4,5,6)             -0.0983         estimate D2E/DX2                !
 ! D18   D(3,4,5,10)           179.823          estimate D2E/DX2                !
 ! D19   D(9,4,5,6)           -179.9279         estimate D2E/DX2                !
 ! D20   D(9,4,5,10)            -0.0067         estimate D2E/DX2                !
 ! D21   D(4,5,6,1)              0.2565         estimate D2E/DX2                !
 ! D22   D(4,5,6,13)          -178.3113         estimate D2E/DX2                !
 ! D23   D(10,5,6,1)          -179.6651         estimate D2E/DX2                !
 ! D24   D(10,5,6,13)            1.7671         estimate D2E/DX2                !
 ! D25   D(1,6,13,14)          151.561          estimate D2E/DX2                !
 ! D26   D(1,6,13,15)          -89.2718         estimate D2E/DX2                !
 ! D27   D(1,6,13,16)           29.8956         estimate D2E/DX2                !
 ! D28   D(5,6,13,14)          -29.8992         estimate D2E/DX2                !
 ! D29   D(5,6,13,15)           89.2681         estimate D2E/DX2                !
 ! D30   D(5,6,13,16)         -151.5645         estimate D2E/DX2                !
 --------------------------------------------------------------------------------
 Trust Radius=3.00D-01 FncErr=1.00D-07 GrdErr=1.00D-06 EigMax=2.50D+02 EigMin=1.00D-04
 Number of steps in this run=     82 maximum allowed number of steps=    100.
 GradGradGradGradGradGradGradGradGradGradGradGradGradGradGradGradGradGrad

                          Input orientation:                          
 ---------------------------------------------------------------------
 Center     Atomic      Atomic             Coordinates (Angstroms)
 Number     Number       Type             X           Y           Z
 ---------------------------------------------------------------------
      1          6           0       -0.924859    1.213725   -0.012071
      2          6           0        0.459479    1.223591   -0.004517
      3          6           0        1.192378    0.000019    0.000187
      4          6           0        0.459496   -1.223573   -0.004514
      5          6           0       -0.924838   -1.213727   -0.012074
      6          6           0       -1.644059   -0.000005   -0.013242
      7          1           0       -1.470545    2.154269   -0.018503
      8          1           0        1.011372    2.158430   -0.004796
      9          1           0        1.011416   -2.158397   -0.004797
     10          1           0       -1.470509   -2.154279   -0.018509
     11          6           0        2.587669    0.000010    0.007194
     12          6           0        3.869783   -0.000020    0.011325
     13          6           0       -3.149511   -0.000015    0.016691
     14          1           0       -3.562878   -0.888930   -0.471357
     15          1           0       -3.509201   -0.000052    1.055388
     16          1           0       -3.562890    0.888926   -0.471299
 ---------------------------------------------------------------------
                    Distance matrix (angstroms):
                    1          2          3          4          5
     1  C    0.000000
     2  C    1.384394   0.000000
     3  C    2.440476   1.426286   0.000000
     4  C    2.803019   2.447164   1.426294   0.000000
     5  C    2.427452   2.803018   2.440478   1.384390   0.000000
     6  C    1.410812   2.433544   2.836469   2.433544   1.410816
     7  H    1.087399   2.142744   3.425245   3.890382   3.411925
     8  H    2.154417   1.085592   2.165993   3.426735   3.888496
     9  H    3.888498   3.426730   2.165994   1.085593   2.154422
    10  H    3.411924   3.890380   3.425247   2.142739   1.087399
    11  C    3.716360   2.454889   1.395309   2.454875   3.716347
    12  C    4.945939   3.623210   2.677428   3.623174   4.945910
    13  C    2.534377   3.810836   4.341920   3.810837   2.534382
    14  H    3.404592   4.567279   4.860560   4.063179   2.697349
    15  H    3.048204   4.286155   4.818537   4.286135   3.048182
    16  H    2.697331   4.063169   4.860558   4.567289   3.404608
                    6          7          8          9         10
     6  C    0.000000
     7  H    2.161257   0.000000
     8  H    3.422021   2.481958   0.000000
     9  H    3.422028   4.975882   4.316827   0.000000
    10  H    2.161260   4.308548   4.975880   2.481966   0.000000
    11  C    4.231777   4.594627   2.672758   2.672721   4.594609
    12  C    5.513897   5.758555   3.581854   3.581775   5.758510
    13  C    1.505750   2.731502   4.687461   4.687471   2.731509
    14  H    2.163775   3.720752   5.516144   4.770051   2.486803
    15  H    2.149587   3.154435   5.120412   5.120393   3.154396
    16  H    2.163776   2.486770   4.770025   5.516165   3.720776
                   11         12         13         14         15
    11  C    0.000000
    12  C    1.282121   0.000000
    13  C    5.737188   7.019296   0.000000
    14  H    6.232853   7.501173   1.095095   0.000000
    15  H    6.186318   7.452481   1.099213   1.767466   0.000000
    16  H    6.232857   7.501185   1.095095   1.777856   1.767466
                   16
    16  H    0.000000
 Stoichiometry    C9H7(2)
 Framework group  C1[X(C9H7)]
 Deg. of freedom    42
 Full point group                 C1      NOp   1
 Largest Abelian subgroup         C1      NOp   1
 Largest concise Abelian subgroup C1      NOp   1
                         Standard orientation:                         
 ---------------------------------------------------------------------
 Center     Atomic      Atomic             Coordinates (Angstroms)
 Number     Number       Type             X           Y           Z
 ---------------------------------------------------------------------
      1          6           0       -0.924859    1.213725   -0.012071
      2          6           0        0.459479    1.223591   -0.004517
      3          6           0        1.192378    0.000019    0.000187
      4          6           0        0.459496   -1.223573   -0.004514
      5          6           0       -0.924838   -1.213727   -0.012074
      6          6           0       -1.644059   -0.000005   -0.013242
      7          1           0       -1.470545    2.154269   -0.018503
      8          1           0        1.011372    2.158430   -0.004796
      9          1           0        1.011416   -2.158397   -0.004797
     10          1           0       -1.470509   -2.154279   -0.018509
     11          6           0        2.587669    0.000010    0.007194
     12          6           0        3.869783   -0.000020    0.011325
     13          6           0       -3.149511   -0.000015    0.016691
     14          1           0       -3.562878   -0.888930   -0.471357
     15          1           0       -3.509201   -0.000052    1.055388
     16          1           0       -3.562890    0.888926   -0.471299
 ---------------------------------------------------------------------
 Rotational constants (GHZ):           5.4221238           1.0127050           0.8579113
 Standard basis: 6-31+G(d) (6D, 7F)
 There are   185 symmetry adapted cartesian basis functions of A   symmetry.
 There are   185 symmetry adapted basis functions of A   symmetry.
   185 basis functions,   316 primitive gaussians,   185 cartesian basis functions
    31 alpha electrons       30 beta electrons
       nuclear repulsion energy       360.6576406624 Hartrees.
 NAtoms=   16 NActive=   16 NUniq=   16 SFac= 1.00D+00 NAtFMM=   60 NAOKFM=F Big=F
 Integral buffers will be    131072 words long.
 Raffenetti 2 integral format.
 Two-electron integral symmetry is turned on.
 Nuclear repulsion after empirical dispersion term =      360.6478997803 Hartrees.
 One-electron integrals computed using PRISM.
 NBasis=   185 RedAO= T EigKep=  2.74D-06  NBF=   185
 NBsUse=   184 1.00D-06 EigRej=  1.00D-07 NBFU=   184
 ExpMin= 4.38D-02 ExpMax= 3.05D+03 ExpMxC= 4.57D+02 IAcc=3 IRadAn=         5 AccDes= 0.00D+00
 Harris functional with IExCor=  402 and IRadAn=       5 diagonalized for initial guess.
 HarFok:  IExCor=  402 AccDes= 0.00D+00 IRadAn=         5 IDoV= 1 UseB2=F ITyADJ=14
 ICtDFT=  3500011 ScaDFX=  1.000000  1.000000  1.000000  1.000000
 FoFCou: FMM=F IPFlag=           0 FMFlag=      100000 FMFlg1=           0
         NFxFlg=           0 DoJE=T BraDBF=F KetDBF=T FulRan=T
         wScrn=  0.000000 ICntrl=       500 IOpCl=  0 I1Cent=   200000004 NGrid=           0
         NMat0=    1 NMatS0=      1 NMatT0=    0 NMatD0=    1 NMtDS0=    0 NMtDT0=    0
 Petite list used in FoFCou.
 Initial guess <Sx>= 0.0000 <Sy>= 0.0000 <Sz>= 0.5000 <S**2>= 0.7500 S= 0.5000
 Requested convergence on RMS density matrix=1.00D-08 within 128 cycles.
 Requested convergence on MAX density matrix=1.00D-06.
 Requested convergence on             energy=1.00D-06.
 No special actions if energy rises.
 Restarting incremental Fock formation.
 SCF Done:  E(UB3LYP) =  -347.032429243     A.U. after   21 cycles
            NFock= 21  Conv=0.98D-08     -V/T= 2.0099
 <Sx>= 0.0000 <Sy>= 0.0000 <Sz>= 0.5000 <S**2>= 0.7646 S= 0.5073
 <L.S>= 0.000000000000E+00
 Annihilation of the first spin contaminant:
 S**2 before annihilation     0.7646,   after     0.7501

 **********************************************************************

            Population analysis using the SCF Density.

 **********************************************************************

 Orbital symmetries:
 Alpha Orbitals:
       Occupied  (A) (A) (A) (A) (A) (A) (A) (A) (A) (A) (A) (A)
                 (A) (A) (A) (A) (A) (A) (A) (A) (A) (A) (A) (A)
                 (A) (A) (A) (A) (A) (A) (A)
       Virtual   (A) (A) (A) (A) (A) (A) (A) (A) (A) (A) (A) (A)
                 (A) (A) (A) (A) (A) (A) (A) (A) (A) (A) (A) (A)
                 (A) (A) (A) (A) (A) (A) (A) (A) (A) (A) (A) (A)
                 (A) (A) (A) (A) (A) (A) (A) (A) (A) (A) (A) (A)
                 (A) (A) (A) (A) (A) (A) (A) (A) (A) (A) (A) (A)
                 (A) (A) (A) (A) (A) (A) (A) (A) (A) (A) (A) (A)
                 (A) (A) (A) (A) (A) (A) (A) (A) (A) (A) (A) (A)
                 (A) (A) (A) (A) (A) (A) (A) (A) (A) (A) (A) (A)
                 (A) (A) (A) (A) (A) (A) (A) (A) (A) (A) (A) (A)
                 (A) (A) (A) (A) (A) (A) (A) (A) (A) (A) (A) (A)
                 (A) (A) (A) (A) (A) (A) (A) (A) (A) (A) (A) (A)
                 (A) (A) (A) (A) (A) (A) (A) (A) (A) (A) (A) (A)
                 (A) (A) (A) (A) (A) (A) (A) (A) (A)
 Beta  Orbitals:
       Occupied  (A) (A) (A) (A) (A) (A) (A) (A) (A) (A) (A) (A)
                 (A) (A) (A) (A) (A) (A) (A) (A) (A) (A) (A) (A)
                 (A) (A) (A) (A) (A) (A)
       Virtual   (A) (A) (A) (A) (A) (A) (A) (A) (A) (A) (A) (A)
                 (A) (A) (A) (A) (A) (A) (A) (A) (A) (A) (A) (A)
                 (A) (A) (A) (A) (A) (A) (A) (A) (A) (A) (A) (A)
                 (A) (A) (A) (A) (A) (A) (A) (A) (A) (A) (A) (A)
                 (A) (A) (A) (A) (A) (A) (A) (A) (A) (A) (A) (A)
                 (A) (A) (A) (A) (A) (A) (A) (A) (A) (A) (A) (A)
                 (A) (A) (A) (A) (A) (A) (A) (A) (A) (A) (A) (A)
                 (A) (A) (A) (A) (A) (A) (A) (A) (A) (A) (A) (A)
                 (A) (A) (A) (A) (A) (A) (A) (A) (A) (A) (A) (A)
                 (A) (A) (A) (A) (A) (A) (A) (A) (A) (A) (A) (A)
                 (A) (A) (A) (A) (A) (A) (A) (A) (A) (A) (A) (A)
                 (A) (A) (A) (A) (A) (A) (A) (A) (A) (A) (A) (A)
                 (A) (A) (A) (A) (A) (A) (A) (A) (A) (A)
 The electronic state is 2-A.
 Alpha  occ. eigenvalues --  -10.25447 -10.25220 -10.23891 -10.23891 -10.23016
 Alpha  occ. eigenvalues --  -10.23015 -10.21981 -10.20395 -10.19950  -0.90343
 Alpha  occ. eigenvalues --   -0.83041  -0.78926  -0.76285  -0.71264  -0.64761
 Alpha  occ. eigenvalues --   -0.63483  -0.56954  -0.50616  -0.50172  -0.46558
 Alpha  occ. eigenvalues --   -0.46122  -0.45902  -0.42405  -0.40817  -0.39535
 Alpha  occ. eigenvalues --   -0.38045  -0.33231  -0.29770  -0.26850  -0.26795
 Alpha  occ. eigenvalues --   -0.25316
 Alpha virt. eigenvalues --   -0.06987  -0.04899  -0.01049   0.00896   0.00911
 Alpha virt. eigenvalues --    0.02421   0.03699   0.03801   0.04127   0.04358
 Alpha virt. eigenvalues --    0.05279   0.06454   0.06905   0.07129   0.07359
 Alpha virt. eigenvalues --    0.08796   0.09151   0.10628   0.11436   0.11653
 Alpha virt. eigenvalues --    0.11901   0.13327   0.13380   0.13964   0.14300
 Alpha virt. eigenvalues --    0.14689   0.16114   0.17747   0.18240   0.18343
 Alpha virt. eigenvalues --    0.18602   0.19089   0.19485   0.20493   0.20694
 Alpha virt. eigenvalues --    0.22457   0.22753   0.23215   0.23935   0.24393
 Alpha virt. eigenvalues --    0.25386   0.26288   0.26607   0.27150   0.28818
 Alpha virt. eigenvalues --    0.29494   0.29922   0.31747   0.33346   0.34252
 Alpha virt. eigenvalues --    0.35920   0.37036   0.43022   0.52306   0.55657
 Alpha virt. eigenvalues --    0.57973   0.63298   0.64511   0.65014   0.65959
 Alpha virt. eigenvalues --    0.68219   0.68358   0.69914   0.70129   0.71187
 Alpha virt. eigenvalues --    0.72423   0.73530   0.73689   0.73785   0.75603
 Alpha virt. eigenvalues --    0.75851   0.79327   0.79762   0.80220   0.82653
 Alpha virt. eigenvalues --    0.83716   0.86779   0.87911   0.91102   0.94773
 Alpha virt. eigenvalues --    0.95158   0.95602   0.96471   1.02046   1.03615
 Alpha virt. eigenvalues --    1.05621   1.09136   1.10678   1.14258   1.16405
 Alpha virt. eigenvalues --    1.19012   1.20642   1.25553   1.25767   1.27348
 Alpha virt. eigenvalues --    1.28679   1.30865   1.36290   1.41506   1.41515
 Alpha virt. eigenvalues --    1.41996   1.42506   1.46599   1.52956   1.56259
 Alpha virt. eigenvalues --    1.59429   1.71927   1.75984   1.80541   1.82625
 Alpha virt. eigenvalues --    1.84697   1.87098   1.87953   1.88455   1.89150
 Alpha virt. eigenvalues --    1.92351   1.95776   2.04325   2.04838   2.08881
 Alpha virt. eigenvalues --    2.10740   2.12934   2.15329   2.15946   2.21488
 Alpha virt. eigenvalues --    2.23179   2.28074   2.33351   2.33743   2.37453
 Alpha virt. eigenvalues --    2.43087   2.43491   2.55287   2.59943   2.61976
 Alpha virt. eigenvalues --    2.70602   2.71072   2.72225   2.77068   2.87932
 Alpha virt. eigenvalues --    2.88258   3.12918   3.21138   3.40891   4.16335
 Alpha virt. eigenvalues --    4.18660   4.21211   4.25048   4.31299   4.35403
 Alpha virt. eigenvalues --    4.40330   4.57296   4.78168
  Beta  occ. eigenvalues --  -10.25267 -10.25155 -10.23691 -10.23690 -10.23112
  Beta  occ. eigenvalues --  -10.23112 -10.21995 -10.19928 -10.19461  -0.89978
  Beta  occ. eigenvalues --   -0.82489  -0.78748  -0.75252  -0.69863  -0.64536
  Beta  occ. eigenvalues --   -0.62966  -0.56703  -0.50500  -0.49923  -0.46341
  Beta  occ. eigenvalues --   -0.46064  -0.45435  -0.42362  -0.39759  -0.39380
  Beta  occ. eigenvalues --   -0.37936  -0.30582  -0.29265  -0.26024  -0.25806
  Beta virt. eigenvalues --   -0.17076  -0.04990  -0.04202  -0.01036   0.00914
  Beta virt. eigenvalues --    0.00939   0.02933   0.03748   0.04119   0.04268
  Beta virt. eigenvalues --    0.04411   0.05676   0.07018   0.07120   0.07364
  Beta virt. eigenvalues --    0.07649   0.08881   0.09207   0.11278   0.11789
  Beta virt. eigenvalues --    0.11938   0.12004   0.13356   0.13455   0.14231
  Beta virt. eigenvalues --    0.14330   0.14746   0.16216   0.18263   0.18382
  Beta virt. eigenvalues --    0.18619   0.18635   0.19546   0.19932   0.20947
  Beta virt. eigenvalues --    0.21008   0.22466   0.22778   0.23303   0.24170
  Beta virt. eigenvalues --    0.24388   0.25699   0.26485   0.26679   0.27410
  Beta virt. eigenvalues --    0.28884   0.29593   0.30151   0.31894   0.33437
  Beta virt. eigenvalues --    0.34860   0.35979   0.37284   0.43178   0.52394
  Beta virt. eigenvalues --    0.56056   0.58335   0.63569   0.64555   0.65302
  Beta virt. eigenvalues --    0.66421   0.68489   0.68562   0.70116   0.71194
  Beta virt. eigenvalues --    0.71544   0.72486   0.73759   0.74052   0.75364
  Beta virt. eigenvalues --    0.75998   0.76167   0.79503   0.80080   0.81207
  Beta virt. eigenvalues --    0.83632   0.83961   0.87446   0.88158   0.91190
  Beta virt. eigenvalues --    0.94870   0.95489   0.95647   0.96944   1.02111
  Beta virt. eigenvalues --    1.03685   1.05707   1.09343   1.10903   1.14427
  Beta virt. eigenvalues --    1.16804   1.19043   1.21133   1.25885   1.25954
  Beta virt. eigenvalues --    1.27847   1.30165   1.31608   1.36812   1.41775
  Beta virt. eigenvalues --    1.41864   1.42303   1.43143   1.46833   1.53231
  Beta virt. eigenvalues --    1.58967   1.62197   1.72184   1.77582   1.80675
  Beta virt. eigenvalues --    1.82769   1.85476   1.87383   1.88007   1.89354
  Beta virt. eigenvalues --    1.90918   1.94680   1.95849   2.04561   2.05048
  Beta virt. eigenvalues --    2.09732   2.11139   2.13875   2.15563   2.16568
  Beta virt. eigenvalues --    2.21914   2.23601   2.28428   2.33461   2.33905
  Beta virt. eigenvalues --    2.37888   2.43401   2.44428   2.55773   2.60395
  Beta virt. eigenvalues --    2.62206   2.70918   2.72310   2.73235   2.77193
  Beta virt. eigenvalues --    2.88074   2.88690   3.13060   3.21717   3.41147
  Beta virt. eigenvalues --    4.17367   4.19109   4.21370   4.25381   4.31462
  Beta virt. eigenvalues --    4.35558   4.40862   4.57904   4.78741
          Condensed to atoms (all electrons):
               1          2          3          4          5          6
     1  C    7.316329  -0.429375  -0.072886  -0.779966  -0.112696   0.227098
     2  C   -0.429375   9.281663  -0.236808  -1.952788  -0.779898   0.117856
     3  C   -0.072886  -0.236808   7.713175  -0.236749  -0.072795  -0.515451
     4  C   -0.779966  -1.952788  -0.236749   9.281627  -0.429487   0.117883
     5  C   -0.112696  -0.779898  -0.072795  -0.429487   7.316235   0.227046
     6  C    0.227098   0.117856  -0.515451   0.117883   0.227046   6.729411
     7  H    0.227719  -0.015472  -0.007592  -0.022475   0.059807   0.071234
     8  H   -0.062477   0.283456   0.028369   0.046199  -0.014953  -0.000606
     9  H   -0.014953   0.046196   0.028359   0.283461  -0.062467  -0.000602
    10  H    0.059814  -0.022477  -0.007595  -0.015468   0.227707   0.071239
    11  C    0.623772  -0.931909  -1.772877  -0.932063   0.624024  -0.707935
    12  C   -0.520691   0.458405   2.017839   0.458687  -0.520857   0.391876
    13  C   -0.288775   0.237621  -0.309198   0.237623  -0.288807  -0.732491
    14  H    0.030495  -0.011326  -0.002582   0.014585  -0.013501  -0.137490
    15  H   -0.020810   0.001059  -0.002227   0.001058  -0.020816  -0.027775
    16  H   -0.013503   0.014587  -0.002583  -0.011326   0.030494  -0.137496
               7          8          9         10         11         12
     1  C    0.227719  -0.062477  -0.014953   0.059814   0.623772  -0.520691
     2  C   -0.015472   0.283456   0.046196  -0.022477  -0.931909   0.458405
     3  C   -0.007592   0.028369   0.028359  -0.007595  -1.772877   2.017839
     4  C   -0.022475   0.046199   0.283461  -0.015468  -0.932063   0.458687
     5  C    0.059807  -0.014953  -0.062467   0.227707   0.624024  -0.520857
     6  C    0.071234  -0.000606  -0.000602   0.071239  -0.707935   0.391876
     7  H    0.525235  -0.004081   0.000016  -0.000145  -0.000911  -0.001465
     8  H   -0.004081   0.496937  -0.000129   0.000016   0.012597  -0.003737
     9  H    0.000016  -0.000129   0.496935  -0.004081   0.012593  -0.003739
    10  H   -0.000145   0.000016  -0.004081   0.525236  -0.000909  -0.001465
    11  C   -0.000911   0.012597   0.012593  -0.000909  21.157111 -13.302856
    12  C   -0.001465  -0.003737  -0.003739  -0.001465 -13.302856  18.272047
    13  C   -0.026765   0.002554   0.002554  -0.026764  -0.080789   0.079702
    14  H    0.000076   0.000002  -0.000004   0.002750   0.000460   0.000061
    15  H    0.000334   0.000001   0.000001   0.000334  -0.000042   0.000039
    16  H    0.002751  -0.000004   0.000002   0.000076   0.000460   0.000061
              13         14         15         16
     1  C   -0.288775   0.030495  -0.020810  -0.013503
     2  C    0.237621  -0.011326   0.001059   0.014587
     3  C   -0.309198  -0.002582  -0.002227  -0.002583
     4  C    0.237623   0.014585   0.001058  -0.011326
     5  C   -0.288807  -0.013501  -0.020816   0.030494
     6  C   -0.732491  -0.137490  -0.027775  -0.137496
     7  H   -0.026765   0.000076   0.000334   0.002751
     8  H    0.002554   0.000002   0.000001  -0.000004
     9  H    0.002554  -0.000004   0.000001   0.000002
    10  H   -0.026764   0.002750   0.000334   0.000076
    11  C   -0.080789   0.000460  -0.000042   0.000460
    12  C    0.079702   0.000061   0.000039   0.000061
    13  C    6.647176   0.457711   0.401141   0.457720
    14  H    0.457711   0.490675  -0.026756  -0.024855
    15  H    0.401141  -0.026756   0.479027  -0.026755
    16  H    0.457720  -0.024855  -0.026755   0.490675
          Atomic-Atomic Spin Densities.
               1          2          3          4          5          6
     1  C   -0.033727  -0.066928   0.001852  -0.067355   0.043880   0.023973
     2  C   -0.066928   0.178731   0.042313   0.109723  -0.067358  -0.022832
     3  C    0.001852   0.042313  -0.104496   0.042304   0.001857   0.004204
     4  C   -0.067355   0.109723   0.042304   0.178771  -0.066973  -0.022829
     5  C    0.043880  -0.067358   0.001857  -0.066973  -0.033682   0.023963
     6  C    0.023973  -0.022832   0.004204  -0.022829   0.023963   0.264568
     7  H   -0.000841  -0.000536   0.000303  -0.000033   0.000359   0.001676
     8  H   -0.000771   0.006368  -0.004462  -0.000977   0.000134   0.001181
     9  H    0.000134  -0.000977  -0.004462   0.006367  -0.000771   0.001181
    10  H    0.000359  -0.000033   0.000303  -0.000536  -0.000841   0.001677
    11  C    0.061626  -0.061614   0.028418  -0.061591   0.061643   0.009821
    12  C   -0.052625   0.014863  -0.049532   0.014831  -0.052641   0.001894
    13  C   -0.010245   0.016338  -0.001373   0.016343  -0.010241  -0.040403
    14  H   -0.001499   0.000244  -0.000275   0.000223  -0.000747  -0.002085
    15  H    0.003015  -0.000544   0.000963  -0.000543   0.003015  -0.011358
    16  H   -0.000747   0.000223  -0.000275   0.000244  -0.001498  -0.002084
               7          8          9         10         11         12
     1  C   -0.000841  -0.000771   0.000134   0.000359   0.061626  -0.052625
     2  C   -0.000536   0.006368  -0.000977  -0.000033  -0.061614   0.014863
     3  C    0.000303  -0.004462  -0.004462   0.000303   0.028418  -0.049532
     4  C   -0.000033  -0.000977   0.006367  -0.000536  -0.061591   0.014831
     5  C    0.000359   0.000134  -0.000771  -0.000841   0.061643  -0.052641
     6  C    0.001676   0.001181   0.001181   0.001677   0.009821   0.001894
     7  H    0.002658   0.000051   0.000000   0.000000  -0.000046  -0.000113
     8  H    0.000051  -0.007227   0.000003   0.000000  -0.000552  -0.000788
     9  H    0.000000   0.000003  -0.007227   0.000051  -0.000552  -0.000788
    10  H    0.000000   0.000000   0.000051   0.002658  -0.000046  -0.000113
    11  C   -0.000046  -0.000552  -0.000552  -0.000046  -0.008333   0.306218
    12  C   -0.000113  -0.000788  -0.000788  -0.000113   0.306218   0.204975
    13  C   -0.000364  -0.000108  -0.000108  -0.000364   0.000883  -0.000251
    14  H    0.000002   0.000000   0.000000  -0.000009  -0.000038   0.000000
    15  H   -0.000013   0.000000   0.000000  -0.000013   0.000012   0.000002
    16  H   -0.000009   0.000000   0.000000   0.000002  -0.000038   0.000000
              13         14         15         16
     1  C   -0.010245  -0.001499   0.003015  -0.000747
     2  C    0.016338   0.000244  -0.000544   0.000223
     3  C   -0.001373  -0.000275   0.000963  -0.000275
     4  C    0.016343   0.000223  -0.000543   0.000244
     5  C   -0.010241  -0.000747   0.003015  -0.001498
     6  C   -0.040403  -0.002085  -0.011358  -0.002084
     7  H   -0.000364   0.000002  -0.000013  -0.000009
     8  H   -0.000108   0.000000   0.000000   0.000000
     9  H   -0.000108   0.000000   0.000000   0.000000
    10  H   -0.000364  -0.000009  -0.000013   0.000002
    11  C    0.000883  -0.000038   0.000012  -0.000038
    12  C   -0.000251   0.000000   0.000002   0.000000
    13  C   -0.003407   0.004415   0.002974   0.004414
    14  H    0.004415   0.004616  -0.002167   0.000776
    15  H    0.002974  -0.002167   0.021433  -0.002167
    16  H    0.004414   0.000776  -0.002167   0.004615
 Mulliken charges and spin densities:
               1          2
     1  C   -0.169095  -0.099898
     2  C   -0.060790   0.147981
     3  C   -0.548399  -0.042360
     4  C   -0.060800   0.147968
     5  C   -0.169035  -0.099901
     6  C    0.306202   0.232547
     7  H    0.191733   0.003095
     8  H    0.215855  -0.007147
     9  H    0.215857  -0.007147
    10  H    0.191733   0.003095
    11  C    1.299274   0.335809
    12  C   -1.323907   0.385933
    13  C   -0.770215  -0.021498
    14  H    0.219700   0.003457
    15  H    0.242188   0.014610
    16  H    0.219698   0.003457
 Sum of Mulliken charges =   0.00000   1.00000
 Mulliken charges and spin densities with hydrogens summed into heavy atoms:
               1          2
     1  C    0.022638  -0.096803
     2  C    0.155066   0.140834
     3  C   -0.548399  -0.042360
     4  C    0.155057   0.140821
     5  C    0.022698  -0.096807
     6  C    0.306202   0.232547
    11  C    1.299274   0.335809
    12  C   -1.323907   0.385933
    13  C   -0.088629   0.000026
 Electronic spatial extent (au):  <R**2>=           1306.8935
 Charge=              0.0000 electrons
 Dipole moment (field-independent basis, Debye):
    X=             -7.8499    Y=              0.0000    Z=              0.0425  Tot=              7.8500
 Quadrupole moment (field-independent basis, Debye-Ang):
   XX=            -76.4333   YY=            -47.7001   ZZ=            -55.5848
   XY=              0.0001   XZ=             -0.2632   YZ=              0.0000
 Traceless Quadrupole moment (field-independent basis, Debye-Ang):
   XX=            -16.5272   YY=             12.2060   ZZ=              4.3213
   XY=              0.0001   XZ=             -0.2632   YZ=              0.0000
 Octapole moment (field-independent basis, Debye-Ang**2):
  XXX=           -179.5272  YYY=              0.0003  ZZZ=              0.8176  XYY=            -12.2134
  XXY=              0.0007  XXZ=              0.1715  XZZ=             -7.3573  YZZ=             -0.0001
  YYZ=             -0.7186  XYZ=              0.0000
 Hexadecapole moment (field-independent basis, Debye-Ang**3):
 XXXX=          -2175.3589 YYYY=           -296.3868 ZZZZ=            -74.1353 XXXY=              0.0039
 XXXZ=             -3.3536 YYYX=              0.0001 YYYZ=              0.0001 ZZZX=             -3.0403
 ZZZY=              0.0000 XXYY=           -316.7789 XXZZ=           -272.7945 YYZZ=            -73.7673
 XXYZ=              0.0000 YYXZ=              2.1950 ZZXY=              0.0004
 N-N= 3.606478997803D+02 E-N=-1.522864967693D+03  KE= 3.436157010294D+02
                          Isotropic Fermi Contact Couplings
        Atom                 a.u.       MegaHertz       Gauss      10(-4) cm-1
     1  C(13)             -0.01249     -14.04099      -5.01018      -4.68357
     2  C(13)              0.01463      16.44476       5.86790       5.48538
     3  C(13)             -0.01285     -14.44479      -5.15426      -4.81826
     4  C(13)              0.01463      16.44455       5.86782       5.48531
     5  C(13)             -0.01249     -14.04107      -5.01020      -4.68360
     6  C(13)              0.02289      25.73334       9.18230       8.58372
     7  H(1)               0.00086       3.85760       1.37649       1.28676
     8  H(1)              -0.00234     -10.44003      -3.72526      -3.48242
     9  H(1)              -0.00234     -10.43981      -3.72519      -3.48235
    10  H(1)               0.00086       3.85769       1.37652       1.28679
    11  C(13)              0.01926      21.65571       7.72730       7.22357
    12  C(13)              0.02353      26.45481       9.43974       8.82438
    13  C(13)             -0.00592      -6.65023      -2.37297      -2.21828
    14  H(1)               0.00184       8.22911       2.93635       2.74494
    15  H(1)               0.00745      33.29515      11.88054      11.10607
    16  H(1)               0.00184       8.22740       2.93574       2.74436
 --------------------------------------------------------
       Center         ----  Spin Dipole Couplings  ----
                      3XX-RR        3YY-RR        3ZZ-RR
 --------------------------------------------------------
     1   Atom        0.034025      0.028788     -0.062813
     2   Atom       -0.076339     -0.075284      0.151623
     3   Atom        0.013055     -0.002038     -0.011017
     4   Atom       -0.076337     -0.075282      0.151619
     5   Atom        0.034026      0.028789     -0.062814
     6   Atom       -0.106313     -0.113775      0.220089
     7   Atom        0.002038      0.001132     -0.003170
     8   Atom       -0.004522      0.008860     -0.004337
     9   Atom       -0.004522      0.008859     -0.004338
    10   Atom        0.002038      0.001132     -0.003170
    11   Atom       -0.170423     -0.221160      0.391583
    12   Atom       -0.196881     -0.224023      0.420903
    13   Atom        0.000782     -0.005727      0.004945
    14   Atom        0.002689     -0.000687     -0.002002
    15   Atom        0.002887     -0.003029      0.000142
    16   Atom        0.002689     -0.000687     -0.002002
 --------------------------------------------------------
                        XY            XZ            YZ
 --------------------------------------------------------
     1   Atom        0.002310      0.000425     -0.001090
     2   Atom       -0.001129     -0.001051      0.000191
     3   Atom       -0.000001     -0.000609      0.000000
     4   Atom        0.001129     -0.001052     -0.000191
     5   Atom       -0.002310      0.000425      0.001090
     6   Atom        0.000000      0.002883     -0.000001
     7   Atom        0.001783     -0.000011      0.000041
     8   Atom        0.004598     -0.000001      0.000021
     9   Atom       -0.004598     -0.000001     -0.000021
    10   Atom       -0.001783     -0.000011     -0.000041
    11   Atom       -0.000001     -0.004203      0.000002
    12   Atom        0.000000      0.003564      0.000002
    13   Atom        0.000000     -0.000008      0.000000
    14   Atom        0.002229      0.000778      0.000372
    15   Atom        0.000000     -0.002521      0.000000
    16   Atom       -0.002229      0.000778     -0.000372
 --------------------------------------------------------


 ---------------------------------------------------------------------------------
              Anisotropic Spin Dipole Couplings in Principal Axis System
 ---------------------------------------------------------------------------------

       Atom             a.u.   MegaHertz   Gauss  10(-4) cm-1        Axes

              Baa    -0.0628    -8.431    -3.008    -2.812 -0.0047  0.0120  0.9999
     1 C(13)  Bbb     0.0279     3.748     1.337     1.250 -0.3536  0.9353 -0.0129
              Bcc     0.0349     4.683     1.671     1.562  0.9354  0.3537  0.0001
 
              Baa    -0.0771   -10.341    -3.690    -3.449  0.8441  0.5361  0.0034
     2 C(13)  Bbb    -0.0746   -10.006    -3.570    -3.338 -0.5361  0.8441 -0.0032
              Bcc     0.1516    20.347     7.260     6.787 -0.0046  0.0009  1.0000
 
              Baa    -0.0110    -1.480    -0.528    -0.494  0.0253  0.0000  0.9997
     3 C(13)  Bbb    -0.0020    -0.273    -0.098    -0.091  0.0000  1.0000  0.0000
              Bcc     0.0131     1.754     0.626     0.585  0.9997  0.0000 -0.0253
 
              Baa    -0.0771   -10.341    -3.690    -3.449  0.8441 -0.5362  0.0034
     4 C(13)  Bbb    -0.0746   -10.006    -3.570    -3.338  0.5362  0.8441  0.0032
              Bcc     0.1516    20.347     7.260     6.787 -0.0046 -0.0009  1.0000
 
              Baa    -0.0628    -8.431    -3.008    -2.812 -0.0047 -0.0120  0.9999
     5 C(13)  Bbb     0.0279     3.748     1.337     1.250  0.3536  0.9353  0.0129
              Bcc     0.0349     4.683     1.671     1.562  0.9354 -0.3536  0.0001
 
              Baa    -0.1138   -15.268    -5.448    -5.093  0.0000  1.0000  0.0000
     6 C(13)  Bbb    -0.1063   -14.270    -5.092    -4.760  1.0000  0.0000 -0.0088
              Bcc     0.2201    29.537    10.540     9.853  0.0088  0.0000  1.0000
 
              Baa    -0.0032    -1.692    -0.604    -0.564  0.0064 -0.0122  0.9999
     7 H(1)   Bbb    -0.0003    -0.135    -0.048    -0.045 -0.6139  0.7893  0.0136
              Bcc     0.0034     1.827     0.652     0.609  0.7893  0.6140  0.0025
 
              Baa    -0.0059    -3.175    -1.133    -1.059  0.9550 -0.2965  0.0046
     8 H(1)   Bbb    -0.0043    -2.314    -0.826    -0.772 -0.0048  0.0001  1.0000
              Bcc     0.0103     5.489     1.959     1.831  0.2965  0.9550  0.0014
 
              Baa    -0.0059    -3.174    -1.133    -1.059  0.9550  0.2965  0.0046
     9 H(1)   Bbb    -0.0043    -2.314    -0.826    -0.772 -0.0048 -0.0001  1.0000
              Bcc     0.0103     5.489     1.958     1.831 -0.2965  0.9550 -0.0013
 
              Baa    -0.0032    -1.692    -0.604    -0.564  0.0064  0.0122  0.9999
    10 H(1)   Bbb    -0.0003    -0.135    -0.048    -0.045  0.6139  0.7893 -0.0135
              Bcc     0.0034     1.827     0.652     0.609  0.7894 -0.6139  0.0025
 
              Baa    -0.2212   -29.678   -10.590    -9.899  0.0000  1.0000  0.0000
    11 C(13)  Bbb    -0.1705   -22.873    -8.162    -7.630  1.0000  0.0000  0.0075
              Bcc     0.3916    52.551    18.751    17.529 -0.0075  0.0000  1.0000
 
              Baa    -0.2240   -30.062   -10.727   -10.028  0.0000  1.0000  0.0000
    12 C(13)  Bbb    -0.1969   -26.422    -9.428    -8.814  1.0000  0.0000 -0.0058
              Bcc     0.4209    56.484    20.155    18.841  0.0058  0.0000  1.0000
 
              Baa    -0.0057    -0.769    -0.274    -0.256  0.0000  1.0000  0.0000
    13 C(13)  Bbb     0.0008     0.105     0.037     0.035  1.0000  0.0000  0.0020
              Bcc     0.0049     0.664     0.237     0.221 -0.0020  0.0000  1.0000
 
              Baa    -0.0021    -1.136    -0.405    -0.379 -0.1466 -0.0285  0.9888
    14 H(1)   Bbb    -0.0018    -0.957    -0.342    -0.319 -0.4394  0.8974 -0.0393
              Bcc     0.0039     2.093     0.747     0.698  0.8863  0.4402  0.1440
 
              Baa    -0.0030    -1.616    -0.577    -0.539  0.0000  1.0000  0.0000
    15 H(1)   Bbb    -0.0014    -0.723    -0.258    -0.241  0.5108  0.0000  0.8597
              Bcc     0.0044     2.339     0.835     0.780  0.8597  0.0000 -0.5108
 
              Baa    -0.0021    -1.136    -0.405    -0.379 -0.1466  0.0283  0.9888
    16 H(1)   Bbb    -0.0018    -0.957    -0.342    -0.319  0.4393  0.8975  0.0394
              Bcc     0.0039     2.093     0.747     0.698  0.8863 -0.4402  0.1440
 

 ---------------------------------------------------------------------------------

 Evaluate density.
 Using the total density.
 Monte-Carlo method of calculating molar volume:
 based on  0.001 e/bohr**3 density envelope.
 Number of points per bohr**3 =   20 CutOff= 1.00D-04
 Using the SCF density.
 There are       364 points.  Will hold       364 in memory.
 LenV=  4026394594 MDV=  4026531840.
 Box volume = 6070.324 fraction occupied=0.190
 Integrated density= 3.6861195284343444D+02 error= 3.0761195284343444D+02
 Molar volume = 1150.693 bohr**3/mol (102.687 cm**3/mol)
 Recommended a0 for SCRF calculation =  4.29 angstrom (  8.10 bohr)
 Calling FoFJK, ICntrl=      2127 FMM=F ISym2X=0 I1Cent= 0 IOpClX= 1 NMat=1 NMatS=1 NMatT=0.
 ***** Axes restored to original set *****
 -------------------------------------------------------------------
 Center     Atomic                   Forces (Hartrees/Bohr)
 Number     Number              X              Y              Z
 -------------------------------------------------------------------
      1        6          -0.000021259    0.000013841   -0.000006249
      2        6           0.000033463    0.000016366    0.000000789
      3        6          -0.000042850   -0.000005096   -0.000005429
      4        6           0.000036920   -0.000011520   -0.000000231
      5        6          -0.000024135   -0.000013536   -0.000005725
      6        6          -0.000041027   -0.000000847    0.000008827
      7        1           0.000020418    0.000004408    0.000004051
      8        1          -0.000006844   -0.000005706    0.000002063
      9        1          -0.000008218    0.000005757    0.000002350
     10        1           0.000019820   -0.000004699    0.000004048
     11        6           0.000020107    0.000001300    0.000002021
     12        6           0.000002342    0.000000231   -0.000003778
     13        6           0.000035991   -0.000000395   -0.000004258
     14        1          -0.000002565    0.000005345   -0.000000279
     15        1          -0.000019699   -0.000000054    0.000002111
     16        1          -0.000002465   -0.000005394   -0.000000311
 -------------------------------------------------------------------
 Cartesian Forces:  Max     0.000042850 RMS     0.000015343

 GradGradGradGradGradGradGradGradGradGradGradGradGradGradGradGradGradGrad
 Berny optimization.
 FormGI is forming the generalized inverse of G from B-inverse, IUseBI=4.
 Internal  Forces:  Max     0.000030891 RMS     0.000009852
 Search for a local minimum.
 Step number   1 out of a maximum of   82
 All quantities printed in internal units (Hartrees-Bohrs-Radians)
 Mixed Optimization -- En-DIIS/RFO-DIIS
 Second derivative matrix not updated -- first step.
 ITU=  0
     Eigenvalues ---    0.00690   0.01436   0.01741   0.01839   0.01976
     Eigenvalues ---    0.01991   0.02069   0.02087   0.02153   0.02156
     Eigenvalues ---    0.03648   0.03648   0.07037   0.07279   0.16000
     Eigenvalues ---    0.16000   0.16000   0.16000   0.16000   0.16000
     Eigenvalues ---    0.16000   0.22000   0.22946   0.23998   0.24992
     Eigenvalues ---    0.25000   0.31782   0.33769   0.34230   0.34230
     Eigenvalues ---    0.35115   0.35115   0.35327   0.35327   0.39175
     Eigenvalues ---    0.40178   0.43021   0.43057   0.46153   0.46407
     Eigenvalues ---    0.48308   0.72414
 RFO step:  Lambda=-4.74482096D-08 EMin= 6.89891995D-03
 Linear search not attempted -- first point.
 Iteration  1 RMS(Cart)=  0.00032320 RMS(Int)=  0.00000004
 Iteration  2 RMS(Cart)=  0.00000006 RMS(Int)=  0.00000000
 Variable       Old X    -DE/DX   Delta X   Delta X   Delta X     New X
                                 (Linear)    (Quad)   (Total)
    R1        2.61613   0.00002   0.00000   0.00003   0.00003   2.61616
    R2        2.66605   0.00003   0.00000   0.00007   0.00007   2.66612
    R3        2.05489  -0.00001   0.00000  -0.00002  -0.00002   2.05487
    R4        2.69529   0.00000   0.00000  -0.00001  -0.00001   2.69528
    R5        2.05147  -0.00001   0.00000  -0.00002  -0.00002   2.05145
    R6        2.69531  -0.00001   0.00000  -0.00002  -0.00002   2.69529
    R7        2.63675   0.00002   0.00000   0.00005   0.00005   2.63680
    R8        2.61612   0.00002   0.00000   0.00004   0.00004   2.61616
    R9        2.05147  -0.00001   0.00000  -0.00003  -0.00003   2.05145
   R10        2.66606   0.00003   0.00000   0.00007   0.00007   2.66612
   R11        2.05489  -0.00001   0.00000  -0.00002  -0.00002   2.05487
   R12        2.84545  -0.00001   0.00000  -0.00004  -0.00004   2.84542
   R13        2.42286   0.00000   0.00000   0.00000   0.00000   2.42286
   R14        2.06943   0.00000   0.00000  -0.00001  -0.00001   2.06942
   R15        2.07721   0.00001   0.00000   0.00002   0.00002   2.07724
   R16        2.06943   0.00000   0.00000  -0.00001  -0.00001   2.06942
    A1        2.11285   0.00000   0.00000   0.00001   0.00001   2.11286
    A2        2.08941  -0.00002   0.00000  -0.00013  -0.00013   2.08927
    A3        2.08093   0.00002   0.00000   0.00012   0.00012   2.08105
    A4        2.10335   0.00000   0.00000  -0.00001  -0.00001   2.10334
    A5        2.11121   0.00000   0.00000  -0.00001  -0.00001   2.11120
    A6        2.06862   0.00000   0.00000   0.00003   0.00003   2.06864
    A7        2.06225   0.00001   0.00000   0.00004   0.00004   2.06229
    A8        2.11048  -0.00001   0.00000  -0.00003  -0.00003   2.11045
    A9        2.11045   0.00000   0.00000  -0.00001  -0.00001   2.11044
   A10        2.10335   0.00000   0.00000  -0.00001  -0.00001   2.10334
   A11        2.06861   0.00000   0.00000   0.00003   0.00003   2.06864
   A12        2.11123   0.00000   0.00000  -0.00002  -0.00002   2.11121
   A13        2.11285   0.00000   0.00000   0.00001   0.00001   2.11286
   A14        2.08941  -0.00002   0.00000  -0.00013  -0.00013   2.08928
   A15        2.08093   0.00002   0.00000   0.00012   0.00012   2.08105
   A16        2.07172  -0.00001   0.00000  -0.00004  -0.00004   2.07169
   A17        2.10559   0.00001   0.00000   0.00002   0.00002   2.10562
   A18        2.10560   0.00001   0.00000   0.00002   0.00002   2.10561
   A19        1.94824   0.00000   0.00000  -0.00001  -0.00001   1.94822
   A20        1.92404   0.00003   0.00000   0.00019   0.00019   1.92423
   A21        1.94824   0.00000   0.00000  -0.00002  -0.00002   1.94822
   A22        1.87296  -0.00001   0.00000  -0.00004  -0.00004   1.87292
   A23        1.89424  -0.00001   0.00000  -0.00008  -0.00008   1.89416
   A24        1.87296  -0.00001   0.00000  -0.00004  -0.00004   1.87292
   A25        3.14157   0.00000   0.00000   0.00001   0.00001   3.14159
   A26        3.13936  -0.00001   0.00000  -0.00020  -0.00020   3.13916
    D1        0.00170   0.00000   0.00000   0.00005   0.00005   0.00176
    D2        3.14034   0.00000   0.00000  -0.00002  -0.00002   3.14031
    D3       -3.13851   0.00000   0.00000   0.00007   0.00007  -3.13843
    D4        0.00012   0.00000   0.00000   0.00000   0.00000   0.00013
    D5       -0.00447   0.00000   0.00000   0.00009   0.00009  -0.00438
    D6        3.11212   0.00001   0.00000   0.00041   0.00041   3.11254
    D7        3.13575   0.00000   0.00000   0.00006   0.00006   3.13581
    D8       -0.03084   0.00001   0.00000   0.00039   0.00039  -0.03045
    D9        0.00111   0.00000   0.00000  -0.00018  -0.00018   0.00093
   D10        3.14108   0.00000   0.00000  -0.00020  -0.00020   3.14088
   D11       -3.13759   0.00000   0.00000  -0.00011  -0.00011  -3.13770
   D12        0.00238   0.00000   0.00000  -0.00013  -0.00013   0.00224
   D13       -0.00111   0.00000   0.00000   0.00017   0.00017  -0.00094
   D14        3.13758   0.00000   0.00000   0.00012   0.00012   3.13770
   D15       -3.14108   0.00000   0.00000   0.00020   0.00020  -3.14088
   D16       -0.00239   0.00000   0.00000   0.00014   0.00014  -0.00224
   D17       -0.00171   0.00000   0.00000  -0.00004  -0.00004  -0.00175
   D18        3.13850   0.00000   0.00000  -0.00007  -0.00007   3.13844
   D19       -3.14033   0.00000   0.00000   0.00002   0.00002  -3.14031
   D20       -0.00012   0.00000   0.00000  -0.00001  -0.00001  -0.00013
   D21        0.00448   0.00000   0.00000  -0.00009  -0.00009   0.00438
   D22       -3.11212  -0.00001   0.00000  -0.00042  -0.00042  -3.11254
   D23       -3.13575   0.00000   0.00000  -0.00006  -0.00006  -3.13581
   D24        0.03084  -0.00001   0.00000  -0.00039  -0.00039   0.03045
   D25        2.64524  -0.00001   0.00000  -0.00023  -0.00023   2.64501
   D26       -1.55809   0.00000   0.00000  -0.00017  -0.00017  -1.55825
   D27        0.52178   0.00000   0.00000  -0.00010  -0.00010   0.52167
   D28       -0.52184   0.00000   0.00000   0.00010   0.00010  -0.52174
   D29        1.55802   0.00000   0.00000   0.00017   0.00017   1.55819
   D30       -2.64530   0.00001   0.00000   0.00023   0.00023  -2.64507
         Item               Value     Threshold  Converged?
 Maximum Force            0.000031     0.000450     YES
 RMS     Force            0.000010     0.000300     YES
 Maximum Displacement     0.001484     0.001800     YES
 RMS     Displacement     0.000323     0.001200     YES
 Predicted change in Energy=-2.372413D-08
 Optimization completed.
    -- Stationary point found.
                           ----------------------------
                           !   Optimized Parameters   !
                           ! (Angstroms and Degrees)  !
 --------------------------                            --------------------------
 ! Name  Definition              Value          Derivative Info.                !
 --------------------------------------------------------------------------------
 ! R1    R(1,2)                  1.3844         -DE/DX =    0.0                 !
 ! R2    R(1,6)                  1.4108         -DE/DX =    0.0                 !
 ! R3    R(1,7)                  1.0874         -DE/DX =    0.0                 !
 ! R4    R(2,3)                  1.4263         -DE/DX =    0.0                 !
 ! R5    R(2,8)                  1.0856         -DE/DX =    0.0                 !
 ! R6    R(3,4)                  1.4263         -DE/DX =    0.0                 !
 ! R7    R(3,11)                 1.3953         -DE/DX =    0.0                 !
 ! R8    R(4,5)                  1.3844         -DE/DX =    0.0                 !
 ! R9    R(4,9)                  1.0856         -DE/DX =    0.0                 !
 ! R10   R(5,6)                  1.4108         -DE/DX =    0.0                 !
 ! R11   R(5,10)                 1.0874         -DE/DX =    0.0                 !
 ! R12   R(6,13)                 1.5057         -DE/DX =    0.0                 !
 ! R13   R(11,12)                1.2821         -DE/DX =    0.0                 !
 ! R14   R(13,14)                1.0951         -DE/DX =    0.0                 !
 ! R15   R(13,15)                1.0992         -DE/DX =    0.0                 !
 ! R16   R(13,16)                1.0951         -DE/DX =    0.0                 !
 ! A1    A(2,1,6)              121.0571         -DE/DX =    0.0                 !
 ! A2    A(2,1,7)              119.7142         -DE/DX =    0.0                 !
 ! A3    A(6,1,7)              119.2286         -DE/DX =    0.0                 !
 ! A4    A(1,2,3)              120.5131         -DE/DX =    0.0                 !
 ! A5    A(1,2,8)              120.9637         -DE/DX =    0.0                 !
 ! A6    A(3,2,8)              118.523          -DE/DX =    0.0                 !
 ! A7    A(2,3,4)              118.1582         -DE/DX =    0.0                 !
 ! A8    A(2,3,11)             120.9218         -DE/DX =    0.0                 !
 ! A9    A(4,3,11)             120.92           -DE/DX =    0.0                 !
 ! A10   A(3,4,5)              120.5129         -DE/DX =    0.0                 !
 ! A11   A(3,4,9)              118.5224         -DE/DX =    0.0                 !
 ! A12   A(5,4,9)              120.9645         -DE/DX =    0.0                 !
 ! A13   A(4,5,6)              121.0572         -DE/DX =    0.0                 !
 ! A14   A(4,5,10)             119.7142         -DE/DX =    0.0                 !
 ! A15   A(6,5,10)             119.2286         -DE/DX =    0.0                 !
 ! A16   A(1,6,5)              118.701          -DE/DX =    0.0                 !
 ! A17   A(1,6,13)             120.6416         -DE/DX =    0.0                 !
 ! A18   A(5,6,13)             120.6417         -DE/DX =    0.0                 !
 ! A19   A(6,13,14)            111.6258         -DE/DX =    0.0                 !
 ! A20   A(6,13,15)            110.2395         -DE/DX =    0.0                 !
 ! A21   A(6,13,16)            111.6258         -DE/DX =    0.0                 !
 ! A22   A(14,13,15)           107.3127         -DE/DX =    0.0                 !
 ! A23   A(14,13,16)           108.5318         -DE/DX =    0.0                 !
 ! A24   A(15,13,16)           107.3127         -DE/DX =    0.0                 !
 ! A25   L(3,11,12,9,-1)       179.9988         -DE/DX =    0.0                 !
 ! A26   L(3,11,12,9,-2)       179.8723         -DE/DX =    0.0                 !
 ! D1    D(6,1,2,3)              0.0977         -DE/DX =    0.0                 !
 ! D2    D(6,1,2,8)            179.928          -DE/DX =    0.0                 !
 ! D3    D(7,1,2,3)           -179.8233         -DE/DX =    0.0                 !
 ! D4    D(7,1,2,8)              0.007          -DE/DX =    0.0                 !
 ! D5    D(2,1,6,5)             -0.2562         -DE/DX =    0.0                 !
 ! D6    D(2,1,6,13)           178.3116         -DE/DX =    0.0                 !
 ! D7    D(7,1,6,5)            179.6652         -DE/DX =    0.0                 !
 ! D8    D(7,1,6,13)            -1.7671         -DE/DX =    0.0                 !
 ! D9    D(1,2,3,4)              0.0638         -DE/DX =    0.0                 !
 ! D10   D(1,2,3,11)           179.9707         -DE/DX =    0.0                 !
 ! D11   D(8,2,3,4)           -179.7706         -DE/DX =    0.0                 !
 ! D12   D(8,2,3,11)             0.1363         -DE/DX =    0.0                 !
 ! D13   D(2,3,4,5)             -0.0635         -DE/DX =    0.0                 !
 ! D14   D(2,3,4,9)            179.7702         -DE/DX =    0.0                 !
 ! D15   D(11,3,4,5)          -179.9704         -DE/DX =    0.0                 !
 ! D16   D(11,3,4,9)            -0.1367         -DE/DX =    0.0                 !
 ! D17   D(3,4,5,6)             -0.0983         -DE/DX =    0.0                 !
 ! D18   D(3,4,5,10)           179.823          -DE/DX =    0.0                 !
 ! D19   D(9,4,5,6)           -179.9279         -DE/DX =    0.0                 !
 ! D20   D(9,4,5,10)            -0.0067         -DE/DX =    0.0                 !
 ! D21   D(4,5,6,1)              0.2565         -DE/DX =    0.0                 !
 ! D22   D(4,5,6,13)          -178.3113         -DE/DX =    0.0                 !
 ! D23   D(10,5,6,1)          -179.6651         -DE/DX =    0.0                 !
 ! D24   D(10,5,6,13)            1.7671         -DE/DX =    0.0                 !
 ! D25   D(1,6,13,14)          151.561          -DE/DX =    0.0                 !
 ! D26   D(1,6,13,15)          -89.2718         -DE/DX =    0.0                 !
 ! D27   D(1,6,13,16)           29.8956         -DE/DX =    0.0                 !
 ! D28   D(5,6,13,14)          -29.8992         -DE/DX =    0.0                 !
 ! D29   D(5,6,13,15)           89.2681         -DE/DX =    0.0                 !
 ! D30   D(5,6,13,16)         -151.5645         -DE/DX =    0.0                 !
 --------------------------------------------------------------------------------
 GradGradGradGradGradGradGradGradGradGradGradGradGradGradGradGradGradGrad

                          Input orientation:                          
 ---------------------------------------------------------------------
 Center     Atomic      Atomic             Coordinates (Angstroms)
 Number     Number       Type             X           Y           Z
 ---------------------------------------------------------------------
      1          6           0       -0.924859    1.213725   -0.012071
      2          6           0        0.459479    1.223591   -0.004517
      3          6           0        1.192378    0.000019    0.000187
      4          6           0        0.459496   -1.223573   -0.004514
      5          6           0       -0.924838   -1.213727   -0.012074
      6          6           0       -1.644059   -0.000005   -0.013242
      7          1           0       -1.470545    2.154269   -0.018503
      8          1           0        1.011372    2.158430   -0.004796
      9          1           0        1.011416   -2.158397   -0.004797
     10          1           0       -1.470509   -2.154279   -0.018509
     11          6           0        2.587669    0.000010    0.007194
     12          6           0        3.869783   -0.000020    0.011325
     13          6           0       -3.149511   -0.000015    0.016691
     14          1           0       -3.562878   -0.888930   -0.471357
     15          1           0       -3.509201   -0.000052    1.055388
     16          1           0       -3.562890    0.888926   -0.471299
 ---------------------------------------------------------------------
                    Distance matrix (angstroms):
                    1          2          3          4          5
     1  C    0.000000
     2  C    1.384394   0.000000
     3  C    2.440476   1.426286   0.000000
     4  C    2.803019   2.447164   1.426294   0.000000
     5  C    2.427452   2.803018   2.440478   1.384390   0.000000
     6  C    1.410812   2.433544   2.836469   2.433544   1.410816
     7  H    1.087399   2.142744   3.425245   3.890382   3.411925
     8  H    2.154417   1.085592   2.165993   3.426735   3.888496
     9  H    3.888498   3.426730   2.165994   1.085593   2.154422
    10  H    3.411924   3.890380   3.425247   2.142739   1.087399
    11  C    3.716360   2.454889   1.395309   2.454875   3.716347
    12  C    4.945939   3.623210   2.677428   3.623174   4.945910
    13  C    2.534377   3.810836   4.341920   3.810837   2.534382
    14  H    3.404592   4.567279   4.860560   4.063179   2.697349
    15  H    3.048204   4.286155   4.818537   4.286135   3.048182
    16  H    2.697331   4.063169   4.860558   4.567289   3.404608
                    6          7          8          9         10
     6  C    0.000000
     7  H    2.161257   0.000000
     8  H    3.422021   2.481958   0.000000
     9  H    3.422028   4.975882   4.316827   0.000000
    10  H    2.161260   4.308548   4.975880   2.481966   0.000000
    11  C    4.231777   4.594627   2.672758   2.672721   4.594609
    12  C    5.513897   5.758555   3.581854   3.581775   5.758510
    13  C    1.505750   2.731502   4.687461   4.687471   2.731509
    14  H    2.163775   3.720752   5.516144   4.770051   2.486803
    15  H    2.149587   3.154435   5.120412   5.120393   3.154396
    16  H    2.163776   2.486770   4.770025   5.516165   3.720776
                   11         12         13         14         15
    11  C    0.000000
    12  C    1.282121   0.000000
    13  C    5.737188   7.019296   0.000000
    14  H    6.232853   7.501173   1.095095   0.000000
    15  H    6.186318   7.452481   1.099213   1.767466   0.000000
    16  H    6.232857   7.501185   1.095095   1.777856   1.767466
                   16
    16  H    0.000000
 Stoichiometry    C9H7(2)
 Framework group  C1[X(C9H7)]
 Deg. of freedom    42
 Full point group                 C1      NOp   1
 Largest Abelian subgroup         C1      NOp   1
 Largest concise Abelian subgroup C1      NOp   1
                         Standard orientation:                         
 ---------------------------------------------------------------------
 Center     Atomic      Atomic             Coordinates (Angstroms)
 Number     Number       Type             X           Y           Z
 ---------------------------------------------------------------------
      1          6           0       -0.924859    1.213725   -0.012071
      2          6           0        0.459479    1.223591   -0.004517
      3          6           0        1.192378    0.000019    0.000187
      4          6           0        0.459496   -1.223573   -0.004514
      5          6           0       -0.924838   -1.213727   -0.012074
      6          6           0       -1.644059   -0.000005   -0.013242
      7          1           0       -1.470545    2.154269   -0.018503
      8          1           0        1.011372    2.158430   -0.004796
      9          1           0        1.011416   -2.158397   -0.004797
     10          1           0       -1.470509   -2.154279   -0.018509
     11          6           0        2.587669    0.000010    0.007194
     12          6           0        3.869783   -0.000020    0.011325
     13          6           0       -3.149511   -0.000015    0.016691
     14          1           0       -3.562878   -0.888930   -0.471357
     15          1           0       -3.509201   -0.000052    1.055388
     16          1           0       -3.562890    0.888926   -0.471299
 ---------------------------------------------------------------------
 Rotational constants (GHZ):           5.4221238           1.0127050           0.8579113
 1\1\GINC-IP-172-31-15-30\FOpt\UB3LYP\6-31+G(d)\C9H7(2)\UBUNTU\17-Sep-2
 023\0\\# opt freq ub3lyp/6-31+g(d) geom=connectivity empiricaldispersi
 on=gd3 volume\\Title Card Required\\0,2\C,-0.924859,1.213725,-0.012071
 \C,0.459479,1.223591,-0.004517\C,1.192378,0.000019,0.000187\C,0.459496
 ,-1.223573,-0.004514\C,-0.924838,-1.213727,-0.012074\C,-1.644059,-0.00
 0005,-0.013242\H,-1.470545,2.154269,-0.018503\H,1.011372,2.15843,-0.00
 4796\H,1.011416,-2.158397,-0.004797\H,-1.470509,-2.154279,-0.018509\C,
 2.587669,0.00001,0.007194\C,3.869783,-0.00002,0.011325\C,-3.149511,-0.
 000015,0.016691\H,-3.562878,-0.88893,-0.471357\H,-3.509201,-0.000052,1
 .055388\H,-3.56289,0.888926,-0.471299\\Version=EM64L-G16RevB.01\State=
 2-A\HF=-347.0324292\S2=0.764583\S2-1=0.\S2A=0.750135\RMSD=9.841e-09\RM
 SF=1.534e-05\Dipole=-3.0883896,0.0000128,0.0167036\Quadrupole=-12.2876
 018,9.074841,3.2127609,0.0001086,-0.1957194,0.0000109\PG=C01 [X(C9H7)]
 \\@


 EDUCATION IS NOT TRAINING BUT RATHER THE PROCESS THAT EQUIPS YOU TO
 ENTERTAIN YOURSELF, A FRIEND, OR AN IDEA.  -- WALLACE STERLING
 Job cpu time:       0 days  0 hours 12 minutes 20.5 seconds.
 Elapsed time:       0 days  0 hours  0 minutes 24.7 seconds.
 File lengths (MBytes):  RWF=     37 Int=      0 D2E=      0 Chk=      4 Scr=      1
 Normal termination of Gaussian 16 at Sun Sep 17 09:03:40 2023.
 Link1:  Proceeding to internal job step number  2.
 ---------------------------------------------------------------------
 #N Geom=AllCheck Guess=TCheck SCRF=Check GenChk UB3LYP/6-31+G(d) Freq
 ---------------------------------------------------------------------
 1/10=4,29=7,30=1,38=1,40=1/1,3;
 2/12=2,40=1/2;
 3/5=1,6=6,7=11,11=2,14=-4,25=1,30=1,70=2,71=2,74=-5,116=2,124=31,140=1/1,2,3;
 4/5=101/1;
 5/5=2,38=6,98=1/2;
 8/6=4,10=90,11=11/1;
 11/6=1,8=1,9=11,15=111,16=1/1,2,10;
 10/6=1/2;
 6/7=2,8=2,9=2,10=2,28=1/1;
 7/8=1,10=1,25=1/1,2,3,16;
 1/10=4,30=1/3;
 99//99;
 Structure from the checkpoint file:  "molecule_3.chk"
 -------------------
 Title Card Required
 -------------------
 Charge =  0 Multiplicity = 2
 Redundant internal coordinates found in file.  (old form).
 C,0,-0.924859,1.213725,-0.012071
 C,0,0.459479,1.223591,-0.004517
 C,0,1.192378,0.000019,0.000187
 C,0,0.459496,-1.223573,-0.004514
 C,0,-0.924838,-1.213727,-0.012074
 C,0,-1.644059,-0.000005,-0.013242
 H,0,-1.470545,2.154269,-0.018503
 H,0,1.011372,2.15843,-0.004796
 H,0,1.011416,-2.158397,-0.004797
 H,0,-1.470509,-2.154279,-0.018509
 C,0,2.587669,0.00001,0.007194
 C,0,3.869783,-0.00002,0.011325
 C,0,-3.149511,-0.000015,0.016691
 H,0,-3.562878,-0.88893,-0.471357
 H,0,-3.509201,-0.000052,1.055388
 H,0,-3.56289,0.888926,-0.471299
 Recover connectivity data from disk.

 GradGradGradGradGradGradGradGradGradGradGradGradGradGradGradGradGradGrad
 Berny optimization.
 Initialization pass.
                           ----------------------------
                           !    Initial Parameters    !
                           ! (Angstroms and Degrees)  !
 --------------------------                            --------------------------
 ! Name  Definition              Value          Derivative Info.                !
 --------------------------------------------------------------------------------
 ! R1    R(1,2)                  1.3844         calculate D2E/DX2 analytically  !
 ! R2    R(1,6)                  1.4108         calculate D2E/DX2 analytically  !
 ! R3    R(1,7)                  1.0874         calculate D2E/DX2 analytically  !
 ! R4    R(2,3)                  1.4263         calculate D2E/DX2 analytically  !
 ! R5    R(2,8)                  1.0856         calculate D2E/DX2 analytically  !
 ! R6    R(3,4)                  1.4263         calculate D2E/DX2 analytically  !
 ! R7    R(3,11)                 1.3953         calculate D2E/DX2 analytically  !
 ! R8    R(4,5)                  1.3844         calculate D2E/DX2 analytically  !
 ! R9    R(4,9)                  1.0856         calculate D2E/DX2 analytically  !
 ! R10   R(5,6)                  1.4108         calculate D2E/DX2 analytically  !
 ! R11   R(5,10)                 1.0874         calculate D2E/DX2 analytically  !
 ! R12   R(6,13)                 1.5057         calculate D2E/DX2 analytically  !
 ! R13   R(11,12)                1.2821         calculate D2E/DX2 analytically  !
 ! R14   R(13,14)                1.0951         calculate D2E/DX2 analytically  !
 ! R15   R(13,15)                1.0992         calculate D2E/DX2 analytically  !
 ! R16   R(13,16)                1.0951         calculate D2E/DX2 analytically  !
 ! A1    A(2,1,6)              121.0571         calculate D2E/DX2 analytically  !
 ! A2    A(2,1,7)              119.7142         calculate D2E/DX2 analytically  !
 ! A3    A(6,1,7)              119.2286         calculate D2E/DX2 analytically  !
 ! A4    A(1,2,3)              120.5131         calculate D2E/DX2 analytically  !
 ! A5    A(1,2,8)              120.9637         calculate D2E/DX2 analytically  !
 ! A6    A(3,2,8)              118.523          calculate D2E/DX2 analytically  !
 ! A7    A(2,3,4)              118.1582         calculate D2E/DX2 analytically  !
 ! A8    A(2,3,11)             120.9218         calculate D2E/DX2 analytically  !
 ! A9    A(4,3,11)             120.92           calculate D2E/DX2 analytically  !
 ! A10   A(3,4,5)              120.5129         calculate D2E/DX2 analytically  !
 ! A11   A(3,4,9)              118.5224         calculate D2E/DX2 analytically  !
 ! A12   A(5,4,9)              120.9645         calculate D2E/DX2 analytically  !
 ! A13   A(4,5,6)              121.0572         calculate D2E/DX2 analytically  !
 ! A14   A(4,5,10)             119.7142         calculate D2E/DX2 analytically  !
 ! A15   A(6,5,10)             119.2286         calculate D2E/DX2 analytically  !
 ! A16   A(1,6,5)              118.701          calculate D2E/DX2 analytically  !
 ! A17   A(1,6,13)             120.6416         calculate D2E/DX2 analytically  !
 ! A18   A(5,6,13)             120.6417         calculate D2E/DX2 analytically  !
 ! A19   A(6,13,14)            111.6258         calculate D2E/DX2 analytically  !
 ! A20   A(6,13,15)            110.2395         calculate D2E/DX2 analytically  !
 ! A21   A(6,13,16)            111.6258         calculate D2E/DX2 analytically  !
 ! A22   A(14,13,15)           107.3127         calculate D2E/DX2 analytically  !
 ! A23   A(14,13,16)           108.5318         calculate D2E/DX2 analytically  !
 ! A24   A(15,13,16)           107.3127         calculate D2E/DX2 analytically  !
 ! A25   L(3,11,12,9,-1)       179.9988         calculate D2E/DX2 analytically  !
 ! A26   L(3,11,12,9,-2)       179.8723         calculate D2E/DX2 analytically  !
 ! D1    D(6,1,2,3)              0.0977         calculate D2E/DX2 analytically  !
 ! D2    D(6,1,2,8)            179.928          calculate D2E/DX2 analytically  !
 ! D3    D(7,1,2,3)           -179.8233         calculate D2E/DX2 analytically  !
 ! D4    D(7,1,2,8)              0.007          calculate D2E/DX2 analytically  !
 ! D5    D(2,1,6,5)             -0.2562         calculate D2E/DX2 analytically  !
 ! D6    D(2,1,6,13)           178.3116         calculate D2E/DX2 analytically  !
 ! D7    D(7,1,6,5)            179.6652         calculate D2E/DX2 analytically  !
 ! D8    D(7,1,6,13)            -1.7671         calculate D2E/DX2 analytically  !
 ! D9    D(1,2,3,4)              0.0638         calculate D2E/DX2 analytically  !
 ! D10   D(1,2,3,11)           179.9707         calculate D2E/DX2 analytically  !
 ! D11   D(8,2,3,4)           -179.7706         calculate D2E/DX2 analytically  !
 ! D12   D(8,2,3,11)             0.1363         calculate D2E/DX2 analytically  !
 ! D13   D(2,3,4,5)             -0.0635         calculate D2E/DX2 analytically  !
 ! D14   D(2,3,4,9)            179.7702         calculate D2E/DX2 analytically  !
 ! D15   D(11,3,4,5)          -179.9704         calculate D2E/DX2 analytically  !
 ! D16   D(11,3,4,9)            -0.1367         calculate D2E/DX2 analytically  !
 ! D17   D(3,4,5,6)             -0.0983         calculate D2E/DX2 analytically  !
 ! D18   D(3,4,5,10)           179.823          calculate D2E/DX2 analytically  !
 ! D19   D(9,4,5,6)           -179.9279         calculate D2E/DX2 analytically  !
 ! D20   D(9,4,5,10)            -0.0067         calculate D2E/DX2 analytically  !
 ! D21   D(4,5,6,1)              0.2565         calculate D2E/DX2 analytically  !
 ! D22   D(4,5,6,13)          -178.3113         calculate D2E/DX2 analytically  !
 ! D23   D(10,5,6,1)          -179.6651         calculate D2E/DX2 analytically  !
 ! D24   D(10,5,6,13)            1.7671         calculate D2E/DX2 analytically  !
 ! D25   D(1,6,13,14)          151.561          calculate D2E/DX2 analytically  !
 ! D26   D(1,6,13,15)          -89.2718         calculate D2E/DX2 analytically  !
 ! D27   D(1,6,13,16)           29.8956         calculate D2E/DX2 analytically  !
 ! D28   D(5,6,13,14)          -29.8992         calculate D2E/DX2 analytically  !
 ! D29   D(5,6,13,15)           89.2681         calculate D2E/DX2 analytically  !
 ! D30   D(5,6,13,16)         -151.5645         calculate D2E/DX2 analytically  !
 --------------------------------------------------------------------------------
 Trust Radius=3.00D-01 FncErr=1.00D-07 GrdErr=1.00D-07 EigMax=2.50D+02 EigMin=1.00D-04
 Number of steps in this run=      2 maximum allowed number of steps=      2.
 GradGradGradGradGradGradGradGradGradGradGradGradGradGradGradGradGradGrad

                          Input orientation:                          
 ---------------------------------------------------------------------
 Center     Atomic      Atomic             Coordinates (Angstroms)
 Number     Number       Type             X           Y           Z
 ---------------------------------------------------------------------
      1          6           0       -0.924859    1.213725   -0.012071
      2          6           0        0.459479    1.223591   -0.004517
      3          6           0        1.192378    0.000019    0.000187
      4          6           0        0.459496   -1.223573   -0.004514
      5          6           0       -0.924838   -1.213727   -0.012074
      6          6           0       -1.644059   -0.000005   -0.013242
      7          1           0       -1.470545    2.154269   -0.018503
      8          1           0        1.011372    2.158430   -0.004796
      9          1           0        1.011416   -2.158397   -0.004797
     10          1           0       -1.470509   -2.154279   -0.018509
     11          6           0        2.587669    0.000010    0.007194
     12          6           0        3.869783   -0.000020    0.011325
     13          6           0       -3.149511   -0.000015    0.016691
     14          1           0       -3.562878   -0.888930   -0.471357
     15          1           0       -3.509201   -0.000052    1.055388
     16          1           0       -3.562890    0.888926   -0.471299
 ---------------------------------------------------------------------
                    Distance matrix (angstroms):
                    1          2          3          4          5
     1  C    0.000000
     2  C    1.384394   0.000000
     3  C    2.440476   1.426286   0.000000
     4  C    2.803019   2.447164   1.426294   0.000000
     5  C    2.427452   2.803018   2.440478   1.384390   0.000000
     6  C    1.410812   2.433544   2.836469   2.433544   1.410816
     7  H    1.087399   2.142744   3.425245   3.890382   3.411925
     8  H    2.154417   1.085592   2.165993   3.426735   3.888496
     9  H    3.888498   3.426730   2.165994   1.085593   2.154422
    10  H    3.411924   3.890380   3.425247   2.142739   1.087399
    11  C    3.716360   2.454889   1.395309   2.454875   3.716347
    12  C    4.945939   3.623210   2.677428   3.623174   4.945910
    13  C    2.534377   3.810836   4.341920   3.810837   2.534382
    14  H    3.404592   4.567279   4.860560   4.063179   2.697349
    15  H    3.048204   4.286155   4.818537   4.286135   3.048182
    16  H    2.697331   4.063169   4.860558   4.567289   3.404608
                    6          7          8          9         10
     6  C    0.000000
     7  H    2.161257   0.000000
     8  H    3.422021   2.481958   0.000000
     9  H    3.422028   4.975882   4.316827   0.000000
    10  H    2.161260   4.308548   4.975880   2.481966   0.000000
    11  C    4.231777   4.594627   2.672758   2.672721   4.594609
    12  C    5.513897   5.758555   3.581854   3.581775   5.758510
    13  C    1.505750   2.731502   4.687461   4.687471   2.731509
    14  H    2.163775   3.720752   5.516144   4.770051   2.486803
    15  H    2.149587   3.154435   5.120412   5.120393   3.154396
[...]
   zy         0.000000D+00      0.000000D+00      0.000000D+00
   zz         0.636608D+02      0.943356D+01      0.104963D+02

 ----------------------------------------------------------------------

 Dipole orientation:
     6         -0.03225344          2.29360053          1.74759106
     6         -0.00382981          2.31225560         -0.86831308
     6          0.01254020          0.00004546         -2.25323299
     6         -0.00384358         -2.31221414         -0.86836489
     6         -0.03227835         -2.29361893          1.74753178
     6         -0.04182667         -0.00002252          3.10664046
     1         -0.04997769          4.07096677          2.77871491
     1          0.00129114          4.07884970         -1.91121976
     1          0.00125510         -4.07877105         -1.91133770
     1         -0.05002319         -4.07100894          2.77861210
     6          0.04004203          0.00003958         -4.88984066
     6          0.06095236         -0.00000687         -7.31260733
     6         -0.00064895         -0.00005372          5.95179676
     1         -0.92714450         -1.67985900          6.72794044
     1          1.95849895         -0.00013489          6.64211852
     1         -0.92702077          1.67980193          6.72797804

 Electric dipole moment (dipole orientation):
 (Debye = 10**-18 statcoulomb cm , SI units = C m)
                  (au)            (Debye)         (10**-30 SI)
   Tot        0.308844D+01      0.785002D+01      0.261848D+02
   x          0.000000D+00      0.000000D+00      0.000000D+00
   y          0.000000D+00      0.000000D+00      0.000000D+00
   z          0.308844D+01      0.785002D+01      0.261848D+02

 Dipole polarizability, Alpha (dipole orientation).
 (esu units = cm**3 , SI units = C**2 m**2 J**-1)
 Alpha(0;0):
               (au)            (10**-24 esu)      (10**-40 SI)
   iso        0.120144D+03      0.178035D+02      0.198091D+02
   aniso      0.124409D+03      0.184355D+02      0.205123D+02
   xx         0.636621D+02      0.943374D+01      0.104965D+02
   yx         0.141942D-03      0.210336D-04      0.234030D-04
   yy         0.957894D+02      0.141945D+02      0.157935D+02
   zx        -0.485663D+00     -0.719678D-01     -0.800750D-01
   zy        -0.149730D-03     -0.221878D-04     -0.246872D-04
   zz         0.200981D+03      0.297823D+02      0.331372D+02

 ----------------------------------------------------------------------
 1\1\GINC-IP-172-31-15-30\Freq\UB3LYP\6-31+G(d)\C9H7(2)\UBUNTU\17-Sep-2
 023\0\\#N Geom=AllCheck Guess=TCheck SCRF=Check GenChk UB3LYP/6-31+G(d
 ) Freq\\Title Card Required\\0,2\C,-0.924859,1.213725,-0.012071\C,0.45
 9479,1.223591,-0.004517\C,1.192378,0.000019,0.000187\C,0.459496,-1.223
 573,-0.004514\C,-0.924838,-1.213727,-0.012074\C,-1.644059,-0.000005,-0
 .013242\H,-1.470545,2.154269,-0.018503\H,1.011372,2.15843,-0.004796\H,
 1.011416,-2.158397,-0.004797\H,-1.470509,-2.154279,-0.018509\C,2.58766
 9,0.00001,0.007194\C,3.869783,-0.00002,0.011325\C,-3.149511,-0.000015,
 0.016691\H,-3.562878,-0.88893,-0.471357\H,-3.509201,-0.000052,1.055388
 \H,-3.56289,0.888926,-0.471299\\Version=EM64L-G16RevB.01\State=2-A\HF=
 -347.0324292\S2=0.764583\S2-1=0.\S2A=0.750135\RMSD=3.485e-09\RMSF=1.53
 4e-05\ZeroPoint=0.1245353\Thermal=0.1330663\Dipole=-3.0883899,0.000013
 2,0.0167038\DipoleDeriv=-0.5914079,-0.2505972,0.0057499,-0.4651464,0.0
 015469,0.0060232,0.0054802,0.002412,-0.1203701,0.5003753,0.1295684,-0.
 0009333,-0.2605534,0.0400793,-0.0053108,0.0076027,-0.0027021,-0.062029
 3,-0.6393555,0.0000013,-0.0008994,-0.0000009,0.1638322,-0.0000011,-0.0
 087915,-0.0000014,-0.1825803,0.5003511,-0.1295682,-0.0009332,0.2605608
 ,0.0400689,0.0053103,0.0076007,0.0027055,-0.0620232,-0.591395,0.250596
 4,0.0057501,0.4651173,0.0015567,-0.0060215,0.0054813,-0.0024129,-0.120
 3729,0.830391,0.0000033,-0.036919,0.000031,0.1991905,-0.0000011,-0.118
 3019,-0.0000008,0.0041108,0.0056731,0.0781024,-0.0023659,0.0861134,-0.
 0391268,0.0006224,-0.0062698,0.0033189,0.1349285,0.0401988,-0.0538626,
 -0.0005699,-0.0229144,0.0015337,0.0001097,-0.0043117,0.0015293,0.11885
 3,0.0401966,0.053864,-0.0005701,0.022913,0.0015402,-0.0001093,-0.00431
 07,-0.0015317,0.1188541,0.0056754,-0.0781011,-0.0023663,-0.086114,-0.0
 3913,-0.0006229,-0.0062697,-0.0033188,0.1349274,-0.8883656,0.0000188,0
 .0110388,0.0000353,-0.1945708,0.0000016,0.0188507,0.0000018,0.5377013,
 1.0853828,-0.0000208,-0.0090106,-0.0000323,-0.2699055,-0.0000006,-0.00
 63691,-0.0000009,-0.6185083,-0.201781,-0.0000033,0.0240556,-0.0000246,
 0.1067551,0.0000002,0.2769239,0.000002,0.0797659,-0.0161274,-0.0055076
 ,-0.0070961,-0.0604003,-0.054026,-0.0712039,-0.093439,-0.0661775,0.051
 3345,-0.0636863,-0.0000015,0.022165,0.0000023,0.0946909,0.0000063,0.01
 95579,0.000006,-0.0659334,-0.0161253,0.005508,-0.0070957,0.0604132,-0.
 0540353,0.0711976,-0.0934341,0.0661705,0.051342\Polar=200.9819883,-0.0
 002967,95.78942,-0.2570444,0.0000052,63.6608246\Quadrupole=-12.2876034
 ,9.0748416,3.2127617,0.0001086,-0.1957193,0.0000109\PG=C01 [X(C9H7)]\N
 Imag=0\\0.70159962,-0.05043409,0.69231582,0.00225476,-0.00262274,0.128
 10036,-0.36267031,0.03409289,-0.00102270,0.70609716,-0.02801854,-0.131
 02859,-0.00037460,0.05919694,0.68416002,-0.00136798,0.00023598,-0.0591
 3910,0.00264712,-0.00089271,0.13364666,-0.03990901,0.01869565,-0.00032
 147,-0.12766428,0.07083485,-0.00027788,0.67105939,0.04863076,0.0231009
 5,0.00070195,0.05255863,-0.24910022,0.00045084,-0.00001134,0.58803920,
 -0.00048386,-0.00004260,0.00949355,-0.00011519,0.00042670,-0.06825212,
 0.00257063,-0.00000051,0.13359166,-0.03871144,-0.02025444,-0.00072511,
 0.04524512,-0.00888561,0.00008261,-0.12765806,-0.05254970,-0.00011486,
 0.70610900,-0.01882223,-0.01134925,-0.00031415,0.00888708,-0.04697082,
 0.00008441,-0.07082566,-0.24909043,-0.00042614,-0.05920544,0.68414195,
 -0.00014523,-0.00012992,-0.00476776,0.00008265,-0.00008440,0.01094945,
 -0.00027778,-0.00045052,-0.06825375,0.00264777,0.00089342,0.13364716,0
 .05991116,0.01721399,0.00107008,-0.03871188,0.01882166,-0.00014516,-0.
 03990765,-0.04863090,-0.00048397,-0.36268076,0.02801501,-0.00136932,0.
 70160629,-0.01721223,-0.05188720,-0.00047634,0.02025399,-0.01134854,0.
 00012992,-0.01869659,0.02309943,0.00004243,-0.03409596,-0.13102828,-0.
 00023616,0.05043828,0.69231133,0.00107014,0.00047627,0.00799964,-0.000
 72516,0.00031418,-0.00476772,-0.00032142,-0.00070191,0.00949365,-0.001
 02421,0.00037445,-0.05913820,0.00225642,0.00262423,0.12810001,-0.16053
 700,-0.10295439,0.00004486,-0.03285287,-0.02883016,0.00009288,0.012012
 29,0.00000023,0.00035266,-0.03285440,0.02882928,0.00009298,-0.16053710
 ,0.10295197,0.00004509,0.62489770,-0.03211925,-0.25748726,0.00129917,-
 0.07385876,0.02662124,-0.00044475,0.00000054,-0.04083784,0.00000006,0.
 07385776,0.02662292,0.00044482,0.03211741,-0.25747929,-0.00129974,0.00
 000365,0.63482854,-0.00005736,-0.00020750,-0.06608601,-0.00000443,0.00
 057566,0.00457130,-0.00041634,-0.00000007,-0.00775939,-0.00000445,-0.0
 0057547,0.00457120,-0.00005717,0.00020695,-0.06608632,-0.00366070,0.00
 000057,0.17688845,-0.12890707,0.12077747,-0.00121948,-0.01205575,0.029
 74887,-0.00002783,-0.00464888,-0.00220285,-0.00011913,-0.00061209,-0.0
 0057676,0.00002492,-0.00147418,-0.00330282,-0.00003091,0.01056027,-0.0
 1461791,0.00003151,0.13601424,0.12016983,-0.26803450,0.00153441,-0.001
 85406,0.00446004,-0.00003983,-0.00100677,0.00163439,0.00005531,-0.0009
 1431,0.00018993,-0.00000023,-0.00397276,-0.00282014,0.00006611,0.01553
 999,-0.02002754,0.00016952,-0.12887589,0.28356125,-0.00105076,0.001809
 16,-0.03769901,0.00001474,0.00016166,0.00398218,-0.00010359,0.00001271
 ,0.00854520,-0.00003320,-0.00000942,-0.00076394,0.00005184,-0.00015332
 ,0.00572388,-0.00060613,-0.00001518,0.00333976,0.00128150,-0.00169214,
 0.02563358,-0.00992635,-0.02784091,0.00003147,-0.13269670,-0.12688902,
 -0.00013382,0.01032648,0.01618936,0.00001283,-0.00171376,0.00317012,-0
 .00004625,-0.00050069,0.00067397,0.00000477,-0.00529383,0.00160445,0.0
 0004060,0.00053826,0.00023943,0.00001654,0.13769400,0.00298147,0.00566
 224,0.00000104,-0.12497747,-0.27261206,0.00015553,-0.01445106,-0.01891
 051,-0.00001806,0.00388749,-0.00290218,0.00004353,0.00054609,0.0002571
 2,-0.00000657,0.00092910,0.00107575,0.00002654,-0.00031432,0.00083312,
 -0.00001228,0.13301546,0.28624473,-0.00003615,-0.00002797,0.00581635,-
 0.00011716,0.00022658,-0.03872646,0.00006219,0.00007553,0.00255795,0.0
 0001524,0.00005244,0.00499314,-0.00008140,0.00004076,-0.00079692,-0.00
 023330,-0.00010069,0.00829114,0.00004901,-0.00003618,-0.00452720,0.000
 14157,-0.00016945,0.02534987,-0.00050067,-0.00067397,0.00000477,-0.001
 71364,-0.00317008,-0.00004625,0.01032608,-0.01618887,0.00001281,-0.132
 70324,0.12689286,-0.00013335,-0.00992648,0.02784013,0.00003156,-0.0052
 9367,-0.00160459,0.00004057,0.00007775,0.00010935,0.00000170,0.0006663
 0,-0.00080950,0.00000876,0.13770075,-0.00054613,0.00025709,0.00000657,
 -0.00388745,-0.00290242,-0.00004354,0.01445151,-0.01891059,0.00001802,
 0.12498061,-0.27260410,-0.00015637,-0.00298189,0.00566292,-0.00000106,
 -0.00092924,0.00107569,-0.00002657,0.00010921,0.00001774,0.00000546,0.
 00080953,-0.00093149,0.00000635,-0.13301866,0.28623652,-0.00008143,-0.
 00004081,-0.00079696,0.00001533,-0.00005244,0.00499300,0.00006225,-0.0
 0007540,0.00255790,-0.00011658,-0.00022775,-0.03872662,-0.00003623,0.0
 0002810,0.00581625,-0.00023339,0.00010067,0.00829125,-0.00000621,-0.00
 001121,-0.00097164,0.00000875,-0.00000634,0.00073676,0.00014107,0.0001
 7036,0.02535017,-0.00147430,0.00330288,-0.00003092,-0.00061214,0.00057
 675,0.00002493,-0.00464888,0.00220276,-0.00011919,-0.01205546,-0.02974
 943,-0.00002789,-0.12890360,-0.12077566,-0.00121992,0.01056046,0.01461
 841,0.00003155,0.00064377,0.00079561,0.00003838,0.00007776,-0.00010922
 ,-0.00000621,0.00053827,0.00031436,0.00004903,0.13601040,0.00397278,-0
 .00282002,-0.00006614,0.00091428,0.00018997,0.00000023,0.00100667,0.00
 163447,-0.00005533,0.00185369,0.00445956,0.00003983,-0.12016829,-0.268
 03896,-0.00153514,-0.01553952,-0.02002744,-0.00016958,-0.00079557,-0.0
 0106044,0.00001704,-0.00010935,0.00001773,0.00001121,-0.00023943,0.000
 83310,0.00003620,0.12887434,0.28356589,0.00005186,0.00015330,0.0057238
 4,-0.00003320,0.00000944,-0.00076393,-0.00010361,-0.00001269,0.0085453
 5,0.00001465,-0.00016181,0.00398240,-0.00105112,-0.00180982,-0.0376990
 3,-0.00060614,0.00001512,0.00333965,0.00003838,-0.00001704,0.00029018,
 0.00000170,-0.00000546,-0.00097167,0.00001653,0.00001230,-0.00452728,0
 .00128198,0.00169295,0.02563343,0.00494214,0.00483336,-0.00001650,-0.0
 4185426,0.01774974,-0.00016521,-0.36305461,0.00000136,-0.00115959,-0.0
 4185502,-0.01775046,-0.00016517,0.00494214,-0.00483345,-0.00001650,-0.
 00179012,0.00000017,-0.00030104,-0.00088918,0.00019198,-0.00001796,0.0
 0132424,-0.00083387,0.00003822,0.00132420,0.00083397,0.00003821,-0.000
 88921,-0.00019203,-0.00001797,1.17842581,0.00538709,-0.00326537,0.0000
 1629,0.02938170,0.00513386,0.00022451,0.00000267,-0.07137354,0.0000001
 3,-0.02938218,0.00513324,-0.00022456,-0.00538722,-0.00326545,-0.000016
 29,0.00000004,-0.00530380,0.,0.00142397,0.00014086,0.00001624,0.000666
 32,0.00097732,-0.00002208,-0.00066661,0.00097724,0.00002210,-0.0014239
 6,0.00014083,-0.00001624,-0.00001762,0.08726638,0.00009789,0.00012995,
 0.00278733,-0.00036595,0.00022527,0.00680485,-0.00128739,0.00000012,-0
 .02879820,-0.00036583,-0.00022530,0.00680507,0.00009790,-0.00012992,0.
 00278721,-0.00009795,0.,-0.00069278,-0.00000540,-0.00000516,-0.0003768
 0,0.00000713,-0.00000911,-0.00165736,0.00000713,0.00000911,-0.00165724
 ,-0.00000539,0.00000516,-0.00037679,0.00336227,-0.00000019,0.01638986,
 0.00456512,0.00431377,0.00007585,-0.00449338,0.00158084,-0.00010396,0.
 00743510,0.00000068,-0.00037123,-0.00449312,-0.00158086,-0.00010394,0.
 00456500,-0.00431356,0.00007584,-0.00376078,-0.00000023,0.00031599,-0.
 00002759,-0.00024306,0.00002608,0.00002368,-0.00007926,-0.00001083,0.0
 0002374,0.00007928,-0.00001083,-0.00002759,0.00024307,0.00002607,-0.74
 021248,0.00001578,-0.00151166,0.73467476,-0.00012642,0.00058170,0.0000
 2023,-0.00076563,-0.00126848,-0.00003355,-0.00000037,0.01031806,-0.000
 00002,0.00076577,-0.00126841,0.00003356,0.00012623,0.00058190,-0.00002
 024,0.00000006,0.00009513,0.,-0.00014687,-0.00003913,0.00000037,-0.000
 16865,0.00015673,0.00000032,0.00016866,0.00015677,-0.00000032,0.000146
 88,-0.00003914,-0.00000037,0.00001689,-0.01711220,0.00000007,-0.000016
 50,0.00784451,-0.00000693,-0.00002396,0.00027215,0.00002509,-0.0000321
 2,0.00052739,-0.00017839,-0.00000002,-0.00033351,0.00002508,0.00003213
 ,0.00052757,-0.00000693,0.00002395,0.00027209,0.00000066,0.,0.00018251
 ,-0.00000455,0.00000256,-0.00003950,0.00000164,-0.00000119,-0.00036141
 ,0.00000164,0.00000120,-0.00036142,-0.00000455,-0.00000256,-0.00003953
 ,-0.00181015,0.00000008,-0.00206203,0.00194988,-0.00000006,0.00159294,
 -0.02296672,-0.00562729,0.00036586,0.00392724,-0.00125030,-0.00034725,
 -0.00300243,-0.00000009,0.00004921,0.00392747,0.00125053,-0.00034721,-
 0.02296713,0.00562695,0.00036584,-0.21387797,-0.00000112,0.00169195,0.
 00104247,0.00144625,0.00040280,-0.00001371,0.00020068,0.00010133,-0.00
 001372,-0.00020069,0.00010133,0.00104246,-0.00144618,0.00040278,0.0000
 6751,0.,0.00002964,0.00102354,-0.00000002,0.00001175,0.48996550,-0.029
 44527,0.00354643,0.00256164,-0.00178917,-0.00497562,0.00101690,-0.0000
 0025,-0.00061921,0.,0.00178973,-0.00497568,-0.00101692,0.02944460,0.00
 354733,-0.00256159,0.,-0.09086477,-0.00000010,-0.00122161,0.00065275,-
 0.00080245,-0.00134960,0.00012941,-0.00024675,0.00134961,0.00012944,0.
 00024677,0.00122144,0.00065284,0.00080245,-0.00000003,0.00036080,0.,0.
 00000011,-0.00000537,0.,-0.00000176,0.59024619,0.00077198,0.00113428,0
 .00732000,-0.00245259,-0.00024037,0.00600817,0.00223932,-0.00000002,-0
 .00123647,-0.00245253,0.00024033,0.00600784,0.00077197,-0.00113419,0.0
 0731931,-0.00483072,-0.00000016,-0.07253005,0.00021748,0.00056384,-0.0
 0291508,-0.00016892,-0.00003294,-0.00066396,-0.00016891,0.00003294,-0.
 00066390,0.00021751,-0.00056382,-0.00291486,0.00032976,-0.00000002,0.0
 0004662,-0.00113640,0.00000003,-0.00016719,0.01692306,0.00000030,0.532
 47438,-0.00569891,0.00193395,-0.00009619,-0.00005020,-0.00149523,0.000
 80456,-0.00012775,-0.00005974,-0.00014590,0.00020581,0.00002659,0.0003
 6944,0.00093094,-0.00157043,0.00068388,-0.01315878,-0.02869004,-0.0147
 6945,0.00003169,-0.00002386,-0.00022047,-0.00043833,0.00004343,-0.0000
 6756,0.00003418,0.00001516,-0.00007370,-0.00033639,0.00127414,-0.00038
 959,-0.00010120,0.00014475,0.00000799,0.00019017,0.00000375,-0.0000036
 7,-0.08396051,-0.07649968,-0.04532529,0.09363620,-0.00012823,0.0005676
 9,-0.00085733,-0.00006798,-0.00003728,-0.00001034,0.00039152,0.0001404
 2,-0.00010145,-0.00079333,0.00015779,0.00048433,0.00227935,0.00026448,
 0.00052483,-0.00063679,0.00078281,0.00221301,0.00018530,0.00042892,-0.
 00005623,-0.00004975,0.00000738,0.00005820,-0.00005392,0.00000206,-0.0
 0002358,0.00012969,0.00020445,-0.00042355,-0.00004194,0.00007346,-0.00
 004547,-0.00010946,-0.00000137,0.00000019,-0.07842997,-0.22652984,-0.0
 9727559,0.08608730,0.24272540,-0.00014455,-0.00007218,0.00059676,0.001
 08952,-0.00007679,0.00012971,-0.00040091,0.00027459,-0.00000811,0.0000
 5536,0.00013144,-0.00004763,-0.00008140,-0.00018222,0.00026350,0.00343
 464,0.00308160,0.00038532,0.00004004,-0.00015080,-0.00003142,0.0000517
 2,0.00002079,-0.00010128,-0.00001260,-0.00001171,-0.00001203,-0.000337
 53,0.00038174,0.00008851,-0.00007827,0.00004045,0.00001454,0.00025045,
 0.00000353,-0.00000544,-0.04733054,-0.09738861,-0.10043650,0.04801422,
 0.10775890,0.10519407,-0.00064721,0.00105057,-0.00109913,-0.00009990,0
 .00005590,-0.00140615,-0.00041008,-0.00000002,0.00026066,-0.00009986,-
 0.00005594,-0.00140610,-0.00064697,-0.00105052,-0.00109916,-0.01491524
 ,-0.00000126,0.03188640,0.00004274,-0.00032752,0.00058813,-0.00010154,
 -0.00001387,0.00020997,-0.00010152,0.00001386,0.00020997,0.00004275,0.
 00032755,0.00058812,-0.00027877,0.00000001,0.00002164,0.00032368,0.,0.
 00000309,-0.07023109,-0.00000261,0.08038563,0.00411093,0.00082633,-0.0
 1178340,0.07890101,-0.00201023,-0.00042428,-0.00090518,0.00112181,-0.0
 0047896,-0.00034928,0.00000007,0.00073501,0.00000002,-0.00112198,-0.00
 047899,0.00034920,0.00201035,-0.00042434,0.00090514,-0.00000040,0.0001
 4251,0.00000013,-0.00006049,-0.00014172,0.00029485,-0.00001528,-0.0000
 0734,0.00010814,0.00001528,-0.00000734,-0.00010813,0.00006049,-0.00014
 175,-0.00029478,0.,0.00004292,0.,-0.00000003,0.00000067,0.,-0.00000238
 ,-0.04475381,0.00000839,0.00922196,0.00063188,-0.02653512,0.00000303,0
 .04467547,-0.00079096,-0.00095344,0.00011549,0.00090655,-0.00005464,0.
 00008427,-0.00084469,0.,-0.00013559,0.00090658,0.00005463,0.00008431,-
 0.00079096,0.00095341,0.00011565,0.00276990,-0.00000005,0.00290905,0.0
 0006820,-0.00005745,-0.00027877,0.00004286,0.00000226,0.00007308,0.000
 04286,-0.00000226,0.00007307,0.00006822,0.00005741,-0.00027880,0.00005
 816,0.,-0.00002884,0.00027825,0.,0.00000082,0.07490615,0.00000835,-0.2
 7722405,0.00397770,0.00048013,-0.01376348,-0.08557587,-0.00000920,0.30
 201543,0.00093096,0.00157056,0.00068383,0.00020579,-0.00002661,0.00036
 940,-0.00012772,0.00005972,-0.00014588,-0.00005019,0.00149531,0.000804
 47,-0.00569908,-0.00193406,-0.00009624,-0.01315897,0.02869076,-0.01476
 763,-0.00033645,-0.00127421,-0.00038957,0.00003418,-0.00001515,-0.0000
 7369,-0.00043834,-0.00004344,-0.00006756,0.00003170,0.00002385,-0.0002
 2044,-0.00010119,-0.00014475,0.00000799,0.00019015,-0.00000376,-0.0000
 0367,-0.08396289,0.07650450,-0.04532135,0.00473216,-0.00958811,0.00723
 325,0.00411105,-0.00922220,0.00397707,0.09363882,-0.00227932,0.0002645
 5,-0.00052481,0.00079320,0.00015786,-0.00048432,-0.00039144,0.00014040
 ,0.00010144,0.00006789,-0.00003726,0.00001037,0.00012809,0.00056768,0.
 00085732,0.00063617,0.00078337,-0.00221308,-0.00012973,0.00020449,0.00
 042352,0.00005393,0.00000205,0.00002358,0.00004974,0.00000738,-0.00005
 820,-0.00018532,0.00042889,0.00005620,0.00004194,0.00007345,0.00004547
 ,0.00010942,-0.00000137,-0.00000019,0.07843540,-0.22654089,0.09726700,
 0.00958796,-0.01941824,0.01272438,-0.00082553,0.00063008,-0.00047916,-
 0.08609240,0.24273755,-0.00008141,0.00018218,0.00026338,0.00005538,-0.
 00013143,-0.00004766,-0.00040092,-0.00027458,-0.00000811,0.00108950,0.
 00007680,0.00012978,-0.00014455,0.00007221,0.00059698,0.00343464,-0.00
 308147,0.00038492,-0.00033751,-0.00038172,0.00008857,-0.00001260,0.000
 01171,-0.00001203,0.00005172,-0.00002078,-0.00010131,0.00004002,0.0001
 5081,-0.00003146,-0.00007826,-0.00004043,0.00001454,0.00025045,-0.0000
 0354,-0.00000545,-0.04732670,0.09738001,-0.10042429,0.00723401,-0.0127
 2604,0.00773349,-0.01178379,0.02653582,-0.01376165,0.04801001,-0.10774
 954,0.10518028\\0.00002125,-0.00001383,0.00000625,-0.00003345,-0.00001
 636,-0.00000079,0.00004287,0.00000508,0.00000543,-0.00003693,0.0000115
 2,0.00000023,0.00002415,0.00001353,0.00000572,0.00004102,0.00000083,-0
 .00000883,-0.00002042,-0.00000440,-0.00000405,0.00000685,0.00000571,-0
 .00000206,0.00000822,-0.00000575,-0.00000235,-0.00001982,0.00000470,-0
 .00000405,-0.00002012,-0.00000130,-0.00000202,-0.00000233,-0.00000023,
 0.00000378,-0.00003599,0.00000039,0.00000425,0.00000257,-0.00000534,0.
 00000028,0.00001970,0.00000005,-0.00000211,0.00000247,0.00000540,0.000
 00031\\\@


 WE HAVE LEARNED THAT NOTHING IS SIMPLE AND
 RATIONAL EXCEPT WHAT WE OURSELVES HAVE INVENTED;
 THAT GOD THINKS IN TERMS NEITHER OF EUCLID OR RIEMANN; THAT SCIENCE HAS "EXPLAINED" NOTHING;
 THAT THE MORE WE KNOW THE MORE FANTASTIC THE WORLD BECOMES
 AND THE PROFOUNDER THE SURROUNDING DARKNESS.
   --  ALDOUS HUXLEY
 Job cpu time:       0 days  0 hours 47 minutes 35.2 seconds.
 Elapsed time:       0 days  0 hours  1 minutes 35.2 seconds.
 File lengths (MBytes):  RWF=    120 Int=      0 D2E=      0 Chk=      5 Scr=      1
 Normal termination of Gaussian 16 at Sun Sep 17 09:05:15 2023.
