 Entering Gaussian System, Link 0=/home/ubuntu/g16/g16
 Input=/home/ubuntu/ML substrates/MOLECULE_22.gjf
 Output=/home/ubuntu/ML substrates/MOLECULE_22.log
 Initial command:
 /home/ubuntu/g16/l1.exe "/home/ubuntu/Scratch/Gau-10949.inp" -scrdir="/home/ubuntu/Scratch/"
 Entering Link 1 = /home/ubuntu/g16/l1.exe PID=     10951.
  
 Copyright (c) 1988-2017, Gaussian, Inc.  All Rights Reserved.
  
 This is part of the Gaussian(R) 16 program.  It is based on
 the Gaussian(R) 09 system (copyright 2009, Gaussian, Inc.),
 the Gaussian(R) 03 system (copyright 2003, Gaussian, Inc.),
 the Gaussian(R) 98 system (copyright 1998, Gaussian, Inc.),
 the Gaussian(R) 94 system (copyright 1995, Gaussian, Inc.),
 the Gaussian 92(TM) system (copyright 1992, Gaussian, Inc.),
 the Gaussian 90(TM) system (copyright 1990, Gaussian, Inc.),
 the Gaussian 88(TM) system (copyright 1988, Gaussian, Inc.),
 the Gaussian 86(TM) system (copyright 1986, Carnegie Mellon
 University), and the Gaussian 82(TM) system (copyright 1983,
 Carnegie Mellon University). Gaussian is a federally registered
 trademark of Gaussian, Inc.
  
 This software contains proprietary and confidential information,
 including trade secrets, belonging to Gaussian, Inc.
  
 This software is provided under written license and may be
 used, copied, transmitted, or stored only in accord with that
 written license.
  
 The following legend is applicable only to US Government
 contracts under FAR:
  
                    RESTRICTED RIGHTS LEGEND
  
 Use, reproduction and disclosure by the US Government is
 subject to restrictions as set forth in subparagraphs (a)
 and (c) of the Commercial Computer Software - Restricted
 Rights clause in FAR 52.227-19.
  
 Gaussian, Inc.
 340 Quinnipiac St., Bldg. 40, Wallingford CT 06492
  
  
 ---------------------------------------------------------------
 Warning -- This program may not be used in any manner that
 competes with the business of Gaussian, Inc. or will provide
 assistance to any competitor of Gaussian, Inc.  The licensee
 of this program is prohibited from giving any competitor of
 Gaussian, Inc. access to this program.  By using this program,
 the user acknowledges that Gaussian, Inc. is engaged in the
 business of creating and licensing software in the field of
 computational chemistry and represents and warrants to the
 licensee that it is not a competitor of Gaussian, Inc. and that
 it will not use this program in any manner prohibited above.
 ---------------------------------------------------------------
  

 Cite this work as:
 Gaussian 16, Revision B.01,
 M. J. Frisch, G. W. Trucks, H. B. Schlegel, G. E. Scuseria, 
 M. A. Robb, J. R. Cheeseman, G. Scalmani, V. Barone, 
 G. A. Petersson, H. Nakatsuji, X. Li, M. Caricato, A. V. Marenich, 
 J. Bloino, B. G. Janesko, R. Gomperts, B. Mennucci, H. P. Hratchian, 
 J. V. Ortiz, A. F. Izmaylov, J. L. Sonnenberg, D. Williams-Young, 
 F. Ding, F. Lipparini, F. Egidi, J. Goings, B. Peng, A. Petrone, 
 T. Henderson, D. Ranasinghe, V. G. Zakrzewski, J. Gao, N. Rega, 
 G. Zheng, W. Liang, M. Hada, M. Ehara, K. Toyota, R. Fukuda, 
 J. Hasegawa, M. Ishida, T. Nakajima, Y. Honda, O. Kitao, H. Nakai, 
 T. Vreven, K. Throssell, J. A. Montgomery, Jr., J. E. Peralta, 
 F. Ogliaro, M. J. Bearpark, J. J. Heyd, E. N. Brothers, K. N. Kudin, 
 V. N. Staroverov, T. A. Keith, R. Kobayashi, J. Normand, 
 K. Raghavachari, A. P. Rendell, J. C. Burant, S. S. Iyengar, 
 J. Tomasi, M. Cossi, J. M. Millam, M. Klene, C. Adamo, R. Cammi, 
 J. W. Ochterski, R. L. Martin, K. Morokuma, O. Farkas, 
 J. B. Foresman, and D. J. Fox, Gaussian, Inc., Wallingford CT, 2016.
 
 ******************************************
 Gaussian 16:  EM64L-G16RevB.01 20-Dec-2017
                15-Sep-2023 
 ******************************************
 %nprocshared=30
 Will use up to   30 processors via shared memory.
 %mem=30GB
 %chk=MOLECULE_22.chk
 ----------------------------------------------------------------
 # opt freq b3lyp/6-31+g(d) nosymm empiricaldispersion=gd3 volume
 ----------------------------------------------------------------
 1/18=20,19=15,26=3,38=1/1,3;
 2/9=110,12=2,15=1,17=6,18=5,40=1/2;
 3/5=1,6=6,7=11,11=2,25=1,30=1,71=1,74=-5,124=31/1,2,3;
 4//1;
 5/5=2,38=5/2;
 6/7=2,8=2,9=2,10=2,28=1,44=1/1,4;
 7/30=1/1,2,3,16;
 1/18=20,19=15,26=3/3(2);
 2/9=110,15=1/2;
 99//99;
 2/9=110,15=1/2;
 3/5=1,6=6,7=11,11=2,25=1,30=1,71=1,74=-5,124=31/1,2,3;
 4/5=5,16=3,69=1/1;
 5/5=2,38=5/2;
 7/30=1/1,2,3,16;
 1/18=20,19=15,26=3/3(-5);
 2/9=110,15=1/2;
 6/7=2,8=2,9=2,10=2,19=2,28=1,44=1/1,4;
 99/9=1/99;
 -----------
 molecule_11
 -----------
 Symbolic Z-matrix:
 Charge =  0 Multiplicity = 1
 C                    -0.18625  -0.6932    0.29418 
 C                     1.20876  -0.64763   0.28328 
 C                     1.9161    0.5576    0.07121 
 C                     1.17282   1.75312  -0.13642 
 C                    -0.2314    1.69003  -0.12224 
 C                    -0.90974   0.48608   0.08973 
 H                    -0.70232  -1.63387   0.45958 
 H                     1.77905  -1.55665   0.44082 
 H                    -0.79945   2.60266  -0.28048 
 B                     3.46749   0.47821   0.08264 
 O                     4.2465    1.61526  -0.11651 
 H                     5.21654   1.54704  -0.10512 
 O                     4.04583  -0.77258   0.29998 
 H                     5.01168  -0.87437   0.31581 
 H                    -1.99583   0.4712    0.09477 
 C                     1.83503   3.09392  -0.37262 
 H                     2.48283   3.37274   0.46447 
 H                     2.48221   3.06987  -1.255 
 H                     1.084     3.8786   -0.5105 
 

 GradGradGradGradGradGradGradGradGradGradGradGradGradGradGradGradGradGrad
 Berny optimization.
 Initialization pass.
                           ----------------------------
                           !    Initial Parameters    !
                           ! (Angstroms and Degrees)  !
 --------------------------                            --------------------------
 ! Name  Definition              Value          Derivative Info.                !
 --------------------------------------------------------------------------------
 ! R1    R(1,2)                  1.3958         estimate D2E/DX2                !
 ! R2    R(1,6)                  1.3986         estimate D2E/DX2                !
 ! R3    R(1,7)                  1.0856         estimate D2E/DX2                !
 ! R4    R(2,3)                  1.4135         estimate D2E/DX2                !
 ! R5    R(2,8)                  1.0846         estimate D2E/DX2                !
 ! R6    R(3,4)                  1.423          estimate D2E/DX2                !
 ! R7    R(3,10)                 1.5535         estimate D2E/DX2                !
 ! R8    R(4,5)                  1.4057         estimate D2E/DX2                !
 ! R9    R(4,16)                 1.514          estimate D2E/DX2                !
 ! R10   R(5,6)                  1.3981         estimate D2E/DX2                !
 ! R11   R(5,9)                  1.0866         estimate D2E/DX2                !
 ! R12   R(6,15)                 1.0862         estimate D2E/DX2                !
 ! R13   R(10,11)                1.3926         estimate D2E/DX2                !
 ! R14   R(10,13)                1.3951         estimate D2E/DX2                !
 ! R15   R(11,12)                0.9725         estimate D2E/DX2                !
 ! R16   R(13,14)                0.9713         estimate D2E/DX2                !
 ! R17   R(16,17)                1.0946         estimate D2E/DX2                !
 ! R18   R(16,18)                1.0945         estimate D2E/DX2                !
 ! R19   R(16,19)                1.0949         estimate D2E/DX2                !
 ! A1    A(2,1,6)              119.2321         estimate D2E/DX2                !
 ! A2    A(2,1,7)              120.3044         estimate D2E/DX2                !
 ! A3    A(6,1,7)              120.4635         estimate D2E/DX2                !
 ! A4    A(1,2,3)              121.9491         estimate D2E/DX2                !
 ! A5    A(1,2,8)              119.8022         estimate D2E/DX2                !
 ! A6    A(3,2,8)              118.2487         estimate D2E/DX2                !
 ! A7    A(2,3,4)              118.4818         estimate D2E/DX2                !
 ! A8    A(2,3,10)             117.0708         estimate D2E/DX2                !
 ! A9    A(4,3,10)             124.4474         estimate D2E/DX2                !
 ! A10   A(3,4,5)              118.8558         estimate D2E/DX2                !
 ! A11   A(3,4,16)             122.5721         estimate D2E/DX2                !
 ! A12   A(5,4,16)             118.5721         estimate D2E/DX2                !
 ! A13   A(4,5,6)              121.6596         estimate D2E/DX2                !
 ! A14   A(4,5,9)              118.8869         estimate D2E/DX2                !
 ! A15   A(6,5,9)              119.4535         estimate D2E/DX2                !
 ! A16   A(1,6,5)              119.8216         estimate D2E/DX2                !
 ! A17   A(1,6,15)             120.3332         estimate D2E/DX2                !
 ! A18   A(5,6,15)             119.8452         estimate D2E/DX2                !
 ! A19   A(3,10,11)            121.0553         estimate D2E/DX2                !
 ! A20   A(3,10,13)            117.4501         estimate D2E/DX2                !
 ! A21   A(11,10,13)           121.4947         estimate D2E/DX2                !
 ! A22   A(10,11,12)           119.9352         estimate D2E/DX2                !
 ! A23   A(10,13,14)           120.5795         estimate D2E/DX2                !
 ! A24   A(4,16,17)            111.4163         estimate D2E/DX2                !
 ! A25   A(4,16,18)            111.4043         estimate D2E/DX2                !
 ! A26   A(4,16,19)            110.7517         estimate D2E/DX2                !
 ! A27   A(17,16,18)           105.7943         estimate D2E/DX2                !
 ! A28   A(17,16,19)           108.6449         estimate D2E/DX2                !
 ! A29   A(18,16,19)           108.6521         estimate D2E/DX2                !
 ! D1    D(6,1,2,3)             -0.0033         estimate D2E/DX2                !
 ! D2    D(6,1,2,8)           -179.9984         estimate D2E/DX2                !
 ! D3    D(7,1,2,3)            179.9978         estimate D2E/DX2                !
 ! D4    D(7,1,2,8)              0.0027         estimate D2E/DX2                !
 ! D5    D(2,1,6,5)              0.0121         estimate D2E/DX2                !
 ! D6    D(2,1,6,15)          -179.9905         estimate D2E/DX2                !
 ! D7    D(7,1,6,5)           -179.989          estimate D2E/DX2                !
 ! D8    D(7,1,6,15)             0.0084         estimate D2E/DX2                !
 ! D9    D(1,2,3,4)             -0.0143         estimate D2E/DX2                !
 ! D10   D(1,2,3,10)           179.9663         estimate D2E/DX2                !
 ! D11   D(8,2,3,4)            179.9809         estimate D2E/DX2                !
 ! D12   D(8,2,3,10)            -0.0385         estimate D2E/DX2                !
 ! D13   D(2,3,4,5)              0.0228         estimate D2E/DX2                !
 ! D14   D(2,3,4,16)          -179.9768         estimate D2E/DX2                !
 ! D15   D(10,3,4,5)          -179.9562         estimate D2E/DX2                !
 ! D16   D(10,3,4,16)            0.0442         estimate D2E/DX2                !
 ! D17   D(2,3,10,11)         -179.9484         estimate D2E/DX2                !
 ! D18   D(2,3,10,13)            0.0301         estimate D2E/DX2                !
 ! D19   D(4,3,10,11)            0.0309         estimate D2E/DX2                !
 ! D20   D(4,3,10,13)         -179.9906         estimate D2E/DX2                !
 ! D21   D(3,4,5,6)             -0.0147         estimate D2E/DX2                !
 ! D22   D(3,4,5,9)            179.9849         estimate D2E/DX2                !
 ! D23   D(16,4,5,6)           179.9849         estimate D2E/DX2                !
 ! D24   D(16,4,5,9)            -0.0155         estimate D2E/DX2                !
 ! D25   D(3,4,16,17)          -59.066          estimate D2E/DX2                !
 ! D26   D(3,4,16,18)           58.8241         estimate D2E/DX2                !
 ! D27   D(3,4,16,19)          179.8796         estimate D2E/DX2                !
 ! D28   D(5,4,16,17)          120.9344         estimate D2E/DX2                !
 ! D29   D(5,4,16,18)         -121.1754         estimate D2E/DX2                !
 ! D30   D(5,4,16,19)           -0.12           estimate D2E/DX2                !
 ! D31   D(4,5,6,1)             -0.003          estimate D2E/DX2                !
 ! D32   D(4,5,6,15)           179.9995         estimate D2E/DX2                !
 ! D33   D(9,5,6,1)            179.9974         estimate D2E/DX2                !
 ! D34   D(9,5,6,15)            -0.0001         estimate D2E/DX2                !
 ! D35   D(3,10,11,12)         179.9322         estimate D2E/DX2                !
 ! D36   D(13,10,11,12)         -0.0454         estimate D2E/DX2                !
 ! D37   D(3,10,13,14)         179.9716         estimate D2E/DX2                !
 ! D38   D(11,10,13,14)         -0.05           estimate D2E/DX2                !
 --------------------------------------------------------------------------------
 Trust Radius=3.00D-01 FncErr=1.00D-07 GrdErr=1.00D-06 EigMax=2.50D+02 EigMin=1.00D-04
 Number of steps in this run=     96 maximum allowed number of steps=    114.
 GradGradGradGradGradGradGradGradGradGradGradGradGradGradGradGradGradGrad

                          Input orientation:                          
 ---------------------------------------------------------------------
 Center     Atomic      Atomic             Coordinates (Angstroms)
 Number     Number       Type             X           Y           Z
 ---------------------------------------------------------------------
      1          6           0       -0.186246   -0.693203    0.294175
      2          6           0        1.208757   -0.647627    0.283276
      3          6           0        1.916099    0.557595    0.071214
      4          6           0        1.172821    1.753123   -0.136417
      5          6           0       -0.231395    1.690030   -0.122239
      6          6           0       -0.909740    0.486084    0.089728
      7          1           0       -0.702322   -1.633870    0.459575
      8          1           0        1.779046   -1.556645    0.440815
      9          1           0       -0.799453    2.602657   -0.280482
     10          5           0        3.467485    0.478214    0.082643
     11          8           0        4.246496    1.615261   -0.116511
     12          1           0        5.216543    1.547043   -0.105118
     13          8           0        4.045831   -0.772575    0.299978
     14          1           0        5.011680   -0.874374    0.315811
     15          1           0       -1.995833    0.471201    0.094774
     16          6           0        1.835029    3.093920   -0.372624
     17          1           0        2.482827    3.372742    0.464470
     18          1           0        2.482212    3.069869   -1.255001
     19          1           0        1.083996    3.878599   -0.510497
 ---------------------------------------------------------------------
                    Distance matrix (angstroms):
                    1          2          3          4          5
     1  C    0.000000
     2  C    1.395790   0.000000
     3  C    2.456433   1.413458   0.000000
     4  C    2.831428   2.437424   1.422976   0.000000
     5  C    2.419760   2.775450   2.435480   1.405704   0.000000
     6  C    1.398556   2.410558   2.826804   2.448181   1.398059
     7  H    1.085609   2.157772   3.436491   3.917026   3.407138
     8  H    2.151606   1.084602   2.150674   3.413982   3.860026
     9  H    3.401315   3.862004   3.417629   2.152284   1.086563
    10  B    3.842748   2.531723   1.553458   2.634172   3.897716
    11  O    5.014666   3.808983   2.566057   3.076830   4.478519
    12  H    5.862445   4.585823   3.450077   4.049091   5.449841
    13  O    4.232825   2.839873   2.521397   3.850166   4.953519
    14  H    5.201127   3.809816   3.419501   4.673873   5.853024
    15  H    2.161065   3.399516   3.912957   3.425951   2.155430
    16  C    4.344246   3.849883   2.576142   1.513952   2.510719
    17  H    4.866709   4.221309   2.898428   2.168028   3.246960
    18  H    4.866346   4.219924   2.896697   2.167846   3.248195
    19  H    4.812732   4.596995   3.472730   2.159971   2.582795
                    6          7          8          9         10
     6  C    0.000000
     7  H    2.161947   0.000000
     8  H    3.394934   2.482640   0.000000
     9  H    2.151534   4.301776   4.946587   0.000000
    10  B    4.377238   4.689378   2.668289   4.780364   0.000000
    11  O    5.282456   5.948069   4.057081   5.144263   1.392622
    12  H    6.220526   6.743148   4.663401   6.110424   2.058362
    13  O    5.117237   4.828277   2.402689   5.933456   1.395060
    14  H    6.079899   5.766049   3.306213   6.798130   2.066011
    15  H    1.086207   2.497514   4.299025   2.472903   5.463336
    16  C    3.814228   5.429798   4.721501   2.681478   3.116745
    17  H    4.470205   5.933916   4.979430   3.452730   3.081174
    18  H    4.470971   5.933480   4.977436   3.455040   3.078430
    19  H    3.980504   5.875312   5.561472   2.286551   4.194693
                   11         12         13         14         15
    11  O    0.000000
    12  H    0.972509   0.000000
    13  O    2.432178   2.629695   0.000000
    14  H    2.640207   2.466254   0.971328   0.000000
    15  H    6.349818   7.294913   6.171774   7.138954   0.000000
    16  C    2.840282   3.728140   4.504423   5.129563   4.666114
    17  H    2.556718   3.336287   4.433248   4.945219   5.349207
    18  H    2.554357   3.334336   4.430264   4.941934   5.350500
    19  H    3.908878   4.762188   5.573397   6.220952   4.632716
                   16         17         18         19
    16  C    0.000000
    17  H    1.094582   0.000000
    18  H    1.094538   1.745942   0.000000
    19  H    1.094888   1.778533   1.778578   0.000000
 Symmetry turned off by external request.
 Stoichiometry    C7H9BO2
 Framework group  C1[X(C7H9BO2)]
 Deg. of freedom    51
 Full point group                 C1      NOp   1
 Rotational constants (GHZ):           2.1346912           1.1134894           0.7350507
 Standard basis: 6-31+G(d) (6D, 7F)
   208 basis functions,   356 primitive gaussians,   208 cartesian basis functions
    36 alpha electrons       36 beta electrons
       nuclear repulsion energy       482.3838925752 Hartrees.
 NAtoms=   19 NActive=   19 NUniq=   19 SFac= 1.00D+00 NAtFMM=   60 NAOKFM=F Big=F
 Integral buffers will be    131072 words long.
 Raffenetti 2 integral format.
 Two-electron integral symmetry is turned off.
 Nuclear repulsion after empirical dispersion term =      482.3697233127 Hartrees.
 One-electron integrals computed using PRISM.
 NBasis=   208 RedAO= T EigKep=  2.06D-06  NBF=   208
 NBsUse=   208 1.00D-06 EigRej= -1.00D+00 NBFU=   208
 ExpMin= 3.15D-02 ExpMax= 5.48D+03 ExpMxC= 8.25D+02 IAcc=3 IRadAn=         5 AccDes= 0.00D+00
 Harris functional with IExCor=  402 and IRadAn=       5 diagonalized for initial guess.
 HarFok:  IExCor=  402 AccDes= 0.00D+00 IRadAn=         5 IDoV= 1 UseB2=F ITyADJ=14
 ICtDFT=  3500011 ScaDFX=  1.000000  1.000000  1.000000  1.000000
 FoFCou: FMM=F IPFlag=           0 FMFlag=      100000 FMFlg1=           0
         NFxFlg=           0 DoJE=T BraDBF=F KetDBF=T FulRan=T
         wScrn=  0.000000 ICntrl=       500 IOpCl=  0 I1Cent=   200000004 NGrid=           0
         NMat0=    1 NMatS0=      1 NMatT0=    0 NMatD0=    1 NMtDS0=    0 NMtDT0=    0
 Symmetry not used in FoFCou.
 Requested convergence on RMS density matrix=1.00D-08 within 128 cycles.
 Requested convergence on MAX density matrix=1.00D-06.
 Requested convergence on             energy=1.00D-06.
 No special actions if energy rises.
 SCF Done:  E(RB3LYP) =  -447.610027172     A.U. after   14 cycles
            NFock= 14  Conv=0.73D-08     -V/T= 2.0099

 **********************************************************************

            Population analysis using the SCF Density.

 **********************************************************************

 Alpha  occ. eigenvalues --  -19.17546 -19.17308 -10.20193 -10.19377 -10.18833
 Alpha  occ. eigenvalues --  -10.18680 -10.18628 -10.17284 -10.17281  -6.80166
 Alpha  occ. eigenvalues --   -1.04249  -1.00966  -0.84899  -0.76554  -0.74104
 Alpha  occ. eigenvalues --   -0.67820  -0.61239  -0.59052  -0.56409  -0.55099
 Alpha  occ. eigenvalues --   -0.49788  -0.45125  -0.44527  -0.43392  -0.41433
 Alpha  occ. eigenvalues --   -0.40357  -0.39143  -0.38831  -0.37706  -0.34880
 Alpha  occ. eigenvalues --   -0.34390  -0.33298  -0.33050  -0.32047  -0.24974
 Alpha  occ. eigenvalues --   -0.23983
 Alpha virt. eigenvalues --   -0.03405  -0.02822  -0.00289   0.01144   0.01324
 Alpha virt. eigenvalues --    0.03123   0.03475   0.03546   0.05152   0.06316
 Alpha virt. eigenvalues --    0.06763   0.07380   0.07976   0.08907   0.10105
 Alpha virt. eigenvalues --    0.10305   0.11240   0.11788   0.12039   0.12848
 Alpha virt. eigenvalues --    0.13281   0.14352   0.14786   0.16101   0.16305
 Alpha virt. eigenvalues --    0.16800   0.17620   0.18276   0.18772   0.18805
 Alpha virt. eigenvalues --    0.20103   0.20865   0.21160   0.21986   0.22687
 Alpha virt. eigenvalues --    0.22701   0.23245   0.23291   0.23395   0.24851
 Alpha virt. eigenvalues --    0.25594   0.25953   0.26831   0.28019   0.28615
 Alpha virt. eigenvalues --    0.29012   0.29463   0.30123   0.30722   0.32386
 Alpha virt. eigenvalues --    0.34230   0.34957   0.35478   0.36632   0.38521
 Alpha virt. eigenvalues --    0.39267   0.43026   0.44443   0.46085   0.47756
 Alpha virt. eigenvalues --    0.49636   0.58400   0.59554   0.62876   0.66876
 Alpha virt. eigenvalues --    0.67901   0.68400   0.70649   0.71255   0.72507
 Alpha virt. eigenvalues --    0.73941   0.74158   0.75242   0.75868   0.77113
 Alpha virt. eigenvalues --    0.79340   0.80165   0.83927   0.84436   0.85953
 Alpha virt. eigenvalues --    0.90666   0.91686   0.94687   0.95803   0.96514
 Alpha virt. eigenvalues --    0.99713   1.00338   1.03313   1.05669   1.07178
 Alpha virt. eigenvalues --    1.08654   1.10758   1.11940   1.12858   1.14276
 Alpha virt. eigenvalues --    1.15281   1.17774   1.19327   1.22166   1.23304
 Alpha virt. eigenvalues --    1.23579   1.26788   1.27261   1.28673   1.30318
 Alpha virt. eigenvalues --    1.31593   1.34438   1.36482   1.40386   1.43765
 Alpha virt. eigenvalues --    1.45841   1.46532   1.49395   1.50395   1.50545
 Alpha virt. eigenvalues --    1.54425   1.65260   1.66528   1.69249   1.72708
 Alpha virt. eigenvalues --    1.74935   1.75011   1.79397   1.79977   1.84854
 Alpha virt. eigenvalues --    1.87873   1.92027   1.92734   1.94368   1.96957
 Alpha virt. eigenvalues --    1.98702   2.06241   2.09959   2.10947   2.14710
 Alpha virt. eigenvalues --    2.16427   2.16768   2.22124   2.23706   2.24668
 Alpha virt. eigenvalues --    2.28605   2.29009   2.33329   2.36598   2.37227
 Alpha virt. eigenvalues --    2.40323   2.46642   2.46914   2.53239   2.62791
 Alpha virt. eigenvalues --    2.65590   2.65710   2.68945   2.76279   2.78632
 Alpha virt. eigenvalues --    2.80559   2.81390   2.92485   2.96122   2.97989
 Alpha virt. eigenvalues --    3.15759   3.39917   3.71308   4.18145   4.25834
 Alpha virt. eigenvalues --    4.28577   4.33268   4.37369   4.41094   4.46804
 Alpha virt. eigenvalues --    4.48945   4.75236
          Condensed to atoms (all electrons):
               1          2          3          4          5          6
     1  C    8.852379  -5.590672   2.288900  -1.575978   2.537202  -0.368342
     2  C   -5.590672  21.922448  -5.571908  -1.982101  -5.523192   1.656429
     3  C    2.288900  -5.571908  19.600544  -9.529283   2.607203  -1.423759
     4  C   -1.575978  -1.982101  -9.529283  22.272774  -5.655247   1.236532
     5  C    2.537202  -5.523192   2.607203  -5.655247  14.721434  -1.353750
     6  C   -0.368342   1.656429  -1.423759   1.236532  -1.353750   5.914425
     7  H    0.251354   0.027060   0.035685  -0.012225   0.019142  -0.028662
     8  H    0.038129   0.205258   0.000908   0.018400   0.001277   0.014660
     9  H    0.009118  -0.017099   0.060461   0.021080   0.220202   0.008348
    10  B   -0.108350   0.193546   0.245556   0.173566  -0.179837   0.035017
    11  O    0.056954  -0.371108   0.004878   0.281606  -0.055684   0.006844
    12  H    0.004005  -0.041438  -0.034486   0.063606   0.017495  -0.001776
    13  O   -0.030189   0.516812   0.171312  -0.655132  -0.031489  -0.001486
    14  H    0.005983   0.018651  -0.003882  -0.027087   0.003414  -0.000036
    15  H   -0.018742   0.023237  -0.002648   0.047389  -0.044832   0.285521
    16  C   -0.150013   0.343330  -1.517536   0.476027  -0.423325   0.083334
    17  H    0.003100  -0.006949  -0.021402  -0.042401  -0.012720  -0.003824
    18  H    0.003101  -0.007064  -0.021592  -0.042961  -0.012116  -0.003786
    19  H   -0.004608   0.017579   0.060326  -0.180705  -0.034219   0.001783
               7          8          9         10         11         12
     1  C    0.251354   0.038129   0.009118  -0.108350   0.056954   0.004005
     2  C    0.027060   0.205258  -0.017099   0.193546  -0.371108  -0.041438
     3  C    0.035685   0.000908   0.060461   0.245556   0.004878  -0.034486
     4  C   -0.012225   0.018400   0.021080   0.173566   0.281606   0.063606
     5  C    0.019142   0.001277   0.220202  -0.179837  -0.055684   0.017495
     6  C   -0.028662   0.014660   0.008348   0.035017   0.006844  -0.001776
     7  H    0.540802  -0.004250  -0.000163   0.000196   0.000017   0.000000
     8  H   -0.004250   0.527273   0.000016  -0.012139   0.001927  -0.000012
     9  H   -0.000163   0.000016   0.551158   0.001035   0.000075   0.000000
    10  B    0.000196  -0.012139   0.001035   3.372567   0.171276   0.010524
    11  O    0.000017   0.001927   0.000075   0.171276   8.780600   0.159192
    12  H    0.000000  -0.000012   0.000000   0.010524   0.159192   0.327175
    13  O    0.000162   0.004552   0.000017   0.215485  -0.237221  -0.007088
    14  H    0.000000  -0.000106   0.000000   0.004544  -0.005362   0.003489
    15  H   -0.004418  -0.000162  -0.004645   0.000173  -0.000001   0.000000
    16  C   -0.000025   0.000143  -0.027105  -0.004260   0.058994  -0.014006
    17  H    0.000000   0.000000   0.000216   0.001115   0.000583   0.000276
    18  H    0.000000   0.000000   0.000215   0.001062   0.000530   0.000279
    19  H    0.000000   0.000002   0.004781   0.000858  -0.001108  -0.000018
              13         14         15         16         17         18
     1  C   -0.030189   0.005983  -0.018742  -0.150013   0.003100   0.003101
     2  C    0.516812   0.018651   0.023237   0.343330  -0.006949  -0.007064
     3  C    0.171312  -0.003882  -0.002648  -1.517536  -0.021402  -0.021592
     4  C   -0.655132  -0.027087   0.047389   0.476027  -0.042401  -0.042961
     5  C   -0.031489   0.003414  -0.044832  -0.423325  -0.012720  -0.012116
     6  C   -0.001486  -0.000036   0.285521   0.083334  -0.003824  -0.003786
     7  H    0.000162   0.000000  -0.004418  -0.000025   0.000000   0.000000
     8  H    0.004552  -0.000106  -0.000162   0.000143   0.000000   0.000000
     9  H    0.000017   0.000000  -0.004645  -0.027105   0.000216   0.000215
    10  B    0.215485   0.004544   0.000173  -0.004260   0.001115   0.001062
    11  O   -0.237221  -0.005362  -0.000001   0.058994   0.000583   0.000530
    12  H   -0.007088   0.003489   0.000000  -0.014006   0.000276   0.000279
    13  O    8.707972   0.165648   0.000005   0.008151  -0.000124  -0.000127
    14  H    0.165648   0.331936   0.000000  -0.004879   0.000000   0.000000
    15  H    0.000005   0.000000   0.542188   0.000071   0.000003   0.000003
    16  C    0.008151  -0.004879   0.000071   6.759995   0.416857   0.417220
    17  H   -0.000124   0.000000   0.000003   0.416857   0.490680  -0.030759
    18  H   -0.000127   0.000000   0.000003   0.417220  -0.030759   0.490621
    19  H    0.000095   0.000000  -0.000011   0.468841  -0.027305  -0.027298
              19
     1  C   -0.004608
     2  C    0.017579
     3  C    0.060326
     4  C   -0.180705
     5  C   -0.034219
     6  C    0.001783
     7  H    0.000000
     8  H    0.000002
     9  H    0.004781
    10  B    0.000858
    11  O   -0.001108
    12  H   -0.000018
    13  O    0.000095
    14  H    0.000000
    15  H   -0.000011
    16  C    0.468841
    17  H   -0.027305
    18  H   -0.027298
    19  H    0.529612
 Mulliken charges:
               1
     1  C   -0.203329
     2  C    0.187180
     3  C   -0.949277
     4  C    1.112139
     5  C   -0.800959
     6  C   -0.057470
     7  H    0.175328
     8  H    0.204125
     9  H    0.172291
    10  B    0.878067
    11  O   -0.852991
    12  H    0.512784
    13  O   -0.827354
    14  H    0.507687
    15  H    0.176870
    16  C   -0.891814
    17  H    0.232654
    18  H    0.232673
    19  H    0.191396
 Sum of Mulliken charges =   0.00000
 Mulliken charges with hydrogens summed into heavy atoms:
               1
     1  C   -0.028001
     2  C    0.391305
     3  C   -0.949277
     4  C    1.112139
     5  C   -0.628668
     6  C    0.119400
    10  B    0.878067
    11  O   -0.340207
    13  O   -0.319667
    16  C   -0.235090
 Electronic spatial extent (au):  <R**2>=           2469.1775
 Charge=              0.0000 electrons
 Dipole moment (field-independent basis, Debye):
    X=              2.4493    Y=              0.0719    Z=             -0.0155  Tot=              2.4504
 Quadrupole moment (field-independent basis, Debye-Ang):
   XX=            -31.7068   YY=            -59.1753   ZZ=            -63.0409
   XY=              0.3379   XZ=              0.3133   YZ=             -0.6814
 Traceless Quadrupole moment (field-independent basis, Debye-Ang):
   XX=             19.6009   YY=             -7.8676   ZZ=            -11.7332
   XY=              0.3379   XZ=              0.3133   YZ=             -0.6814
 Octapole moment (field-independent basis, Debye-Ang**2):
  XXX=           -108.2031  YYY=           -144.3941  ZZZ=             -6.5040  XYY=           -105.2258
  XXY=            -42.1318  XXZ=              1.7893  XZZ=            -99.3794  YZZ=            -48.9686
  YYZ=             -1.8289  XYZ=              1.1109
 Hexadecapole moment (field-independent basis, Debye-Ang**3):
 XXXX=           -962.2256 YYYY=           -940.4218 ZZZZ=           -102.3610 XXXY=           -200.6390
 XXXZ=             16.3771 YYYX=           -262.3674 YYYZ=             47.0341 ZZZX=             -8.1486
 ZZZY=             53.7163 XXYY=           -524.7333 XXZZ=           -390.8507 YYZZ=           -179.5261
 XXYZ=             16.8053 YYXZ=              0.9163 ZZXY=            -78.9710
 N-N= 4.823697233127D+02 E-N=-2.007157370134D+03  KE= 4.432435119556D+02
 Evaluate density.
 Using the total density.
 Monte-Carlo method of calculating molar volume:
 based on  0.001 e/bohr**3 density envelope.
 Number of points per bohr**3 =   20 CutOff= 1.00D-04
 Using the SCF density.
 There are       372 points.  Will hold       372 in memory.
 LenV=  4026409504 MDV=  4026531840.
 Box volume = 6464.213 fraction occupied=0.199
 Integrated density= 4.9408451886808088D+01 error=-2.2591548113191912D+01
 Molar volume = 1285.892 bohr**3/mol (114.752 cm**3/mol)
 Recommended a0 for SCRF calculation =  4.43 angstrom (  8.37 bohr)
 Calling FoFJK, ICntrl=      2127 FMM=F ISym2X=0 I1Cent= 0 IOpClX= 0 NMat=1 NMatS=1 NMatT=0.
 -------------------------------------------------------------------
 Center     Atomic                   Forces (Hartrees/Bohr)
 Number     Number              X              Y              Z
 -------------------------------------------------------------------
      1        6           0.000974470    0.002106644   -0.000371554
      2        6          -0.000899648    0.003561774   -0.000630278
      3        6          -0.006307948    0.000942382   -0.000159660
      4        6          -0.001152092   -0.001789855    0.000333412
      5        6           0.002612639   -0.002131449    0.000363858
      6        6           0.002846415   -0.000231753    0.000038740
      7        1          -0.000491690   -0.000930366    0.000165298
      8        1          -0.000174000   -0.001173333    0.000216035
      9        1          -0.000755876    0.000668447   -0.000122198
     10        5           0.024305116   -0.002336147    0.000390899
     11        8          -0.003865906   -0.002451524    0.000436166
     12        1          -0.006632570   -0.005020657    0.000869873
     13        8          -0.003481918    0.002886833   -0.000513174
     14        1          -0.005346139    0.005900733   -0.001013477
     15        1          -0.000974295   -0.000007946    0.000001811
     16        6          -0.000061288   -0.000803742    0.000140713
     17        1          -0.000290550    0.000387194    0.000512242
     18        1          -0.000291056    0.000215354   -0.000622839
     19        1          -0.000013663    0.000207411   -0.000035868
 -------------------------------------------------------------------
 Cartesian Forces:  Max     0.024305116 RMS     0.003891783

 GradGradGradGradGradGradGradGradGradGradGradGradGradGradGradGradGradGrad
 Berny optimization.
 FormGI is forming the generalized inverse of G from B-inverse, IUseBI=4.
 Internal  Forces:  Max     0.012159868 RMS     0.002701360
 Search for a local minimum.
 Step number   1 out of a maximum of   96
 All quantities printed in internal units (Hartrees-Bohrs-Radians)
 Mixed Optimization -- RFO/linear search
 Second derivative matrix not updated -- first step.
 ITU=  0
     Eigenvalues ---    0.00581   0.00588   0.01363   0.01465   0.01466
     Eigenvalues ---    0.01865   0.02020   0.02040   0.02061   0.02110
     Eigenvalues ---    0.02111   0.02128   0.02286   0.02319   0.07052
     Eigenvalues ---    0.07130   0.16000   0.16000   0.16000   0.16000
     Eigenvalues ---    0.16000   0.16000   0.16000   0.16000   0.16000
     Eigenvalues ---    0.22000   0.22484   0.24466   0.25000   0.25000
     Eigenvalues ---    0.25000   0.25000   0.27359   0.30957   0.34254
     Eigenvalues ---    0.34288   0.34293   0.35213   0.35255   0.35325
     Eigenvalues ---    0.35444   0.40000   0.40800   0.43522   0.44855
     Eigenvalues ---    0.45434   0.46088   0.46449   0.46865   0.52867
     Eigenvalues ---    0.53107
 RFO step:  Lambda=-2.20859018D-03 EMin= 5.81393162D-03
 Linear search not attempted -- first point.
 Iteration  1 RMS(Cart)=  0.02160762 RMS(Int)=  0.00052065
 Iteration  2 RMS(Cart)=  0.00049913 RMS(Int)=  0.00000180
 Iteration  3 RMS(Cart)=  0.00000016 RMS(Int)=  0.00000179
 Variable       Old X    -DE/DX   Delta X   Delta X   Delta X     New X
                                 (Linear)    (Quad)   (Total)
    R1        2.63766  -0.00185   0.00000  -0.00398  -0.00398   2.63368
    R2        2.64289  -0.00248   0.00000  -0.00542  -0.00542   2.63747
    R3        2.05150   0.00107   0.00000   0.00300   0.00300   2.05450
    R4        2.67105  -0.00176   0.00000  -0.00399  -0.00399   2.66706
    R5        2.04960   0.00092   0.00000   0.00259   0.00259   2.05219
    R6        2.68903  -0.00154   0.00000  -0.00361  -0.00361   2.68542
    R7        2.93561   0.00503   0.00000   0.01822   0.01822   2.95383
    R8        2.65640  -0.00234   0.00000  -0.00522  -0.00522   2.65118
    R9        2.86095  -0.00028   0.00000  -0.00090  -0.00090   2.86005
   R10        2.64195  -0.00181   0.00000  -0.00396  -0.00396   2.63799
   R11        2.05331   0.00097   0.00000   0.00275   0.00275   2.05606
   R12        2.05263   0.00097   0.00000   0.00275   0.00275   2.05538
   R13        2.63167  -0.01216   0.00000  -0.02582  -0.02582   2.60585
   R14        2.63628  -0.01178   0.00000  -0.02523  -0.02523   2.61105
   R15        1.83778  -0.00625   0.00000  -0.01178  -0.01178   1.82600
   R16        1.83554  -0.00595   0.00000  -0.01116  -0.01116   1.82438
   R17        2.06846   0.00032   0.00000   0.00092   0.00092   2.06938
   R18        2.06838   0.00033   0.00000   0.00094   0.00094   2.06932
   R19        2.06904   0.00016   0.00000   0.00047   0.00047   2.06951
    A1        2.08099  -0.00035   0.00000  -0.00172  -0.00172   2.07927
    A2        2.09971   0.00016   0.00000   0.00075   0.00075   2.10046
    A3        2.10248   0.00019   0.00000   0.00097   0.00097   2.10345
    A4        2.12841   0.00075   0.00000   0.00338   0.00338   2.13179
    A5        2.09094  -0.00117   0.00000  -0.00659  -0.00659   2.08436
    A6        2.06383   0.00042   0.00000   0.00321   0.00321   2.06704
    A7        2.06790  -0.00070   0.00000  -0.00267  -0.00267   2.06523
    A8        2.04327  -0.00080   0.00000  -0.00320  -0.00320   2.04007
    A9        2.17202   0.00149   0.00000   0.00587   0.00587   2.17789
   A10        2.07442  -0.00009   0.00000  -0.00033  -0.00033   2.07409
   A11        2.13929   0.00120   0.00000   0.00476   0.00476   2.14404
   A12        2.06947  -0.00111   0.00000  -0.00443  -0.00443   2.06505
   A13        2.12336   0.00050   0.00000   0.00211   0.00211   2.12547
   A14        2.07497   0.00005   0.00000   0.00078   0.00078   2.07575
   A15        2.08486  -0.00055   0.00000  -0.00288  -0.00288   2.08197
   A16        2.09128  -0.00012   0.00000  -0.00076  -0.00076   2.09052
   A17        2.10021   0.00006   0.00000   0.00042   0.00042   2.10063
   A18        2.09169   0.00005   0.00000   0.00035   0.00035   2.09204
   A19        2.11281  -0.00051   0.00000  -0.00200  -0.00200   2.11081
   A20        2.04989  -0.00052   0.00000  -0.00205  -0.00205   2.04784
   A21        2.12048   0.00102   0.00000   0.00406   0.00406   2.12454
   A22        2.09326  -0.01021   0.00000  -0.06292  -0.06292   2.03034
   A23        2.10451  -0.00989   0.00000  -0.06096  -0.06096   2.04355
   A24        1.94458   0.00010   0.00000   0.00140   0.00139   1.94598
   A25        1.94437   0.00014   0.00000   0.00167   0.00166   1.94604
   A26        1.93298  -0.00005   0.00000  -0.00190  -0.00190   1.93108
   A27        1.84646   0.00041   0.00000   0.00560   0.00559   1.85205
   A28        1.89621  -0.00029   0.00000  -0.00332  -0.00332   1.89289
   A29        1.89634  -0.00031   0.00000  -0.00338  -0.00338   1.89296
    D1       -0.00006   0.00000   0.00000   0.00005   0.00005  -0.00001
    D2       -3.14157   0.00000   0.00000  -0.00014  -0.00014   3.14148
    D3        3.14155   0.00000   0.00000   0.00005   0.00005  -3.14159
    D4        0.00005   0.00000   0.00000  -0.00014  -0.00014  -0.00009
    D5        0.00021   0.00000   0.00000  -0.00011  -0.00011   0.00010
    D6       -3.14143   0.00000   0.00000  -0.00011  -0.00011  -3.14154
    D7       -3.14140   0.00000   0.00000  -0.00011  -0.00011  -3.14151
    D8        0.00015   0.00000   0.00000  -0.00011  -0.00011   0.00003
    D9       -0.00025   0.00000   0.00000   0.00013   0.00013  -0.00012
   D10        3.14101   0.00000   0.00000   0.00012   0.00012   3.14112
   D11        3.14126   0.00001   0.00000   0.00031   0.00031   3.14157
   D12       -0.00067   0.00001   0.00000   0.00030   0.00030  -0.00038
   D13        0.00040   0.00000   0.00000  -0.00024  -0.00024   0.00016
   D14       -3.14119   0.00000   0.00000  -0.00019  -0.00019  -3.14138
   D15       -3.14083   0.00000   0.00000  -0.00022  -0.00022  -3.14105
   D16        0.00077   0.00000   0.00000  -0.00018  -0.00017   0.00060
   D17       -3.14069   0.00000   0.00000  -0.00008  -0.00008  -3.14077
   D18        0.00053   0.00001   0.00000   0.00045   0.00045   0.00098
   D19        0.00054   0.00000   0.00000  -0.00009  -0.00009   0.00044
   D20       -3.14143   0.00001   0.00000   0.00044   0.00044  -3.14099
   D21       -0.00026   0.00000   0.00000   0.00018   0.00018  -0.00007
   D22        3.14133   0.00001   0.00000   0.00025   0.00025   3.14158
   D23        3.14133   0.00000   0.00000   0.00014   0.00014   3.14147
   D24       -0.00027   0.00000   0.00000   0.00020   0.00020  -0.00007
   D25       -1.03090  -0.00033   0.00000  -0.00403  -0.00404  -1.03493
   D26        1.02668   0.00033   0.00000   0.00500   0.00500   1.03168
   D27        3.13949   0.00001   0.00000   0.00053   0.00053   3.14003
   D28        2.11070  -0.00033   0.00000  -0.00398  -0.00399   2.10672
   D29       -2.11491   0.00034   0.00000   0.00505   0.00505  -2.10986
   D30       -0.00209   0.00001   0.00000   0.00058   0.00058  -0.00151
   D31       -0.00005   0.00000   0.00000  -0.00001  -0.00001  -0.00006
   D32        3.14158   0.00000   0.00000   0.00000   0.00000   3.14158
   D33        3.14155   0.00000   0.00000  -0.00007  -0.00007   3.14148
   D34        0.00000   0.00000   0.00000  -0.00007  -0.00007  -0.00007
   D35        3.14041   0.00001   0.00000   0.00061   0.00061   3.14102
   D36       -0.00079   0.00000   0.00000   0.00006   0.00006  -0.00073
   D37        3.14110   0.00000   0.00000  -0.00005  -0.00005   3.14105
   D38       -0.00087   0.00001   0.00000   0.00049   0.00049  -0.00039
         Item               Value     Threshold  Converged?
 Maximum Force            0.012160     0.000450     NO 
 RMS     Force            0.002701     0.000300     NO 
 Maximum Displacement     0.148422     0.001800     NO 
 RMS     Displacement     0.021527     0.001200     NO 
 Predicted change in Energy=-1.115430D-03
 GradGradGradGradGradGradGradGradGradGradGradGradGradGradGradGradGradGrad

                          Input orientation:                          
 ---------------------------------------------------------------------
 Center     Atomic      Atomic             Coordinates (Angstroms)
 Number     Number       Type             X           Y           Z
 ---------------------------------------------------------------------
      1          6           0       -0.181713   -0.690130    0.293732
      2          6           0        1.211083   -0.641646    0.282489
      3          6           0        1.918871    0.560900    0.070790
      4          6           0        1.174850    1.753752   -0.136488
      5          6           0       -0.226492    1.688292   -0.122206
      6          6           0       -0.904233    0.486382    0.089437
      7          1           0       -0.697208   -1.632859    0.459620
      8          1           0        1.777989   -1.554232    0.441046
      9          1           0       -0.797670    2.600657   -0.280723
     10          5           0        3.479514    0.474217    0.083519
     11          8           0        4.253653    1.598225   -0.113548
     12          1           0        5.210937    1.468502   -0.091899
     13          8           0        4.044155   -0.768304    0.299002
     14          1           0        5.008282   -0.817855    0.305693
     15          1           0       -1.991780    0.471428    0.094260
     16          6           0        1.828410    3.098162   -0.373183
     17          1           0        2.472701    3.384228    0.464811
     18          1           0        2.471705    3.081245   -1.259180
     19          1           0        1.070779    3.877080   -0.509602
 ---------------------------------------------------------------------
                    Distance matrix (angstroms):
                    1          2          3          4          5
     1  C    0.000000
     2  C    1.393685   0.000000
     3  C    2.455042   1.411345   0.000000
     4  C    2.828058   2.432032   1.421065   0.000000
     5  C    2.414933   2.767491   2.431222   1.402943   0.000000
     6  C    1.395690   2.405053   2.824149   2.445375   1.395964
     7  H    1.087194   2.157650   3.436224   3.915236   3.404429
     8  H    2.146813   1.085972   2.151910   3.411755   3.853460
     9  H    3.396863   3.855493   3.415226   2.151486   1.088018
    10  B    3.847659   2.535846   1.563100   2.645200   3.905224
    11  O    5.007486   3.798828   2.561490   3.082814   4.481058
    12  H    5.821433   4.537810   3.418758   4.046400   5.441953
    13  O    4.226594   2.835950   2.517081   3.844909   4.944765
    14  H    5.191580   3.801356   3.391254   4.637228   5.819513
    15  H    2.159942   3.395982   3.911745   3.424200   2.154961
    16  C    4.340107   3.846708   2.577401   1.513475   2.504665
    17  H    4.865755   4.222864   2.903991   2.168970   3.241362
    18  H    4.865741   4.222064   2.902858   2.168988   3.242421
    19  H    4.803487   4.589768   3.471767   2.158372   2.573670
                    6          7          8          9         10
     6  C    0.000000
     7  H    2.161267   0.000000
     8  H    3.388517   2.476515   0.000000
     9  H    2.149078   4.298937   4.941464   0.000000
    10  B    4.383768   4.693210   2.671632   4.790482   0.000000
    11  O    5.280264   5.939650   4.046538   5.152541   1.378956
    12  H    6.196189   6.695430   4.605006   6.117254   2.004295
    13  O    5.109276   4.822216   2.402783   5.926993   1.381706
    14  H    6.058518   5.765461   3.315926   6.763076   2.013938
    15  H    1.087660   2.497485   4.293567   2.469843   5.471305
    16  C    3.808248   5.427234   4.723376   2.674389   3.133658
    17  H    4.465659   5.934603   4.987141   3.444580   3.102776
    18  H    4.466435   5.934565   4.985945   3.446325   3.100824
    19  H    3.969428   5.867248   5.559049   2.274366   4.211089
                   11         12         13         14         15
    11  O    0.000000
    12  H    0.966276   0.000000
    13  O    2.411338   2.552937   0.000000
    14  H    2.565672   2.329501   0.965423   0.000000
    15  H    6.349668   7.273785   6.165336   7.120943   0.000000
    16  C    2.863394   3.765157   4.506764   5.089956   4.659623
    17  H    2.587682   3.387901   4.443027   4.910397   5.343529
    18  H    2.585954   3.386278   4.440671   4.907752   5.344683
    19  H    3.934556   4.807976   5.574442   6.181509   4.619781
                   16         17         18         19
    16  C    0.000000
    17  H    1.095070   0.000000
    18  H    1.095037   1.750413   0.000000
    19  H    1.095138   1.777011   1.777024   0.000000
 Symmetry turned off by external request.
 Stoichiometry    C7H9BO2
 Framework group  C1[X(C7H9BO2)]
 Deg. of freedom    51
 Full point group                 C1      NOp   1
 Rotational constants (GHZ):           2.1439311           1.1137067           0.7362550
 Standard basis: 6-31+G(d) (6D, 7F)
   208 basis functions,   356 primitive gaussians,   208 cartesian basis functions
    36 alpha electrons       36 beta electrons
       nuclear repulsion energy       483.1702045791 Hartrees.
 NAtoms=   19 NActive=   19 NUniq=   19 SFac= 1.00D+00 NAtFMM=   60 NAOKFM=F Big=F
 Integral buffers will be    131072 words long.
 Raffenetti 2 integral format.
 Two-electron integral symmetry is turned off.
 Nuclear repulsion after empirical dispersion term =      483.1560625838 Hartrees.
 One-electron integrals computed using PRISM.
 NBasis=   208 RedAO= T EigKep=  2.01D-06  NBF=   208
 NBsUse=   208 1.00D-06 EigRej= -1.00D+00 NBFU=   208
 Initial guess from the checkpoint file:  "MOLECULE_22.chk"
 B after Tr=     0.003436    0.001227   -0.000241
         Rot=    1.000000   -0.000003    0.000053    0.000288 Ang=  -0.03 deg.
 ExpMin= 3.15D-02 ExpMax= 5.48D+03 ExpMxC= 8.25D+02 IAcc=3 IRadAn=         5 AccDes= 0.00D+00
 Harris functional with IExCor=  402 and IRadAn=       5 diagonalized for initial guess.
 HarFok:  IExCor=  402 AccDes= 0.00D+00 IRadAn=         5 IDoV= 1 UseB2=F ITyADJ=14
 ICtDFT=  3500011 ScaDFX=  1.000000  1.000000  1.000000  1.000000
 FoFCou: FMM=F IPFlag=           0 FMFlag=      100000 FMFlg1=           0
         NFxFlg=           0 DoJE=T BraDBF=F KetDBF=T FulRan=T
         wScrn=  0.000000 ICntrl=       500 IOpCl=  0 I1Cent=   200000004 NGrid=           0
         NMat0=    1 NMatS0=      1 NMatT0=    0 NMatD0=    1 NMtDS0=    0 NMtDT0=    0
 Symmetry not used in FoFCou.
 Requested convergence on RMS density matrix=1.00D-08 within 128 cycles.
 Requested convergence on MAX density matrix=1.00D-06.
 Requested convergence on             energy=1.00D-06.
 No special actions if energy rises.
 SCF Done:  E(RB3LYP) =  -447.611230766     A.U. after   12 cycles
            NFock= 12  Conv=0.57D-08     -V/T= 2.0096
 Calling FoFJK, ICntrl=      2127 FMM=F ISym2X=0 I1Cent= 0 IOpClX= 0 NMat=1 NMatS=1 NMatT=0.
 -------------------------------------------------------------------
 Center     Atomic                   Forces (Hartrees/Bohr)
 Number     Number              X              Y              Z
 -------------------------------------------------------------------
      1        6          -0.000423771   -0.000273849    0.000046522
      2        6           0.000842963    0.000715077   -0.000123967
      3        6          -0.001746922    0.000423642   -0.000049405
      4        6          -0.000017978   -0.000677004    0.000111983
      5        6           0.000166850    0.000180382   -0.000036755
      6        6          -0.000396112   -0.000147360    0.000027526
      7        1           0.000046221   -0.000042003    0.000008311
      8        1          -0.000161423   -0.000267260    0.000046658
      9        1          -0.000140283   -0.000007544    0.000001335
     10        5           0.003574878   -0.000529579    0.000050406
     11        8          -0.002339791    0.002156564   -0.000358562
     12        1           0.000986144   -0.000915856    0.000152840
     13        8          -0.002267128   -0.001375998    0.000248050
     14        1           0.001142948    0.000832636   -0.000142024
     15        1          -0.000038998    0.000066392   -0.000011919
     16        6           0.000603048   -0.000422895    0.000083726
     17        1           0.000005721    0.000094512    0.000149851
     18        1           0.000002853    0.000041030   -0.000179962
     19        1           0.000160781    0.000149113   -0.000024614
 -------------------------------------------------------------------
 Cartesian Forces:  Max     0.003574878 RMS     0.000842917

 GradGradGradGradGradGradGradGradGradGradGradGradGradGradGradGradGradGrad
 Berny optimization.
 Using GEDIIS/GDIIS optimizer.
 FormGI is forming the generalized inverse of G from B-inverse, IUseBI=4.
 Internal  Forces:  Max     0.001676989 RMS     0.000514871
 Search for a local minimum.
 Step number   2 out of a maximum of   96
 All quantities printed in internal units (Hartrees-Bohrs-Radians)
 Mixed Optimization -- En-DIIS/RFO-DIIS
 Update second derivatives using D2CorX and points    1    2
 DE= -1.20D-03 DEPred=-1.12D-03 R= 1.08D+00
 TightC=F SS=  1.41D+00  RLast= 1.00D-01 DXNew= 5.0454D-01 3.0111D-01
 Trust test= 1.08D+00 RLast= 1.00D-01 DXMaxT set to 3.01D-01
 ITU=  1  0
 Use linear search instead of GDIIS.
     Eigenvalues ---    0.00581   0.00588   0.01363   0.01464   0.01468
     Eigenvalues ---    0.01865   0.02020   0.02039   0.02061   0.02110
     Eigenvalues ---    0.02111   0.02128   0.02286   0.02319   0.07075
     Eigenvalues ---    0.07098   0.13556   0.16000   0.16000   0.16000
     Eigenvalues ---    0.16000   0.16000   0.16000   0.16000   0.16036
     Eigenvalues ---    0.22001   0.22509   0.24458   0.24849   0.25000
     Eigenvalues ---    0.25000   0.25724   0.27224   0.30964   0.34254
     Eigenvalues ---    0.34284   0.34292   0.35212   0.35256   0.35329
     Eigenvalues ---    0.35437   0.39873   0.40780   0.43525   0.44905
     Eigenvalues ---    0.45456   0.46052   0.46599   0.48173   0.52986
     Eigenvalues ---    0.55629
 RFO step:  Lambda=-9.28041451D-05 EMin= 5.81390614D-03
 Quartic linear search produced a step of  0.07763.
 Iteration  1 RMS(Cart)=  0.00965985 RMS(Int)=  0.00003665
 Iteration  2 RMS(Cart)=  0.00004405 RMS(Int)=  0.00000049
 Iteration  3 RMS(Cart)=  0.00000000 RMS(Int)=  0.00000049
 Variable       Old X    -DE/DX   Delta X   Delta X   Delta X     New X
                                 (Linear)    (Quad)   (Total)
    R1        2.63368   0.00060  -0.00031   0.00160   0.00129   2.63497
    R2        2.63747   0.00032  -0.00042   0.00109   0.00067   2.63814
    R3        2.05450   0.00002   0.00023  -0.00007   0.00017   2.05467
    R4        2.66706  -0.00036  -0.00031  -0.00083  -0.00114   2.66592
    R5        2.05219   0.00015   0.00020   0.00035   0.00055   2.05274
    R6        2.68542  -0.00113  -0.00028  -0.00289  -0.00317   2.68225
    R7        2.95383   0.00109   0.00141   0.00356   0.00497   2.95881
    R8        2.65118   0.00019  -0.00041   0.00061   0.00021   2.65139
    R9        2.86005   0.00021  -0.00007   0.00075   0.00068   2.86073
   R10        2.63799   0.00038  -0.00031   0.00113   0.00082   2.63881
   R11        2.05606   0.00007   0.00021   0.00010   0.00031   2.05637
   R12        2.05538   0.00004   0.00021   0.00001   0.00022   2.05560
   R13        2.60585   0.00028  -0.00200   0.00162  -0.00038   2.60547
   R14        2.61105   0.00005  -0.00196   0.00106  -0.00090   2.61015
   R15        1.82600   0.00110  -0.00091   0.00269   0.00178   1.82777
   R16        1.82438   0.00110  -0.00087   0.00265   0.00178   1.82617
   R17        2.06938   0.00014   0.00007   0.00041   0.00048   2.06987
   R18        2.06932   0.00015   0.00007   0.00042   0.00050   2.06982
   R19        2.06951   0.00000   0.00004  -0.00002   0.00001   2.06952
    A1        2.07927  -0.00008  -0.00013   0.00009  -0.00004   2.07923
    A2        2.10046  -0.00002   0.00006  -0.00047  -0.00041   2.10006
    A3        2.10345   0.00010   0.00008   0.00037   0.00045   2.10390
    A4        2.13179  -0.00012   0.00026  -0.00077  -0.00050   2.13129
    A5        2.08436  -0.00023  -0.00051  -0.00134  -0.00185   2.08250
    A6        2.06704   0.00035   0.00025   0.00211   0.00236   2.06939
    A7        2.06523   0.00028  -0.00021   0.00095   0.00074   2.06597
    A8        2.04007   0.00106  -0.00025   0.00488   0.00463   2.04470
    A9        2.17789  -0.00134   0.00046  -0.00583  -0.00537   2.17251
   A10        2.07409   0.00031  -0.00003   0.00104   0.00101   2.07511
   A11        2.14404  -0.00138   0.00037  -0.00599  -0.00562   2.13842
   A12        2.06505   0.00107  -0.00034   0.00495   0.00461   2.06965
   A13        2.12547  -0.00019   0.00016  -0.00087  -0.00071   2.12476
   A14        2.07575   0.00022   0.00006   0.00122   0.00128   2.07702
   A15        2.08197  -0.00003  -0.00022  -0.00034  -0.00057   2.08141
   A16        2.09052  -0.00020  -0.00006  -0.00044  -0.00050   2.09002
   A17        2.10063   0.00017   0.00003   0.00069   0.00072   2.10135
   A18        2.09204   0.00003   0.00003  -0.00025  -0.00022   2.09182
   A19        2.11081  -0.00168  -0.00016  -0.00715  -0.00730   2.10351
   A20        2.04784   0.00003  -0.00016   0.00020   0.00004   2.04788
   A21        2.12454   0.00165   0.00032   0.00694   0.00726   2.13180
   A22        2.03034  -0.00143  -0.00489  -0.00702  -0.01191   2.01843
   A23        2.04355  -0.00165  -0.00473  -0.00854  -0.01327   2.03028
   A24        1.94598  -0.00003   0.00011  -0.00020  -0.00009   1.94588
   A25        1.94604  -0.00003   0.00013  -0.00021  -0.00008   1.94596
   A26        1.93108   0.00029  -0.00015   0.00194   0.00179   1.93286
   A27        1.85205   0.00006   0.00043   0.00032   0.00075   1.85280
   A28        1.89289  -0.00016  -0.00026  -0.00098  -0.00124   1.89166
   A29        1.89296  -0.00016  -0.00026  -0.00100  -0.00126   1.89170
    D1       -0.00001   0.00000   0.00000  -0.00001   0.00000  -0.00001
    D2        3.14148   0.00000  -0.00001   0.00008   0.00007   3.14156
    D3       -3.14159   0.00000   0.00000  -0.00002  -0.00001   3.14159
    D4       -0.00009   0.00000  -0.00001   0.00007   0.00006  -0.00003
    D5        0.00010   0.00000  -0.00001  -0.00002  -0.00003   0.00007
    D6       -3.14154   0.00000  -0.00001  -0.00001  -0.00002  -3.14156
    D7       -3.14151   0.00000  -0.00001  -0.00001  -0.00002  -3.14153
    D8        0.00003   0.00000  -0.00001  -0.00001  -0.00001   0.00002
    D9       -0.00012   0.00000   0.00001   0.00004   0.00005  -0.00007
   D10        3.14112   0.00000   0.00001   0.00022   0.00023   3.14135
   D11        3.14157   0.00000   0.00002  -0.00005  -0.00002   3.14154
   D12       -0.00038   0.00000   0.00002   0.00013   0.00015  -0.00022
   D13        0.00016   0.00000  -0.00002  -0.00005  -0.00007   0.00009
   D14       -3.14138   0.00000  -0.00001  -0.00015  -0.00016  -3.14154
   D15       -3.14105   0.00000  -0.00002  -0.00024  -0.00026  -3.14131
   D16        0.00060  -0.00001  -0.00001  -0.00035  -0.00036   0.00024
   D17       -3.14077   0.00000  -0.00001   0.00020   0.00019  -3.14058
   D18        0.00098  -0.00001   0.00004  -0.00065  -0.00062   0.00036
   D19        0.00044   0.00001  -0.00001   0.00039   0.00038   0.00083
   D20       -3.14099   0.00000   0.00003  -0.00046  -0.00042  -3.14141
   D21       -0.00007   0.00000   0.00001   0.00002   0.00004  -0.00004
   D22        3.14158   0.00000   0.00002   0.00000   0.00002   3.14159
   D23        3.14147   0.00000   0.00001   0.00012   0.00013  -3.14159
   D24       -0.00007   0.00000   0.00002   0.00009   0.00011   0.00004
   D25       -1.03493  -0.00002  -0.00031   0.00036   0.00004  -1.03489
   D26        1.03168   0.00002   0.00039   0.00049   0.00088   1.03256
   D27        3.14003   0.00000   0.00004   0.00041   0.00045   3.14048
   D28        2.10672  -0.00002  -0.00031   0.00026  -0.00005   2.10666
   D29       -2.10986   0.00002   0.00039   0.00039   0.00078  -2.10907
   D30       -0.00151   0.00000   0.00005   0.00031   0.00036  -0.00115
   D31       -0.00006   0.00000   0.00000   0.00001   0.00001  -0.00005
   D32        3.14158   0.00000   0.00000   0.00001   0.00001   3.14159
   D33        3.14148   0.00000  -0.00001   0.00004   0.00003   3.14151
   D34       -0.00007   0.00000  -0.00001   0.00003   0.00003  -0.00004
   D35        3.14102   0.00000   0.00005  -0.00026  -0.00021   3.14081
   D36       -0.00073   0.00001   0.00000   0.00063   0.00063  -0.00010
   D37        3.14105   0.00001   0.00000   0.00064   0.00063  -3.14150
   D38       -0.00039   0.00000   0.00004  -0.00022  -0.00018  -0.00057
         Item               Value     Threshold  Converged?
 Maximum Force            0.001677     0.000450     NO 
 RMS     Force            0.000515     0.000300     NO 
 Maximum Displacement     0.040456     0.001800     NO 
 RMS     Displacement     0.009670     0.001200     NO 
 Predicted change in Energy=-5.388705D-05
 GradGradGradGradGradGradGradGradGradGradGradGradGradGradGradGradGradGrad

                          Input orientation:                          
 ---------------------------------------------------------------------
 Center     Atomic      Atomic             Coordinates (Angstroms)
 Number     Number       Type             X           Y           Z
 ---------------------------------------------------------------------
      1          6           0       -0.186172   -0.691091    0.293917
      2          6           0        1.207366   -0.644238    0.282959
      3          6           0        1.915707    0.557293    0.071371
      4          6           0        1.174309    1.749788   -0.135850
      5          6           0       -0.227304    1.687707   -0.122179
      6          6           0       -0.907385    0.486593    0.089352
      7          1           0       -0.702472   -1.633483    0.459788
      8          1           0        1.771588   -1.558774    0.441840
      9          1           0       -0.797478    2.600870   -0.280854
     10          5           0        3.479310    0.476467    0.082752
     11          8           0        4.240469    1.608834   -0.115604
     12          1           0        5.198596    1.478345   -0.093851
     13          8           0        4.048765   -0.763311    0.298322
     14          1           0        5.014552   -0.796447    0.302496
     15          1           0       -1.995079    0.473740    0.093786
     16          6           0        1.837646    3.089962   -0.371677
     17          1           0        2.482967    3.371476    0.467400
     18          1           0        2.481412    3.068786   -1.257567
     19          1           0        1.087036    3.875529   -0.508829
 ---------------------------------------------------------------------
                    Distance matrix (angstroms):
                    1          2          3          4          5
     1  C    0.000000
     2  C    1.394368   0.000000
     3  C    2.454768   1.410742   0.000000
     4  C    2.827277   2.430607   1.419386   0.000000
     5  C    2.415266   2.767739   2.430596   1.403053   0.000000
     6  C    1.396043   2.405916   2.824035   2.445368   1.396399
     7  H    1.087282   2.158091   3.435874   3.914539   3.405110
     8  H    2.146527   1.086263   2.153080   3.411312   3.854001
     9  H    3.397214   3.855906   3.414915   2.152512   1.088183
    10  B    3.852732   2.541219   1.565732   2.642379   3.904880
    11  O    5.005249   3.799329   2.558362   3.069466   4.468474
    12  H    5.818294   4.536216   3.413648   4.033650   5.430011
    13  O    4.235555   2.843935   2.519015   3.842742   4.946623
    14  H    5.201799   3.810278   3.389524   4.628491   5.816221
    15  H    2.160793   3.397250   3.911743   3.424332   2.155316
    16  C    4.339956   3.843182   2.572314   1.513835   2.508503
    17  H    4.864036   4.217479   2.897973   2.169417   3.244726
    18  H    4.864132   4.216984   2.897187   2.169452   3.245554
    19  H    4.808271   4.590174   3.469008   2.159978   2.581385
                    6          7          8          9         10
     6  C    0.000000
     7  H    2.161929   0.000000
     8  H    3.388904   2.475253   0.000000
     9  H    2.149256   4.299689   4.942168   0.000000
    10  B    4.386713   4.699080   2.680944   4.789177   0.000000
    11  O    5.272745   5.939391   4.054609   5.137349   1.378754
    12  H    6.188711   6.694221   4.610362   6.103109   1.997721
    13  O    5.115599   4.832962   2.416380   5.927835   1.381230
    14  H    6.063083   5.780116   3.334273   6.757348   2.006381
    15  H    1.087778   2.499035   4.294186   2.469673   5.474401
    16  C    3.811204   5.427197   4.719843   2.681667   3.119603
    17  H    4.467656   5.932680   4.981372   3.451816   3.085730
    18  H    4.468317   5.932770   4.980576   3.453119   3.084214
    19  H    3.977489   5.872799   5.559139   2.286508   4.198400
                   11         12         13         14         15
    11  O    0.000000
    12  H    0.967216   0.000000
    13  O    2.415607   2.549692   0.000000
    14  H    2.561130   2.316385   0.966365   0.000000
    15  H    6.341478   7.265906   6.172534   7.126841   0.000000
    16  C    2.834232   3.737710   4.492845   5.064722   4.663803
    17  H    2.556485   3.357617   4.424565   4.879313   5.346901
    18  H    2.555352   3.356609   4.422935   4.877563   5.347839
    19  H    3.903418   4.777407   5.562568   6.157190   4.629767
                   16         17         18         19
    16  C    0.000000
    17  H    1.095326   0.000000
    18  H    1.095300   1.751324   0.000000
    19  H    1.095145   1.776433   1.776436   0.000000
 Symmetry turned off by external request.
 Stoichiometry    C7H9BO2
 Framework group  C1[X(C7H9BO2)]
 Deg. of freedom    51
 Full point group                 C1      NOp   1
 Rotational constants (GHZ):           2.1490391           1.1142095           0.7370799
 Standard basis: 6-31+G(d) (6D, 7F)
   208 basis functions,   356 primitive gaussians,   208 cartesian basis functions
    36 alpha electrons       36 beta electrons
       nuclear repulsion energy       483.3508227136 Hartrees.
 NAtoms=   19 NActive=   19 NUniq=   19 SFac= 1.00D+00 NAtFMM=   60 NAOKFM=F Big=F
 Integral buffers will be    131072 words long.
 Raffenetti 2 integral format.
 Two-electron integral symmetry is turned off.
 Nuclear repulsion after empirical dispersion term =      483.3366247632 Hartrees.
 One-electron integrals computed using PRISM.
 NBasis=   208 RedAO= T EigKep=  2.01D-06  NBF=   208
 NBsUse=   208 1.00D-06 EigRej= -1.00D+00 NBFU=   208
 Initial guess from the checkpoint file:  "MOLECULE_22.chk"
 B after Tr=    -0.001453   -0.001738    0.000295
         Rot=    1.000000    0.000009   -0.000062   -0.000338 Ang=   0.04 deg.
 ExpMin= 3.15D-02 ExpMax= 5.48D+03 ExpMxC= 8.25D+02 IAcc=3 IRadAn=         5 AccDes= 0.00D+00
 Harris functional with IExCor=  402 and IRadAn=       5 diagonalized for initial guess.
 HarFok:  IExCor=  402 AccDes= 0.00D+00 IRadAn=         5 IDoV= 1 UseB2=F ITyADJ=14
 ICtDFT=  3500011 ScaDFX=  1.000000  1.000000  1.000000  1.000000
 FoFCou: FMM=F IPFlag=           0 FMFlag=      100000 FMFlg1=           0
         NFxFlg=           0 DoJE=T BraDBF=F KetDBF=T FulRan=T
         wScrn=  0.000000 ICntrl=       500 IOpCl=  0 I1Cent=   200000004 NGrid=           0
         NMat0=    1 NMatS0=      1 NMatT0=    0 NMatD0=    1 NMtDS0=    0 NMtDT0=    0
 Symmetry not used in FoFCou.
 Requested convergence on RMS density matrix=1.00D-08 within 128 cycles.
 Requested convergence on MAX density matrix=1.00D-06.
 Requested convergence on             energy=1.00D-06.
 No special actions if energy rises.
 SCF Done:  E(RB3LYP) =  -447.611265037     A.U. after   11 cycles
            NFock= 11  Conv=0.47D-08     -V/T= 2.0096
 Calling FoFJK, ICntrl=      2127 FMM=F ISym2X=0 I1Cent= 0 IOpClX= 0 NMat=1 NMatS=1 NMatT=0.
 -------------------------------------------------------------------
 Center     Atomic                   Forces (Hartrees/Bohr)
 Number     Number              X              Y              Z
 -------------------------------------------------------------------
      1        6          -0.000103972   -0.000068035    0.000013531
      2        6           0.000275043    0.000141437   -0.000030132
      3        6          -0.000057300   -0.000457715    0.000064496
      4        6          -0.000112197    0.000332374   -0.000058324
      5        6           0.000036894    0.000214915   -0.000038615
      6        6          -0.000028014   -0.000055403    0.000009132
      7        1           0.000041444    0.000035514   -0.000005126
      8        1          -0.000009363   -0.000044463    0.000009197
      9        1           0.000030621   -0.000014987    0.000003122
     10        5          -0.000283303   -0.000324786    0.000116672
     11        8           0.000149354    0.000225881   -0.000053689
     12        1           0.000617460   -0.000055126    0.000002663
     13        8          -0.000493177   -0.000279466    0.000028157
     14        1           0.000544877   -0.000033618    0.000005345
     15        1           0.000060225    0.000018241   -0.000003801
     16        6          -0.000200049    0.000204589   -0.000030457
     17        1          -0.000174376    0.000036484   -0.000102676
     18        1          -0.000175578    0.000071191    0.000078489
     19        1          -0.000118589    0.000052973   -0.000007983
 -------------------------------------------------------------------
 Cartesian Forces:  Max     0.000617460 RMS     0.000186519

 GradGradGradGradGradGradGradGradGradGradGradGradGradGradGradGradGradGrad
 Berny optimization.
 Using GEDIIS/GDIIS optimizer.
 FormGI is forming the generalized inverse of G from B-inverse, IUseBI=4.
 Internal  Forces:  Max     0.001607402 RMS     0.000378262
 Search for a local minimum.
 Step number   3 out of a maximum of   96
 All quantities printed in internal units (Hartrees-Bohrs-Radians)
 Mixed Optimization -- En-DIIS/RFO-DIIS
 Swapping is turned off.
 Update second derivatives using D2CorX and points    1    2    3
 DE= -3.43D-05 DEPred=-5.39D-05 R= 6.36D-01
 TightC=F SS=  1.41D+00  RLast= 2.45D-02 DXNew= 5.0641D-01 7.3470D-02
 Trust test= 6.36D-01 RLast= 2.45D-02 DXMaxT set to 3.01D-01
 ITU=  1  1  0
     Eigenvalues ---    0.00581   0.00588   0.01363   0.01465   0.01474
     Eigenvalues ---    0.01865   0.02020   0.02039   0.02061   0.02110
     Eigenvalues ---    0.02111   0.02128   0.02286   0.02319   0.07021
     Eigenvalues ---    0.07065   0.11298   0.16000   0.16000   0.16000
     Eigenvalues ---    0.16000   0.16000   0.16000   0.16013   0.16037
     Eigenvalues ---    0.22001   0.22503   0.24107   0.24487   0.25000
     Eigenvalues ---    0.25005   0.26590   0.30953   0.34013   0.34256
     Eigenvalues ---    0.34291   0.35202   0.35242   0.35322   0.35427
     Eigenvalues ---    0.35688   0.40720   0.42965   0.44895   0.45376
     Eigenvalues ---    0.45950   0.46508   0.48045   0.49867   0.53004
     Eigenvalues ---    0.55349
 En-DIIS/RFO-DIIS/Sim-DIIS IScMMF=       -3 using points:     3    2
 RFO step:  Lambda=-2.77624143D-05.
 DidBck=F Rises=F RFO-DIIS coefs:    0.94971    0.05029
 Iteration  1 RMS(Cart)=  0.00602393 RMS(Int)=  0.00000757
 Iteration  2 RMS(Cart)=  0.00001239 RMS(Int)=  0.00000016
 Iteration  3 RMS(Cart)=  0.00000000 RMS(Int)=  0.00000016
 Variable       Old X    -DE/DX   Delta X   Delta X   Delta X     New X
                                 (Linear)    (Quad)   (Total)
    R1        2.63497   0.00000  -0.00006   0.00024   0.00017   2.63515
    R2        2.63814  -0.00012  -0.00003  -0.00010  -0.00013   2.63801
    R3        2.05467  -0.00005  -0.00001  -0.00008  -0.00009   2.05457
    R4        2.66592  -0.00011   0.00006  -0.00038  -0.00032   2.66559
    R5        2.05274   0.00003  -0.00003   0.00017   0.00015   2.05289
    R6        2.68225   0.00122   0.00016   0.00160   0.00176   2.68402
    R7        2.95881   0.00056  -0.00025   0.00247   0.00222   2.96103
    R8        2.65139  -0.00004  -0.00001   0.00002   0.00001   2.65139
    R9        2.86073   0.00004  -0.00003   0.00024   0.00020   2.86094
   R10        2.63881  -0.00003  -0.00004   0.00010   0.00006   2.63887
   R11        2.05637  -0.00003  -0.00002  -0.00001  -0.00002   2.05635
   R12        2.05560  -0.00006  -0.00001  -0.00009  -0.00010   2.05550
   R13        2.60547   0.00057   0.00002   0.00092   0.00093   2.60640
   R14        2.61015   0.00031   0.00005   0.00039   0.00044   2.61059
   R15        1.82777   0.00062  -0.00009   0.00127   0.00118   1.82895
   R16        1.82617   0.00055  -0.00009   0.00116   0.00107   1.82724
   R17        2.06987  -0.00017  -0.00002  -0.00028  -0.00031   2.06956
   R18        2.06982  -0.00017  -0.00003  -0.00027  -0.00029   2.06952
   R19        2.06952   0.00012   0.00000   0.00026   0.00026   2.06979
    A1        2.07923   0.00002   0.00000  -0.00012  -0.00012   2.07911
    A2        2.10006  -0.00003   0.00002  -0.00012  -0.00010   2.09996
    A3        2.10390   0.00001  -0.00002   0.00024   0.00022   2.10412
    A4        2.13129   0.00025   0.00003   0.00069   0.00072   2.13201
    A5        2.08250  -0.00016   0.00009  -0.00091  -0.00081   2.08169
    A6        2.06939  -0.00009  -0.00012   0.00021   0.00010   2.06949
    A7        2.06597  -0.00030  -0.00004  -0.00061  -0.00065   2.06532
    A8        2.04470  -0.00131  -0.00023  -0.00305  -0.00328   2.04143
    A9        2.17251   0.00161   0.00027   0.00366   0.00393   2.17644
   A10        2.07511  -0.00019  -0.00005  -0.00024  -0.00029   2.07482
   A11        2.13842   0.00135   0.00028   0.00284   0.00312   2.14154
   A12        2.06965  -0.00116  -0.00023  -0.00260  -0.00283   2.06682
   A13        2.12476   0.00017   0.00004   0.00043   0.00046   2.12522
   A14        2.07702  -0.00010  -0.00006  -0.00012  -0.00018   2.07684
   A15        2.08141  -0.00007   0.00003  -0.00031  -0.00028   2.08113
   A16        2.09002   0.00004   0.00003  -0.00015  -0.00012   2.08990
   A17        2.10135   0.00000  -0.00004   0.00025   0.00022   2.10156
   A18        2.09182  -0.00004   0.00001  -0.00010  -0.00009   2.09173
   A19        2.10351   0.00098   0.00037   0.00148   0.00185   2.10536
   A20        2.04788  -0.00061   0.00000  -0.00182  -0.00182   2.04606
   A21        2.13180  -0.00037  -0.00037   0.00033  -0.00003   2.13177
   A22        2.01843   0.00006   0.00060  -0.00198  -0.00138   2.01705
   A23        2.03028   0.00003   0.00067  -0.00239  -0.00173   2.02855
   A24        1.94588   0.00008   0.00000   0.00051   0.00052   1.94640
   A25        1.94596   0.00008   0.00000   0.00051   0.00052   1.94648
   A26        1.93286  -0.00014  -0.00009  -0.00058  -0.00067   1.93220
   A27        1.85280   0.00004  -0.00004   0.00089   0.00085   1.85365
   A28        1.89166  -0.00003   0.00006  -0.00066  -0.00060   1.89106
   A29        1.89170  -0.00003   0.00006  -0.00068  -0.00061   1.89108
    D1       -0.00001   0.00000   0.00000   0.00004   0.00004   0.00002
    D2        3.14156   0.00000   0.00000   0.00000  -0.00001   3.14155
    D3        3.14159   0.00000   0.00000   0.00003   0.00004  -3.14156
    D4       -0.00003   0.00000   0.00000  -0.00001  -0.00001  -0.00004
    D5        0.00007   0.00000   0.00000  -0.00004  -0.00003   0.00004
    D6       -3.14156   0.00000   0.00000  -0.00003  -0.00003  -3.14159
    D7       -3.14153   0.00000   0.00000  -0.00003  -0.00003  -3.14156
    D8        0.00002   0.00000   0.00000  -0.00003  -0.00003   0.00000
    D9       -0.00007   0.00000   0.00000  -0.00002  -0.00002  -0.00009
   D10        3.14135   0.00000  -0.00001   0.00003   0.00002   3.14137
   D11        3.14154   0.00000   0.00000   0.00002   0.00003   3.14157
   D12       -0.00022   0.00000  -0.00001   0.00007   0.00007  -0.00015
   D13        0.00009   0.00000   0.00000   0.00000   0.00000   0.00009
   D14       -3.14154   0.00000   0.00001   0.00000   0.00001  -3.14153
   D15       -3.14131   0.00000   0.00001  -0.00006  -0.00004  -3.14136
   D16        0.00024   0.00000   0.00002  -0.00005  -0.00004   0.00020
   D17       -3.14058  -0.00001  -0.00001  -0.00043  -0.00044  -3.14102
   D18        0.00036   0.00001   0.00003   0.00060   0.00063   0.00100
   D19        0.00083  -0.00001  -0.00002  -0.00038  -0.00040   0.00043
   D20       -3.14141   0.00001   0.00002   0.00066   0.00068  -3.14074
   D21       -0.00004   0.00000   0.00000   0.00001   0.00000  -0.00003
   D22        3.14159   0.00000   0.00000   0.00001   0.00001  -3.14158
   D23       -3.14159   0.00000  -0.00001   0.00000   0.00000   3.14159
   D24        0.00004   0.00000  -0.00001   0.00001   0.00000   0.00004
   D25       -1.03489  -0.00008   0.00000  -0.00056  -0.00056  -1.03545
   D26        1.03256   0.00008  -0.00004   0.00124   0.00119   1.03375
   D27        3.14048   0.00000  -0.00002   0.00033   0.00031   3.14078
   D28        2.10666  -0.00008   0.00000  -0.00056  -0.00056   2.10611
   D29       -2.10907   0.00008  -0.00004   0.00124   0.00120  -2.10787
   D30       -0.00115   0.00000  -0.00002   0.00033   0.00031  -0.00084
   D31       -0.00005   0.00000   0.00000   0.00002   0.00001  -0.00003
   D32        3.14159   0.00000   0.00000   0.00001   0.00001  -3.14159
   D33        3.14151   0.00000   0.00000   0.00001   0.00001   3.14152
   D34       -0.00004   0.00000   0.00000   0.00000   0.00000  -0.00004
   D35        3.14081   0.00002   0.00001   0.00074   0.00075   3.14157
   D36       -0.00010  -0.00001  -0.00003  -0.00034  -0.00038  -0.00047
   D37       -3.14150  -0.00001  -0.00003  -0.00046  -0.00049   3.14119
   D38       -0.00057   0.00001   0.00001   0.00060   0.00061   0.00003
         Item               Value     Threshold  Converged?
 Maximum Force            0.001607     0.000450     NO 
 RMS     Force            0.000378     0.000300     NO 
 Maximum Displacement     0.021355     0.001800     NO 
 RMS     Displacement     0.006028     0.001200     NO 
 Predicted change in Energy=-1.388231D-05
 GradGradGradGradGradGradGradGradGradGradGradGradGradGradGradGradGradGrad

                          Input orientation:                          
 ---------------------------------------------------------------------
 Center     Atomic      Atomic             Coordinates (Angstroms)
 Number     Number       Type             X           Y           Z
 ---------------------------------------------------------------------
      1          6           0       -0.183778   -0.690545    0.293845
      2          6           0        1.209796   -0.642099    0.282820
      3          6           0        1.917547    0.559582    0.071256
      4          6           0        1.174376    1.752051   -0.136156
      5          6           0       -0.227154    1.688066   -0.122389
      6          6           0       -0.906167    0.486324    0.089209
      7          1           0       -0.698876   -1.633521    0.459817
      8          1           0        1.774354   -1.556494    0.441852
      9          1           0       -0.798404    2.600535   -0.281103
     10          5           0        3.482086    0.474316    0.083628
     11          8           0        4.248932    1.603459   -0.114643
     12          1           0        5.206851    1.467044   -0.092349
     13          8           0        4.045734   -0.768395    0.299056
     14          1           0        5.011985   -0.804412    0.303449
     15          1           0       -1.993795    0.472584    0.093603
     16          6           0        1.832063    3.095047   -0.372442
     17          1           0        2.476272    3.379982    0.466122
     18          1           0        2.474514    3.077378   -1.259169
     19          1           0        1.077496    3.877142   -0.508836
 ---------------------------------------------------------------------
                    Distance matrix (angstroms):
                    1          2          3          4          5
     1  C    0.000000
     2  C    1.394459   0.000000
     3  C    2.455185   1.410570   0.000000
     4  C    2.827678   2.430793   1.420320   0.000000
     5  C    2.415145   2.767434   2.431197   1.403057   0.000000
     6  C    1.395973   2.405851   2.824721   2.445713   1.396430
     7  H    1.087233   2.158072   3.436037   3.914889   3.405059
     8  H    2.146172   1.086340   2.153050   3.411824   3.853774
     9  H    3.396990   3.855587   3.415558   2.152393   1.088171
    10  B    3.852227   2.539560   1.566910   2.646968   3.908209
    11  O    5.007817   3.799586   2.561170   3.078220   4.476892
    12  H    5.819211   4.534940   3.416105   4.042772   5.438581
    13  O    4.230232   2.838795   2.518847   3.845355   4.946654
    14  H    5.197019   3.805708   3.389681   4.632062   5.817418
    15  H    2.160817   3.397251   3.912373   3.424490   2.155242
    16  C    4.340306   3.844846   2.575414   1.513942   2.506490
    17  H    4.865670   4.220747   2.902198   2.169754   3.243060
    18  H    4.865759   4.220397   2.901645   2.169794   3.243680
    19  H    4.806129   4.589964   3.471081   2.159696   2.577500
                    6          7          8          9         10
     6  C    0.000000
     7  H    2.161957   0.000000
     8  H    3.388606   2.474495   0.000000
     9  H    2.149101   4.299546   4.941927   0.000000
    10  B    4.388273   4.697334   2.677474   4.793374   0.000000
    11  O    5.278692   5.940442   4.051978   5.147570   1.379249
    12  H    6.193848   6.692982   4.605343   6.114206   1.997821
    13  O    5.112697   4.825517   2.408456   5.928908   1.381462
    14  H    6.061057   5.772851   3.326716   6.759880   2.006005
    15  H    1.087724   2.499321   4.293877   2.469319   5.475890
    16  C    3.810047   5.427491   4.722630   2.678104   3.130305
    17  H    4.467238   5.934376   4.986189   3.448099   3.098526
    18  H    4.467738   5.934466   4.985626   3.449055   3.097457
    19  H    3.973692   5.870366   5.560020   2.280480   4.208598
                   11         12         13         14         15
    11  O    0.000000
    12  H    0.967840   0.000000
[...]
 9238118,-0.23006576,0.02754754,-0.00096367,0.60089009,-0.00476161,0.00
 085741,-0.00742877,0.00294323,0.01088332,0.00488593,-0.01597926,0.0276
 2574,-0.07641037,-0.00070809,-0.07292008,0.19691298,0.06456630,-0.0195
 3549,0.00331652,-0.04984802,-0.02687884,0.00477652,-0.02809826,0.06438
 796,-0.01118965,-0.31276925,-0.03909827,0.00730227,0.67182556,0.025514
 00,-0.05512141,0.01104920,-0.02837287,-0.01812979,0.00192326,0.0251635
 0,0.02976399,-0.00311162,0.02818673,-0.12244672,0.00927146,-0.01885623
 ,0.70935965,-0.00457803,0.01114289,0.00635136,0.00504429,0.00192031,-0
 .00778514,-0.00432805,-0.00319058,0.01282351,-0.00445530,0.00939569,-0
 .07084336,0.00226644,-0.10098714,0.14979696,-0.18549229,0.12424551,-0.
 02149938,-0.02985037,0.02848609,-0.00491496,-0.00119105,0.00192501,-0.
 00034918,-0.02257649,-0.02989126,0.00528710,-0.17944714,-0.12037359,0.
 02129890,0.73927545,0.06082952,-0.27949928,0.03789918,0.07481670,0.033
 93648,-0.00467183,-0.00073855,-0.05855554,0.00898204,-0.07746707,0.029
 25878,-0.00390948,-0.05538302,-0.28350344,0.03880925,-0.00225296,0.656
 91940,-0.01041239,0.03778342,-0.06878208,-0.01302111,-0.00458634,0.008
 88702,0.00011910,0.00897805,-0.00881489,0.01361409,-0.00400461,0.00675
 052,0.00992784,0.03892884,-0.06912818,-0.00077380,-0.09113585,0.151918
 43,-0.12193279,-0.11397197,0.02010410,-0.01014188,-0.02958335,0.005201
 13,-0.00543634,0.00138592,-0.00021838,-0.00089498,0.00094699,-0.000164
 93,-0.00136577,0.00293960,-0.00049798,0.01218920,0.01588090,-0.0027978
 8,0.12583407,-0.11368996,-0.26788263,0.04094026,0.00166381,0.00300279,
 -0.00009859,0.00006560,0.00182816,0.00091912,0.00083387,0.00014957,-0.
 00011724,0.00436594,-0.00222621,0.00163199,-0.01540410,-0.01831623,0.0
 0366863,0.12282419,0.28314044,0.02005551,0.04094189,-0.04236094,-0.000
 26709,-0.00003891,0.00246317,0.00001215,0.00091715,0.00692182,-0.00014
 466,-0.00011719,-0.00049009,-0.00074749,0.00163444,0.00686384,0.002676
 07,0.00360819,0.00184617,-0.02168003,-0.04539729,0.03303084,-0.0117943
 0,0.02787838,-0.00484722,-0.13564147,0.12383815,-0.02149339,0.01195389
 ,-0.01337161,0.00232277,-0.00128193,-0.00338068,0.00060750,-0.00057350
 ,-0.00093892,0.00016420,-0.00566911,-0.00148494,0.00028500,0.00063289,
 -0.00036917,0.00005535,0.14531932,-0.00296163,0.00520741,-0.00009712,0
 .12200019,-0.25725247,0.03778026,0.01378754,-0.01901784,0.00365897,-0.
 00404081,-0.00255075,0.00171702,-0.00075019,0.00014200,-0.00013159,-0.
 00073609,0.00155828,0.00099579,0.00039301,0.00073282,-0.00084005,-0.13
 045485,0.27290650,0.00055045,-0.00015649,0.00464630,-0.02117017,0.0377
 8087,-0.04659002,-0.00243307,0.00370633,0.00137835,0.00072344,0.001715
 67,0.00691778,0.00013089,-0.00013119,-0.00059516,0.00015306,0.00099812
 ,0.00706938,-0.00007745,-0.00083863,-0.00391748,0.02261006,-0.04273720
 ,0.03469042,-0.00089109,-0.00295398,0.00053181,-0.00074056,-0.00100002
 ,0.00017537,-0.00592415,-0.00138060,0.00026486,-0.01296250,0.02710146,
 -0.00471073,-0.13423777,0.12039488,-0.02088949,0.01169138,-0.01477092,
 0.00256826,0.00044480,-0.00080350,0.00014045,0.00008657,0.00012372,-0.
 00002388,0.14191746,-0.00435924,-0.00263179,0.00170023,-0.00075598,0.0
 0019838,-0.00013538,-0.00030185,0.00183907,0.00077479,-0.00165117,0.00
 131394,0.00036970,0.12138861,-0.25054576,0.03734959,0.01670691,-0.0191
 3362,0.00379448,0.00087366,-0.00103569,0.00024892,0.00007986,-0.000054
 97,-0.00018376,-0.12848307,0.26801349,0.00077750,0.00169707,0.00673647
 ,0.00013323,-0.00013463,-0.00056031,0.00007595,0.00077619,0.00612767,0
 .00032197,0.00032186,0.00335605,-0.02106149,0.03735176,-0.04233435,-0.
 00294146,0.00385241,0.00205964,-0.00015307,0.00025218,0.00035258,-0.00
 001621,-0.00018376,-0.00107177,0.02226461,-0.04226544,0.03249719,0.004
 03910,-0.00325417,0.00057280,-0.01739303,-0.01232007,0.00218629,-0.189
 04059,0.00796210,-0.00115646,-0.01001578,0.01271224,-0.00220254,0.0015
 7015,0.00207824,-0.00035629,0.00254471,0.00113102,-0.00020389,0.000739
 23,0.00058491,-0.00010295,0.00016595,0.00126658,-0.00022586,0.00087560
 ,-0.00073578,0.00012785,0.52576684,-0.00439658,-0.00447549,0.00192256,
 -0.02149701,0.00775124,-0.00119049,0.00947811,-0.07024090,0.00158421,0
 .02095449,0.00661906,-0.00120646,0.00351341,-0.00370129,0.00176227,0.0
 0032622,-0.00277441,0.00035773,-0.00136137,-0.00011907,0.00008564,-0.0
 0247802,-0.00328844,0.00010413,0.00129199,-0.00004609,0.00007848,0.011
 32339,0.55714801,0.00077591,0.00191931,0.00612364,0.00379558,-0.001207
 95,0.00093157,-0.00144740,0.00158977,-0.06137842,-0.00364448,-0.001190
 30,0.00016039,-0.00060616,0.00176513,0.00610403,-0.00006342,0.00035791
 ,-0.00078772,0.00023787,0.00008196,0.00034016,0.00042555,0.00009334,-0
 .00274531,-0.00022659,0.00008206,0.00040301,-0.00254973,-0.07158143,0.
 15935772,-0.00147309,-0.00056671,0.00010289,-0.00400187,0.00412837,-0.
 00071346,-0.01926629,-0.02484057,0.00436479,0.00170597,-0.00284512,0.0
 0049645,0.00002596,-0.00010384,0.00001768,-0.00042379,-0.00056858,0.00
 010019,-0.00067998,-0.00022186,0.00003994,0.00027988,-0.00005220,0.000
 00811,-0.00024832,0.00025157,-0.00004369,-0.15673567,-0.12744843,0.022
 36931,0.66259753,-0.00113624,0.00149882,-0.00035120,0.00202389,0.00153
 190,0.00002583,-0.01068001,0.00192308,0.00061475,-0.00073932,-0.004694
 00,0.00109338,0.00027320,0.00066420,-0.00024528,-0.00047061,-0.0007414
 5,0.00014806,-0.00010460,-0.00007239,-0.00000881,0.00071402,0.00070553
 ,-0.00010353,-0.00038083,0.00023080,-0.00004114,-0.08382228,-0.2290851
 9,0.03194376,0.06129578,0.32474523,0.00020003,-0.00035281,-0.00046264,
 -0.00034502,0.00002535,0.00170233,0.00190429,0.00063577,0.00524186,0.0
 0012878,0.00109875,0.00138386,-0.00004963,-0.00024602,-0.00069895,0.00
 008306,0.00014777,0.00007328,0.00001893,-0.00000865,-0.00012176,-0.000
 12453,-0.00010152,0.00014055,0.00006696,-0.00004199,-0.00000077,0.0147
 5626,0.03199833,-0.05214472,-0.01151425,-0.05143591,0.03924946,0.00003
 507,-0.00065062,0.00011279,-0.00136107,0.00084647,-0.00014460,0.002602
 98,-0.00421973,0.00073627,0.00018859,0.00004884,-0.00000800,0.00009391
 ,0.00010686,-0.00001959,0.00006977,0.00001447,-0.00000227,-0.00014110,
 0.00002116,-0.00000341,-0.00002796,-0.00014871,0.00002643,-0.00000423,
 0.00002069,-0.00000363,-0.02278357,0.00970808,-0.00165970,-0.49129993,
 0.04722130,-0.00760823,0.50772651,-0.00003896,-0.00023874,-0.00005410,
 -0.00075166,0.00034869,-0.00000714,-0.00045495,-0.00266053,0.00138906,
 -0.00022939,-0.00014472,-0.00014533,0.00002278,-0.00002375,-0.00002682
 ,0.00002802,-0.00003312,0.00001530,-0.00004427,0.00000496,-0.00000640,
 -0.00009604,-0.00007168,0.00005975,0.00001398,-0.00001321,0.00000362,-
 0.03214163,0.00378574,-0.00059610,0.08516719,-0.03903366,0.00490966,-0
 .05594629,0.04027088,0.00000621,-0.00005453,-0.00054121,0.00013191,-0.
 00000955,0.00029906,0.00008847,0.00139596,0.00506688,0.00003893,-0.000
 14691,-0.00095468,-0.00000494,-0.00002694,-0.00017212,-0.00000465,0.00
 001559,0.00005126,0.00000777,-0.00000651,-0.00003106,0.00001727,0.0000
 5990,0.00025932,-0.00000240,0.00000360,0.00000700,0.00563202,-0.000652
 08,0.00020898,-0.01422352,0.00496064,-0.01105774,0.00910264,-0.0055595
 7,0.00892306,0.00055582,0.00108611,-0.00019359,-0.00372189,0.00210214,
 -0.00035802,-0.01921418,0.02734908,-0.00472992,-0.00323548,-0.00513790
 ,0.00090734,-0.00154496,0.00071743,-0.00012417,-0.00086539,0.00080443,
 -0.00013901,-0.00023299,-0.00021403,0.00003793,-0.00334259,0.00070510,
 -0.00012032,-0.00068314,0.00020568,-0.00003486,-0.12173908,0.10614728,
 -0.01839789,0.01430459,-0.01561129,0.00273691,0.00427172,0.00221754,-0
 .00039996,0.64016711,0.00080861,0.00049700,-0.00017953,-0.00105372,-0.
 00525779,0.00110572,0.01435785,-0.00298732,0.00171298,-0.00115331,0.00
 251140,-0.00018925,0.00071913,0.00082387,-0.00024444,0.00033557,-0.000
 10148,0.00001632,0.00037647,0.00017985,-0.00003194,-0.00083710,0.00117
 353,-0.00023469,0.00019227,-0.00008719,-0.00000470,0.06330449,-0.25691
 983,0.03668837,0.00246762,-0.05946201,0.01450237,0.00424409,0.00236459
 ,-0.00123850,-0.11872769,0.34718003,-0.00014459,-0.00018037,-0.0004928
 5,0.00019376,0.00110074,0.00087131,-0.00246053,0.00169133,0.00668674,0
 .00020837,-0.00018204,0.00144553,-0.00012299,-0.00024405,-0.00052441,-
 0.00005698,0.00001443,-0.00000711,-0.00006541,-0.00003079,0.00000706,0
 .00015101,-0.00023477,-0.00012023,-0.00003263,-0.00000465,-0.00011063,
 -0.01092434,0.03661895,-0.05253142,-0.00041693,0.01452788,0.02118245,-
 0.00075327,-0.00123547,-0.00449191,0.01973617,-0.05562706,0.03697971,-
 0.00002434,-0.00002804,0.00000585,0.00048391,0.00008698,-0.00001796,0.
 00226402,0.00306422,-0.00053288,-0.00121035,-0.00061728,0.00011116,0.0
 0007501,0.00053101,-0.00009358,0.00004432,-0.00006079,0.00001047,-0.00
 002126,-0.00000092,0.00000024,-0.00002243,0.00013319,-0.00002348,-0.00
 011196,-0.00000995,0.00000180,-0.01712750,-0.00648960,0.00116033,0.002
 88844,-0.00425409,0.00073020,0.00111727,0.00104811,-0.00018050,-0.5048
 0913,0.03494889,-0.00530906,0.51638764,-0.00001960,0.00030042,-0.00003
 809,-0.00092031,-0.00043291,0.00001881,-0.00009851,-0.00378635,0.00141
 515,0.00096304,0.00053668,-0.00000019,-0.00001731,-0.00032779,-0.00001
 860,-0.00014195,0.00000575,0.00000983,-0.00003990,-0.00002810,0.000009
 16,0.00031045,0.00060981,-0.00014037,0.00007600,0.00001059,-0.00001319
 ,0.03491734,-0.00071946,0.00000908,-0.00230682,0.00334994,-0.00135201,
 -0.00198910,-0.00399086,0.00104111,-0.00224773,-0.03013072,0.00379591,
 -0.02837803,0.03457162,0.00000383,-0.00003842,0.00008898,0.00015916,0.
 00001768,-0.00034012,0.00002241,0.00141080,0.00407204,-0.00016481,0.00
 000250,0.00054737,0.00000196,-0.00001998,-0.00043234,0.00002476,0.0000
 0984,0.00005891,0.00000703,0.00000907,0.00002218,-0.00005480,-0.000140
 78,-0.00016332,-0.00001323,-0.00001303,-0.00006179,-0.00607320,0.00007
 772,-0.00034483,0.00039159,-0.00135060,-0.00419122,0.00035016,0.001037
 76,0.00179197,0.00118436,0.00373410,-0.00905903,0.00414179,-0.00476344
 ,0.00783181,-0.01201407,-0.00311787,0.00057622,0.00052443,0.00358220,-
 0.00061364,0.00059549,-0.00005434,0.00000612,0.00117738,-0.00286812,0.
 00051389,-0.01139743,0.00253408,-0.00041462,-0.33621873,-0.00344548,0.
 00117457,0.00079406,0.00048841,-0.00009434,-0.00069293,-0.00025797,0.0
 0004640,0.00086247,-0.00054147,0.00008525,0.00030538,0.00002999,-0.000
 00786,-0.00015488,-0.00008712,0.00001550,0.00000079,0.00002414,-0.0000
 0408,-0.00019607,0.00008657,-0.00001449,-0.00000312,-0.00004823,0.0000
 0842,0.35715291,0.02778301,0.00602566,-0.00040144,0.00238894,-0.004472
 86,0.00204934,-0.00002649,-0.00105968,-0.00002986,-0.00186540,-0.00433
 680,0.00205265,-0.02858633,0.00468395,-0.00009862,-0.00335461,-0.06012
 519,0.00390513,-0.00041207,0.00059777,-0.00078323,0.00138557,0.0001434
 6,-0.00003168,0.00023308,0.00050063,-0.00077828,-0.00000926,-0.0002729
 4,-0.00014478,0.00004449,0.00009472,-0.00000689,-0.00000179,0.00000089
 ,0.00001230,0.00007021,0.00011937,0.00000313,0.00000138,0.00003460,-0.
 00000802,0.00361997,0.05813113,-0.00483055,-0.00034283,0.00410442,-0.0
 0040520,0.00204723,0.00690920,0.00000035,-0.00002921,-0.00122617,0.000
 33954,0.00205490,0.00701347,0.00503138,-0.00015718,0.00382920,0.001157
 67,0.00390410,-0.03852867,0.00006301,-0.00078465,-0.00374469,-0.000241
 11,-0.00002846,-0.00001701,-0.00004974,-0.00077650,-0.00380687,-0.0000
 0058,-0.00014478,-0.00107505,-0.00000755,-0.00000683,0.00005697,0.0000
 0035,0.00001217,0.00006895,-0.00001150,0.00000297,0.00013745,-0.000000
 28,-0.00000791,-0.00000973,-0.00126889,-0.00572453,0.02645245,-0.00050
 724,-0.00137273,0.00023974,-0.00285498,0.00475147,-0.00081278,0.015406
 14,0.01117355,-0.00198096,-0.11049505,-0.03885571,0.00686914,-0.018631
 63,-0.03260026,0.00575449,-0.00352858,0.00277272,-0.00046479,0.0001622
 0,-0.00006053,0.00000795,0.00068425,0.00120730,-0.00021186,-0.00022834
 ,-0.00190162,0.00032623,-0.00169544,0.00065654,-0.00011780,-0.00381338
 ,0.00341507,-0.00059461,-0.00014167,0.00049032,-0.00008451,0.00032133,
 -0.00022101,0.00003865,0.00000245,-0.00004230,0.00000769,-0.00056359,-
 0.00105779,0.00018572,0.57322779,-0.00082491,-0.00031741,-0.00006141,0
 .00449465,0.00005684,0.00099859,-0.01084398,-0.02597339,0.00491271,-0.
 04968516,-0.18029903,0.01870993,-0.00832201,-0.00428936,0.00221853,0.0
 0194201,0.00111284,0.00123714,-0.00005485,0.00000296,-0.00021469,-0.00
 057001,-0.00049462,0.00014277,0.00248574,0.00061941,-0.00088335,0.0008
 0401,0.00047297,-0.00045150,0.00318854,-0.00242601,0.00009584,0.000515
 66,-0.00081588,0.00021171,-0.00035699,-0.00046377,0.00013426,-0.000128
 81,0.00017606,-0.00000078,0.00039263,0.00035675,-0.00010112,-0.0435280
 0,0.50441857,0.00014493,-0.00006318,-0.00066941,-0.00077341,0.00099809
 ,0.00563874,0.00187802,0.00486949,0.00111956,0.00877403,0.01870521,-0.
 07720782,0.00150669,0.00226499,0.00788617,-0.00031547,0.00123672,0.007
 97296,0.00000697,-0.00021401,-0.00118412,0.00009935,0.00014005,0.00029
 213,-0.00044382,-0.00087286,-0.00423725,-0.00014525,-0.00045452,-0.002
 01354,-0.00055643,0.00009700,-0.00187276,-0.00009115,0.00021176,0.0003
 5193,0.00006322,0.00013447,0.00027715,0.00002297,-0.00000122,0.0001700
 8,-0.00006795,-0.00009767,-0.00019684,0.00754715,0.00694374,0.54257027
 ,0.00038309,0.00001407,-0.00006489,-0.00063521,-0.00044635,0.00064494,
 -0.00007240,0.00173411,-0.00003320,-0.01003110,-0.00580669,-0.00885681
 ,-0.00021332,-0.00215748,0.00033162,-0.00048040,0.00011980,0.00107375,
 0.00001484,-0.00008673,-0.00017373,0.00000494,-0.00002757,0.00000104,0
 .00020651,-0.00024595,-0.00065004,0.00073075,0.00083863,-0.00044620,-0
 .00146453,0.00070996,0.00054497,-0.00014753,0.00014496,0.00006744,-0.0
 0005213,-0.00024501,-0.00001368,-0.00000292,0.00006532,0.00002057,-0.0
 0011523,-0.00015024,-0.00001354,-0.13529045,-0.03751219,-0.12333053,0.
 14834199,-0.00007920,-0.00036468,-0.00015184,-0.00042788,0.00020838,0.
 00111668,0.00086110,0.00054269,0.00037690,-0.01845109,-0.00762816,-0.0
 2277470,0.00014078,-0.00291267,0.00036017,-0.00051025,0.00024996,0.001
 14219,0.00002958,-0.00002952,-0.00011058,0.00002521,-0.00001023,0.0000
 2265,-0.00024369,0.00010186,-0.00028067,-0.00163317,-0.00252694,-0.000
 65294,0.00111443,0.00039674,0.00018313,0.00013203,0.00019627,0.0001229
 6,0.00032638,0.00045017,-0.00002097,0.00007234,-0.00010936,0.00000278,
 -0.00015854,-0.00021105,0.00004269,-0.03757214,-0.06486437,-0.05127937
 ,0.04390898,0.06987642,0.00027231,-0.00006035,-0.00001973,-0.00013557,
 -0.00039561,-0.00001651,-0.00008433,0.00019748,0.00071727,0.00529956,0
 .00186823,0.00713266,0.00057291,0.00044758,-0.00042942,0.00023152,0.00
 012004,-0.00047844,0.00000409,-0.00001098,0.00001658,-0.00004504,-0.00
 005382,-0.00000248,0.00013370,0.00002495,0.00012408,-0.00127458,-0.001
 06303,0.00030222,-0.00011436,0.00149636,0.00013955,-0.00019310,0.00027
 431,-0.00004229,0.00020200,0.00053735,-0.00022590,0.00005566,-0.000120
 04,0.00003998,0.00003680,0.00004579,0.00003772,-0.12089728,-0.05108510
 ,-0.20344582,0.13260478,0.05396656,0.22035774,0.00038122,0.00003632,0.
 00005429,-0.00063517,-0.00063634,-0.00045334,-0.00007470,0.00164162,-0
 .00055531,-0.01001414,-0.00244350,0.01033903,-0.00021496,-0.00214177,0
 .00042189,-0.00048570,-0.00025357,-0.00104810,0.00001553,-0.00002261,0
 .00019276,0.00000513,-0.00002609,0.00000834,0.00021056,-0.00001129,0.0
 0069205,0.00073786,0.00094501,0.00013232,-0.00146826,0.00047879,-0.000
 74975,-0.00014846,0.00011253,-0.00011234,-0.00005282,-0.00022786,0.000
 09592,-0.00000321,0.00005496,-0.00004150,-0.00011513,-0.00013684,0.000
 06407,-0.13466935,0.00670358,0.12853527,0.01124539,-0.00037266,-0.0162
 3027,0.14767120,-0.00016637,-0.00025662,0.00023787,-0.00035920,-0.0000
 4637,-0.00110173,0.00083920,0.00037050,-0.00025468,-0.01909653,0.00080
 060,0.02511229,-0.00006376,-0.00288912,0.00052759,-0.00056507,-0.00023
 572,-0.00122629,0.00002694,0.00001456,0.00011092,0.00003889,0.00000072
 ,-0.00002388,-0.00027337,0.00018600,0.00025798,-0.00109506,-0.00165374
 ,0.00136057,0.00109466,-0.00015970,-0.00007580,0.00019010,0.00004253,-
 0.00015404,0.00023763,0.00020764,-0.00013604,0.00004923,-0.00005472,0.
 00003131,-0.00016172,-0.00021089,0.00004743,0.00582448,-0.04816903,-0.
 00496080,0.00514722,-0.00034862,-0.00652229,-0.00384428,0.05274984,-0.
 00023304,0.00014802,-0.00012696,0.00027847,0.00041053,0.00023999,-0.00
 021459,-0.00007577,0.00087997,0.00131133,0.00041926,-0.00128566,-0.000
 58394,0.00045041,-0.00045844,-0.00004352,-0.00021056,0.00001343,-0.000
 01414,0.00001176,-0.00002816,0.00003375,0.00005269,-0.00001360,-0.0000
 4263,-0.00004786,0.00003678,0.00175133,0.00176789,-0.00057795,-0.00026
 797,-0.00138680,0.00070911,0.00013804,-0.00030645,0.00011321,-0.000301
 20,-0.00069385,0.00001679,-0.00007696,0.00015426,-0.00001418,0.0000198
 3,0.00004433,0.00003670,0.12627522,-0.00514814,-0.22079222,0.01530948,
 -0.00139485,-0.02221744,-0.13942596,0.00673107,0.23816406,0.00011457,-
 0.00007717,0.00001350,0.00031136,-0.00065063,0.00011339,-0.00095874,-0
 .00229088,0.00040442,0.01007100,-0.01157042,0.00201489,0.00018511,-0.0
 0262138,0.00045760,0.00041420,0.00005631,-0.00001002,0.00002027,0.0000
 2554,-0.00000466,-0.00008659,-0.00016050,0.00002785,-0.00026329,-0.000
 52962,0.00009801,-0.00094490,-0.00154215,0.00027035,-0.00077239,0.0011
 5437,-0.00019985,-0.00005109,0.00043361,-0.00007577,0.00006928,0.00062
 416,-0.00010899,0.00007316,-0.00013732,0.00002382,0.00005828,0.0000741
 6,-0.00001316,-0.17738446,0.13130010,-0.02285461,-0.01242229,0.0128378
 0,-0.00043879,-0.01238500,0.01217702,-0.00391352,0.19395153,-0.0003005
 0,0.00028156,-0.00004675,0.00158931,-0.00066026,0.00019724,-0.00430254
 ,-0.00368717,0.00086794,0.02133267,-0.02177914,0.00356980,0.00267962,0
 .00067966,-0.00017519,-0.00029484,-0.00002202,-0.00002779,-0.00010489,
 0.00005594,-0.00000720,-0.00028916,-0.00043906,0.00005114,-0.00162315,
 0.00053415,-0.00000639,-0.00107290,0.00004675,-0.00006626,0.00020148,0
 .00053346,0.00002464,-0.00011353,0.00001159,0.00002487,0.00032663,-0.0
 0009733,0.00000956,0.00003215,-0.00001521,0.00000149,-0.00001713,0.000
 00049,-0.00000749,0.12692064,-0.17910352,0.02234212,-0.00600486,0.0069
 8312,0.00033259,0.00014399,-0.00034786,-0.00092594,-0.13910300,0.19702
 483,0.00005285,-0.00004719,0.00001815,-0.00027825,0.00020147,0.0004539
 0,0.00075679,0.00086267,0.00106605,-0.00376193,0.00360232,-0.00188578,
 -0.00046712,-0.00016295,-0.00025319,0.00005066,-0.00002785,-0.00017391
 ,0.00001836,-0.00000766,0.00001391,0.00005049,0.00005105,-0.00015784,0
 .00028914,-0.00000686,0.00048327,0.00018912,-0.00006512,-0.00033277,-0
 .00003278,0.00002246,0.00067113,0.00002027,0.00002401,0.00014940,-0.00
 005748,0.00000931,-0.00004070,-0.00000576,0.00000175,-0.00000678,0.000
 00288,-0.00000765,-0.00004147,-0.02208739,0.02234087,-0.05465920,-0.01
 701598,0.01932924,-0.00198974,0.01808059,-0.01996149,0.00530458,0.0241
 9553,-0.02615837,0.05138100\\0.00004499,-0.00002163,0.00000223,-0.0000
 5285,-0.00001365,0.00000611,-0.00001971,0.00001595,0.00000962,0.000031
 76,-0.00001626,0.00000670,-0.00002525,-0.00001466,0.00000176,-0.000001
 40,0.00004139,-0.00000711,-0.00000572,0.00000195,-0.00000083,0.0000090
 5,0.00000268,-0.00000074,0.00000045,0.00000207,-0.00000136,0.00004935,
 0.00000645,-0.00005148,-0.00001746,-0.00000586,0.00001483,0.00000621,-
 0.00000056,0.00000410,-0.00000911,0.00001215,0.00001495,0.00000181,-0.
 00000891,0.00000205,0.00000034,-0.00000515,0.00000114,-0.00001168,0.00
 000196,-0.00000609,-0.00000002,0.00000242,0.00000299,-0.00000059,0.000
 00063,0.00000104,-0.00000016,-0.00000096,0.00000009\\\@


 IT IS BY EATING THE LIGHT OF A STAR THAT WE EXIST, 
 IN THE FINAL ANALYSIS, 
 JUST AS IT IS BY PERCEIVING THE LIGHT OF STARS
 THAT WE DEFINE THE WORLD AROUND US.

                                    -- GILBERT GROSVENOR
 Job cpu time:       0 days  0 hours 45 minutes 45.5 seconds.
 Elapsed time:       0 days  0 hours  1 minutes 31.6 seconds.
 File lengths (MBytes):  RWF=     92 Int=      0 D2E=      0 Chk=      5 Scr=      1
 Normal termination of Gaussian 16 at Fri Sep 15 03:42:34 2023.
