 Entering Gaussian System, Link 0=/home/ubuntu/g16/g16
 Input=/home/ubuntu/ML substrates/MOLECULE_14.gjf
 Output=/home/ubuntu/ML substrates/MOLECULE_14.log
 Initial command:
 /home/ubuntu/g16/l1.exe "/home/ubuntu/Scratch/Gau-31362.inp" -scrdir="/home/ubuntu/Scratch/"
 Entering Link 1 = /home/ubuntu/g16/l1.exe PID=     31364.
  
 Copyright (c) 1988-2017, Gaussian, Inc.  All Rights Reserved.
  
 This is part of the Gaussian(R) 16 program.  It is based on
 the Gaussian(R) 09 system (copyright 2009, Gaussian, Inc.),
 the Gaussian(R) 03 system (copyright 2003, Gaussian, Inc.),
 the Gaussian(R) 98 system (copyright 1998, Gaussian, Inc.),
 the Gaussian(R) 94 system (copyright 1995, Gaussian, Inc.),
 the Gaussian 92(TM) system (copyright 1992, Gaussian, Inc.),
 the Gaussian 90(TM) system (copyright 1990, Gaussian, Inc.),
 the Gaussian 88(TM) system (copyright 1988, Gaussian, Inc.),
 the Gaussian 86(TM) system (copyright 1986, Carnegie Mellon
 University), and the Gaussian 82(TM) system (copyright 1983,
 Carnegie Mellon University). Gaussian is a federally registered
 trademark of Gaussian, Inc.
  
 This software contains proprietary and confidential information,
 including trade secrets, belonging to Gaussian, Inc.
  
 This software is provided under written license and may be
 used, copied, transmitted, or stored only in accord with that
 written license.
  
 The following legend is applicable only to US Government
 contracts under FAR:
  
                    RESTRICTED RIGHTS LEGEND
  
 Use, reproduction and disclosure by the US Government is
 subject to restrictions as set forth in subparagraphs (a)
 and (c) of the Commercial Computer Software - Restricted
 Rights clause in FAR 52.227-19.
  
 Gaussian, Inc.
 340 Quinnipiac St., Bldg. 40, Wallingford CT 06492
  
  
 ---------------------------------------------------------------
 Warning -- This program may not be used in any manner that
 competes with the business of Gaussian, Inc. or will provide
 assistance to any competitor of Gaussian, Inc.  The licensee
 of this program is prohibited from giving any competitor of
 Gaussian, Inc. access to this program.  By using this program,
 the user acknowledges that Gaussian, Inc. is engaged in the
 business of creating and licensing software in the field of
 computational chemistry and represents and warrants to the
 licensee that it is not a competitor of Gaussian, Inc. and that
 it will not use this program in any manner prohibited above.
 ---------------------------------------------------------------
  

 Cite this work as:
 Gaussian 16, Revision B.01,
 M. J. Frisch, G. W. Trucks, H. B. Schlegel, G. E. Scuseria, 
 M. A. Robb, J. R. Cheeseman, G. Scalmani, V. Barone, 
 G. A. Petersson, H. Nakatsuji, X. Li, M. Caricato, A. V. Marenich, 
 J. Bloino, B. G. Janesko, R. Gomperts, B. Mennucci, H. P. Hratchian, 
 J. V. Ortiz, A. F. Izmaylov, J. L. Sonnenberg, D. Williams-Young, 
 F. Ding, F. Lipparini, F. Egidi, J. Goings, B. Peng, A. Petrone, 
 T. Henderson, D. Ranasinghe, V. G. Zakrzewski, J. Gao, N. Rega, 
 G. Zheng, W. Liang, M. Hada, M. Ehara, K. Toyota, R. Fukuda, 
 J. Hasegawa, M. Ishida, T. Nakajima, Y. Honda, O. Kitao, H. Nakai, 
 T. Vreven, K. Throssell, J. A. Montgomery, Jr., J. E. Peralta, 
 F. Ogliaro, M. J. Bearpark, J. J. Heyd, E. N. Brothers, K. N. Kudin, 
 V. N. Staroverov, T. A. Keith, R. Kobayashi, J. Normand, 
 K. Raghavachari, A. P. Rendell, J. C. Burant, S. S. Iyengar, 
 J. Tomasi, M. Cossi, J. M. Millam, M. Klene, C. Adamo, R. Cammi, 
 J. W. Ochterski, R. L. Martin, K. Morokuma, O. Farkas, 
 J. B. Foresman, and D. J. Fox, Gaussian, Inc., Wallingford CT, 2016.
 
 ******************************************
 Gaussian 16:  EM64L-G16RevB.01 20-Dec-2017
                14-Sep-2023 
 ******************************************
 %nprocshared=30
 Will use up to   30 processors via shared memory.
 %mem=30GB
 %chk=MOLECULE_14.chk
 ----------------------------------------------------------------
 # opt freq b3lyp/6-31+g(d) nosymm empiricaldispersion=gd3 volume
 ----------------------------------------------------------------
 1/18=20,19=15,26=3,38=1/1,3;
 2/9=110,12=2,15=1,17=6,18=5,40=1/2;
 3/5=1,6=6,7=11,11=2,25=1,30=1,71=1,74=-5,124=31/1,2,3;
 4//1;
 5/5=2,38=5/2;
 6/7=2,8=2,9=2,10=2,28=1,44=1/1,4;
 7/30=1/1,2,3,16;
 1/18=20,19=15,26=3/3(2);
 2/9=110,15=1/2;
 99//99;
 2/9=110,15=1/2;
 3/5=1,6=6,7=11,11=2,25=1,30=1,71=1,74=-5,124=31/1,2,3;
 4/5=5,16=3,69=1/1;
 5/5=2,38=5/2;
 7/30=1/1,2,3,16;
 1/18=20,19=15,26=3/3(-5);
 2/9=110,15=1/2;
 6/7=2,8=2,9=2,10=2,19=2,28=1,44=1/1,4;
 99/9=1/99;
 -----------
 molecule_10
 -----------
 Symbolic Z-matrix:
 Charge =  0 Multiplicity = 1
 C                    -0.75422  -0.62446   0.2332 
 C                     0.64316  -0.64342   0.22547 
 C                     1.31496   0.54973  -0.02408 
 C                     0.65477   1.75116  -0.26476 
 C                    -0.74273   1.74954  -0.254 
 C                    -1.47003   0.56701  -0.00565 
 H                    -1.30622  -1.53822   0.42526 
 H                     1.20747  -1.55024   0.40618 
 H                     1.22784   2.65093  -0.45299 
 H                    -1.28586   2.67007  -0.43883 
 C                    -5.1432    1.88079  -0.27148 
 C                    -5.15502  -0.70255   0.30643 
 C                    -5.9979    0.59434   0.02345 
 H                    -5.38261   2.65667   0.46215 
 H                    -5.41294  -1.4748   -0.42478 
 B                    -3.01971   0.57642   0.00428 
 H                    -5.39332   2.26801  -1.26392 
 H                    -5.39729  -1.08777   1.30159 
 C                    -6.90712   0.32484  -1.20064 
 H                    -7.55806  -0.53926  -1.0216 
 H                    -7.5493    1.18908  -1.40881 
 H                    -6.30648   0.12142  -2.09542 
 C                    -6.88656   0.8749    1.26016 
 H                    -7.52847   1.74765   1.09071 
 H                    -7.53716   0.01905   1.47669 
 H                    -6.271     1.06971   2.14667 
 O                    -3.69272   1.75371  -0.2512 
 O                    -3.70347  -0.5928    0.26818 
 F                     2.70919   0.54108  -0.03328 
 

 GradGradGradGradGradGradGradGradGradGradGradGradGradGradGradGradGradGrad
 Berny optimization.
 Initialization pass.
                           ----------------------------
                           !    Initial Parameters    !
                           ! (Angstroms and Degrees)  !
 --------------------------                            --------------------------
 ! Name  Definition              Value          Derivative Info.                !
 --------------------------------------------------------------------------------
 ! R1    R(1,2)                  1.3975         estimate D2E/DX2                !
 ! R2    R(1,6)                  1.4103         estimate D2E/DX2                !
 ! R3    R(1,7)                  1.0847         estimate D2E/DX2                !
 ! R4    R(2,3)                  1.3918         estimate D2E/DX2                !
 ! R5    R(2,8)                  1.0832         estimate D2E/DX2                !
 ! R6    R(3,4)                  1.3918         estimate D2E/DX2                !
 ! R7    R(3,29)                 1.3943         estimate D2E/DX2                !
 ! R8    R(4,5)                  1.3975         estimate D2E/DX2                !
 ! R9    R(4,9)                  1.0832         estimate D2E/DX2                !
 ! R10   R(5,6)                  1.4103         estimate D2E/DX2                !
 ! R11   R(5,10)                 1.0847         estimate D2E/DX2                !
 ! R12   R(6,16)                 1.5497         estimate D2E/DX2                !
 ! R13   R(11,13)                1.5724         estimate D2E/DX2                !
 ! R14   R(11,14)                1.0943         estimate D2E/DX2                !
 ! R15   R(11,17)                1.0943         estimate D2E/DX2                !
 ! R16   R(11,27)                1.4562         estimate D2E/DX2                !
 ! R17   R(12,13)                1.5724         estimate D2E/DX2                !
 ! R18   R(12,15)                1.0943         estimate D2E/DX2                !
 ! R19   R(12,18)                1.0943         estimate D2E/DX2                !
 ! R20   R(12,28)                1.4562         estimate D2E/DX2                !
 ! R21   R(13,19)                1.5485         estimate D2E/DX2                !
 ! R22   R(13,23)                1.5485         estimate D2E/DX2                !
 ! R23   R(16,27)                1.3799         estimate D2E/DX2                !
 ! R24   R(16,28)                1.3799         estimate D2E/DX2                !
 ! R25   R(19,20)                1.0966         estimate D2E/DX2                !
 ! R26   R(19,21)                1.0966         estimate D2E/DX2                !
 ! R27   R(19,22)                1.0967         estimate D2E/DX2                !
 ! R28   R(23,24)                1.0966         estimate D2E/DX2                !
 ! R29   R(23,25)                1.0966         estimate D2E/DX2                !
 ! R30   R(23,26)                1.0967         estimate D2E/DX2                !
 ! A1    A(2,1,6)              121.1993         estimate D2E/DX2                !
 ! A2    A(2,1,7)              119.8938         estimate D2E/DX2                !
 ! A3    A(6,1,7)              118.9069         estimate D2E/DX2                !
 ! A4    A(1,2,3)              118.1631         estimate D2E/DX2                !
 ! A5    A(1,2,8)              122.0951         estimate D2E/DX2                !
 ! A6    A(3,2,8)              119.7418         estimate D2E/DX2                !
 ! A7    A(2,3,4)              122.822          estimate D2E/DX2                !
 ! A8    A(2,3,29)             118.5887         estimate D2E/DX2                !
 ! A9    A(4,3,29)             118.5893         estimate D2E/DX2                !
 ! A10   A(3,4,5)              118.1631         estimate D2E/DX2                !
 ! A11   A(3,4,9)              119.7428         estimate D2E/DX2                !
 ! A12   A(5,4,9)              122.0941         estimate D2E/DX2                !
 ! A13   A(4,5,6)              121.199          estimate D2E/DX2                !
 ! A14   A(4,5,10)             119.8955         estimate D2E/DX2                !
 ! A15   A(6,5,10)             118.9055         estimate D2E/DX2                !
 ! A16   A(1,6,5)              118.4534         estimate D2E/DX2                !
 ! A17   A(1,6,16)             120.7683         estimate D2E/DX2                !
 ! A18   A(5,6,16)             120.7783         estimate D2E/DX2                !
 ! A19   A(13,11,14)           109.5973         estimate D2E/DX2                !
 ! A20   A(13,11,17)           109.596          estimate D2E/DX2                !
 ! A21   A(13,11,27)           117.8677         estimate D2E/DX2                !
 ! A22   A(14,11,17)           107.885          estimate D2E/DX2                !
 ! A23   A(14,11,27)           105.6914         estimate D2E/DX2                !
 ! A24   A(17,11,27)           105.7348         estimate D2E/DX2                !
 ! A25   A(13,12,15)           109.5997         estimate D2E/DX2                !
 ! A26   A(13,12,18)           109.5935         estimate D2E/DX2                !
 ! A27   A(13,12,28)           117.8683         estimate D2E/DX2                !
 ! A28   A(15,12,18)           107.882          estimate D2E/DX2                !
 ! A29   A(15,12,28)           105.6983         estimate D2E/DX2                !
 ! A30   A(18,12,28)           105.7302         estimate D2E/DX2                !
 ! A31   A(11,13,12)           114.6562         estimate D2E/DX2                !
 ! A32   A(11,13,19)           108.2573         estimate D2E/DX2                !
 ! A33   A(11,13,23)           108.2713         estimate D2E/DX2                !
 ! A34   A(12,13,19)           108.2687         estimate D2E/DX2                !
 ! A35   A(12,13,23)           108.2598         estimate D2E/DX2                !
 ! A36   A(19,13,23)           109.0207         estimate D2E/DX2                !
 ! A37   A(6,16,27)            119.4511         estimate D2E/DX2                !
 ! A38   A(6,16,28)            119.4436         estimate D2E/DX2                !
 ! A39   A(27,16,28)           121.1054         estimate D2E/DX2                !
 ! A40   A(13,19,20)           110.8938         estimate D2E/DX2                !
 ! A41   A(13,19,21)           110.9            estimate D2E/DX2                !
 ! A42   A(13,19,22)           110.8344         estimate D2E/DX2                !
 ! A43   A(20,19,21)           107.7218         estimate D2E/DX2                !
 ! A44   A(20,19,22)           108.1888         estimate D2E/DX2                !
 ! A45   A(21,19,22)           108.1809         estimate D2E/DX2                !
 ! A46   A(13,23,24)           110.8991         estimate D2E/DX2                !
 ! A47   A(13,23,25)           110.9009         estimate D2E/DX2                !
 ! A48   A(13,23,26)           110.833          estimate D2E/DX2                !
 ! A49   A(24,23,25)           107.7199         estimate D2E/DX2                !
 ! A50   A(24,23,26)           108.1856         estimate D2E/DX2                !
 ! A51   A(25,23,26)           108.181          estimate D2E/DX2                !
 ! A52   A(11,27,16)           124.2516         estimate D2E/DX2                !
 ! A53   A(12,28,16)           124.2501         estimate D2E/DX2                !
 ! D1    D(6,1,2,3)              0.0552         estimate D2E/DX2                !
 ! D2    D(6,1,2,8)           -179.9438         estimate D2E/DX2                !
 ! D3    D(7,1,2,3)           -179.962          estimate D2E/DX2                !
 ! D4    D(7,1,2,8)              0.039          estimate D2E/DX2                !
 ! D5    D(2,1,6,5)             -0.0312         estimate D2E/DX2                !
 ! D6    D(2,1,6,16)           179.9564         estimate D2E/DX2                !
 ! D7    D(7,1,6,5)            179.9858         estimate D2E/DX2                !
 ! D8    D(7,1,6,16)            -0.0266         estimate D2E/DX2                !
 ! D9    D(1,2,3,4)             -0.0246         estimate D2E/DX2                !
 ! D10   D(1,2,3,29)           179.9718         estimate D2E/DX2                !
 ! D11   D(8,2,3,4)            179.9745         estimate D2E/DX2                !
 ! D12   D(8,2,3,29)            -0.0291         estimate D2E/DX2                !
 ! D13   D(2,3,4,5)             -0.0294         estimate D2E/DX2                !
 ! D14   D(2,3,4,9)            179.9712         estimate D2E/DX2                !
 ! D15   D(29,3,4,5)           179.9741         estimate D2E/DX2                !
 ! D16   D(29,3,4,9)            -0.0252         estimate D2E/DX2                !
 ! D17   D(3,4,5,6)              0.0543         estimate D2E/DX2                !
 ! D18   D(3,4,5,10)          -179.9581         estimate D2E/DX2                !
 ! D19   D(9,4,5,6)           -179.9464         estimate D2E/DX2                !
 ! D20   D(9,4,5,10)             0.0413         estimate D2E/DX2                !
 ! D21   D(4,5,6,1)             -0.0249         estimate D2E/DX2                !
 ! D22   D(4,5,6,16)           179.9874         estimate D2E/DX2                !
 ! D23   D(10,5,6,1)           179.9873         estimate D2E/DX2                !
 ! D24   D(10,5,6,16)           -0.0003         estimate D2E/DX2                !
 ! D25   D(1,6,16,27)         -179.1031         estimate D2E/DX2                !
 ! D26   D(1,6,16,28)            0.8826         estimate D2E/DX2                !
 ! D27   D(5,6,16,27)            0.8843         estimate D2E/DX2                !
 ! D28   D(5,6,16,28)         -179.1301         estimate D2E/DX2                !
 ! D29   D(14,11,13,12)       -121.0406         estimate D2E/DX2                !
 ! D30   D(14,11,13,19)        117.9865         estimate D2E/DX2                !
 ! D31   D(14,11,13,23)         -0.0688         estimate D2E/DX2                !
 ! D32   D(17,11,13,12)        120.7444         estimate D2E/DX2                !
 ! D33   D(17,11,13,19)         -0.2285         estimate D2E/DX2                !
 ! D34   D(17,11,13,23)       -118.2838         estimate D2E/DX2                !
 ! D35   D(27,11,13,12)         -0.1768         estimate D2E/DX2                !
 ! D36   D(27,11,13,19)       -121.1497         estimate D2E/DX2                !
 ! D37   D(27,11,13,23)        120.795          estimate D2E/DX2                !
 ! D38   D(13,11,27,16)          0.296          estimate D2E/DX2                !
 ! D39   D(14,11,27,16)        123.1591         estimate D2E/DX2                !
 ! D40   D(17,11,27,16)       -122.6006         estimate D2E/DX2                !
 ! D41   D(15,12,13,11)       -120.9398         estimate D2E/DX2                !
 ! D42   D(15,12,13,19)          0.0268         estimate D2E/DX2                !
 ! D43   D(15,12,13,23)        118.0821         estimate D2E/DX2                !
 ! D44   D(18,12,13,11)        120.8488         estimate D2E/DX2                !
 ! D45   D(18,12,13,19)       -118.1845         estimate D2E/DX2                !
 ! D46   D(18,12,13,23)         -0.1292         estimate D2E/DX2                !
 ! D47   D(28,12,13,11)         -0.0644         estimate D2E/DX2                !
 ! D48   D(28,12,13,19)        120.9023         estimate D2E/DX2                !
 ! D49   D(28,12,13,23)       -121.0424         estimate D2E/DX2                !
 ! D50   D(13,12,28,16)          0.2341         estimate D2E/DX2                !
 ! D51   D(15,12,28,16)        123.1064         estimate D2E/DX2                !
 ! D52   D(18,12,28,16)       -122.6558         estimate D2E/DX2                !
 ! D53   D(11,13,19,20)       -177.358          estimate D2E/DX2                !
 ! D54   D(11,13,19,21)        -57.7186         estimate D2E/DX2                !
 ! D55   D(11,13,19,22)         62.4588         estimate D2E/DX2                !
 ! D56   D(12,13,19,20)         57.7868         estimate D2E/DX2                !
 ! D57   D(12,13,19,21)        177.4262         estimate D2E/DX2                !
 ! D58   D(12,13,19,22)        -62.3964         estimate D2E/DX2                !
 ! D59   D(23,13,19,20)        -59.782          estimate D2E/DX2                !
 ! D60   D(23,13,19,21)         59.8574         estimate D2E/DX2                !
 ! D61   D(23,13,19,22)       -179.9652         estimate D2E/DX2                !
 ! D62   D(11,13,23,24)         57.7186         estimate D2E/DX2                !
 ! D63   D(11,13,23,25)        177.3596         estimate D2E/DX2                !
 ! D64   D(11,13,23,26)        -62.4632         estimate D2E/DX2                !
 ! D65   D(12,13,23,24)       -177.423          estimate D2E/DX2                !
 ! D66   D(12,13,23,25)        -57.782          estimate D2E/DX2                !
 ! D67   D(12,13,23,26)         62.3952         estimate D2E/DX2                !
 ! D68   D(19,13,23,24)        -59.8486         estimate D2E/DX2                !
 ! D69   D(19,13,23,25)         59.7924         estimate D2E/DX2                !
 ! D70   D(19,13,23,26)        179.9696         estimate D2E/DX2                !
 ! D71   D(6,16,27,11)         179.8424         estimate D2E/DX2                !
 ! D72   D(28,16,27,11)         -0.1431         estimate D2E/DX2                !
 ! D73   D(6,16,28,12)         179.8735         estimate D2E/DX2                !
 ! D74   D(27,16,28,12)         -0.141          estimate D2E/DX2                !
 --------------------------------------------------------------------------------
 Trust Radius=3.00D-01 FncErr=1.00D-07 GrdErr=1.00D-06 EigMax=2.50D+02 EigMin=1.00D-04
 Number of steps in this run=    167 maximum allowed number of steps=    174.
 GradGradGradGradGradGradGradGradGradGradGradGradGradGradGradGradGradGrad

                          Input orientation:                          
 ---------------------------------------------------------------------
 Center     Atomic      Atomic             Coordinates (Angstroms)
 Number     Number       Type             X           Y           Z
 ---------------------------------------------------------------------
      1          6           0       -0.754224   -0.624459    0.233203
      2          6           0        0.643158   -0.643424    0.225467
      3          6           0        1.314964    0.549731   -0.024080
      4          6           0        0.654773    1.751158   -0.264761
      5          6           0       -0.742725    1.749536   -0.253996
      6          6           0       -1.470027    0.567008   -0.005653
      7          1           0       -1.306222   -1.538219    0.425264
      8          1           0        1.207471   -1.550243    0.406178
      9          1           0        1.227837    2.650930   -0.452992
     10          1           0       -1.285863    2.670070   -0.438830
     11          6           0       -5.143201    1.880785   -0.271481
     12          6           0       -5.155023   -0.702553    0.306433
     13          6           0       -5.997900    0.594343    0.023452
     14          1           0       -5.382613    2.656667    0.462145
     15          1           0       -5.412941   -1.474800   -0.424775
     16          5           0       -3.019708    0.576415    0.004281
     17          1           0       -5.393317    2.268014   -1.263922
     18          1           0       -5.397285   -1.087773    1.301589
     19          6           0       -6.907123    0.324844   -1.200642
     20          1           0       -7.558061   -0.539263   -1.021604
     21          1           0       -7.549298    1.189083   -1.408806
     22          1           0       -6.306482    0.121416   -2.095422
     23          6           0       -6.886563    0.874895    1.260163
     24          1           0       -7.528472    1.747648    1.090712
     25          1           0       -7.537157    0.019049    1.476685
     26          1           0       -6.271003    1.069708    2.146665
     27          8           0       -3.692715    1.753712   -0.251198
     28          8           0       -3.703472   -0.592797    0.268183
     29          9           0        2.709188    0.541078   -0.033284
 ---------------------------------------------------------------------
                    Distance matrix (angstroms):
                    1          2          3          4          5
     1  C    0.000000
     2  C    1.397532   0.000000
     3  C    2.393001   1.391839   0.000000
     4  C    2.806563   2.444275   1.391836   0.000000
     5  C    2.423499   2.806566   2.393006   1.397540   0.000000
     6  C    1.410326   2.446245   2.785106   2.446247   1.410324
     7  H    1.084687   2.154219   3.381133   3.891226   3.404153
     8  H    2.176061   1.083248   2.146292   3.413925   3.889426
     9  H    3.889422   3.413931   2.146298   1.083246   2.176057
    10  H    3.404143   3.891228   3.381147   2.154244   1.084687
    11  C    5.078787   6.332499   6.598546   5.799427   4.402468
    12  C    4.402101   5.799048   6.598347   6.332511   5.078897
    13  C    5.387542   6.758441   7.313155   6.758650   5.387793
    14  H    5.678044   6.874339   7.037978   6.148038   4.781663
    15  H    4.781178   6.147384   7.037328   6.873832   5.677713
    16  B    2.574281   3.866978   4.334847   3.867068   2.574407
    17  H    5.668242   6.865405   7.034965   6.151817   4.787147
    18  H    4.786870   6.151621   7.035134   6.865886   5.668783
    19  C    6.388682   7.744551   8.308886   7.751936   6.397319
    20  H    6.919104   8.296145   8.995084   8.559759   7.230258
    21  H    7.222061   8.552501   8.994519   8.302503   6.926553
    22  H    6.066827   7.366750   7.909510   7.380139   6.082517
    23  C    6.395959   7.750651   8.307831   7.743706   6.387834
    24  H    7.228599   8.558120   8.993560   8.294746   6.917702
    25  H    6.925932   8.301926   8.994107   8.552225   7.221783
    26  H    6.079999   7.377767   7.907554   7.365170   6.065245
    27  O    3.811177   4.977275   5.155386   4.347510   2.949994
    28  O    2.949625   4.347135   5.155142   4.977193   3.811196
    29  F    3.663975   2.395512   1.394281   2.395516   3.663985
                    6          7          8          9         10
     6  C    0.000000
     7  H    2.155111   0.000000
     8  H    3.438219   2.513794   0.000000
     9  H    3.438214   4.974109   4.288175   0.000000
    10  H    2.155094   4.296134   4.974112   2.513813   0.000000
    11  C    3.910100   5.186275   7.249980   6.419984   3.940816
    12  C    3.910036   3.940270   6.419490   7.250067   5.186560
    13  C    4.528049   5.169247   7.527490   7.527803   5.169685
    14  H    4.460251   5.849392   7.818595   6.673497   4.194675
    15  H    4.459957   4.194250   6.672783   7.818080   5.849181
    16  B    1.549741   2.754077   4.749025   4.749142   2.754262
    17  H    4.457451   5.834818   7.806326   6.681610   4.208753
    18  H    4.457638   4.208045   6.681201   7.806965   5.835600
    19  C    5.572132   6.122472   8.482008   8.493953   6.138323
    20  H    6.270578   6.494369   8.938411   9.364436   7.069647
    21  H    6.270036   7.055352   9.353025   8.949228   6.508824
    22  H    5.287436   5.840449   8.093944   8.115539   5.869118
    23  C    5.570992   6.136805   8.492583   8.481314   6.121852
    24  H    6.269026   7.067966   9.362765   8.937107   6.493114
    25  H    6.269581   6.508081   8.948585   9.352838   7.055196
    26  H    5.285315   5.866307   8.113015   8.092656   5.839312
    27  O    2.531581   4.121864   5.946435   5.005752   2.582219
    28  O    2.531484   2.581725   5.005308   5.946399   4.122014
    29  F    4.179387   4.545026   2.611878   2.611902   4.545053
                   11         12         13         14         15
    11  C    0.000000
    12  C    2.647217   0.000000
    13  C    1.572396   1.572406   0.000000
    14  H    1.094312   3.370520   2.196408   0.000000
    15  H    3.369898   1.094327   2.196460   4.225703   0.000000
    16  B    2.507319   2.507314   2.978308   3.181259   3.181059
    17  H    1.094278   3.368541   2.196367   1.769314   3.835780
    18  H    3.369190   1.094267   2.196335   3.837410   1.769285
    19  C    2.528975   2.529165   1.548458   3.244440   2.464400
    20  H    3.500124   2.750443   2.193469   4.141021   2.415155
    21  H    2.749775   3.500412   2.193608   3.216953   3.553676
    22  H    2.788434   2.788134   2.192831   3.717819   2.477374
    23  C    2.529241   2.529066   1.548511   2.464429   3.245250
    24  H    2.750057   3.500263   2.193583   2.413736   4.142022
    25  H    3.500453   2.750411   2.193664   3.553643   3.218607
    26  H    2.788766   2.787970   2.192850   2.478968   3.717942
    27  O    1.456183   2.912479   2.594889   2.044490   3.662321
    28  O    2.912501   1.456197   2.594917   3.662807   2.044604
    29  F    7.969414   7.969181   8.707436   8.378449   8.377709
                   16         17         18         19         20
    16  B    0.000000
    17  H    3.178658   0.000000
    18  H    3.178900   4.224118   0.000000
    19  C    4.077637   2.464046   3.245960   0.000000
    20  H    4.784749   3.553257   3.219789   1.096565   0.000000
    21  H    4.784283   2.415230   4.142641   1.096645   1.771209
    22  H    3.926660   2.476519   3.718664   1.096715   1.776522
    23  C    4.076628   3.246778   2.464088   2.521615   2.767167
    24  H    4.783416   3.220865   3.553314   2.767806   3.113313
    25  H    4.783929   4.143045   2.415526   2.767406   2.559999
    26  H    3.924801   3.719996   2.476340   3.487683   3.779317
    27  O    1.379941   2.045034   3.659336   3.643560   4.559842
    28  O    1.379940   3.658847   2.044977   3.641825   4.065006
    29  F    5.729128   8.375402   8.375556   9.689320  10.371129
                   21         22         23         24         25
    21  H    0.000000
    22  H    1.776498   0.000000
    23  C    2.767910   3.487718   0.000000
    24  H    2.561253   3.780124   1.096567   0.000000
    25  H    3.113709   3.779549   1.096643   1.771187   0.000000
    26  H    3.780167   4.346932   1.096701   1.776476   1.776486
    27  O    4.065968   3.591285   3.641043   4.063716   4.557891
    28  O    4.558263   3.587811   3.642830   4.559042   4.065953
    29  F   10.370560   9.258015   9.688286  10.369612  10.370155
                   26         27         28         29
    26  H    0.000000
    27  O    3.586806   0.000000
    28  O    3.589545   2.403326   0.000000
    29  F    9.256104   6.519381   6.519108   0.000000
 Symmetry turned off by external request.
 Stoichiometry    C11H14BFO2
 Framework group  C1[X(C11H14BFO2)]
 Deg. of freedom    81
 Full point group                 C1      NOp   1
 Rotational constants (GHZ):           1.9949760           0.2411363           0.2261953
 Standard basis: 6-31+G(d) (6D, 7F)
   313 basis functions,   536 primitive gaussians,   313 cartesian basis functions
    55 alpha electrons       55 beta electrons
       nuclear repulsion energy       942.6308468262 Hartrees.
 NAtoms=   29 NActive=   29 NUniq=   29 SFac= 1.00D+00 NAtFMM=   60 NAOKFM=F Big=F
 Integral buffers will be    131072 words long.
 Raffenetti 2 integral format.
 Two-electron integral symmetry is turned off.
 Nuclear repulsion after empirical dispersion term =      942.6052768575 Hartrees.
 One-electron integrals computed using PRISM.
 NBasis=   313 RedAO= T EigKep=  3.03D-06  NBF=   313
 NBsUse=   313 1.00D-06 EigRej= -1.00D+00 NBFU=   313
 ExpMin= 3.15D-02 ExpMax= 7.00D+03 ExpMxC= 1.05D+03 IAcc=3 IRadAn=         5 AccDes= 0.00D+00
 Harris functional with IExCor=  402 and IRadAn=       5 diagonalized for initial guess.
 HarFok:  IExCor=  402 AccDes= 0.00D+00 IRadAn=         5 IDoV= 1 UseB2=F ITyADJ=14
 ICtDFT=  3500011 ScaDFX=  1.000000  1.000000  1.000000  1.000000
 FoFCou: FMM=F IPFlag=           0 FMFlag=      100000 FMFlg1=           0
         NFxFlg=           0 DoJE=T BraDBF=F KetDBF=T FulRan=T
         wScrn=  0.000000 ICntrl=       500 IOpCl=  0 I1Cent=   200000004 NGrid=           0
         NMat0=    1 NMatS0=      1 NMatT0=    0 NMatD0=    1 NMtDS0=    0 NMtDT0=    0
 Symmetry not used in FoFCou.
 Requested convergence on RMS density matrix=1.00D-08 within 128 cycles.
 Requested convergence on MAX density matrix=1.00D-06.
 Requested convergence on             energy=1.00D-06.
 No special actions if energy rises.
 SCF Done:  E(RB3LYP) =  -702.892394810     A.U. after   13 cycles
            NFock= 13  Conv=0.66D-08     -V/T= 2.0097

 **********************************************************************

            Population analysis using the SCF Density.

 **********************************************************************

 Alpha  occ. eigenvalues --  -24.71416 -19.16652 -19.16651 -10.28000 -10.25466
 Alpha  occ. eigenvalues --  -10.25466 -10.22840 -10.20207 -10.20207 -10.20122
 Alpha  occ. eigenvalues --  -10.20121 -10.19763 -10.19761 -10.17766  -6.78838
 Alpha  occ. eigenvalues --   -1.20721  -1.04348  -1.00679  -0.86099  -0.83394
 Alpha  occ. eigenvalues --   -0.75775  -0.74872  -0.70793  -0.70291  -0.69451
 Alpha  occ. eigenvalues --   -0.62174  -0.61144  -0.58771  -0.54053  -0.52082
 Alpha  occ. eigenvalues --   -0.50577  -0.49124  -0.47816  -0.47442  -0.46500
 Alpha  occ. eigenvalues --   -0.46328  -0.45463  -0.44004  -0.43407  -0.42615
 Alpha  occ. eigenvalues --   -0.41998  -0.41001  -0.39720  -0.39520  -0.38892
 Alpha  occ. eigenvalues --   -0.37201  -0.35723  -0.35103  -0.34709  -0.32559
 Alpha  occ. eigenvalues --   -0.32507  -0.30184  -0.29276  -0.26175  -0.24881
 Alpha virt. eigenvalues --   -0.03115  -0.01757  -0.01079   0.00610   0.01258
 Alpha virt. eigenvalues --    0.01700   0.02617   0.03173   0.03717   0.03813
 Alpha virt. eigenvalues --    0.04328   0.05191   0.05308   0.05315   0.06327
 Alpha virt. eigenvalues --    0.06333   0.06556   0.07263   0.07773   0.08579
 Alpha virt. eigenvalues --    0.08891   0.09013   0.09533   0.09809   0.10754
 Alpha virt. eigenvalues --    0.11172   0.11410   0.12188   0.12417   0.13469
 Alpha virt. eigenvalues --    0.13767   0.14648   0.15204   0.15625   0.16014
 Alpha virt. eigenvalues --    0.16347   0.16479   0.16532   0.16830   0.17621
 Alpha virt. eigenvalues --    0.17774   0.18049   0.18348   0.18371   0.19827
 Alpha virt. eigenvalues --    0.19834   0.20196   0.20514   0.20959   0.21479
 Alpha virt. eigenvalues --    0.21622   0.21715   0.22273   0.22961   0.24405
 Alpha virt. eigenvalues --    0.24988   0.25263   0.25268   0.25790   0.25899
 Alpha virt. eigenvalues --    0.26276   0.27943   0.28136   0.29324   0.29632
 Alpha virt. eigenvalues --    0.29809   0.29934   0.30070   0.31220   0.31575
 Alpha virt. eigenvalues --    0.32473   0.32558   0.33060   0.33411   0.34707
 Alpha virt. eigenvalues --    0.35403   0.36261   0.36851   0.37106   0.37927
 Alpha virt. eigenvalues --    0.38221   0.38589   0.39503   0.41602   0.41963
 Alpha virt. eigenvalues --    0.45111   0.45393   0.47010   0.47990   0.48988
 Alpha virt. eigenvalues --    0.51454   0.52832   0.58815   0.63843   0.63968
 Alpha virt. eigenvalues --    0.64224   0.65598   0.67352   0.67954   0.68170
 Alpha virt. eigenvalues --    0.69205   0.69576   0.70432   0.71549   0.71643
 Alpha virt. eigenvalues --    0.72826   0.74195   0.74951   0.76174   0.76960
 Alpha virt. eigenvalues --    0.79039   0.79433   0.79509   0.80219   0.81212
 Alpha virt. eigenvalues --    0.83635   0.84476   0.84684   0.85429   0.89170
 Alpha virt. eigenvalues --    0.89733   0.90163   0.91628   0.94148   0.94154
 Alpha virt. eigenvalues --    0.96373   0.99218   0.99347   0.99902   0.99928
 Alpha virt. eigenvalues --    1.02972   1.03474   1.03810   1.04995   1.05718
 Alpha virt. eigenvalues --    1.06688   1.08238   1.09002   1.09077   1.10136
 Alpha virt. eigenvalues --    1.12212   1.15967   1.16754   1.17242   1.17399
 Alpha virt. eigenvalues --    1.18700   1.22880   1.24917   1.25338   1.26270
 Alpha virt. eigenvalues --    1.27725   1.33683   1.33806   1.33905   1.36860
 Alpha virt. eigenvalues --    1.38517   1.39962   1.40424   1.40945   1.44618
 Alpha virt. eigenvalues --    1.44684   1.45127   1.48717   1.49476   1.50410
 Alpha virt. eigenvalues --    1.52089   1.52645   1.55043   1.58209   1.63640
 Alpha virt. eigenvalues --    1.65128   1.67007   1.67735   1.68190   1.69740
 Alpha virt. eigenvalues --    1.71336   1.73316   1.73637   1.77883   1.79226
 Alpha virt. eigenvalues --    1.81476   1.83371   1.84219   1.86175   1.87415
 Alpha virt. eigenvalues --    1.88596   1.89011   1.89558   1.92487   1.97742
 Alpha virt. eigenvalues --    1.98019   1.99215   1.99499   2.01255   2.02638
 Alpha virt. eigenvalues --    2.03423   2.04829   2.06725   2.08856   2.11191
 Alpha virt. eigenvalues --    2.13442   2.13559   2.14992   2.16838   2.18085
 Alpha virt. eigenvalues --    2.22546   2.23652   2.24028   2.25007   2.26246
 Alpha virt. eigenvalues --    2.26725   2.28214   2.28924   2.29590   2.31343
 Alpha virt. eigenvalues --    2.31751   2.32359   2.34480   2.39666   2.41740
 Alpha virt. eigenvalues --    2.43975   2.48242   2.49941   2.57661   2.57948
 Alpha virt. eigenvalues --    2.62948   2.65239   2.65800   2.67245   2.71665
 Alpha virt. eigenvalues --    2.73874   2.76903   2.77610   2.80163   2.87693
 Alpha virt. eigenvalues --    2.92517   2.93139   2.98170   3.04821   3.16760
 Alpha virt. eigenvalues --    3.21267   3.22431   3.44353   3.79570   4.21509
 Alpha virt. eigenvalues --    4.23261   4.24906   4.27603   4.33928   4.35913
 Alpha virt. eigenvalues --    4.38880   4.45585   4.51703   4.61431   4.61860
 Alpha virt. eigenvalues --    4.75049   4.81934   5.89199
          Condensed to atoms (all electrons):
               1          2          3          4          5          6
     1  C   10.104990  -1.183036   0.030611   0.772756  -3.430696  -0.361136
     2  C   -1.183036   7.790159   0.396280  -1.234267   0.772863  -0.686268
     3  C    0.030611   0.396280   5.319706   0.396156   0.030877  -0.607365
     4  C    0.772756  -1.234267   0.396156   7.788456  -1.181700  -0.685726
     5  C   -3.430696   0.772863   0.030877  -1.181700  10.104315  -0.361760
     6  C   -0.361136  -0.686268  -0.607365  -0.685726  -0.361760   8.711036
     7  H    0.278556  -0.059001   0.010242  -0.020273   0.045036   0.024367
     8  H   -0.032886   0.299278  -0.012603   0.035793  -0.022830   0.029758
     9  H   -0.022827   0.035795  -0.012610   0.299308  -0.032927   0.029775
    10  H    0.045051  -0.020283   0.010247  -0.059032   0.278575   0.024364
    11  C    0.028244   0.000833  -0.002139  -0.014703  -0.062686   0.001308
    12  C   -0.062790  -0.014754  -0.002144   0.000876   0.028324   0.001341
    13  C   -0.008916  -0.000949   0.001833  -0.001002  -0.009071   0.082203
    14  H   -0.001194   0.000015  -0.000014  -0.000004   0.003001  -0.004599
    15  H    0.002976  -0.000004  -0.000014   0.000016  -0.001176  -0.004590
    16  B   -0.022841   0.017407   0.014506   0.017389  -0.022646   0.472547
    17  H   -0.000970   0.000002  -0.000005  -0.000136   0.002786  -0.004293
    18  H    0.002808  -0.000139  -0.000005   0.000001  -0.000985  -0.004300
    19  C    0.006122   0.001938  -0.000004   0.001571   0.004789  -0.004300
    20  H    0.000471   0.000012  -0.000001  -0.000002  -0.000362  -0.000336
    21  H   -0.000395  -0.000003  -0.000001   0.000013   0.000494  -0.000323
    22  H    0.000326   0.000039   0.000003   0.000050   0.000444  -0.000263
    23  C    0.004814   0.001575  -0.000005   0.001921   0.006055  -0.004149
    24  H   -0.000362  -0.000002  -0.000001   0.000012   0.000472  -0.000335
    25  H    0.000494   0.000013  -0.000001  -0.000003  -0.000395  -0.000322
    26  H    0.000447   0.000050   0.000003   0.000039   0.000326  -0.000262
    27  O    0.014429   0.069124   0.000039  -0.012069  -0.005943  -0.123328
    28  O   -0.005933  -0.012077   0.000043   0.069103   0.014432  -0.123266
    29  F    0.013180  -0.152677   0.301670  -0.152676   0.013172  -0.035467
               7          8          9         10         11         12
     1  C    0.278556  -0.032886  -0.022827   0.045051   0.028244  -0.062790
     2  C   -0.059001   0.299278   0.035795  -0.020283   0.000833  -0.014754
     3  C    0.010242  -0.012603  -0.012610   0.010247  -0.002139  -0.002144
     4  C   -0.020273   0.035793   0.299308  -0.059032  -0.014703   0.000876
     5  C    0.045036  -0.022830  -0.032927   0.278575  -0.062686   0.028324
     6  C    0.024367   0.029758   0.029775   0.024364   0.001308   0.001341
     7  H    0.519935  -0.004084   0.000014  -0.000138   0.001429  -0.000392
     8  H   -0.004084   0.513948  -0.000138   0.000014   0.000017   0.000143
     9  H    0.000014  -0.000138   0.513944  -0.004083   0.000143   0.000017
    10  H   -0.000138   0.000014  -0.004083   0.519948  -0.000395   0.001428
    11  C    0.001429   0.000017   0.000143  -0.000395   6.189072   0.219768
    12  C   -0.000392   0.000143   0.000017   0.001428   0.219768   6.189295
    13  C   -0.001675  -0.000030  -0.000030  -0.001673  -0.559434  -0.559985
    14  H    0.000000   0.000000   0.000000   0.000001   0.471053   0.006066
    15  H    0.000001   0.000000   0.000000   0.000000   0.005928   0.470974
    16  B   -0.007175   0.000121   0.000120  -0.007166  -0.116682  -0.116741
    17  H    0.000000   0.000000   0.000000   0.000000   0.469700   0.005331
    18  H    0.000000   0.000000   0.000000   0.000000   0.005473   0.469778
    19  C   -0.000178  -0.000001  -0.000001  -0.000179  -0.121053  -0.119012
    20  H    0.000000   0.000000   0.000000   0.000000   0.021988  -0.016145
    21  H    0.000000   0.000000   0.000000   0.000000  -0.015844   0.021868
    22  H    0.000000   0.000000   0.000000   0.000000  -0.036699  -0.036884
    23  C   -0.000180  -0.000001  -0.000001  -0.000179  -0.118455  -0.120206
    24  H    0.000000   0.000000   0.000000   0.000000  -0.016241   0.021938
    25  H    0.000000   0.000000   0.000000   0.000000   0.021859  -0.015904
    26  H    0.000000   0.000000   0.000000   0.000000  -0.036868  -0.036641
    27  O    0.000968   0.000044   0.000138   0.008192   0.028497   0.051121
    28  O    0.008195   0.000138   0.000044   0.000968   0.051253   0.028504
    29  F   -0.000353  -0.004510  -0.004510  -0.000353  -0.000009  -0.000009
              13         14         15         16         17         18
     1  C   -0.008916  -0.001194   0.002976  -0.022841  -0.000970   0.002808
     2  C   -0.000949   0.000015  -0.000004   0.017407   0.000002  -0.000139
     3  C    0.001833  -0.000014  -0.000014   0.014506  -0.000005  -0.000005
     4  C   -0.001002  -0.000004   0.000016   0.017389  -0.000136   0.000001
     5  C   -0.009071   0.003001  -0.001176  -0.022646   0.002786  -0.000985
     6  C    0.082203  -0.004599  -0.004590   0.472547  -0.004293  -0.004300
     7  H   -0.001675   0.000000   0.000001  -0.007175   0.000000   0.000000
     8  H   -0.000030   0.000000   0.000000   0.000121   0.000000   0.000000
     9  H   -0.000030   0.000000   0.000000   0.000120   0.000000   0.000000
    10  H   -0.001673   0.000001   0.000000  -0.007166   0.000000   0.000000
    11  C   -0.559434   0.471053   0.005928  -0.116682   0.469700   0.005473
    12  C   -0.559985   0.006066   0.470974  -0.116741   0.005331   0.469778
    13  C    7.081902  -0.132058  -0.132037   0.184719  -0.131148  -0.131151
    14  H   -0.132058   0.548079  -0.000105  -0.007814  -0.044946  -0.000011
    15  H   -0.132037  -0.000105   0.548080  -0.007805  -0.000011  -0.044948
    16  B    0.184719  -0.007814  -0.007805   3.405067  -0.007841  -0.007849
    17  H   -0.131148  -0.044946  -0.000011  -0.007841   0.547955  -0.000105
    18  H   -0.131151  -0.000011  -0.044948  -0.007849  -0.000105   0.547955
    19  C    0.079719  -0.029292   0.044418  -0.058735   0.045132  -0.029297
    20  H   -0.053012  -0.000220   0.000045  -0.001004   0.000468   0.000641
    21  H   -0.053157   0.000646   0.000468  -0.001080   0.000018  -0.000219
    22  H   -0.032245   0.000050   0.000683  -0.003827   0.000689   0.000049
    23  C    0.079168   0.044350  -0.029204  -0.058811  -0.029259   0.044988
    24  H   -0.052968   0.000055  -0.000220  -0.001000   0.000640   0.000468
    25  H   -0.053060   0.000469   0.000642  -0.001080  -0.000219   0.000026
    26  H   -0.032353   0.000677   0.000050  -0.003856   0.000048   0.000684
    27  O   -0.006079  -0.059227  -0.000465   0.149972  -0.058989  -0.000431
    28  O   -0.006223  -0.000476  -0.059205   0.149980  -0.000420  -0.059010
    29  F    0.000004   0.000000   0.000000  -0.000483   0.000000   0.000000
              19         20         21         22         23         24
     1  C    0.006122   0.000471  -0.000395   0.000326   0.004814  -0.000362
     2  C    0.001938   0.000012  -0.000003   0.000039   0.001575  -0.000002
     3  C   -0.000004  -0.000001  -0.000001   0.000003  -0.000005  -0.000001
     4  C    0.001571  -0.000002   0.000013   0.000050   0.001921   0.000012
     5  C    0.004789  -0.000362   0.000494   0.000444   0.006055   0.000472
     6  C   -0.004300  -0.000336  -0.000323  -0.000263  -0.004149  -0.000335
     7  H   -0.000178   0.000000   0.000000   0.000000  -0.000180   0.000000
     8  H   -0.000001   0.000000   0.000000   0.000000  -0.000001   0.000000
     9  H   -0.000001   0.000000   0.000000   0.000000  -0.000001   0.000000
    10  H   -0.000179   0.000000   0.000000   0.000000  -0.000179   0.000000
    11  C   -0.121053   0.021988  -0.015844  -0.036699  -0.118455  -0.016241
    12  C   -0.119012  -0.016145   0.021868  -0.036884  -0.120206   0.021938
    13  C    0.079719  -0.053012  -0.053157  -0.032245   0.079168  -0.052968
    14  H   -0.029292  -0.000220   0.000646   0.000050   0.044350   0.000055
    15  H    0.044418   0.000045   0.000468   0.000683  -0.029204  -0.000220
    16  B   -0.058735  -0.001004  -0.001080  -0.003827  -0.058811  -0.001000
    17  H    0.045132   0.000468   0.000018   0.000689  -0.029259   0.000640
    18  H   -0.029297   0.000641  -0.000219   0.000049   0.044988   0.000468
    19  C    6.221915   0.407621   0.407911   0.415035  -0.406589  -0.027662
    20  H    0.407621   0.505555  -0.028679  -0.027842  -0.027687   0.000117
    21  H    0.407911  -0.028679   0.505592  -0.027847  -0.027947   0.001830
    22  H    0.415035  -0.027842  -0.027847   0.492198   0.023562   0.000022
    23  C   -0.406589  -0.027687  -0.027947   0.023562   6.220746   0.407700
    24  H   -0.027662   0.000117   0.001830   0.000022   0.407700   0.505571
    25  H   -0.027981   0.001836   0.000116   0.000022   0.407913  -0.028682
    26  H    0.023581   0.000023   0.000022  -0.000155   0.415080  -0.027844
    27  O   -0.017895  -0.000547  -0.000758   0.001606  -0.017440  -0.000745
    28  O   -0.017395  -0.000748  -0.000562   0.001588  -0.017946  -0.000548
    29  F    0.000000   0.000000   0.000000   0.000000   0.000000   0.000000
              25         26         27         28         29
     1  C    0.000494   0.000447   0.014429  -0.005933   0.013180
     2  C    0.000013   0.000050   0.069124  -0.012077  -0.152677
     3  C   -0.000001   0.000003   0.000039   0.000043   0.301670
     4  C   -0.000003   0.000039  -0.012069   0.069103  -0.152676
     5  C   -0.000395   0.000326  -0.005943   0.014432   0.013172
     6  C   -0.000322  -0.000262  -0.123328  -0.123266  -0.035467
     7  H    0.000000   0.000000   0.000968   0.008195  -0.000353
     8  H    0.000000   0.000000   0.000044   0.000138  -0.004510
     9  H    0.000000   0.000000   0.000138   0.000044  -0.004510
    10  H    0.000000   0.000000   0.008192   0.000968  -0.000353
    11  C    0.021859  -0.036868   0.028497   0.051253  -0.000009
    12  C   -0.015904  -0.036641   0.051121   0.028504  -0.000009
    13  C   -0.053060  -0.032353  -0.006079  -0.006223   0.000004
    14  H    0.000469   0.000677  -0.059227  -0.000476   0.000000
    15  H    0.000642   0.000050  -0.000465  -0.059205   0.000000
    16  B   -0.001080  -0.003856   0.149972   0.149980  -0.000483
    17  H   -0.000219   0.000048  -0.058989  -0.000420   0.000000
    18  H    0.000026   0.000684  -0.000431  -0.059010   0.000000
    19  C   -0.027981   0.023581  -0.017895  -0.017395   0.000000
    20  H    0.001836   0.000023  -0.000547  -0.000748   0.000000
    21  H    0.000116   0.000022  -0.000758  -0.000562   0.000000
    22  H    0.000022  -0.000155   0.001606   0.001588   0.000000
    23  C    0.407913   0.415080  -0.017440  -0.017946   0.000000
    24  H   -0.028682  -0.027844  -0.000745  -0.000548   0.000000
    25  H    0.505604  -0.027847  -0.000564  -0.000760   0.000000
    26  H   -0.027847   0.492169   0.001593   0.001615   0.000000
    27  O   -0.000564   0.001593   8.702119  -0.211358   0.000013
    28  O   -0.000760   0.001615  -0.211358   8.701992   0.000013
    29  F    0.000000   0.000000   0.000013   0.000013   9.388639
 Mulliken charges:
               1
     1  C   -0.172293
     2  C   -0.021923
     3  C    0.124692
     4  C   -0.021865
     5  C   -0.172783
     6  C   -0.364312
     7  H    0.204707
     8  H    0.197829
     9  H    0.197830
    10  H    0.204694
    11  C   -0.415359
    12  C   -0.415166
    13  C    0.448706
    14  H    0.205499
    15  H    0.205502
    16  B    1.042608
    17  H    0.205574
    18  H    0.205579
    19  C   -0.800178
    20  H    0.217809
    21  H    0.217835
    22  H    0.229397
    23  C   -0.799812
    24  H    0.217784
    25  H    0.217824
    26  H    0.229422
    27  O   -0.512014
    28  O   -0.511941
    29  F   -0.365645
 Sum of Mulliken charges =   0.00000
 Mulliken charges with hydrogens summed into heavy atoms:
               1
     1  C    0.032413
     2  C    0.175906
     3  C    0.124692
     4  C    0.175964
     5  C    0.031911
     6  C   -0.364312
    11  C   -0.004286
    12  C   -0.004084
    13  C    0.448706
    16  B    1.042608
    19  C   -0.135138
    23  C   -0.134782
    27  O   -0.512014
    28  O   -0.511941
    29  F   -0.365645
 Electronic spatial extent (au):  <R**2>=           7643.3786
 Charge=              0.0000 electrons
 Dipole moment (field-independent basis, Debye):
    X=             -4.9674    Y=              0.0301    Z=              0.0318  Tot=              4.9676
 Quadrupole moment (field-independent basis, Debye-Ang):
   XX=            -64.6014   YY=            -84.9928   ZZ=            -90.2452
   XY=             -2.9002   XZ=             -0.0930   YZ=             -1.0549
 Traceless Quadrupole moment (field-independent basis, Debye-Ang):
   XX=             15.3451   YY=             -5.0463   ZZ=            -10.2988
   XY=             -2.9002   XZ=             -0.0930   YZ=             -1.0549
 Octapole moment (field-independent basis, Debye-Ang**2):
  XXX=            526.9943  YYY=           -146.7554  ZZZ=             -0.5646  XYY=            243.7991
  XXY=            -36.2669  XXZ=              0.7156  XZZ=            243.2795  YZZ=            -51.7882
  YYZ=             -1.4625  XYZ=             -0.5206
 Hexadecapole moment (field-independent basis, Debye-Ang**3):
 XXXX=          -8177.7898 YYYY=           -771.4745 ZZZZ=           -307.1933 XXXY=            314.7239
 XXXZ=             13.9896 YYYX=            435.4609 YYYZ=             26.0666 ZZZX=             18.0069
 ZZZY=             36.8618 XXYY=          -1612.7300 XXZZ=          -1592.3398 YYZZ=           -187.7688
 XXYZ=             -0.3721 YYXZ=              5.1443 ZZXY=            144.7245
 N-N= 9.426052768575D+02 E-N=-3.523979855766D+03  KE= 6.961503550868D+02
 Evaluate density.
 Using the total density.
 Monte-Carlo method of calculating molar volume:
 based on  0.001 e/bohr**3 density envelope.
 Number of points per bohr**3 =   20 CutOff= 1.00D-04
 Using the SCF density.
 There are       420 points.  Will hold       420 in memory.
 LenV=  4026300418 MDV=  4026531840.
 Box volume = 9277.665 fraction occupied=0.167
 Integrated density= 5.2841443229265998D+01 error=-5.7158556770734002D+01
 Molar volume = 1546.278 bohr**3/mol (137.988 cm**3/mol)
 Recommended a0 for SCRF calculation =  4.68 angstrom (  8.84 bohr)
 Calling FoFJK, ICntrl=      2127 FMM=F ISym2X=0 I1Cent= 0 IOpClX= 0 NMat=1 NMatS=1 NMatT=0.
 -------------------------------------------------------------------
 Center     Atomic                   Forces (Hartrees/Bohr)
 Number     Number              X              Y              Z
 -------------------------------------------------------------------
      1        6           0.000946318    0.005048268   -0.001032080
      2        6           0.001104951    0.001917804   -0.000399341
      3        6           0.014764417   -0.000091952   -0.000089290
      4        6           0.001076242   -0.001926004    0.000384622
      5        6           0.000889822   -0.005066431    0.001016974
      6        6           0.006084643   -0.000040840   -0.000038267
      7        1           0.000080769   -0.001300394    0.000275194
      8        1           0.000875491   -0.001295756    0.000274727
      9        1           0.000889291    0.001284937   -0.000285504
     10        1           0.000095430    0.001302186   -0.000278438
     11        6           0.013956783   -0.007724526    0.001723498
     12        6           0.014012827    0.007552225   -0.001901273
     13        6           0.001221970   -0.000005167    0.000011614
     14        1           0.000681019    0.000334634    0.000088739
     15        1           0.000691465   -0.000334105   -0.000102766
     16        5          -0.025948698    0.000155566    0.000142888
     17        1           0.000753348    0.000256322   -0.000277259
     18        1           0.000741945   -0.000269581    0.000269983
     19        6           0.001922898    0.000662238    0.002806122
     20        1          -0.000297043   -0.000224463   -0.000170996
     21        1          -0.000271484    0.000098756   -0.000237470
     22        1           0.000007335   -0.000061309   -0.000246271
     23        6           0.001882242   -0.000685709   -0.002838729
     24        1          -0.000293595    0.000222463    0.000162808
     25        1          -0.000258422   -0.000101505    0.000243032
     26        1           0.000017500    0.000071268    0.000253984
     27        8          -0.007175672   -0.004494715    0.001053548
     28        8          -0.007160328    0.004582831   -0.000948514
     29        9          -0.021291464    0.000132959    0.000138468
 -------------------------------------------------------------------
 Cartesian Forces:  Max     0.025948698 RMS     0.004965061

 GradGradGradGradGradGradGradGradGradGradGradGradGradGradGradGradGradGrad
 Berny optimization.
 FormGI is forming the generalized inverse of G from B-inverse, IUseBI=4.
 Internal  Forces:  Max     0.021292330 RMS     0.003181092
 Search for a local minimum.
 Step number   1 out of a maximum of  167
 All quantities printed in internal units (Hartrees-Bohrs-Radians)
 Mixed Optimization -- RFO/linear search
 Second derivative matrix not updated -- first step.
 ITU=  0
     Eigenvalues ---    0.00230   0.00230   0.00282   0.00637   0.00820
     Eigenvalues ---    0.01461   0.01548   0.01975   0.02032   0.02046
     Eigenvalues ---    0.02100   0.02152   0.02153   0.02159   0.02179
     Eigenvalues ---    0.02197   0.03251   0.03897   0.04147   0.05199
     Eigenvalues ---    0.05415   0.05447   0.05447   0.05463   0.05463
     Eigenvalues ---    0.05741   0.06432   0.11295   0.12217   0.12218
     Eigenvalues ---    0.12810   0.14361   0.16000   0.16000   0.16000
     Eigenvalues ---    0.16000   0.16000   0.16000   0.16000   0.16000
     Eigenvalues ---    0.16000   0.16000   0.16006   0.22000   0.22985
     Eigenvalues ---    0.23400   0.24000   0.24802   0.25000   0.25000
     Eigenvalues ---    0.25000   0.25564   0.25793   0.27673   0.27778
     Eigenvalues ---    0.27783   0.34048   0.34050   0.34056   0.34056
     Eigenvalues ---    0.34065   0.34065   0.34317   0.34319   0.34323
     Eigenvalues ---    0.34324   0.35434   0.35434   0.35605   0.35605
     Eigenvalues ---    0.36178   0.37428   0.41234   0.41436   0.44535
     Eigenvalues ---    0.45895   0.46032   0.46519   0.46582   0.46856
     Eigenvalues ---    0.48616
 RFO step:  Lambda=-4.04336506D-03 EMin= 2.30000000D-03
 Linear search not attempted -- first point.
 Iteration  1 RMS(Cart)=  0.01765984 RMS(Int)=  0.00003870
 Iteration  2 RMS(Cart)=  0.00003960 RMS(Int)=  0.00001058
 Iteration  3 RMS(Cart)=  0.00000001 RMS(Int)=  0.00001058
 Variable       Old X    -DE/DX   Delta X   Delta X   Delta X     New X
                                 (Linear)    (Quad)   (Total)
    R1        2.64095  -0.00127   0.00000  -0.00274  -0.00274   2.63821
    R2        2.66513  -0.00210   0.00000  -0.00467  -0.00467   2.66046
    R3        2.04976   0.00110   0.00000   0.00308   0.00308   2.05284
    R4        2.63019  -0.00349   0.00000  -0.00742  -0.00741   2.62278
    R5        2.04704   0.00159   0.00000   0.00441   0.00441   2.05145
    R6        2.63019  -0.00349   0.00000  -0.00742  -0.00741   2.62277
    R7        2.63481  -0.02129   0.00000  -0.04532  -0.04532   2.58949
    R8        2.64097  -0.00128   0.00000  -0.00276  -0.00276   2.63820
    R9        2.04704   0.00159   0.00000   0.00441   0.00441   2.05145
   R10        2.66513  -0.00210   0.00000  -0.00468  -0.00469   2.66044
   R11        2.04976   0.00110   0.00000   0.00308   0.00308   2.05284
   R12        2.92859   0.00552   0.00000   0.01965   0.01965   2.94823
   R13        2.97140  -0.00484   0.00000  -0.01595  -0.01598   2.95542
   R14        2.06795   0.00015   0.00000   0.00043   0.00043   2.06838
   R15        2.06788   0.00017   0.00000   0.00049   0.00049   2.06837
   R16        2.75179  -0.01755   0.00000  -0.04653  -0.04653   2.70526
   R17        2.97142  -0.00485   0.00000  -0.01600  -0.01602   2.95540
   R18        2.06798   0.00014   0.00000   0.00041   0.00041   2.06839
   R19        2.06787   0.00018   0.00000   0.00051   0.00051   2.06837
   R20        2.75181  -0.01756   0.00000  -0.04656  -0.04656   2.70526
   R21        2.92616  -0.00258   0.00000  -0.00916  -0.00916   2.91700
   R22        2.92626  -0.00260   0.00000  -0.00924  -0.00924   2.91703
   R23        2.60771  -0.01145   0.00000  -0.02450  -0.02447   2.58324
   R24        2.60771  -0.01144   0.00000  -0.02448  -0.02445   2.58325
   R25        2.07221   0.00032   0.00000   0.00094   0.00094   2.07315
   R26        2.07236   0.00028   0.00000   0.00082   0.00082   2.07318
   R27        2.07249   0.00022   0.00000   0.00063   0.00063   2.07312
   R28        2.07221   0.00032   0.00000   0.00094   0.00094   2.07315
   R29        2.07236   0.00028   0.00000   0.00082   0.00082   2.07317
   R30        2.07246   0.00023   0.00000   0.00066   0.00066   2.07313
    A1        2.11533   0.00092   0.00000   0.00429   0.00429   2.11961
    A2        2.09254  -0.00122   0.00000  -0.00680  -0.00680   2.08574
    A3        2.07532   0.00031   0.00000   0.00252   0.00252   2.07783
    A4        2.06233  -0.00128   0.00000  -0.00577  -0.00577   2.05657
    A5        2.13096   0.00070   0.00000   0.00324   0.00324   2.13420
    A6        2.08989   0.00058   0.00000   0.00253   0.00253   2.09242
    A7        2.14365   0.00194   0.00000   0.00750   0.00750   2.15115
    A8        2.06976  -0.00097   0.00000  -0.00374  -0.00374   2.06602
    A9        2.06977  -0.00097   0.00000  -0.00375  -0.00376   2.06602
   A10        2.06233  -0.00128   0.00000  -0.00577  -0.00577   2.05656
   A11        2.08991   0.00058   0.00000   0.00252   0.00252   2.09243
   A12        2.13094   0.00070   0.00000   0.00325   0.00325   2.13419
   A13        2.11532   0.00092   0.00000   0.00431   0.00430   2.11962
   A14        2.09257  -0.00123   0.00000  -0.00683  -0.00683   2.08574
   A15        2.07529   0.00031   0.00000   0.00253   0.00253   2.07782
   A16        2.06740  -0.00123   0.00000  -0.00455  -0.00455   2.06285
   A17        2.10780   0.00063   0.00000   0.00235   0.00235   2.11015
   A18        2.10798   0.00059   0.00000   0.00220   0.00220   2.11018
   A19        1.91283   0.00062   0.00000   0.00407   0.00407   1.91691
   A20        1.91281   0.00066   0.00000   0.00418   0.00419   1.91700
   A21        2.05718  -0.00015   0.00000   0.00339   0.00336   2.06054
   A22        1.88295  -0.00016   0.00000   0.00065   0.00061   1.88356
   A23        1.84466  -0.00050   0.00000  -0.00610  -0.00610   1.83856
   A24        1.84542  -0.00055   0.00000  -0.00689  -0.00688   1.83854
   A25        1.91288   0.00063   0.00000   0.00411   0.00411   1.91699
   A26        1.91277   0.00066   0.00000   0.00414   0.00415   1.91691
   A27        2.05719  -0.00015   0.00000   0.00339   0.00336   2.06055
   A28        1.88290  -0.00016   0.00000   0.00069   0.00065   1.88355
   A29        1.84478  -0.00051   0.00000  -0.00618  -0.00618   1.83860
   A30        1.84534  -0.00054   0.00000  -0.00684  -0.00683   1.83851
   A31        2.00113  -0.00107   0.00000  -0.00261  -0.00264   1.99849
   A32        1.88945   0.00038   0.00000   0.00082   0.00083   1.89028
   A33        1.88969   0.00036   0.00000   0.00081   0.00082   1.89051
   A34        1.88964   0.00036   0.00000   0.00078   0.00079   1.89044
   A35        1.88949   0.00038   0.00000   0.00080   0.00081   1.89030
   A36        1.90277  -0.00043   0.00000  -0.00057  -0.00058   1.90219
   A37        2.08481  -0.00362   0.00000  -0.01208  -0.01210   2.07272
   A38        2.08468  -0.00359   0.00000  -0.01196  -0.01198   2.07270
   A39        2.11369   0.00721   0.00000   0.02403   0.02408   2.13776
   A40        1.93546   0.00028   0.00000   0.00173   0.00173   1.93719
   A41        1.93557   0.00027   0.00000   0.00170   0.00170   1.93727
   A42        1.93443   0.00007   0.00000   0.00034   0.00034   1.93477
   A43        1.88010  -0.00026   0.00000  -0.00142  -0.00142   1.87868
   A44        1.88825  -0.00020   0.00000  -0.00130  -0.00130   1.88695
   A45        1.88811  -0.00019   0.00000  -0.00124  -0.00124   1.88687
   A46        1.93555   0.00026   0.00000   0.00165   0.00165   1.93720
   A47        1.93559   0.00026   0.00000   0.00166   0.00166   1.93724
   A48        1.93440   0.00008   0.00000   0.00037   0.00037   1.93478
   A49        1.88007  -0.00025   0.00000  -0.00137  -0.00138   1.87869
   A50        1.88819  -0.00019   0.00000  -0.00126  -0.00127   1.88693
   A51        1.88811  -0.00019   0.00000  -0.00122  -0.00122   1.88689
   A52        2.16860  -0.00292   0.00000  -0.01412  -0.01409   2.15451
   A53        2.16857  -0.00292   0.00000  -0.01409  -0.01407   2.15451
    D1        0.00096  -0.00001   0.00000  -0.00048  -0.00048   0.00048
    D2       -3.14061  -0.00001   0.00000  -0.00053  -0.00053  -3.14114
    D3       -3.14093   0.00000   0.00000   0.00010   0.00010  -3.14083
    D4        0.00068   0.00000   0.00000   0.00005   0.00005   0.00073
    D5       -0.00054   0.00001   0.00000   0.00031   0.00031  -0.00024
    D6        3.14083   0.00001   0.00000   0.00046   0.00046   3.14129
    D7        3.14134  -0.00001   0.00000  -0.00027  -0.00027   3.14108
    D8       -0.00046   0.00000   0.00000  -0.00012  -0.00012  -0.00058
    D9       -0.00043   0.00000   0.00000   0.00018   0.00018  -0.00025
   D10        3.14110   0.00001   0.00000   0.00027   0.00027   3.14137
   D11        3.14115   0.00001   0.00000   0.00023   0.00023   3.14138
   D12       -0.00051   0.00001   0.00000   0.00032   0.00032  -0.00019
   D13       -0.00051   0.00001   0.00000   0.00029   0.00028  -0.00023
   D14        3.14109   0.00001   0.00000   0.00030   0.00030   3.14139
   D15        3.14114   0.00001   0.00000   0.00020   0.00020   3.14134
   D16       -0.00044   0.00001   0.00000   0.00021   0.00021  -0.00023
   D17        0.00095  -0.00001   0.00000  -0.00046  -0.00046   0.00049
   D18       -3.14086   0.00000   0.00000  -0.00001  -0.00001  -3.14087
   D19       -3.14066  -0.00001   0.00000  -0.00047  -0.00047  -3.14113
   D20        0.00072   0.00000   0.00000  -0.00002  -0.00002   0.00070
   D21       -0.00044   0.00000   0.00000   0.00017   0.00017  -0.00026
   D22        3.14137   0.00000   0.00000   0.00002   0.00002   3.14140
   D23        3.14137  -0.00001   0.00000  -0.00028  -0.00028   3.14109
   D24       -0.00001  -0.00001   0.00000  -0.00042  -0.00042  -0.00043
   D25       -3.12594  -0.00007   0.00000  -0.00605  -0.00604  -3.13198
   D26        0.01540  -0.00006   0.00000  -0.00562  -0.00563   0.00978
   D27        0.01543  -0.00006   0.00000  -0.00590  -0.00589   0.00954
   D28       -3.12641  -0.00005   0.00000  -0.00547  -0.00548  -3.13189
   D29       -2.11256   0.00026   0.00000   0.00190   0.00191  -2.11065
   D30        2.05925   0.00022   0.00000   0.00202   0.00203   2.06128
   D31       -0.00120   0.00032   0.00000   0.00180   0.00181   0.00061
   D32        2.10739  -0.00031   0.00000  -0.00379  -0.00380   2.10359
   D33       -0.00399  -0.00035   0.00000  -0.00368  -0.00369  -0.00767
   D34       -2.06444  -0.00025   0.00000  -0.00390  -0.00390  -2.06835
   D35       -0.00309  -0.00001   0.00000  -0.00046  -0.00046  -0.00355
   D36       -2.11446  -0.00005   0.00000  -0.00035  -0.00035  -2.11481
   D37        2.10827   0.00005   0.00000  -0.00057  -0.00057   2.10770
   D38        0.00517   0.00000   0.00000   0.00043   0.00043   0.00560
   D39        2.14953   0.00031   0.00000   0.00314   0.00311   2.15265
   D40       -2.13978  -0.00033   0.00000  -0.00179  -0.00176  -2.14155
   D41       -2.11080   0.00027   0.00000   0.00267   0.00267  -2.10813
   D42        0.00047   0.00032   0.00000   0.00257   0.00258   0.00305
   D43        2.06092   0.00022   0.00000   0.00276   0.00277   2.06369
   D44        2.10921  -0.00030   0.00000  -0.00308  -0.00308   2.10613
   D45       -2.06271  -0.00025   0.00000  -0.00317  -0.00318  -2.06589
   D46       -0.00226  -0.00035   0.00000  -0.00298  -0.00299  -0.00524
   D47       -0.00112   0.00000   0.00000   0.00022   0.00022  -0.00090
   D48        2.11014   0.00005   0.00000   0.00013   0.00013   2.11027
   D49       -2.11259  -0.00005   0.00000   0.00031   0.00031  -2.11228
   D50        0.00409  -0.00001   0.00000  -0.00006  -0.00006   0.00403
   D51        2.14861   0.00031   0.00000   0.00263   0.00261   2.15122
   D52       -2.14075  -0.00033   0.00000  -0.00226  -0.00224  -2.14299
   D53       -3.09548  -0.00043   0.00000  -0.00134  -0.00135  -3.09683
   D54       -1.00738  -0.00040   0.00000  -0.00087  -0.00088  -1.00826
   D55        1.09011  -0.00042   0.00000  -0.00107  -0.00108   1.08903
   D56        1.00857   0.00041   0.00000   0.00086   0.00087   1.00944
   D57        3.09667   0.00043   0.00000   0.00133   0.00134   3.09801
   D58       -1.08902   0.00042   0.00000   0.00112   0.00113  -1.08789
   D59       -1.04339  -0.00002   0.00000  -0.00022  -0.00022  -1.04361
   D60        1.04471   0.00001   0.00000   0.00025   0.00025   1.04496
   D61       -3.14099   0.00000   0.00000   0.00004   0.00004  -3.14094
   D62        1.00738   0.00041   0.00000   0.00187   0.00188   1.00926
   D63        3.09551   0.00044   0.00000   0.00231   0.00233   3.09783
   D64       -1.09019   0.00043   0.00000   0.00212   0.00213  -1.08806
   D65       -3.09662  -0.00042   0.00000  -0.00032  -0.00033  -3.09695
   D66       -1.00849  -0.00040   0.00000   0.00012   0.00011  -1.00837
   D67        1.08900  -0.00041   0.00000  -0.00007  -0.00008   1.08892
   D68       -1.04456  -0.00001   0.00000   0.00074   0.00074  -1.04381
   D69        1.04357   0.00001   0.00000   0.00119   0.00119   1.04477
   D70        3.14106   0.00000   0.00000   0.00100   0.00100  -3.14113
   D71        3.13884   0.00000   0.00000   0.00020   0.00020   3.13904
   D72       -0.00250  -0.00001   0.00000  -0.00022  -0.00023  -0.00272
   D73        3.13939  -0.00001   0.00000  -0.00041  -0.00041   3.13897
   D74       -0.00246   0.00000   0.00000   0.00001   0.00001  -0.00245
         Item               Value     Threshold  Converged?
 Maximum Force            0.021292     0.000450     NO 
 RMS     Force            0.003181     0.000300     NO 
 Maximum Displacement     0.094983     0.001800     NO 
 RMS     Displacement     0.017650     0.001200     NO 
 Predicted change in Energy=-2.044441D-03
 GradGradGradGradGradGradGradGradGradGradGradGradGradGradGradGradGradGrad

                          Input orientation:                          
 ---------------------------------------------------------------------
 Center     Atomic      Atomic             Coordinates (Angstroms)
 Number     Number       Type             X           Y           Z
 ---------------------------------------------------------------------
      1          6           0       -0.772454   -0.619919    0.236631
      2          6           0        0.623447   -0.641358    0.230270
      3          6           0        1.288677    0.550052   -0.023344
      4          6           0        0.634809    1.749455   -0.268683
      5          6           0       -0.761216    1.744939   -0.257506
      6          6           0       -1.489874    0.566902   -0.005888
      7          1           0       -1.320707   -1.536977    0.432864
      8          1           0        1.190203   -1.548611    0.415099
      9          1           0        1.210148    2.649790   -0.460685
     10          1           0       -1.300734    2.668598   -0.446877
     11          6           0       -5.128331    1.873163   -0.267474
     12          6           0       -5.140289   -0.695284    0.301469
     13          6           0       -5.980262    0.594261    0.023274
     14          1           0       -5.362265    2.650082    0.467159
     15          1           0       -5.392938   -1.468308   -0.431080
     16          5           0       -3.049953    0.576329    0.003843
     17          1           0       -5.372190    2.264077   -1.260312
     18          1           0       -5.376267   -1.084584    1.296841
     19          6           0       -6.887485    0.328327   -1.196952
     20          1           0       -7.539375   -0.536333   -1.021021
     21          1           0       -7.530455    1.192656   -1.404573
     22          1           0       -6.287599    0.126502   -2.093007
     23          6           0       -6.866001    0.871419    1.256735
     24          1           0       -7.509401    1.744305    1.090442
     25          1           0       -7.516734    0.015252    1.473754
     26          1           0       -6.250494    1.065455    2.143877
     27          8           0       -3.702126    1.750940   -0.248382
     28          8           0       -3.713063   -0.590309    0.264472
     29          9           0        2.658925    0.541742   -0.031972
 ---------------------------------------------------------------------
                    Distance matrix (angstroms):
                    1          2          3          4          5
     1  C    0.000000
     2  C    1.396080   0.000000
     3  C    2.384257   1.387915   0.000000
     4  C    2.801726   2.442349   1.387912   0.000000
     5  C    2.415958   2.801719   2.384250   1.396078   0.000000
     6  C    1.407853   2.445769   2.778656   2.445766   1.407844
     7  H    1.086316   2.150095   3.372343   3.888039   3.400090
     8  H    2.178610   1.085580   2.146233   3.413687   3.886889
     9  H    3.886896   3.413692   2.146237   1.085579   2.178604
    10  H    3.400090   3.888034   3.372338   2.150094   1.086318
    11  C    5.044130   6.297104   6.556540   5.764468   4.369008
    12  C    4.368966   5.764428   6.556521   6.297109   5.044147
    13  C    5.351730   6.721501   7.269223   6.721524   5.351760
    14  H    5.640250   6.835089   6.991834   6.108805   4.744900
    15  H    4.744941   6.108855   6.991709   6.834772   5.639852
    16  B    2.583060   3.876583   4.338794   3.876592   2.583073
    17  H    5.631682   6.827228   6.988212   6.110008   4.747231
    18  H    4.747109   6.109876   6.988304   6.827567   5.632129
    19  C    6.352003   7.706578   8.262938   7.711433   6.357714
    20  H    6.883305   8.258839   8.950424   8.521041   7.192399
    21  H    7.186762   8.516010   8.949738   8.262676   6.887915
    22  H    6.033339   7.331424   7.865294   7.340427   6.043948
    23  C    6.355785   7.709341   8.260789   7.704544   6.350146
    24  H    7.190619   8.519066   8.948348   8.256840   6.881494
    25  H    6.886162   8.260746   8.947769   8.514177   7.185130
    26  H    6.040446   7.336631   7.861398   7.327735   6.029967
    27  O    3.799894   4.966163   5.138180   4.336984   2.940930
    28  O    2.940890   4.336945   5.138158   4.966160   3.799901
    29  F    3.632626   2.368896   1.370301   2.368892   3.632618
                    6          7          8          9         10
     6  C    0.000000
     7  H    2.155789   0.000000
     8  H    3.440267   2.511000   0.000000
     9  H    3.440259   4.973195   4.288819   0.000000
    10  H    2.155776   4.296650   4.973191   2.510991   0.000000
    11  C    3.874676   5.159218   7.217917   6.388802   3.913489
    12  C    3.874676   3.913429   6.388757   7.217925   5.159254
    13  C    4.490566   5.140175   7.494064   7.494092   5.140223
    14  H    4.422537   5.819522   7.782453   6.637583   4.163152
    15  H    4.422304   4.163434   6.637786   7.782053   5.818966
    16  B    1.560138   2.764130   4.760612   4.760618   2.764146
    17  H    4.418864   5.807700   7.772297   6.641938   4.171578
    18  H    4.419113   4.171173   6.641635   7.772728   5.808346
    19  C    5.532609   6.093003   8.448115   8.455941   6.103382
    20  H    6.232503   6.464279   8.904644   9.328425   7.037177
    21  H    6.231894   7.027663   9.320710   8.911358   6.473408
    22  H    5.250541   5.815256   8.063134   8.077603   5.834451
    23  C    5.530794   6.101592   8.453834   8.446082   6.091332
    24  H    6.230805   7.035564   9.326441   8.902608   6.462601
    25  H    6.230305   6.471756   8.909387   9.318868   7.026216
    26  H    5.247242   5.831211   8.073784   8.059468   5.812245
    27  O    2.520875   4.116510   5.938193   4.998344   2.578407
    28  O    2.520873   2.578353   4.998305   5.938190   4.116530
    29  F    4.148957   4.513825   2.593568   2.593572   4.513819
                   11         12         13         14         15
    11  C    0.000000
    12  C    2.630733   0.000000
    13  C    1.563941   1.563928   0.000000
    14  H    1.094538   3.356813   2.192112   0.000000
    15  H    3.355922   1.094544   2.192163   4.215319   0.000000
    16  B    2.464762   2.464769   2.930429   3.140367   3.139948
    17  H    1.094535   3.354215   2.192176   1.770100   3.823449
    18  H    3.355119   1.094535   2.192100   3.825741   1.770095
    19  C    2.518943   2.519075   1.543608   3.238226   2.459295
    20  H    3.490937   2.744059   2.190806   4.136149   2.413256
    21  H    2.743407   3.491101   2.190873   3.213801   3.549282
    22  H    2.779802   2.779419   2.189041   3.712027   2.471000
    23  C    2.519167   2.518962   1.543624   2.459327   3.239283
    24  H    2.744091   3.490954   2.190825   2.412282   4.137068
    25  H    3.491157   2.743465   2.190865   3.549267   3.215564
    26  H    2.779615   2.779788   2.189065   2.472120   3.712918
    27  O    1.431559   2.890442   2.569359   2.019038   3.640849
    28  O    2.890441   1.431559   2.569353   3.641577   2.019072
    29  F    7.903765   7.903743   8.639524   8.308654   8.308555
                   16         17         18         19         20
    16  B    0.000000
    17  H    3.136777   0.000000
    18  H    3.137230   4.213381   0.000000
    19  C    4.028656   2.459119   3.240232   0.000000
    20  H    4.737434   3.549120   3.217469   1.097064   0.000000
    21  H    4.736918   2.413890   4.138114   1.097079   1.771044
    22  H    3.883488   2.469936   3.713264   1.097047   1.776358
    23  C    4.027287   3.241372   2.459037   2.513163   2.761045
    24  H    4.736195   3.219299   3.549010   2.761149   3.108132
    25  H    4.735777   4.139010   2.412993   2.761637   2.555125
    26  H    3.881038   3.714380   2.470710   3.479979   3.774059
    27  O    1.366989   2.019016   3.637397   3.615263   4.533549
    28  O    1.366999   3.636645   2.018995   3.613393   4.036839
    29  F    5.709095   8.305062   8.305118   9.619599  10.302708
                   21         22         23         24         25
    21  H    0.000000
    22  H    1.776321   0.000000
    23  C    2.761748   3.479974   0.000000
    24  H    2.555359   3.774180   1.097063   0.000000
    25  H    3.109861   3.774247   1.097075   1.771047   0.000000
    26  H    3.774384   4.339838   1.097051   1.776347   1.776332
    27  O    4.037890   3.567368   3.612344   4.035819   4.530960
    28  O    4.531794   3.563672   3.614173   4.532641   4.036952
    29  F   10.301999   9.190244   9.617362  10.300526  10.299924
                   26         27         28         29
    26  H    0.000000
    27  O    3.561877   0.000000
    28  O    3.565427   2.396787   0.000000
    29  F    9.186204   6.478578   6.478553   0.000000
 Symmetry turned off by external request.
 Stoichiometry    C11H14BFO2
 Framework group  C1[X(C11H14BFO2)]
 Deg. of freedom    81
 Full point group                 C1      NOp   1
 Rotational constants (GHZ):           2.0064443           0.2441916           0.2289661
 Standard basis: 6-31+G(d) (6D, 7F)
   313 basis functions,   536 primitive gaussians,   313 cartesian basis functions
    55 alpha electrons       55 beta electrons
       nuclear repulsion energy       947.7214982114 Hartrees.
 NAtoms=   29 NActive=   29 NUniq=   29 SFac= 1.00D+00 NAtFMM=   60 NAOKFM=F Big=F
 Integral buffers will be    131072 words long.
 Raffenetti 2 integral format.
 Two-electron integral symmetry is turned off.
 Nuclear repulsion after empirical dispersion term =      947.6958602501 Hartrees.
 One-electron integrals computed using PRISM.
 NBasis=   313 RedAO= T EigKep=  2.95D-06  NBF=   313
 NBsUse=   313 1.00D-06 EigRej= -1.00D+00 NBFU=   313
 Initial guess from the checkpoint file:  "MOLECULE_14.chk"
 B after Tr=    -0.014272    0.000122    0.000323
         Rot=    1.000000   -0.000014    0.000027   -0.000006 Ang=   0.00 deg.
 ExpMin= 3.15D-02 ExpMax= 7.00D+03 ExpMxC= 1.05D+03 IAcc=3 IRadAn=         5 AccDes= 0.00D+00
 Harris functional with IExCor=  402 and IRadAn=       5 diagonalized for initial guess.
 HarFok:  IExCor=  402 AccDes= 0.00D+00 IRadAn=         5 IDoV= 1 UseB2=F ITyADJ=14
 ICtDFT=  3500011 ScaDFX=  1.000000  1.000000  1.000000  1.000000
 FoFCou: FMM=F IPFlag=           0 FMFlag=      100000 FMFlg1=           0
         NFxFlg=           0 DoJE=T BraDBF=F KetDBF=T FulRan=T
         wScrn=  0.000000 ICntrl=       500 IOpCl=  0 I1Cent=   200000004 NGrid=           0
         NMat0=    1 NMatS0=      1 NMatT0=    0 NMatD0=    1 NMtDS0=    0 NMtDT0=    0
 Symmetry not used in FoFCou.
 Requested convergence on RMS density matrix=1.00D-08 within 128 cycles.
 Requested convergence on MAX density matrix=1.00D-06.
 Requested convergence on             energy=1.00D-06.
 No special actions if energy rises.
 SCF Done:  E(RB3LYP) =  -702.894651006     A.U. after   10 cycles
            NFock= 10  Conv=0.87D-08     -V/T= 2.0093
 Calling FoFJK, ICntrl=      2127 FMM=F ISym2X=0 I1Cent= 0 IOpClX= 0 NMat=1 NMatS=1 NMatT=0.
 -------------------------------------------------------------------
 Center     Atomic                   Forces (Hartrees/Bohr)
 Number     Number              X              Y              Z
 -------------------------------------------------------------------
      1        6          -0.000377265    0.000628077   -0.000080409
      2        6          -0.001224402   -0.000666266    0.000145361
      3        6           0.008479363   -0.000052821   -0.000054862
      4        6          -0.001219139    0.000683848   -0.000127517
      5        6          -0.000387521   -0.000617217    0.000087628
      6        6           0.001346408   -0.000017683   -0.000017723
      7        1           0.000012826   -0.000249155    0.000039531
      8        1           0.000034027    0.000145842   -0.000022620
      9        1           0.000033200   -0.000146591    0.000022234
     10        1           0.000016576    0.000248265   -0.000041916
     11        6           0.005507091   -0.000429439    0.000017770
     12        6           0.005512519    0.000352151   -0.000118253
     13        6          -0.001109089    0.000009406    0.000021639
     14        1          -0.001558387    0.000617716   -0.000149970
     15        1          -0.001558109   -0.000595474    0.000161119
     16        5          -0.004286863    0.000024931    0.000042822
     17        1          -0.001559054    0.000621094   -0.000127877
     18        1          -0.001567435   -0.000607658    0.000141089
     19        6           0.000019632    0.000131572    0.000520195
     20        1          -0.000069820   -0.000044213   -0.000173497
     21        1          -0.000067674   -0.000036859   -0.000178730
     22        1          -0.000114797   -0.000051961   -0.000215001
     23        6           0.000014729   -0.000124984   -0.000515114
     24        1          -0.000067428    0.000043906    0.000174406
     25        1          -0.000063339    0.000038204    0.000181620
     26        1          -0.000111684    0.000053016    0.000217411
     27        8          -0.000406634   -0.002766166    0.000682298
     28        8          -0.000381787    0.002778908   -0.000663340
     29        9          -0.004845943    0.000029553    0.000031705
 -------------------------------------------------------------------
 Cartesian Forces:  Max     0.008479363 RMS     0.001560273

[...]
 0083408,0.00009097,-0.00066484,0.00083536,-0.00035445,-0.00055428,-0.0
 0612927,-0.00079078,-0.00378002,0.58367709,-0.00004509,-0.00008622,0.0
 0001916,-0.00006367,0.00002990,-0.00002168,-0.00000016,0.00004181,-0.0
 0000785,0.00005930,0.00003421,0.00001247,0.00002809,-0.00009070,0.0000
 0044,-0.00002260,0.00033034,-0.00011125,-0.00003722,0.00004254,-0.0000
 0354,-0.00000690,-0.00000135,-0.00000261,0.00000519,-0.00000016,0.0000
 0404,0.00004074,0.00004454,-0.00000803,0.00154604,0.00414038,0.0257230
 7,0.00079362,-0.01180042,-0.03235860,-0.00090338,-0.08186926,-0.019075
 39,-0.00011797,0.00062222,0.00134002,0.00342817,-0.00480571,-0.0016197
 9,0.00026942,-0.00328954,0.00087366,-0.00312073,-0.00349233,0.00376984
 ,-0.00008537,0.00065222,-0.00126261,-0.00150826,-0.00056492,-0.0036843
 2,-0.00023667,-0.00014291,-0.00099100,0.00081373,0.00029290,0.00128671
 ,-0.00011443,-0.00007254,0.00012005,0.00063227,0.57654182,-0.00003079,
 0.00001059,-0.00004968,0.00000263,0.00000288,0.00001485,-0.00000351,-0
 .00000780,0.00000702,-0.00002384,-0.00001133,0.00001050,-0.00004569,0.
 00000769,-0.00004548,-0.00010785,-0.00011157,-0.00016626,0.00001590,-0
 .00001317,0.00001989,-0.00000268,0.00000133,0.00000321,-0.00000526,0.0
 0000022,0.00000200,-0.00000063,0.00000206,0.00001731,0.00542448,0.0030
 0264,-0.02620489,0.00554162,-0.00955275,-0.01027301,-0.00419808,-0.019
 03836,-0.16640312,-0.00046768,-0.00131846,0.00084598,0.00005441,0.0009
 5546,0.00127666,0.00129226,0.00087583,0.00062108,0.00146516,0.00119749
 ,0.00000476,-0.00046626,0.00140432,0.00081058,-0.00708234,-0.00378934,
 -0.01748514,0.00145991,0.00030262,0.00093937,0.00123674,-0.00001711,0.
 00050729,-0.00063255,0.00010922,0.00039782,0.00305952,-0.02480694,0.46
 645775,0.00001743,-0.00000693,0.00002653,0.00000160,-0.00003435,-0.000
 00043,0.00006384,-0.00000030,0.00001592,-0.00004322,-0.00001142,-0.000
 02411,0.00000648,0.00009659,-0.00002218,-0.00006576,-0.00009398,0.0000
 6292,0.00002327,-0.00002727,-0.00000129,-0.00000241,0.00000256,-0.0000
 0206,-0.00001484,-0.00000280,0.00000132,-0.00000444,-0.00000755,0.0000
 2902,-0.00035350,0.00113323,0.00015353,-0.00010893,-0.00085297,-0.0005
 4395,-0.00087654,-0.00098409,-0.00006159,0.00001938,-0.00047426,0.0004
 6080,0.00016340,0.00004636,-0.00008145,0.00072113,0.00089021,-0.000872
 63,0.00007293,-0.00026516,-0.00002285,-0.00001649,0.00020197,-0.000143
 51,0.00045315,-0.00104020,-0.00053032,-0.00000155,-0.00008091,0.000026
 18,0.00013407,0.00003821,-0.00036275,0.00000303,-0.00001545,0.00021500
 ,-0.10552527,0.10584187,0.02062151,0.11038838,-0.00001930,-0.00000006,
 -0.00001018,0.00001415,0.00003363,-0.00000322,-0.00008010,-0.00000427,
 -0.00001542,0.00003479,-0.00000573,0.00001112,0.00000240,-0.00004979,0
 .00001349,0.00009443,0.00009233,0.00000071,-0.00002438,0.00001865,-0.0
 0000390,0.00000285,-0.00000438,0.00000104,0.00001042,0.00000413,-0.000
 00159,-0.00000722,0.00000059,-0.00000545,-0.00041474,0.00034901,0.0008
 8402,-0.00128917,0.00076838,-0.00183311,0.00302119,-0.00693850,-0.0006
 8573,0.00012149,0.00057731,-0.00005020,0.00049595,-0.00028395,-0.00038
 555,-0.00049322,-0.00066208,0.00010829,-0.00009899,0.00027549,-0.00005
 242,-0.00005971,0.00053612,0.00010804,0.00034590,-0.00004363,0.0005111
 2,0.00007622,-0.00011392,-0.00004722,-0.00067224,0.00035206,-0.0004485
 8,-0.00023837,0.00030054,0.00006069,0.10560148,-0.24563778,-0.03774140
 ,-0.11694457,0.26585212,-0.00000016,-0.00000894,0.00001575,-0.00000778
 ,0.00000503,0.00000408,0.00000662,0.00000814,-0.00000479,0.00001155,0.
 00000942,0.00000022,0.00002442,-0.00001663,0.00001394,0.00002009,0.000
 10992,-0.00001734,-0.00000839,0.00000232,-0.00002079,0.00000058,-0.000
 00075,-0.00000234,0.00000286,-0.00000072,0.00000093,0.00000500,0.00000
 334,-0.00000518,0.00063156,-0.00207176,0.00118809,-0.00184495,-0.00018
 122,-0.00718382,0.01566834,-0.02887237,-0.00662657,0.00008726,0.001091
 90,-0.00042014,0.00113156,-0.00186094,-0.00040701,-0.00025557,-0.00082
 037,0.00008182,-0.00035365,0.00015925,0.00034488,-0.00020832,0.0000268
 5,0.00007850,0.00124099,-0.00066567,0.00110651,-0.00014761,0.00006468,
 -0.00005487,-0.00089467,0.00036904,-0.00034004,0.00014380,0.00038014,0
 .00025175,0.02016040,-0.03641582,-0.05478789,-0.02198363,0.04251878,0.
 06181506,0.00000583,-0.00009771,0.00001990,-0.00004320,0.00000069,-0.0
 0002675,0.00006431,0.00000631,0.00001455,0.00000167,0.00003125,-0.0000
 1473,0.00001747,0.00001751,0.00002140,-0.00006552,0.00011213,0.0000186
 3,-0.00000443,0.00001904,0.00002332,-0.00001489,0.00000322,0.,-0.00000
 245,-0.00000318,-0.00000084,0.00002363,0.00002420,-0.00001247,-0.00009
 509,0.00056136,-0.00084443,-0.00035682,-0.00096336,0.00059726,-0.00089
 012,0.00086198,-0.00048559,-0.00001823,-0.00023977,-0.00005029,0.00007
 493,0.00023363,-0.00012955,0.00071614,-0.00117916,-0.00042686,0.000160
 65,-0.00007551,-0.00005301,0.00002831,0.00061938,0.00022179,0.00045303
 ,0.00072722,-0.00092341,0.00015588,-0.00017383,-0.00029364,-0.00000160
 ,0.00008261,-0.00000958,0.00000541,0.00010371,0.00018928,-0.10685631,-
 0.08864786,0.06296251,0.00801596,0.01138336,-0.00928352,0.11186715,0.0
 0000756,-0.00003724,0.00000982,-0.00002672,-0.00001226,-0.00000521,0.0
 0007526,-0.00000221,0.00001398,-0.00001588,0.00002779,-0.00000756,0.00
 001744,0.00000978,0.00001266,-0.00007719,0.00003198,-0.00002333,0.0000
 0867,0.00000023,0.00000283,-0.00000820,0.00000449,-0.00000004,-0.00000
 238,-0.00000410,-0.00000023,0.00001872,0.00001222,-0.00001116,0.000422
 04,0.00017176,-0.00148161,0.00064870,0.00093803,-0.00077463,0.00371950
 ,0.00416448,-0.00418906,-0.00002771,0.00041004,-0.00025660,-0.00005397
 ,0.00024616,0.00009718,0.00033759,-0.00026301,0.00005355,0.00001619,0.
 00053766,-0.00003988,-0.00007764,0.00001334,-0.00014721,0.00019192,0.0
 0020381,-0.00011011,0.00025358,0.00026837,0.00018510,-0.00013063,-0.00
 010911,0.00007324,0.00027715,0.00012460,-0.00000519,-0.08861752,-0.184
 39562,0.09618099,-0.01439900,-0.01939252,0.01421148,0.09828541,0.19817
 369,0.00002353,0.00003968,0.00000193,0.00002476,-0.00000392,0.00000699
 ,-0.00002687,-0.00000938,-0.00000741,-0.00000143,-0.00001575,0.0000098
 4,-0.00000799,0.00001202,0.00000585,0.00005616,-0.00013264,0.00004288,
 0.00000162,-0.00000593,-0.00000495,0.00000686,-0.00000092,0.00000063,0
 .00000169,0.00000154,-0.00000258,-0.00001786,-0.00001731,-0.00001460,-
 0.00222685,-0.00312318,-0.00659716,0.00042170,0.00218153,0.00060293,0.
 01565357,0.02387718,-0.01781482,-0.00021597,-0.00017421,0.00020592,-0.
 00036475,-0.00011239,0.00037220,-0.00042717,0.00098076,-0.00031357,0.0
 0124683,0.00142600,-0.00122640,0.00011985,-0.00130342,0.00014841,0.001
 27200,0.00106065,0.00085383,-0.00105456,-0.00062042,-0.00022016,-0.000
 10361,-0.00003959,-0.00006008,0.00003000,-0.00032355,0.00042533,0.0624
 3736,0.09487042,-0.11462755,-0.00380279,-0.00411551,0.00289172,-0.0688
 1716,-0.10400182,0.12798135,0.00000501,0.00003422,-0.00002374,0.000015
 19,0.00000998,0.00002213,-0.00000024,-0.00000183,-0.00000847,0.0000150
 1,-0.00000037,0.00002433,0.00000583,-0.00004081,-0.00001003,0.00012393
 ,-0.00001805,-0.00005826,0.00000820,-0.00001416,-0.00002220,0.00000557
 ,-0.00000157,-0.00000312,0.00000559,0.00000008,-0.00000350,0.00000843,
 0.00000436,-0.00002602,-0.00093165,-0.00059767,-0.00046632,-0.00093009
 ,0.00036648,-0.00067144,0.00197967,-0.00006574,-0.00022009,-0.00005974
 ,-0.00002945,-0.00007560,0.00010315,-0.00018190,-0.00002452,-0.0003503
 8,0.00020664,0.00094717,0.00010443,0.00015476,-0.00009771,-0.00005971,
 -0.00000394,-0.00007992,0.00073763,-0.00016173,-0.00074403,0.00019194,
 0.00017936,0.00019687,0.00018737,-0.00008246,0.00025214,-0.00004131,0.
 00003010,0.00012935,-0.28249937,-0.01768986,-0.08601063,-0.01319564,-0
 .00155532,-0.00420635,-0.01336830,-0.00023541,-0.00456289,0.30766876,0
 .00001263,0.00005496,0.00000425,0.00003593,-0.00003433,0.00002064,0.00
 003103,-0.00001509,0.00000965,-0.00006066,-0.00002712,-0.00002399,-0.0
 0000089,0.00008896,-0.00001795,-0.00004497,-0.00017097,0.00004886,0.00
 002694,-0.00004626,-0.00001400,0.00000485,0.00000078,-0.00000273,-0.00
 001211,-0.00000174,0.00000204,-0.00001599,-0.00003008,0.00003500,0.000
 23509,0.00013570,0.00062748,-0.00109179,-0.00003983,-0.00052395,-0.006
 64695,-0.00186740,-0.00165106,0.00008010,-0.00002868,-0.00000646,-0.00
 003103,0.00008161,0.00012298,0.00053549,0.00191271,-0.00094349,0.00002
 591,-0.00001932,-0.00008015,-0.00000082,-0.00008519,0.00001426,0.00039
 230,-0.00017823,-0.00139322,0.00044662,0.00017794,0.00005581,-0.000378
 17,0.00024493,-0.00010323,-0.00042574,0.00049785,-0.00031033,-0.017378
 53,-0.05051826,-0.00643129,0.02784773,0.00324819,0.01061294,-0.0229692
 3,-0.00131134,-0.00923817,0.01899616,0.04952485,0.00002296,-0.00009268
 ,0.00006117,-0.00006737,-0.00003909,-0.00003441,0.00014400,0.00000904,
 0.00002729,-0.00004628,0.00003604,-0.00004136,0.00002652,0.00008002,0.
 00002626,-0.00019801,0.00004954,0.00004638,0.00001945,0.00000227,0.000
 01806,-0.00001868,0.00000780,-0.00000336,-0.00001509,-0.00000839,-0.00
 000079,0.00002906,0.00001966,0.00000267,-0.00214669,-0.00010968,0.0001
 3066,-0.00186558,0.00023456,0.00033691,-0.03090180,-0.00154991,-0.0090
 4665,0.00015658,0.00015302,-0.00010287,-0.00000543,0.00013823,0.000073
 60,0.00246104,-0.00094262,-0.00224929,-0.00001951,-0.00009664,0.000171
 47,0.00017637,-0.00015354,-0.00003382,0.00183093,-0.00140409,-0.006369
 00,0.00006877,-0.00024178,0.00014192,0.00024774,0.00019462,0.00007889,
 -0.00199065,-0.00030287,-0.00087842,-0.08452187,-0.00642208,-0.0804233
 4,0.00564493,0.00120472,0.00159507,0.01656875,0.00006461,0.00632004,0.
 09253096,0.00836570,0.08800973,-0.00334225,-0.00524594,0.00024478,-0.0
 0273700,0.00041340,-0.00052575,0.00294064,0.00139809,0.00027344,-0.000
 10805,0.00109852,-0.00018067,-0.00072757,0.00234253,-0.00078332,-0.020
 02095,0.02760567,-0.01094476,0.00025123,0.00030642,-0.00003649,-0.0007
 6815,0.00009478,-0.00013665,-0.00027920,-0.00018780,-0.00000116,-0.000
 80710,0.00060790,-0.00020148,-0.18862607,-0.00847122,-0.02390234,-0.01
 129172,0.00402686,-0.00013183,-0.03500431,-0.00290135,-0.00731618,-0.0
 3344114,0.00329240,-0.00618631,0.00138747,-0.00033759,0.00082521,-0.12
 970473,0.09574680,-0.03527114,-0.02589547,-0.00123243,-0.01190045,0.00
 129938,-0.00055971,0.00010284,-0.00009672,-0.00775474,0.00615787,-0.00
 309447,-0.00038078,-0.00079334,0.00115484,0.00043156,0.00000080,0.0005
 2402,0.00039547,-0.00020674,0.00027713,-0.00064414,-0.00198378,0.00007
 485,0.00002489,-0.00038082,0.00012795,-0.00033812,0.00063685,0.0001295
 0,0.00027188,0.00101193,0.42651646,-0.00099284,0.00173538,-0.00032187,
 0.00088047,0.00102089,-0.00011875,-0.00156194,-0.00033312,-0.00026122,
 0.00111368,0.00035802,0.00006436,-0.00154988,-0.00454557,0.00087135,0.
 01132102,-0.00044585,0.00368800,-0.00056375,0.00041416,-0.00017865,0.0
 0016289,-0.00005646,0.00001492,0.00030587,0.00006771,0.00003787,-0.000
 32035,0.00107521,-0.00035995,0.00490728,-0.08160086,0.00526811,0.02028
 254,0.00342064,0.00007102,-0.02306380,0.00257905,-0.00617061,0.0356321
 8,0.00625490,0.00869713,-0.00155996,0.00000487,-0.00127869,0.07758371,
 -0.23137726,0.05390860,-0.00036084,0.00460567,0.00248074,-0.00227093,0
 .00085495,0.00010079,-0.00143133,-0.00152431,0.00280280,-0.00094425,0.
 00021725,-0.00027003,-0.00121253,0.00028004,0.00009969,0.00021000,-0.0
 0031885,0.00007106,0.00059618,0.00194014,-0.00080441,-0.00088150,0.000
 19753,0.00068758,0.00031704,0.00025372,-0.00047422,0.00011596,-0.00093
 606,-0.00000574,-0.11373610,0.36005951,-0.00085992,-0.00087703,0.00133
 389,-0.00046101,-0.00008091,-0.00045585,0.00072391,0.00019906,-0.00000
 103,-0.00016725,-0.00000953,-0.00048207,0.00009630,0.00133070,0.000355
 26,-0.00696594,0.00670655,0.00408583,0.00013850,-0.00000595,0.00014433
 ,-0.00013783,-0.00000718,-0.00017122,-0.00010394,-0.00004349,-0.000026
 75,-0.00003636,-0.00014028,-0.00019915,-0.02988535,-0.00045585,-0.0747
 6382,-0.00450366,-0.00183124,-0.00198489,0.01390485,-0.00145164,0.0048
 8239,0.00170132,0.00275598,0.00493630,0.00054883,0.00080088,0.00017624
 ,-0.03245532,0.05882646,-0.06447534,-0.03917338,0.00223709,-0.00068749
 ,0.00052177,-0.00049493,-0.00018777,0.00066316,0.00175967,-0.00105900,
 0.00053829,0.00019540,0.00073228,0.00007472,-0.00001206,-0.00021889,0.
 00057441,0.00044680,0.00064719,-0.00087329,-0.00063508,-0.00068279,0.0
 0036772,-0.00016528,-0.00017830,0.00077851,0.00005299,0.00093145,0.001
 65568,0.00010263,0.00123924,0.09374385,-0.08776203,0.10790918,-0.00072
 524,-0.00248930,0.00026203,-0.00012661,-0.00106947,0.00029228,0.002942
 88,-0.00117943,0.00083784,-0.00274708,-0.00056647,-0.00030864,-0.00329
 632,0.00491190,-0.00196257,-0.02030715,-0.02953401,0.00136902,-0.00079
 451,-0.00062628,0.00005812,-0.00028001,0.00017263,-0.00008055,-0.00077
 043,-0.00013771,-0.00008576,0.00025351,-0.00029234,0.00009102,-0.01148
 287,-0.00364390,0.00150405,-0.18855955,-0.00132535,-0.02555806,-0.0348
 3889,-0.00006842,-0.00787713,0.00132202,0.00054997,-0.00013750,-0.0259
 8621,-0.00361694,-0.01143505,-0.13105144,-0.10265040,0.00733810,0.0013
 9346,0.00064966,0.00061913,-0.03371128,-0.00529000,-0.00443867,-0.0000
 2375,0.00958442,0.00240949,0.00116051,-0.00039955,0.00017861,-0.003086
 74,0.00004408,-0.00088301,0.00051940,-0.00045153,-0.00002425,0.0002673
 3,-0.00021365,-0.00207460,0.00012924,0.00057094,0.00044331,0.00007865,
 -0.00018047,-0.00033991,0.00012392,0.00015484,0.00104482,0.02501396,-0
 .00487232,0.00047564,0.42834930,0.00141824,-0.00452594,0.00135725,-0.0
 0107947,0.00020898,-0.00037264,0.00169795,-0.00025727,0.00037301,-0.00
 096629,0.00085490,-0.00047126,0.00058907,0.00208046,-0.00001999,-0.013
 06070,-0.00327899,-0.00026056,0.00027551,0.00105728,-0.00020938,-0.000
 31889,0.00005464,-0.00007467,-0.00020017,-0.00007663,-0.00005630,0.000
 57354,0.00043532,0.00004154,-0.02018467,0.00333373,-0.00242333,-0.0159
 8797,-0.08216208,-0.00170619,0.02697497,0.00564503,0.00586494,0.002283
 10,0.00080567,-0.00055655,-0.01559732,0.00203968,-0.00361190,-0.084965
 55,-0.24402243,0.02774856,0.00164028,0.00020259,0.00125682,-0.03151886
 ,0.00199815,-0.00730344,0.00155700,-0.00323529,-0.00186998,0.00112919,
 0.00015795,-0.00027157,0.00110578,0.00032466,0.00045795,0.00003754,-0.
 00034679,0.00037852,-0.00089232,0.00204861,-0.00040723,0.00003477,0.00
 052188,0.00065399,0.00095438,-0.00006554,-0.00073643,0.00058143,-0.000
 64534,0.00081263,0.00395083,-0.06449394,0.01861998,0.14203000,0.381187
 01,-0.00054606,0.00089198,0.00034107,0.00031000,-0.00030237,-0.0003165
 1,0.00001868,-0.00009006,-0.00007822,-0.00006650,-0.00051063,-0.000278
 04,-0.00119838,0.00054505,0.00094210,-0.00175033,-0.00328556,0.0072302
 0,-0.00016483,-0.00043212,-0.00016458,0.00003135,0.00000715,-0.0000130
 3,-0.00006012,-0.00003491,-0.00014878,-0.00010646,-0.00012636,0.000120
 98,0.00421489,-0.00053422,-0.00172834,-0.02541830,0.00405530,-0.074245
 10,0.00316941,0.00100174,0.00164586,-0.00045985,0.00004239,-0.00015966
 ,-0.03596567,-0.00319842,0.00186949,0.00239395,0.02283030,-0.05048424,
 -0.00016242,-0.00080588,-0.00003620,0.01609886,-0.00143638,0.00947374,
 0.00001290,-0.00079883,0.00057858,-0.00043080,-0.00015848,-0.00010188,
 0.00009658,-0.00001605,0.00061569,0.00060955,-0.00000180,0.00067877,-0
 .00055406,-0.00059104,-0.00078332,0.00084278,0.00012496,0.00066131,-0.
 00002792,0.00011334,0.00008014,0.00155203,0.00072184,0.00093513,-0.001
 42133,0.01882357,0.01824198,0.03901318,-0.03681478,0.08501199,0.004062
 01,-0.00584658,0.00064191,-0.04392732,-0.00478736,-0.00865476,-0.28419
 272,-0.00886560,-0.04446011,-0.04358420,0.00114821,-0.00988611,0.00407
 432,0.00549375,-0.00182910,-0.00705443,-0.00017112,-0.00099182,-0.0017
 2984,0.00015148,-0.00033290,0.00184362,0.00032566,0.00109386,0.0018316
 1,0.00016534,0.00112704,-0.00171912,-0.00026195,-0.00024073,0.00186819
 ,-0.00016398,0.00036654,0.00186958,0.00028749,0.00027171,-0.00035226,-
 0.00004989,-0.00023743,-0.00027815,0.00014633,0.00002386,-0.00033311,0
 .00001959,-0.00022881,0.00840080,0.00028833,0.00147639,-0.00033409,-0.
 00010941,-0.00020092,-0.00027907,-0.00012163,0.00008118,0.00002818,0.0
 0003988,0.00018538,-0.00008019,-0.00008306,0.00002585,-0.00007963,0.00
 008691,-0.00001073,0.00003199,-0.00000689,-0.00003149,0.00010356,-0.00
 000046,-0.00000047,-0.00007954,0.00009688,-0.00000292,-0.00008000,-0.0
 0008890,0.00003704,0.00001731,-0.00004061,-0.00018787,-0.00375253,0.00
 189350,-0.00088419,-0.00376607,-0.00206139,-0.00003113,0.36749112,0.00
 363948,-0.00758582,0.00395573,-0.04375622,0.00519646,-0.00791155,-0.00
 886447,-0.07349466,0.00554886,0.04011258,0.00841374,0.00734488,-0.0039
 8675,-0.00745062,0.00247421,-0.00017396,0.00431497,-0.00132540,-0.0015
 9660,0.00011728,-0.00036195,0.00139011,0.00241461,-0.00119874,-0.00090
 084,0.00232963,-0.00161751,0.00148486,0.00021357,0.00020478,0.00001930
 ,0.00001377,-0.00000784,0.00011820,0.00003132,0.00001623,-0.00001042,-
 0.00000756,-0.00000814,-0.00002363,0.00000910,0.00000206,-0.00000937,-
 0.00000004,-0.00000372,0.00033927,-0.00001189,-0.00014368,-0.00001399,
 -0.00000762,-0.00000818,0.00000182,-0.00000270,0.00000058,0.00000038,0
 .00001209,0.00000433,0.00000269,-0.00000142,-0.00000082,-0.00000833,0.
 00000554,0.00000047,0.00000153,-0.00000231,0.00000008,0.00000268,0.000
 00611,-0.00000218,-0.00001079,0.00000862,0.00000040,0.00000520,0.00000
 080,-0.00000102,0.00000076,-0.00001325,-0.00000336,-0.00021807,0.00029
 263,-0.00006170,-0.00006088,0.00015370,-0.00001971,0.01251546,0.065043
 95,-0.00141757,0.00214552,0.00663191,-0.00016942,-0.00049518,0.0071743
 8,-0.04444953,0.00554891,-0.05001062,-0.01840056,-0.00007197,0.0036124
 0,0.00024887,0.00428390,0.00648316,-0.00100476,-0.00132391,-0.00151245
 ,0.00004503,-0.00002938,-0.00013051,0.00086429,-0.00140014,-0.00382229
 ,0.00136077,-0.00141567,-0.00372278,-0.00062546,-0.00012792,-0.0002371
 7,0.00035935,-0.00002756,0.00005658,0.00033827,0.00003549,0.00003738,-
 0.00005418,-0.00000882,-0.00004756,-0.00005226,0.00002900,0.00000346,-
 0.00005975,0.00000910,-0.00003765,0.00170698,-0.00014426,-0.00061169,-
 0.00005887,-0.00002197,-0.00002958,-0.00005806,-0.00002561,0.00001602,
 0.00000206,0.00000497,0.00003434,-0.00001570,-0.00001613,0.00000512,-0
 .00001320,0.00001593,-0.00000238,0.00000764,-0.00000005,-0.00000243,0.
 00001392,-0.00000224,-0.00000359,-0.00001261,0.00001778,-0.00000055,-0
 .00001617,-0.00001817,0.00000784,0.00000415,-0.00000404,-0.00003118,-0
 .00069302,0.00031855,-0.00004119,-0.00073093,-0.00039901,0.00011088,0.
 06288072,-0.00687710,0.03607015\\-0.00000565,-0.00000051,-0.00000068,-
 0.00000263,-0.00000685,0.00000130,0.00001860,-0.00000030,0.00000144,-0
 .00000302,0.00000692,-0.00000180,-0.00000550,0.00000048,-0.00000045,0.
 00000738,-0.00000091,-0.00000032,-0.00000010,-0.00000021,0.00000144,-0
 .00000026,0.00000163,-0.00000023,-0.00000025,-0.00000165,0.00000126,0.
 00000022,0.00000066,0.00000039,0.00001286,0.00000805,-0.00000283,0.000
 00092,0.00000220,0.00000022,-0.00001168,-0.00000523,-0.00000559,0.0000
 0417,0.00000459,-0.00000901,-0.00000647,-0.00000182,-0.00000273,-0.000
 00169,-0.00000799,-0.00001958,0.00000430,-0.00000019,-0.00000753,-0.00
 000134,-0.00000460,-0.00000240,-0.00000539,0.00000019,0.00000021,0.000
 00447,0.00000070,0.00000066,0.00000561,-0.00000304,0.00000214,0.000003
 88,-0.00000010,-0.00000259,0.00000129,-0.00000847,0.00001120,-0.000001
 45,-0.00000211,-0.00000206,0.00000013,-0.00000146,0.00000488,-0.000000
 01,0.00000212,-0.00000208,-0.00001199,0.00000591,0.00001580,-0.0000031
 3,0.00001191,0.00001825,-0.00000326,0.00000006,0.00000071\\\@


 IF AT FIRST YOU DON'T SUCCEED, TRY, TRY AGAIN.
 THEN GIVE UP;
 THERE'S NO USE BEING A DAMN FOOL ABOUT IT.

                                 -- W. C. FIELDS
 Job cpu time:       0 days  2 hours 25 minutes 23.9 seconds.
 Elapsed time:       0 days  0 hours  4 minutes 50.9 seconds.
 File lengths (MBytes):  RWF=    300 Int=      0 D2E=      0 Chk=     10 Scr=      1
 Normal termination of Gaussian 16 at Thu Sep 14 11:56:52 2023.
