 Entering Link 1 = C:\G09W\l1.exe PID=      3356.
  
 Copyright (c) 1988,1990,1992,1993,1995,1998,2003,2009,2013,
            Gaussian, Inc.  All Rights Reserved.
  
 This is part of the Gaussian(R) 09 program.  It is based on
 the Gaussian(R) 03 system (copyright 2003, Gaussian, Inc.),
 the Gaussian(R) 98 system (copyright 1998, Gaussian, Inc.),
 the Gaussian(R) 94 system (copyright 1995, Gaussian, Inc.),
 the Gaussian 92(TM) system (copyright 1992, Gaussian, Inc.),
 the Gaussian 90(TM) system (copyright 1990, Gaussian, Inc.),
 the Gaussian 88(TM) system (copyright 1988, Gaussian, Inc.),
 the Gaussian 86(TM) system (copyright 1986, Carnegie Mellon
 University), and the Gaussian 82(TM) system (copyright 1983,
 Carnegie Mellon University). Gaussian is a federally registered
 trademark of Gaussian, Inc.
  
 This software contains proprietary and confidential information,
 including trade secrets, belonging to Gaussian, Inc.
  
 This software is provided under written license and may be
 used, copied, transmitted, or stored only in accord with that
 written license.
  
 The following legend is applicable only to US Government
 contracts under FAR:
  
                    RESTRICTED RIGHTS LEGEND
  
 Use, reproduction and disclosure by the US Government is
 subject to restrictions as set forth in subparagraphs (a)
 and (c) of the Commercial Computer Software - Restricted
 Rights clause in FAR 52.227-19.
  
 Gaussian, Inc.
 340 Quinnipiac St., Bldg. 40, Wallingford CT 06492
  
  
 ---------------------------------------------------------------
 Warning -- This program may not be used in any manner that
 competes with the business of Gaussian, Inc. or will provide
 assistance to any competitor of Gaussian, Inc.  The licensee
 of this program is prohibited from giving any competitor of
 Gaussian, Inc. access to this program.  By using this program,
 the user acknowledges that Gaussian, Inc. is engaged in the
 business of creating and licensing software in the field of
 computational chemistry and represents and warrants to the
 licensee that it is not a competitor of Gaussian, Inc. and that
 it will not use this program in any manner prohibited above.
 ---------------------------------------------------------------
  

 Cite this work as:
 Gaussian 09, Revision D.01,
 M. J. Frisch, G. W. Trucks, H. B. Schlegel, G. E. Scuseria, 
 M. A. Robb, J. R. Cheeseman, G. Scalmani, V. Barone, B. Mennucci, 
 G. A. Petersson, H. Nakatsuji, M. Caricato, X. Li, H. P. Hratchian, 
 A. F. Izmaylov, J. Bloino, G. Zheng, J. L. Sonnenberg, M. Hada, 
 M. Ehara, K. Toyota, R. Fukuda, J. Hasegawa, M. Ishida, T. Nakajima, 
 Y. Honda, O. Kitao, H. Nakai, T. Vreven, J. A. Montgomery, Jr., 
 J. E. Peralta, F. Ogliaro, M. Bearpark, J. J. Heyd, E. Brothers, 
 K. N. Kudin, V. N. Staroverov, T. Keith, R. Kobayashi, J. Normand, 
 K. Raghavachari, A. Rendell, J. C. Burant, S. S. Iyengar, J. Tomasi, 
 M. Cossi, N. Rega, J. M. Millam, M. Klene, J. E. Knox, J. B. Cross, 
 V. Bakken, C. Adamo, J. Jaramillo, R. Gomperts, R. E. Stratmann, 
 O. Yazyev, A. J. Austin, R. Cammi, C. Pomelli, J. W. Ochterski, 
 R. L. Martin, K. Morokuma, V. G. Zakrzewski, G. A. Voth, 
 P. Salvador, J. J. Dannenberg, S. Dapprich, A. D. Daniels, 
 O. Farkas, J. B. Foresman, J. V. Ortiz, J. Cioslowski, 
 and D. J. Fox, Gaussian, Inc., Wallingford CT, 2013.
 
 ******************************************
 Gaussian 09:  EM64W-G09RevD.01 13-Apr-2013
                11-Sep-2023 
 ******************************************
 %nprocshared=6
 Will use up to    6 processors via shared memory.
 %mem=6GB
 %chk=D:\User Dont delete\Downloads\molecule_28.chk
 ----------------------------------------------
 # opt freq b3lyp/6-31g empiricaldispersion=gd3
 ----------------------------------------------
 1/14=-1,18=20,19=15,26=3,38=1/1,3;
 2/9=110,12=2,17=6,18=5,40=1/2;
 3/5=1,6=6,11=2,16=1,25=1,30=1,71=1,74=-5,124=31/1,2,3;
 4//1;
 5/5=2,38=5/2;
 6/7=2,8=2,9=2,10=2,28=1/1;
 7//1,2,3,16;
 1/14=-1,18=20,19=15,26=3/3(2);
 2/9=110/2;
 99//99;
 2/9=110/2;
 3/5=1,6=6,11=2,16=1,25=1,30=1,71=1,74=-5,124=31/1,2,3;
 4/5=5,16=3,69=1/1;
 5/5=2,38=5/2;
 7//1,2,3,16;
 1/14=-1,18=20,19=15,26=3/3(-5);
 2/9=110/2;
 6/7=2,8=2,9=2,10=2,19=2,28=1/1;
 99/9=1/99;
 -------------------
 Title Card Required
 -------------------
 Symbolic Z-matrix:
 Charge =  0 Multiplicity = 1
 C                    -5.30642  -0.95004   1.13808 
 C                    -3.91026  -0.97885   1.0873 
 C                    -3.24353  -0.49817  -0.05029 
 C                    -3.96927  -0.06568  -1.15526 
 C                    -5.36722  -0.03465  -1.10341 
 C                    -6.03529  -0.47585   0.04315 
 H                    -5.82877  -1.29526   2.03458 
 H                    -3.33932  -1.35081   1.9443 
 H                    -3.4475    0.28095  -2.05001 
 H                    -5.9376    0.33606  -1.95976 
 C                    -1.70232  -0.51098  -0.00174 
 C                    -0.50316  -0.51544   0.00061 
 C                     1.03814  -0.52118   0.00361 
 C                     1.73324  -0.49899   1.21632 
 C                     1.73531  -0.50038  -1.20582 
 C                     3.13124  -0.50192   1.21672 
 H                     1.18549  -0.5016    2.1622 
 C                     3.13359  -0.50384  -1.20525 
 H                     1.18944  -0.5035   -2.1542 
 C                     3.82894  -0.50274   0.00634 
 H                     3.67742  -0.50148   2.16417 
 H                     3.6812   -0.50459  -2.15173 
 O                    -7.464    -0.44384   0.0949 
 C                    -7.97293   0.10488  -1.12362 
 H                    -7.5899    1.09513  -1.25625 
 H                    -7.66817  -0.5085   -1.94569 
 H                    -9.04154   0.13858  -1.08069 
 Cl                    5.58894  -0.50344   0.00796 
 

 GradGradGradGradGradGradGradGradGradGradGradGradGradGradGradGradGradGrad
 Berny optimization.
 Initialization pass.
                           ----------------------------
                           !    Initial Parameters    !
                           ! (Angstroms and Degrees)  !
 --------------------------                            --------------------------
 ! Name  Definition              Value          Derivative Info.                !
 --------------------------------------------------------------------------------
 ! R1    R(1,2)                  1.3974         estimate D2E/DX2                !
 ! R2    R(1,6)                  1.3982         estimate D2E/DX2                !
 ! R3    R(1,7)                  1.0935         estimate D2E/DX2                !
 ! R4    R(2,3)                  1.4035         estimate D2E/DX2                !
 ! R5    R(2,8)                  1.0949         estimate D2E/DX2                !
 ! R6    R(3,4)                  1.3909         estimate D2E/DX2                !
 ! R7    R(3,11)                 1.542          estimate D2E/DX2                !
 ! R8    R(4,5)                  1.3993         estimate D2E/DX2                !
 ! R9    R(4,9)                  1.0922         estimate D2E/DX2                !
 ! R10   R(5,6)                  1.3984         estimate D2E/DX2                !
 ! R11   R(5,10)                 1.0937         estimate D2E/DX2                !
 ! R12   R(6,23)                 1.43           estimate D2E/DX2                !
 ! R13   R(11,12)                1.1992         estimate D2E/DX2                !
 ! R14   R(12,13)                1.5413         estimate D2E/DX2                !
 ! R15   R(13,14)                1.398          estimate D2E/DX2                !
 ! R16   R(13,15)                1.3961         estimate D2E/DX2                !
 ! R17   R(14,16)                1.398          estimate D2E/DX2                !
 ! R18   R(14,17)                1.093          estimate D2E/DX2                !
 ! R19   R(15,18)                1.3983         estimate D2E/DX2                !
 ! R20   R(15,19)                1.0943         estimate D2E/DX2                !
 ! R21   R(16,20)                1.3971         estimate D2E/DX2                !
 ! R22   R(16,21)                1.0936         estimate D2E/DX2                !
 ! R23   R(18,20)                1.3969         estimate D2E/DX2                !
 ! R24   R(18,22)                1.0935         estimate D2E/DX2                !
 ! R25   R(20,28)                1.76           estimate D2E/DX2                !
 ! R26   R(23,24)                1.43           estimate D2E/DX2                !
 ! R27   R(24,25)                1.07           estimate D2E/DX2                !
 ! R28   R(24,26)                1.07           estimate D2E/DX2                !
 ! R29   R(24,27)                1.07           estimate D2E/DX2                !
 ! A1    A(2,1,6)              119.958          estimate D2E/DX2                !
 ! A2    A(2,1,7)              120.0372         estimate D2E/DX2                !
 ! A3    A(6,1,7)              120.0045         estimate D2E/DX2                !
 ! A4    A(1,2,3)              119.8047         estimate D2E/DX2                !
 ! A5    A(1,2,8)              119.971          estimate D2E/DX2                !
 ! A6    A(3,2,8)              120.204          estimate D2E/DX2                !
 ! A7    A(2,3,4)              120.1683         estimate D2E/DX2                !
 ! A8    A(2,3,11)             116.5157         estimate D2E/DX2                !
 ! A9    A(4,3,11)             123.304          estimate D2E/DX2                !
 ! A10   A(3,4,5)              119.9162         estimate D2E/DX2                !
 ! A11   A(3,4,9)              120.0131         estimate D2E/DX2                !
 ! A12   A(5,4,9)              120.0388         estimate D2E/DX2                !
 ! A13   A(4,5,6)              120.0444         estimate D2E/DX2                !
 ! A14   A(4,5,10)             119.9699         estimate D2E/DX2                !
 ! A15   A(6,5,10)             119.9857         estimate D2E/DX2                !
 ! A16   A(1,6,5)              120.0015         estimate D2E/DX2                !
 ! A17   A(1,6,23)             120.0048         estimate D2E/DX2                !
 ! A18   A(5,6,23)             119.9936         estimate D2E/DX2                !
 ! A19   A(12,13,14)           119.9238         estimate D2E/DX2                !
 ! A20   A(12,13,15)           119.8422         estimate D2E/DX2                !
 ! A21   A(14,13,15)           120.1945         estimate D2E/DX2                !
 ! A22   A(13,14,16)           119.8308         estimate D2E/DX2                !
 ! A23   A(13,14,17)           120.098          estimate D2E/DX2                !
 ! A24   A(16,14,17)           120.0575         estimate D2E/DX2                !
 ! A25   A(13,15,18)           119.9314         estimate D2E/DX2                !
 ! A26   A(13,15,19)           120.108          estimate D2E/DX2                !
 ! A27   A(18,15,19)           119.947          estimate D2E/DX2                !
 ! A28   A(14,16,20)           119.944          estimate D2E/DX2                !
 ! A29   A(14,16,21)           119.9792         estimate D2E/DX2                !
 ! A30   A(20,16,21)           120.0767         estimate D2E/DX2                !
 ! A31   A(15,18,20)           119.8756         estimate D2E/DX2                !
 ! A32   A(15,18,22)           120.0284         estimate D2E/DX2                !
 ! A33   A(20,18,22)           120.0958         estimate D2E/DX2                !
 ! A34   A(16,20,18)           120.1873         estimate D2E/DX2                !
 ! A35   A(16,20,28)           119.9076         estimate D2E/DX2                !
 ! A36   A(18,20,28)           119.9051         estimate D2E/DX2                !
 ! A37   A(6,23,24)            109.4712         estimate D2E/DX2                !
 ! A38   A(23,24,25)           109.4712         estimate D2E/DX2                !
 ! A39   A(23,24,26)           109.4712         estimate D2E/DX2                !
 ! A40   A(23,24,27)           109.4712         estimate D2E/DX2                !
 ! A41   A(25,24,26)           109.4713         estimate D2E/DX2                !
 ! A42   A(25,24,27)           109.4712         estimate D2E/DX2                !
 ! A43   A(26,24,27)           109.4712         estimate D2E/DX2                !
 ! A44   L(3,11,12,8,-1)       181.6583         estimate D2E/DX2                !
 ! A45   L(11,12,13,19,-1)     179.9996         estimate D2E/DX2                !
 ! A46   L(3,11,12,8,-2)       179.4663         estimate D2E/DX2                !
 ! A47   L(11,12,13,19,-2)     179.9998         estimate D2E/DX2                !
 ! D1    D(6,1,2,3)              1.6809         estimate D2E/DX2                !
 ! D2    D(6,1,2,8)           -179.9557         estimate D2E/DX2                !
 ! D3    D(7,1,2,3)           -178.1363         estimate D2E/DX2                !
 ! D4    D(7,1,2,8)              0.227          estimate D2E/DX2                !
 ! D5    D(2,1,6,5)              0.1967         estimate D2E/DX2                !
 ! D6    D(2,1,6,23)          -179.8961         estimate D2E/DX2                !
 ! D7    D(7,1,6,5)           -179.986          estimate D2E/DX2                !
 ! D8    D(7,1,6,23)            -0.0788         estimate D2E/DX2                !
 ! D9    D(1,2,3,4)             -3.6992         estimate D2E/DX2                !
 ! D10   D(1,2,3,11)           177.5162         estimate D2E/DX2                !
 ! D11   D(8,2,3,4)            177.9414         estimate D2E/DX2                !
 ! D12   D(8,2,3,11)            -0.8433         estimate D2E/DX2                !
 ! D13   D(2,3,4,5)              3.816          estimate D2E/DX2                !
 ! D14   D(2,3,4,9)           -178.2399         estimate D2E/DX2                !
 ! D15   D(11,3,4,5)          -177.4853         estimate D2E/DX2                !
 ! D16   D(11,3,4,9)             0.4589         estimate D2E/DX2                !
 ! D17   D(2,3,13,14)          -24.1431         estimate D2E/DX2                !
 ! D18   D(2,3,13,15)          158.2445         estimate D2E/DX2                !
 ! D19   D(4,3,13,14)          157.4038         estimate D2E/DX2                !
 ! D20   D(4,3,13,15)          -20.2086         estimate D2E/DX2                !
 ! D21   D(3,4,5,6)             -1.9249         estimate D2E/DX2                !
 ! D22   D(3,4,5,10)           178.0            estimate D2E/DX2                !
 ! D23   D(9,4,5,6)           -179.8685         estimate D2E/DX2                !
 ! D24   D(9,4,5,10)             0.0564         estimate D2E/DX2                !
 ! D25   D(4,5,6,1)             -0.0841         estimate D2E/DX2                !
 ! D26   D(4,5,6,23)          -179.9913         estimate D2E/DX2                !
 ! D27   D(10,5,6,1)           179.991          estimate D2E/DX2                !
 ! D28   D(10,5,6,23)            0.0838         estimate D2E/DX2                !
 ! D29   D(1,6,23,24)          178.732          estimate D2E/DX2                !
 ! D30   D(5,6,23,24)           -1.3607         estimate D2E/DX2                !
 ! D31   D(12,13,14,16)       -179.8905         estimate D2E/DX2                !
 ! D32   D(12,13,14,17)          1.4544         estimate D2E/DX2                !
 ! D33   D(15,13,14,16)         -2.1768         estimate D2E/DX2                !
 ! D34   D(15,13,14,17)        179.1681         estimate D2E/DX2                !
 ! D35   D(12,13,15,18)        179.9195         estimate D2E/DX2                !
 ! D36   D(12,13,15,19)         -1.4191         estimate D2E/DX2                !
 ! D37   D(14,13,15,18)          2.2039         estimate D2E/DX2                !
 ! D38   D(14,13,15,19)       -179.1347         estimate D2E/DX2                !
 ! D39   D(13,14,16,20)          1.1475         estimate D2E/DX2                !
 ! D40   D(13,14,16,21)       -178.9793         estimate D2E/DX2                !
 ! D41   D(17,14,16,20)        179.8032         estimate D2E/DX2                !
 ! D42   D(17,14,16,21)         -0.3236         estimate D2E/DX2                !
 ! D43   D(13,15,18,20)         -1.1998         estimate D2E/DX2                !
 ! D44   D(13,15,18,22)        178.9699         estimate D2E/DX2                !
 ! D45   D(19,15,18,20)       -179.8633         estimate D2E/DX2                !
 ! D46   D(19,15,18,22)          0.3064         estimate D2E/DX2                !
 ! D47   D(14,16,20,18)         -0.1518         estimate D2E/DX2                !
 ! D48   D(14,16,20,28)        179.8876         estimate D2E/DX2                !
 ! D49   D(21,16,20,18)        179.9751         estimate D2E/DX2                !
 ! D50   D(21,16,20,28)          0.0145         estimate D2E/DX2                !
 ! D51   D(15,18,20,16)          0.1766         estimate D2E/DX2                !
 ! D52   D(15,18,20,28)       -179.8628         estimate D2E/DX2                !
 ! D53   D(22,18,20,16)       -179.9932         estimate D2E/DX2                !
 ! D54   D(22,18,20,28)         -0.0326         estimate D2E/DX2                !
 ! D55   D(6,23,24,25)         -59.3961         estimate D2E/DX2                !
 ! D56   D(6,23,24,26)          60.6039         estimate D2E/DX2                !
 ! D57   D(6,23,24,27)        -179.3961         estimate D2E/DX2                !
 --------------------------------------------------------------------------------
 Trust Radius=3.00D-01 FncErr=1.00D-07 GrdErr=1.00D-06
 Number of steps in this run=    143 maximum allowed number of steps=    168.
 GradGradGradGradGradGradGradGradGradGradGradGradGradGradGradGradGradGrad

                          Input orientation:                          
 ---------------------------------------------------------------------
 Center     Atomic      Atomic             Coordinates (Angstroms)
 Number     Number       Type             X           Y           Z
 ---------------------------------------------------------------------
      1          6           0       -5.306420   -0.950037    1.138085
      2          6           0       -3.910257   -0.978854    1.087296
      3          6           0       -3.243530   -0.498173   -0.050288
      4          6           0       -3.969271   -0.065678   -1.155262
      5          6           0       -5.367223   -0.034654   -1.103412
      6          6           0       -6.035290   -0.475849    0.043153
      7          1           0       -5.828773   -1.295255    2.034578
      8          1           0       -3.339319   -1.350808    1.944296
      9          1           0       -3.447499    0.280946   -2.050008
     10          1           0       -5.937596    0.336059   -1.959755
     11          6           0       -1.702325   -0.510980   -0.001736
     12          6           0       -0.503164   -0.515444    0.000607
     13          6           0        1.038137   -0.521178    0.003607
     14          6           0        1.733241   -0.498994    1.216317
     15          6           0        1.735313   -0.500380   -1.205823
     16          6           0        3.131236   -0.501924    1.216721
     17          1           0        1.185494   -0.501600    2.162198
     18          6           0        3.133594   -0.503838   -1.205245
     19          1           0        1.189441   -0.503497   -2.154202
     20          6           0        3.828940   -0.502741    0.006338
     21          1           0        3.677424   -0.501477    2.164168
     22          1           0        3.681197   -0.504590   -2.151735
     23          8           0       -7.463995   -0.443839    0.094897
     24          6           0       -7.972932    0.104878   -1.123624
     25          1           0       -7.589896    1.095127   -1.256250
     26          1           0       -7.668174   -0.508498   -1.945690
     27          1           0       -9.041539    0.138582   -1.080691
     28         17           0        5.588939   -0.503439    0.007964
 ---------------------------------------------------------------------
                    Distance matrix (angstroms):
                    1          2          3          4          5
     1  C    0.000000
     2  C    1.397384   0.000000
     3  C    2.423205   1.403451   0.000000
     4  C    2.798124   2.422073   1.390941   0.000000
     5  C    2.421968   2.795257   2.415365   1.399257   0.000000
     6  C    1.398207   2.420541   2.793413   2.423402   1.398420
     7  H    1.093494   2.162905   3.415478   3.891618   3.413082
     8  H    2.163349   1.094883   2.171296   3.414038   3.890139
     9  H    3.890352   3.412318   2.155808   1.092229   2.163558
    10  H    3.413069   3.888910   3.405877   2.164002   1.093653
    11  C    3.805452   2.505965   1.542023   2.582240   3.856430
    12  C    4.955199   3.606095   2.740893   3.681334   5.010897
    13  C    6.459440   5.086300   4.282068   5.159902   6.518499
    14  C    7.054530   5.665332   5.135421   6.191187   7.484206
    15  C    7.435193   6.112265   5.111179   5.721346   7.118525
    16  C    8.449913   7.058812   6.499459   7.498920   8.821857
    17  H    6.587476   5.229709   4.950895   6.145499   7.336235
    18  C    8.770639   7.422750   6.480869   7.116542   8.514363
    19  H    7.296215   6.061368   4.906905   5.272748   6.656861
    20  C    9.216058   7.828813   7.072698   7.896355   9.274699
    21  H    9.053370   7.678571   7.266598   8.347484   9.628117
    22  H    9.581158   8.267189   7.236571   7.727564   9.121058
    23  O    2.449410   3.728291   4.223311   3.730818   2.449456
    24  C    3.652185   4.750576   4.887020   4.007418   2.609521
    25  H    3.889704   4.830461   4.783706   3.803498   2.498008
    26  H    3.909284   4.852028   4.813536   3.808248   2.495664
    27  H    4.478747   5.681452   5.923183   5.076927   3.678469
    28  Cl  10.962913   9.572131   8.832663   9.638677  11.022358
                    6          7          8          9         10
     6  C    0.000000
     7  H    2.163297   0.000000
     8  H    3.412940   2.491710   0.000000
     9  H    3.413316   4.983846   4.316107   0.000000
    10  H    2.163419   4.315986   4.983792   2.492341   0.000000
    11  C    4.333341   4.667894   2.678077   2.805031   4.742240
    12  C    5.532432   5.753890   3.538295   3.675373   5.839617
    13  C    7.073683   7.202672   4.859699   4.998166   7.297294
    14  C    7.856649   7.647721   5.194844   6.173917   8.344249
    15  C    7.870376   8.267250   6.033106   5.308923   7.755100
    16  C    9.241382   9.032166   6.566433   7.386755   9.645513
    17  H    7.525340   7.060178   4.608966   6.310283   8.272277
    18  C    9.253525   9.562783   7.248142   6.681339   9.141181
    19  H    7.551548   8.211460   6.166464   4.703979   7.178949
    20  C    9.864335   9.900164   7.473876   7.601926   9.997716
    21  H    9.941639   9.540161   7.071378   8.314806  10.495562
    22  H    9.961349  10.420647   8.171976   7.172567   9.657366
    23  O    1.430000   2.676047   4.610404   4.610659   2.675768
    24  C    2.335180   4.065960   5.744695   4.622633   2.212500
    25  H    2.563828   4.432272   5.856065   4.295625   1.949667
    26  H    2.573494   4.454764   5.880515   4.295137   1.925715
    27  H    3.267734   4.699219   6.624511   5.679184   3.232061
    28  Cl  11.624315  11.623178   9.175031   9.300952  11.723381
                   11         12         13         14         15
    11  C    0.000000
    12  C    1.199171   0.000000
    13  C    2.740486   1.541315   0.000000
    14  C    3.645121   2.545531   1.397972   0.000000
    15  C    3.642429   2.542927   1.396141   2.422141   0.000000
    16  C    4.984779   3.832490   2.419314   1.397998   2.795948
    17  H    3.608627   2.743033   2.163703   1.093035   3.412604
    18  C    4.983432   3.831478   2.419207   2.797315   1.398285
    19  H    3.604924   2.740120   2.163180   3.414109   1.094262
    20  C    5.531276   4.332126   2.790865   2.419920   2.419217
    21  H    5.799390   4.707283   3.410902   2.162932   3.889555
    22  H    5.796968   4.705483   3.410504   3.890801   2.163615
    23  O    5.762872   6.961838   8.502974   9.265516   9.290982
    24  C    6.399878   7.579323   9.102855  10.002489   9.727442
    25  H    6.230320   7.375324   8.868069   9.776283   9.460852
    26  H    6.274578   7.424654   8.921871   9.918921   9.432552
    27  H    7.446486   8.631385  10.159275  11.035336  10.796503
    28  Cl   7.291274   6.092119   4.550838   4.040611   4.040262
                   16         17         18         19         20
    16  C    0.000000
    17  H    2.163294   0.000000
    18  C    2.421968   3.890343   0.000000
    19  H    3.890205   4.316402   2.163389   0.000000
    20  C    1.397075   3.411091   1.396940   3.410995   0.000000
    21  H    1.093608   2.491931   3.413020   4.983813   2.163144
    22  H    3.413057   4.983830   1.093486   2.491757   2.163125
    23  O   10.654614   8.893297  10.677212   8.941139  11.293436
    24  C   11.364329   9.748908  11.123494   9.240200  11.871402
    25  H   11.117951   9.552109  10.842164   8.968761  11.599014
    26  H   11.252917   9.760237  10.827117   8.860070  11.661650
    27  H   12.404225  10.747947  12.192706  10.307165  12.932214
    28  Cl   2.738868   4.902148   2.738721   4.902096   1.760000
                   21         22         23         24         25
    21  H    0.000000
    22  H    4.315906   0.000000
    23  O   11.332098  11.369536   0.000000
    24  C   12.120563  11.715254   1.430000   0.000000
    25  H   11.882799  11.419217   2.051796   1.070000   0.000000
    26  H   12.067046  11.351242   2.051796   1.070000   1.747303
    27  H   13.141949  12.783928   2.051796   1.070000   1.747303
    28  Cl   2.881512   2.881628  13.053360  13.622587  13.335492
                   26         27         28
    26  H    0.000000
    27  H    1.747303   0.000000
    28  Cl  13.400292  14.684967   0.000000
 Stoichiometry    C15H11ClO
 Framework group  C1[X(C15H11ClO)]
 Deg. of freedom    78
 Full point group                 C1      NOp   1
 Largest Abelian subgroup         C1      NOp   1
 Largest concise Abelian subgroup C1      NOp   1
                         Standard orientation:                         
 ---------------------------------------------------------------------
 Center     Atomic      Atomic             Coordinates (Angstroms)
 Number     Number       Type             X           Y           Z
 ---------------------------------------------------------------------
      1          6           0        4.161598    1.435764   -0.260017
      2          6           0        2.767261    1.346827   -0.284441
      3          6           0        2.143108    0.110067   -0.059645
      4          6           0        2.908777   -1.038636    0.110502
      5          6           0        4.304909   -0.949092    0.137294
      6          6           0        4.930834    0.287768   -0.047024
      7          1           0        4.650995    2.402914   -0.404378
      8          1           0        2.164716    2.245522   -0.451933
      9          1           0        2.419934   -2.004373    0.256614
     10          1           0        4.906849   -1.846893    0.303727
     11          6           0        0.601154    0.109694   -0.044979
     12          6           0       -0.597442    0.073648   -0.036025
     13          6           0       -2.138017    0.027306   -0.024515
     14          6           0       -2.868242    1.181880    0.272230
     15          6           0       -2.798584   -1.179184   -0.263766
     16          6           0       -4.265469    1.137088    0.284373
     17          1           0       -2.348886    2.122534    0.472641
     18          6           0       -4.196111   -1.223700   -0.252096
     19          1           0       -2.224996   -2.085160   -0.481974
     20          6           0       -4.926916   -0.065588    0.023836
     21          1           0       -4.839392    2.042733    0.499775
     22          1           0       -4.715363   -2.164204   -0.455917
     23          8           0        6.357721    0.378000   -0.019623
     24          6           0        6.912129   -0.914108    0.241120
     25          1           0        6.550713   -1.274107    1.181694
     26          1           0        6.621088   -1.590394   -0.535302
     27          1           0        7.979424   -0.844646    0.272070
     28         17           0       -6.685929   -0.121549    0.042288
 ---------------------------------------------------------------------
 Rotational constants (GHZ):      2.5003074      0.1010315      0.0974715
 Standard basis: 6-31G (6D, 7F)
 There are   179 symmetry adapted cartesian basis functions of A   symmetry.
 There are   179 symmetry adapted basis functions of A   symmetry.
   179 basis functions,   442 primitive gaussians,   179 cartesian basis functions
    63 alpha electrons       63 beta electrons
       nuclear repulsion energy      1043.2127777968 Hartrees.
 NAtoms=   28 NActive=   28 NUniq=   28 SFac= 1.00D+00 NAtFMM=   60 NAOKFM=F Big=F
 Integral buffers will be    131072 words long.
 Raffenetti 2 integral format.
 Two-electron integral symmetry is turned on.
 Nuclear repulsion after empirical dispersion term =     1043.1927470824 Hartrees.
 One-electron integrals computed using PRISM.
 NBasis=   179 RedAO= T EigKep=  1.93D-04  NBF=   179
 NBsUse=   179 1.00D-06 EigRej= -1.00D+00 NBFU=   179
 ExpMin= 1.43D-01 ExpMax= 2.52D+04 ExpMxC= 3.78D+03 IAcc=1 IRadAn=         1 AccDes= 0.00D+00
 Harris functional with IExCor=  402 and IRadAn=       1 diagonalized for initial guess.
 HarFok:  IExCor=  402 AccDes= 0.00D+00 IRadAn=         1 IDoV= 1 UseB2=F ITyADJ=14
 ICtDFT=  3500011 ScaDFX=  1.000000  1.000000  1.000000  1.000000
 FoFCou: FMM=F IPFlag=           0 FMFlag=      100000 FMFlg1=           0
         NFxFlg=           0 DoJE=T BraDBF=F KetDBF=T FulRan=T
         wScrn=  0.000000 ICntrl=     500 IOpCl=  0 I1Cent=   200000004 NGrid=           0
         NMat0=    1 NMatS0=      1 NMatT0=    0 NMatD0=    1 NMtDS0=    0 NMtDT0=    0
 Petite list used in FoFCou.
 Keep R1 ints in memory in canonical form, NReq=132807145.
 Requested convergence on RMS density matrix=1.00D-08 within 128 cycles.
 Requested convergence on MAX density matrix=1.00D-06.
 Requested convergence on             energy=1.00D-06.
 No special actions if energy rises.
 Integral accuracy reduced to 1.0D-05 until final iterations.
 Initial convergence to 1.0D-05 achieved.  Increase integral accuracy.
 SCF Done:  E(RB3LYP) =  -1113.39198812     A.U. after   15 cycles
            NFock= 15  Conv=0.74D-08     -V/T= 2.0041

 **********************************************************************

            Population analysis using the SCF density.

 **********************************************************************

 Orbital symmetries:
       Occupied  (A) (A) (A) (A) (A) (A) (A) (A) (A) (A) (A) (A)
                 (A) (A) (A) (A) (A) (A) (A) (A) (A) (A) (A) (A)
                 (A) (A) (A) (A) (A) (A) (A) (A) (A) (A) (A) (A)
                 (A) (A) (A) (A) (A) (A) (A) (A) (A) (A) (A) (A)
                 (A) (A) (A) (A) (A) (A) (A) (A) (A) (A) (A) (A)
                 (A) (A) (A)
       Virtual   (A) (A) (A) (A) (A) (A) (A) (A) (A) (A) (A) (A)
                 (A) (A) (A) (A) (A) (A) (A) (A) (A) (A) (A) (A)
                 (A) (A) (A) (A) (A) (A) (A) (A) (A) (A) (A) (A)
                 (A) (A) (A) (A) (A) (A) (A) (A) (A) (A) (A) (A)
                 (A) (A) (A) (A) (A) (A) (A) (A) (A) (A) (A) (A)
                 (A) (A) (A) (A) (A) (A) (A) (A) (A) (A) (A) (A)
                 (A) (A) (A) (A) (A) (A) (A) (A) (A) (A) (A) (A)
                 (A) (A) (A) (A) (A) (A) (A) (A) (A) (A) (A) (A)
                 (A) (A) (A) (A) (A) (A) (A) (A) (A) (A) (A) (A)
                 (A) (A) (A) (A) (A) (A) (A) (A)
 The electronic state is 1-A.
 Alpha  occ. eigenvalues -- -101.53308 -19.18130 -10.26017 -10.25730 -10.23456
 Alpha  occ. eigenvalues --  -10.23165 -10.22571 -10.21040 -10.21031 -10.20896
 Alpha  occ. eigenvalues --  -10.20889 -10.20448 -10.20276 -10.19850 -10.19802
 Alpha  occ. eigenvalues --  -10.19561 -10.19286  -9.46708  -7.23076  -7.21957
 Alpha  occ. eigenvalues --   -7.21928  -1.06505  -0.90423  -0.87243  -0.85357
 Alpha  occ. eigenvalues --   -0.78487  -0.76984  -0.76660  -0.76062  -0.73074
 Alpha  occ. eigenvalues --   -0.70971  -0.63263  -0.62879  -0.61739  -0.60378
 Alpha  occ. eigenvalues --   -0.55465  -0.54134  -0.50112  -0.49336  -0.48559
 Alpha  occ. eigenvalues --   -0.47966  -0.47679  -0.46402  -0.44883  -0.44347
 Alpha  occ. eigenvalues --   -0.44103  -0.42062  -0.40626  -0.39282  -0.39063
 Alpha  occ. eigenvalues --   -0.37886  -0.37536  -0.37347  -0.35194  -0.33432
 Alpha  occ. eigenvalues --   -0.33315  -0.31733  -0.29513  -0.28190  -0.27109
 Alpha  occ. eigenvalues --   -0.26463  -0.25210  -0.21961
 Alpha virt. eigenvalues --   -0.03888  -0.01775  -0.01249   0.00112   0.02896
 Alpha virt. eigenvalues --    0.06090   0.07551   0.09963   0.10558   0.10779
 Alpha virt. eigenvalues --    0.11702   0.12872   0.14009   0.15105   0.15251
 Alpha virt. eigenvalues --    0.15629   0.16572   0.16785   0.18414   0.18778
 Alpha virt. eigenvalues --    0.19301   0.20660   0.21806   0.22942   0.28164
 Alpha virt. eigenvalues --    0.29200   0.29239   0.31210   0.32168   0.33148
 Alpha virt. eigenvalues --    0.33532   0.36203   0.41859   0.42209   0.42439
 Alpha virt. eigenvalues --    0.44358   0.47751   0.49692   0.50640   0.51491
 Alpha virt. eigenvalues --    0.52326   0.54283   0.54605   0.54846   0.55286
 Alpha virt. eigenvalues --    0.55899   0.56274   0.56783   0.58536   0.59140
 Alpha virt. eigenvalues --    0.59213   0.59896   0.60315   0.60551   0.60603
 Alpha virt. eigenvalues --    0.60768   0.62955   0.63988   0.64817   0.65335
 Alpha virt. eigenvalues --    0.65464   0.66623   0.66793   0.68498   0.69575
 Alpha virt. eigenvalues --    0.71211   0.74903   0.75515   0.76863   0.77199
 Alpha virt. eigenvalues --    0.78158   0.79306   0.80190   0.83293   0.83990
 Alpha virt. eigenvalues --    0.84732   0.85938   0.87239   0.88365   0.88421
 Alpha virt. eigenvalues --    0.88956   0.89603   0.92447   0.94052   0.95943
 Alpha virt. eigenvalues --    0.96539   0.98518   0.99179   1.01674   1.04373
 Alpha virt. eigenvalues --    1.05657   1.06356   1.07483   1.11304   1.12627
 Alpha virt. eigenvalues --    1.13753   1.16545   1.16879   1.19302   1.19671
 Alpha virt. eigenvalues --    1.21218   1.22679   1.23259   1.27715   1.27816
 Alpha virt. eigenvalues --    1.35006   1.41598   1.42592   1.45538   1.45655
 Alpha virt. eigenvalues --    1.53602   1.54184   1.77903   1.85237   1.88843
 Alpha virt. eigenvalues --    2.11842
          Condensed to atoms (all electrons):
               1          2          3          4          5          6
     1  C    5.003848   0.499210  -0.047487  -0.034407  -0.085723   0.517790
     2  C    0.499210   4.950433   0.507209  -0.071070  -0.045947  -0.042133
     3  C   -0.047487   0.507209   4.806325   0.527455  -0.025490  -0.023540
     4  C   -0.034407  -0.071070   0.527455   4.966065   0.412785  -0.023851
     5  C   -0.085723  -0.045947  -0.025490   0.412785   5.256844   0.384857
     6  C    0.517790  -0.042133  -0.023540  -0.023851   0.384857   4.808257
     7  H    0.342901  -0.033278   0.003957   0.000154   0.006793  -0.029356
     8  H   -0.028854   0.350715  -0.032457   0.004542   0.000428   0.003972
     9  H    0.000555   0.004293  -0.029878   0.350512  -0.029940   0.003048
    10  H    0.002087   0.000952   0.003266  -0.021295   0.360635  -0.062939
    11  C    0.007541  -0.018808   0.260336  -0.026912   0.010095   0.001473
    12  C    0.000400   0.002087  -0.113052  -0.002546   0.000586   0.000054
    13  C    0.000002   0.000025   0.000531  -0.000025   0.000002   0.000000
    14  C    0.000000  -0.000002  -0.000009   0.000001   0.000000   0.000000
    15  C    0.000000   0.000001  -0.000002  -0.000002   0.000000   0.000000
    16  C    0.000000   0.000000   0.000002   0.000000   0.000000   0.000000
    17  H    0.000000   0.000003  -0.000045   0.000000   0.000000   0.000000
    18  C    0.000000   0.000000   0.000001   0.000000   0.000000   0.000000
    19  H    0.000000   0.000000  -0.000057   0.000003   0.000000   0.000000
    20  C    0.000000   0.000000   0.000000   0.000000   0.000000   0.000000
    21  H    0.000000   0.000000   0.000000   0.000000   0.000000   0.000000
    22  H    0.000000   0.000000   0.000000   0.000000   0.000000   0.000000
    23  O   -0.048276   0.003222  -0.000356   0.005207  -0.078313   0.244254
    24  C    0.004827  -0.000129  -0.000040   0.001236  -0.008977  -0.051951
    25  H   -0.000230  -0.000031   0.000011  -0.000098   0.005169  -0.011954
    26  H   -0.000345  -0.000009  -0.000004   0.000065   0.004786  -0.012468
    27  H   -0.000037   0.000005  -0.000001  -0.000021   0.000707   0.005437
    28  Cl   0.000000   0.000000   0.000000   0.000000   0.000000   0.000000
               7          8          9         10         11         12
     1  C    0.342901  -0.028854   0.000555   0.002087   0.007541   0.000400
     2  C   -0.033278   0.350715   0.004293   0.000952  -0.018808   0.002087
     3  C    0.003957  -0.032457  -0.029878   0.003266   0.260336  -0.113052
     4  C    0.000154   0.004542   0.350512  -0.021295  -0.026912  -0.002546
     5  C    0.006793   0.000428  -0.029940   0.360635   0.010095   0.000586
     6  C   -0.029356   0.003972   0.003048  -0.062939   0.001473   0.000054
     7  H    0.567102  -0.004311   0.000011  -0.000138  -0.000262  -0.000009
     8  H   -0.004311   0.561271  -0.000165   0.000012  -0.004620  -0.002139
     9  H    0.000011  -0.000165   0.564953  -0.003850  -0.005521  -0.001817
    10  H   -0.000138   0.000012  -0.003850   0.582318  -0.000265  -0.000008
    11  C   -0.000262  -0.004620  -0.005521  -0.000265   5.630446   0.531729
    12  C   -0.000009  -0.002139  -0.001817  -0.000008   0.531729   5.640406
    13  C    0.000000  -0.000057  -0.000040   0.000000  -0.110887   0.263049
    14  C    0.000000   0.000003   0.000000   0.000000  -0.001215  -0.024819
    15  C    0.000000   0.000000   0.000003   0.000000  -0.000369  -0.023099
    16  C    0.000000   0.000000   0.000000   0.000000   0.000544   0.009224
    17  H    0.000000   0.000005   0.000000   0.000000  -0.002179  -0.005792
    18  C    0.000000   0.000000   0.000000   0.000000   0.000471   0.009011
    19  H    0.000000   0.000000   0.000002   0.000000  -0.002371  -0.005657
    20  C    0.000000   0.000000   0.000000   0.000000   0.000051   0.001272
    21  H    0.000000   0.000000   0.000000   0.000000  -0.000010  -0.000284
    22  H    0.000000   0.000000   0.000000   0.000000  -0.000010  -0.000283
    23  O   -0.000633  -0.000040  -0.000037  -0.010904  -0.000003   0.000000
    24  C    0.000006   0.000002   0.000023   0.004700   0.000000   0.000000
    25  H    0.000029   0.000000  -0.000008   0.002062   0.000001   0.000000
    26  H    0.000027   0.000000   0.000001   0.002384   0.000000   0.000000
    27  H   -0.000017   0.000000   0.000000   0.000076   0.000000   0.000000
    28  Cl   0.000000   0.000000   0.000000   0.000000   0.000000   0.000006
              13         14         15         16         17         18
     1  C    0.000002   0.000000   0.000000   0.000000   0.000000   0.000000
     2  C    0.000025  -0.000002   0.000001   0.000000   0.000003   0.000000
     3  C    0.000531  -0.000009  -0.000002   0.000002  -0.000045   0.000001
     4  C   -0.000025   0.000001  -0.000002   0.000000   0.000000   0.000000
     5  C    0.000002   0.000000   0.000000   0.000000   0.000000   0.000000
     6  C    0.000000   0.000000   0.000000   0.000000   0.000000   0.000000
     7  H    0.000000   0.000000   0.000000   0.000000   0.000000   0.000000
     8  H   -0.000057   0.000003   0.000000   0.000000   0.000005   0.000000
     9  H   -0.000040   0.000000   0.000003   0.000000   0.000000   0.000000
    10  H    0.000000   0.000000   0.000000   0.000000   0.000000   0.000000
    11  C   -0.110887  -0.001215  -0.000369   0.000544  -0.002179   0.000471
    12  C    0.263049  -0.024819  -0.023099   0.009224  -0.005792   0.009011
    13  C    4.795803   0.517775   0.517974  -0.027119  -0.030761  -0.027546
    14  C    0.517775   4.919747  -0.076422   0.484365   0.355601  -0.038330
    15  C    0.517974  -0.076422   4.919706  -0.038327   0.004680   0.485058
    16  C   -0.027119   0.484365  -0.038327   5.029029  -0.035039  -0.061207
    17  H   -0.030761   0.355601   0.004680  -0.035039   0.557696   0.000171
    18  C   -0.027546  -0.038330   0.485058  -0.061207   0.000171   5.027876
    19  H   -0.030527   0.004702   0.355131   0.000165  -0.000156  -0.035023
    20  C   -0.031708  -0.048532  -0.048541   0.467991   0.004877   0.468380
    21  H    0.003089  -0.021537   0.000880   0.350845  -0.004211   0.003501
    22  H    0.003103   0.000881  -0.021579   0.003495   0.000010   0.350903
    23  O    0.000000   0.000000   0.000000   0.000000   0.000000   0.000000
    24  C    0.000000   0.000000   0.000000   0.000000   0.000000   0.000000
    25  H    0.000000   0.000000   0.000000   0.000000   0.000000   0.000000
    26  H    0.000000   0.000000   0.000000   0.000000   0.000000   0.000000
    27  H    0.000000   0.000000   0.000000   0.000000   0.000000   0.000000
    28  Cl   0.000533   0.002588   0.002599  -0.069025  -0.000119  -0.069078
              19         20         21         22         23         24
     1  C    0.000000   0.000000   0.000000   0.000000  -0.048276   0.004827
     2  C    0.000000   0.000000   0.000000   0.000000   0.003222  -0.000129
     3  C   -0.000057   0.000000   0.000000   0.000000  -0.000356  -0.000040
     4  C    0.000003   0.000000   0.000000   0.000000   0.005207   0.001236
     5  C    0.000000   0.000000   0.000000   0.000000  -0.078313  -0.008977
     6  C    0.000000   0.000000   0.000000   0.000000   0.244254  -0.051951
     7  H    0.000000   0.000000   0.000000   0.000000  -0.000633   0.000006
     8  H    0.000000   0.000000   0.000000   0.000000  -0.000040   0.000002
     9  H    0.000002   0.000000   0.000000   0.000000  -0.000037   0.000023
    10  H    0.000000   0.000000   0.000000   0.000000  -0.010904   0.004700
    11  C   -0.002371   0.000051  -0.000010  -0.000010  -0.000003   0.000000
    12  C   -0.005657   0.001272  -0.000284  -0.000283   0.000000   0.000000
    13  C   -0.030527  -0.031708   0.003089   0.003103   0.000000   0.000000
    14  C    0.004702  -0.048532  -0.021537   0.000881   0.000000   0.000000
    15  C    0.355131  -0.048541   0.000880  -0.021579   0.000000   0.000000
    16  C    0.000165   0.467991   0.350845   0.003495   0.000000   0.000000
    17  H   -0.000156   0.004877  -0.004211   0.000010   0.000000   0.000000
    18  C   -0.035023   0.468380   0.003501   0.350903   0.000000   0.000000
    19  H    0.558539   0.004881   0.000010  -0.004224   0.000000   0.000000
    20  C    0.004881   5.288446  -0.034450  -0.034456   0.000000   0.000000
    21  H    0.000010  -0.034450   0.543174  -0.000171   0.000000   0.000000
    22  H   -0.004224  -0.034456  -0.000171   0.543382   0.000000   0.000000
    23  O    0.000000   0.000000   0.000000   0.000000   8.341132   0.202104
    24  C    0.000000   0.000000   0.000000   0.000000   0.202104   4.929575
    25  H    0.000000   0.000000   0.000000   0.000000  -0.043176   0.365898
    26  H    0.000000   0.000000   0.000000   0.000000  -0.043101   0.365952
    27  H    0.000000   0.000000   0.000000   0.000000  -0.031389   0.374875
    28  Cl  -0.000120   0.219813   0.001722   0.001726   0.000000   0.000000
              25         26         27         28
     1  C   -0.000230  -0.000345  -0.000037   0.000000
     2  C   -0.000031  -0.000009   0.000005   0.000000
     3  C    0.000011  -0.000004  -0.000001   0.000000
     4  C   -0.000098   0.000065  -0.000021   0.000000
     5  C    0.005169   0.004786   0.000707   0.000000
     6  C   -0.011954  -0.012468   0.005437   0.000000
     7  H    0.000029   0.000027  -0.000017   0.000000
     8  H    0.000000   0.000000   0.000000   0.000000
     9  H   -0.000008   0.000001   0.000000   0.000000
    10  H    0.002062   0.002384   0.000076   0.000000
    11  C    0.000001   0.000000   0.000000   0.000000
    12  C    0.000000   0.000000   0.000000   0.000006
    13  C    0.000000   0.000000   0.000000   0.000533
    14  C    0.000000   0.000000   0.000000   0.002588
    15  C    0.000000   0.000000   0.000000   0.002599
    16  C    0.000000   0.000000   0.000000  -0.069025
    17  H    0.000000   0.000000   0.000000  -0.000119
    18  C    0.000000   0.000000   0.000000  -0.069078
    19  H    0.000000   0.000000   0.000000  -0.000120
    20  C    0.000000   0.000000   0.000000   0.219813
    21  H    0.000000   0.000000   0.000000   0.001722
    22  H    0.000000   0.000000   0.000000   0.001726
    23  O   -0.043176  -0.043101  -0.031389   0.000000
    24  C    0.365898   0.365952   0.374875   0.000000
    25  H    0.618018  -0.059400  -0.032703   0.000000
    26  H   -0.059400   0.618899  -0.032983   0.000000
    27  H   -0.032703  -0.032983   0.551976   0.000000
    28  Cl   0.000000   0.000000   0.000000  16.794654
 Mulliken charges:
               1
     1  C   -0.133801
     2  C   -0.106747
     3  C    0.163325
     4  C   -0.087797
     5  C   -0.169297
     6  C    0.289049
     7  H    0.147024
     8  H    0.151694
     9  H    0.147855
    10  H    0.140906
    11  C   -0.269256
    12  C   -0.278320
    13  C    0.156784
    14  C   -0.074796
    15  C   -0.077688
    16  C   -0.114942
    17  H    0.155259
    18  C   -0.114189
    19  H    0.154703
    20  C   -0.258022
    21  H    0.157442
    22  H    0.157222
    23  O   -0.539689
    24  C   -0.188100
    25  H    0.156412
    26  H    0.156195
    27  H    0.164075
    28  Cl   0.114699
 Sum of Mulliken charges =   0.00000
 Mulliken charges with hydrogens summed into heavy atoms:
               1
     1  C    0.013222
     2  C    0.044947
     3  C    0.163325
     4  C    0.060058
     5  C   -0.028391
     6  C    0.289049
    11  C   -0.269256
    12  C   -0.278320
    13  C    0.156784
    14  C    0.080463
    15  C    0.077014
    16  C    0.042500
    18  C    0.043033
    20  C   -0.258022
    23  O   -0.539689
    24  C    0.288582
    28  Cl   0.114699
 Electronic spatial extent (au):  <R**2>=           9977.6873
 Charge=              0.0000 electrons
 Dipole moment (field-independent basis, Debye):
    X=              2.3948    Y=             -1.4583    Z=              0.2841  Tot=              2.8182
 Quadrupole moment (field-independent basis, Debye-Ang):
   XX=           -108.0358   YY=            -92.7031   ZZ=           -109.1022
   XY=            -11.8096   XZ=              2.3550   YZ=              0.4551
 Traceless Quadrupole moment (field-independent basis, Debye-Ang):
   XX=             -4.7554   YY=             10.5773   ZZ=             -5.8218
   XY=            -11.8096   XZ=              2.3550   YZ=              0.4551
 Octapole moment (field-independent basis, Debye-Ang**2):
  XXX=            182.7693  YYY=              2.1443  ZZZ=              1.3374  XYY=              1.0128
  XXY=            -77.9085  XXZ=             16.9248  XZZ=              1.6569  YZZ=             -0.8374
  YYZ=             -0.8976  XYZ=            -12.9415
 Hexadecapole moment (field-independent basis, Debye-Ang**3):
 XXXX=         -12629.3720 YYYY=           -595.6691 ZZZZ=           -144.2286 XXXY=           -593.2798
 XXXZ=            123.9323 YYYX=             13.5757 YYYZ=              2.7807 ZZZX=              4.4499
 ZZZY=             -0.2042 XXYY=          -2007.9259 XXZZ=          -2160.8654 YYZZ=           -138.4244
 XXYZ=              1.7861 YYXZ=             -2.9572 ZZXY=             -3.2207
 N-N= 1.043192747082D+03 E-N=-4.697563341889D+03  KE= 1.108815976199D+03
 Calling FoFJK, ICntrl=      2127 FMM=F ISym2X=0 I1Cent= 0 IOpClX= 0 NMat=1 NMatS=1 NMatT=0.
 ***** Axes restored to original set *****
 -------------------------------------------------------------------
 Center     Atomic                   Forces (Hartrees/Bohr)
 Number     Number              X              Y              Z
 -------------------------------------------------------------------
      1        6          -0.003237684   -0.006032341    0.011639840
      2        6          -0.008466217    0.001053102    0.008423726
      3        6           0.069639091   -0.009606656    0.012566084
      4        6           0.000613736    0.008377804   -0.009105063
      5        6           0.006810743    0.002300024   -0.010492720
      6        6          -0.013823714    0.000304015    0.000432169
      7        1           0.000959664    0.001943145   -0.006640813
      8        1          -0.003919569    0.003130408   -0.006279874
      9        1          -0.002757418   -0.001503095    0.004639813
     10        1           0.015116611   -0.003893130    0.006394403
     11        6          -0.098644610    0.002565033   -0.011055858
     12        6           0.099540165   -0.000908341    0.000665914
     13        6          -0.068999353    0.004739703    0.001519765
     14        6           0.001952010   -0.003212721    0.008936320
     15        6           0.002066700   -0.002952722   -0.011107492
     16        6           0.003648802    0.000808143    0.009304531
     17        1           0.003276703    0.000294464   -0.005725578
     18        6           0.003567919    0.000967479   -0.008811964
     19        1           0.003558904    0.000162914    0.006433904
     20        6          -0.029866555   -0.000397780   -0.000114493
     21        1          -0.002740154    0.000244191   -0.006013546
     22        1          -0.002785769    0.000225170    0.005941100
     23        8           0.030052160   -0.005032324    0.010667082
     24        6          -0.017562347   -0.000675138    0.003009733
     25        1           0.000833158    0.018334324   -0.004890158
     26        1          -0.000860022   -0.009128655   -0.016571463
     27        1          -0.014039360   -0.002020530    0.006199456
     28       17           0.026066408   -0.000086486    0.000035183
 -------------------------------------------------------------------
 Cartesian Forces:  Max     0.099540165 RMS     0.020532864

 GradGradGradGradGradGradGradGradGradGradGradGradGradGradGradGradGradGrad
 Berny optimization.
 FormGI is forming the generalized inverse of G from B-inverse, IUseBI=4.
 GSVD:  received Info=                   1 from GESDD.
 Internal  Forces:  Max     0.094229482 RMS     0.013879401
 Search for a local minimum.
 Step number   1 out of a maximum of  143
 All quantities printed in internal units (Hartrees-Bohrs-Radians)
 Mixed Optimization -- RFO/linear search
 Second derivative matrix not updated -- first step.
 ITU=  0
     Eigenvalues ---    0.00230   0.00230   0.00230   0.01295   0.01295
     Eigenvalues ---    0.01529   0.01651   0.01965   0.02079   0.02091
     Eigenvalues ---    0.02104   0.02111   0.02116   0.02117   0.02118
     Eigenvalues ---    0.02119   0.02122   0.02124   0.02126   0.02128
     Eigenvalues ---    0.02132   0.02148   0.02165   0.03985   0.04701
     Eigenvalues ---    0.10344   0.10344   0.15990   0.15994   0.15995
     Eigenvalues ---    0.15996   0.16000   0.16000   0.16000   0.16000
     Eigenvalues ---    0.16000   0.16000   0.16000   0.21985   0.21994
     Eigenvalues ---    0.22975   0.22981   0.23987   0.23992   0.24980
     Eigenvalues ---    0.24994   0.25000   0.25000   0.25000   0.28340
     Eigenvalues ---    0.28403   0.29539   0.34254   0.34325   0.34394
     Eigenvalues ---    0.34399   0.34412   0.34413   0.34464   0.34556
     Eigenvalues ---    0.37230   0.37230   0.37230   0.40989   0.40989
     Eigenvalues ---    0.41551   0.41751   0.42154   0.42205   0.45390
     Eigenvalues ---    0.45833   0.45928   0.45974   0.45996   0.46091
     Eigenvalues ---    0.46204   0.46785   1.05241
 RFO step:  Lambda=-7.27203371D-02 EMin= 2.30000000D-03
 Linear search not attempted -- first point.
 Maximum step size (   0.300) exceeded in Quadratic search.
    -- Step size scaled by   0.648
 Iteration  1 RMS(Cart)=  0.12695396 RMS(Int)=  0.00945069
 Iteration  2 RMS(Cart)=  0.03999151 RMS(Int)=  0.00075206
 Iteration  3 RMS(Cart)=  0.00138859 RMS(Int)=  0.00011027
 Iteration  4 RMS(Cart)=  0.00000144 RMS(Int)=  0.00011027
 Iteration  5 RMS(Cart)=  0.00000000 RMS(Int)=  0.00011027
 Variable       Old X    -DE/DX   Delta X   Delta X   Delta X     New X
                                 (Linear)    (Quad)   (Total)
    R1        2.64067  -0.00439   0.00000  -0.00574  -0.00574   2.63493
    R2        2.64223   0.00254   0.00000   0.00308   0.00309   2.64532
    R3        2.06640  -0.00652   0.00000  -0.01014  -0.01014   2.05627
    R4        2.65214   0.00343   0.00000   0.00385   0.00385   2.65598
    R5        2.06903  -0.00802   0.00000  -0.01253  -0.01253   2.05650
    R6        2.62850   0.00510   0.00000   0.00610   0.00609   2.63459
    R7        2.91400  -0.05966   0.00000  -0.10863  -0.10863   2.80537
    R8        2.64421   0.00005   0.00000   0.00047   0.00046   2.64468
    R9        2.06401  -0.00559   0.00000  -0.00867  -0.00867   2.05534
   R10        2.64263   0.01513   0.00000   0.01885   0.01886   2.66149
   R11        2.06671  -0.01421   0.00000  -0.02211  -0.02211   2.04459
   R12        2.70231   0.00155   0.00000   0.00208   0.00208   2.70439
   R13        2.26611   0.03929   0.00000   0.02264   0.02264   2.28875
   R14        2.91266  -0.06026   0.00000  -0.10952  -0.10952   2.80314
   R15        2.64178   0.00599   0.00000   0.00752   0.00752   2.64930
   R16        2.63832   0.00711   0.00000   0.00885   0.00885   2.64718
   R17        2.64183  -0.00102   0.00000  -0.00126  -0.00126   2.64057
   R18        2.06554  -0.00660   0.00000  -0.01025  -0.01025   2.05529
   R19        2.64238  -0.00109   0.00000  -0.00132  -0.00132   2.64106
   R20        2.06786  -0.00735   0.00000  -0.01146  -0.01146   2.05639
   R21        2.64009   0.00075   0.00000   0.00068   0.00068   2.64077
   R22        2.06662  -0.00658   0.00000  -0.01023  -0.01023   2.05639
   R23        2.63983   0.00072   0.00000   0.00065   0.00065   2.64049
   R24        2.06639  -0.00654   0.00000  -0.01017  -0.01017   2.05622
   R25        3.32592   0.02607   0.00000   0.04592   0.04592   3.37183
   R26        2.70231   0.02420   0.00000   0.03252   0.03252   2.73483
   R27        2.02201   0.01787   0.00000   0.02604   0.02604   2.04805
   R28        2.02201   0.01772   0.00000   0.02582   0.02582   2.04783
   R29        2.02201   0.01421   0.00000   0.02070   0.02070   2.04271
    A1        2.09366   0.00507   0.00000   0.01016   0.01017   2.10383
    A2        2.09504  -0.00003   0.00000   0.00192   0.00191   2.09696
    A3        2.09447  -0.00505   0.00000  -0.01207  -0.01207   2.08240
    A4        2.09099   0.00245   0.00000   0.00368   0.00366   2.09465
    A5        2.09389  -0.00089   0.00000  -0.00086  -0.00086   2.09302
    A6        2.09796  -0.00153   0.00000  -0.00264  -0.00265   2.09531
    A7        2.09733  -0.00345   0.00000  -0.00779  -0.00782   2.08952
    A8        2.03358   0.01205   0.00000   0.02467   0.02468   2.05826
    A9        2.15206  -0.00859   0.00000  -0.01682  -0.01681   2.13525
   A10        2.09293   0.00258   0.00000   0.00628   0.00625   2.09918
   A11        2.09462  -0.00118   0.00000  -0.00276  -0.00275   2.09187
   A12        2.09507  -0.00137   0.00000  -0.00328  -0.00328   2.09180
   A13        2.09517  -0.00010   0.00000   0.00097   0.00096   2.09613
   A14        2.09387  -0.00932   0.00000  -0.02659  -0.02659   2.06728
   A15        2.09414   0.00942   0.00000   0.02562   0.02563   2.11977
   A16        2.09442  -0.00646   0.00000  -0.01262  -0.01261   2.08181
   A17        2.09448  -0.04107   0.00000  -0.08270  -0.08271   2.01177
   A18        2.09428   0.04753   0.00000   0.09532   0.09532   2.18960
   A19        2.09307   0.00106   0.00000   0.00175   0.00174   2.09481
   A20        2.09164   0.00075   0.00000   0.00113   0.00113   2.09277
   A21        2.09779  -0.00178   0.00000  -0.00267  -0.00268   2.09511
   A22        2.09144   0.00054   0.00000   0.00168   0.00168   2.09312
   A23        2.09611  -0.00030   0.00000  -0.00089  -0.00089   2.09522
   A24        2.09540  -0.00023   0.00000  -0.00070  -0.00070   2.09470
   A25        2.09320   0.00018   0.00000   0.00097   0.00097   2.09417
   A26        2.09628  -0.00021   0.00000  -0.00080  -0.00080   2.09548
   A27        2.09347   0.00004   0.00000  -0.00008  -0.00008   2.09339
   A28        2.09342  -0.00139   0.00000  -0.00347  -0.00347   2.08994
   A29        2.09403   0.00134   0.00000   0.00354   0.00354   2.09757
   A30        2.09573   0.00005   0.00000  -0.00007  -0.00007   2.09567
   A31        2.09222  -0.00123   0.00000  -0.00302  -0.00303   2.08920
   A32        2.09489   0.00120   0.00000   0.00314   0.00314   2.09803
   A33        2.09607   0.00003   0.00000  -0.00011  -0.00011   2.09595
   A34        2.09766   0.00370   0.00000   0.00674   0.00674   2.10441
   A35        2.09278  -0.00188   0.00000  -0.00342  -0.00342   2.08936
   A36        2.09274  -0.00183   0.00000  -0.00332  -0.00332   2.08941
   A37        1.91063   0.09423   0.00000   0.18933   0.18933   2.09997
   A38        1.91063   0.00951   0.00000   0.02822   0.02786   1.93849
   A39        1.91063   0.00955   0.00000   0.02826   0.02790   1.93853
   A40        1.91063  -0.01459   0.00000  -0.04401  -0.04394   1.86669
   A41        1.91063  -0.00015   0.00000   0.00631   0.00558   1.91621
   A42        1.91063  -0.00206   0.00000  -0.00902  -0.00895   1.90169
   A43        1.91063  -0.00227   0.00000  -0.00976  -0.00970   1.90094
   A44        3.17054  -0.00316   0.00000  -0.01720  -0.01721   3.15333
   A45        3.14159   0.00112   0.00000   0.00982   0.00982   3.15140
   A46        3.13228   0.00078   0.00000   0.00435   0.00431   3.13659
   A47        3.14159  -0.00016   0.00000  -0.00090  -0.00087   3.14072
    D1        0.02934  -0.00070   0.00000  -0.00542  -0.00545   0.02388
    D2       -3.14082   0.00029   0.00000   0.00154   0.00152  -3.13931
    D3       -3.10907  -0.00088   0.00000  -0.00647  -0.00649  -3.11556
    D4        0.00396   0.00011   0.00000   0.00049   0.00048   0.00444
    D5        0.00343   0.00003   0.00000   0.00010   0.00010   0.00353
    D6       -3.13978   0.00002   0.00000   0.00004   0.00006  -3.13972
    D7       -3.14135   0.00022   0.00000   0.00118   0.00115  -3.14020
    D8       -0.00137   0.00021   0.00000   0.00112   0.00111  -0.00026
    D9       -0.06456   0.00167   0.00000   0.01174   0.01171  -0.05285
   D10        3.09824   0.00139   0.00000   0.00893   0.00890   3.10714
   D11        3.10566   0.00067   0.00000   0.00472   0.00470   3.11036
   D12       -0.01472   0.00038   0.00000   0.00192   0.00189  -0.01282
   D13        0.06660  -0.00176   0.00000  -0.01212  -0.01211   0.05450
   D14       -3.11087  -0.00066   0.00000  -0.00438  -0.00435  -3.11522
   D15       -3.09770  -0.00120   0.00000  -0.00859  -0.00864  -3.10635
   D16        0.00801  -0.00010   0.00000  -0.00085  -0.00088   0.00712
   D17       -0.42138   0.00103   0.00000   0.00763   0.00764  -0.41373
   D18        2.76189   0.00005   0.00000   0.00055   0.00059   2.76248
   D19        2.74721   0.00010   0.00000   0.00072   0.00068   2.74789
   D20       -0.35271  -0.00088   0.00000  -0.00636  -0.00637  -0.35908
   D21       -0.03360   0.00090   0.00000   0.00638   0.00640  -0.02719
   D22        3.10669   0.00099   0.00000   0.00697   0.00698   3.11367
   D23       -3.13930  -0.00020   0.00000  -0.00137  -0.00137  -3.14066
   D24        0.00098  -0.00011   0.00000  -0.00079  -0.00079   0.00020
   D25       -0.00147  -0.00011   0.00000  -0.00057  -0.00055  -0.00202
   D26       -3.14144  -0.00002   0.00000  -0.00034  -0.00032   3.14142
   D27        3.14144  -0.00019   0.00000  -0.00111  -0.00110   3.14033
   D28        0.00146  -0.00010   0.00000  -0.00088  -0.00088   0.00058
   D29        3.11946   0.00001   0.00000  -0.00006  -0.00007   3.11939
   D30       -0.02375  -0.00005   0.00000  -0.00023  -0.00023  -0.02398
   D31       -3.13968   0.00017   0.00000   0.00091   0.00090  -3.13878
   D32        0.02538  -0.00049   0.00000  -0.00368  -0.00369   0.02169
   D33       -0.03799   0.00098   0.00000   0.00696   0.00696  -0.03103
   D34        3.12707   0.00033   0.00000   0.00237   0.00237   3.12944
   D35        3.14019  -0.00019   0.00000  -0.00108  -0.00108   3.13911
   D36       -0.02477   0.00043   0.00000   0.00325   0.00326  -0.02151
   D37        0.03847  -0.00101   0.00000  -0.00715  -0.00715   0.03132
   D38       -3.12649  -0.00039   0.00000  -0.00281  -0.00281  -3.12930
   D39        0.02003  -0.00049   0.00000  -0.00354  -0.00355   0.01648
   D40       -3.12378  -0.00048   0.00000  -0.00347  -0.00348  -3.12726
   D41        3.13816   0.00017   0.00000   0.00105   0.00104   3.13920
   D42       -0.00565   0.00017   0.00000   0.00111   0.00111  -0.00454
   D43       -0.02094   0.00054   0.00000   0.00389   0.00390  -0.01704
   D44        3.12361   0.00048   0.00000   0.00342   0.00343   3.12704
   D45       -3.13921  -0.00008   0.00000  -0.00043  -0.00043  -3.13963
   D46        0.00535  -0.00014   0.00000  -0.00090  -0.00090   0.00445
   D47       -0.00265   0.00007   0.00000   0.00039   0.00039  -0.00226
   D48        3.13963   0.00006   0.00000   0.00044   0.00044   3.14007
   D49        3.14116   0.00007   0.00000   0.00032   0.00032   3.14148
   D50        0.00025   0.00006   0.00000   0.00037   0.00037   0.00062
   D51        0.00308  -0.00009   0.00000  -0.00056  -0.00055   0.00253
   D52       -3.13920  -0.00008   0.00000  -0.00060  -0.00061  -3.13980
   D53       -3.14147  -0.00003   0.00000  -0.00008  -0.00008  -3.14155
   D54       -0.00057  -0.00002   0.00000  -0.00013  -0.00013  -0.00070
   D55       -1.03666  -0.00552   0.00000  -0.01959  -0.02021  -1.05687
   D56        1.05774   0.00598   0.00000   0.02273   0.02335   1.08109
   D57       -3.13105   0.00011   0.00000   0.00113   0.00113  -3.12992
         Item               Value     Threshold  Converged?
 Maximum Force            0.094229     0.000450     NO 
 RMS     Force            0.013879     0.000300     NO 
 Maximum Displacement     0.803400     0.001800     NO 
 RMS     Displacement     0.162512     0.001200     NO 
 Predicted change in Energy=-3.520848D-02
 GradGradGradGradGradGradGradGradGradGradGradGradGradGradGradGradGradGrad

                          Input orientation:                          
 ---------------------------------------------------------------------
 Center     Atomic      Atomic             Coordinates (Angstroms)
 Number     Number       Type             X           Y           Z
 ---------------------------------------------------------------------
      1          6           0       -5.231063   -0.899578    1.034893
      2          6           0       -3.837379   -0.937242    1.014140
      3          6           0       -3.138169   -0.471047   -0.112430
      4          6           0       -3.844462   -0.031021   -1.231012
      5          6           0       -5.243248    0.009203   -1.211333
      6          6           0       -5.946407   -0.426240   -0.071357
      7          1           0       -5.773815   -1.237366    1.915429
      8          1           0       -3.291460   -1.309172    1.878972
      9          1           0       -3.305503    0.307061   -2.113159
     10          1           0       -5.760518    0.380478   -2.086093
     11          6           0       -1.654452   -0.491066   -0.067333
     12          6           0       -0.443592   -0.506368   -0.045532
     13          6           0        1.039084   -0.524151   -0.004279
     14          6           0        1.706778   -0.508105    1.228356
     15          6           0        1.771171   -0.515957   -1.198554
     16          6           0        3.103569   -0.521500    1.264790
     17          1           0        1.138340   -0.503029    2.155585
     18          6           0        3.168204   -0.529679   -1.161599
     19          1           0        1.253114   -0.516829   -2.155522
     20          6           0        3.828236   -0.530868    0.069971
     21          1           0        3.625959   -0.522615    2.219395
     22          1           0        3.740306   -0.537060   -2.087134
     23          8           0       -7.370219   -0.435059    0.072630
     24          6           0       -8.215466    0.056751   -0.994186
     25          1           0       -8.009551    1.099693   -1.205024
     26          1           0       -8.087911   -0.531840   -1.895084
     27          1           0       -9.237632   -0.037917   -0.655550
     28         17           0        5.611839   -0.545612    0.117524
 ---------------------------------------------------------------------
                    Distance matrix (angstroms):
                    1          2          3          4          5
     1  C    0.000000
     2  C    1.394347   0.000000
     3  C    2.424911   1.405487   0.000000
     4  C    2.794885   2.421156   1.394166   0.000000
     5  C    2.423131   2.797312   2.422722   1.399503   0.000000
     6  C    1.399842   2.426402   2.808896   2.432935   1.408399
     7  H    1.088129   2.156891   3.412636   3.883010   3.407650
     8  H    2.154598   1.088252   2.166017   3.407562   3.885559
     9  H    3.882524   3.407519   2.153223   1.087640   2.157977
    10  H    3.414589   3.878956   3.390745   2.138169   1.081951
    11  C    3.764828   2.476657   1.484537   2.522287   3.799797
    12  C    4.923597   3.581389   2.695639   3.632799   4.966044
    13  C    6.366755   4.998771   4.178991   5.059355   6.419434
    14  C    6.951569   5.564865   5.027185   6.090350   7.383938
    15  C    7.359805   6.043950   5.028251   5.636626   7.034062
    16  C    8.346369   6.957904   6.392071   7.398968   8.722510
    17  H    6.479390   5.123399   4.840811   6.043190   7.233476
    18  C    8.689596   7.346982   6.393320   7.030715   8.428842
    19  H    7.236698   6.011375   4.843521   5.203461   6.585660
    20  C    9.117999   7.734226   6.969049   7.798249   9.177430
    21  H    8.943823   7.571391   7.154963   8.243431   9.524471
    22  H    9.505994   8.197521   7.156622   7.649688   9.042658
    23  O    2.391175   3.690472   4.236246   3.780700   2.523873
    24  C    3.733415   4.918235   5.180251   4.378295   2.980519
    25  H    4.090759   5.145951   5.233674   4.315919   2.973490
    26  H    4.108720   5.166717   5.261321   4.324197   2.975291
    27  H    4.433132   5.723582   6.138895   5.423790   4.033141
    28  Cl  10.887395   9.499737   8.753347   9.565823  10.950186
                    6          7          8          9         10
     6  C    0.000000
     7  H    2.152913   0.000000
     8  H    3.410586   2.483661   0.000000
     9  H    3.417757   4.970649   4.306915   0.000000
    10  H    2.178189   4.316222   4.967182   2.456262   0.000000
    11  C    4.292446   4.632220   2.671553   2.747431   4.657763
    12  C    5.503459   5.726343   3.529668   3.623159   5.763687
    13  C    6.986499   7.114039   4.787118   4.900380   7.168465
    14  C    7.763195   7.547394   5.103664   6.078912   8.218008
    15  C    7.799977   8.194153   5.977507   5.223646   7.636600
    16  C    9.148575   8.929935   6.472561   7.291999   9.519140
    17  H    7.426898   6.955201   4.511043   6.214995   8.146573
    18  C    9.180167   9.483071   7.181918   6.596550   9.022480
    19  H    7.495669   8.152886   6.128466   4.632664   7.071140
    20  C    9.776224   9.803277   7.387036   7.507223   9.870327
    21  H    9.843121   9.431809   6.970312   8.216115  10.366231
    22  H    9.894849  10.345503   8.109987   7.096241   9.545027
    23  O    1.431101   2.566732   4.545681   4.674434   2.813596
    24  C    2.496702   4.012762   5.862304   5.042073   2.706258
    25  H    2.805394   4.494173   6.129767   4.856032   2.520258
    26  H    2.814813   4.513627   6.152535   4.860324   2.507103
    27  H    3.365151   4.477348   6.587629   6.118317   3.783098
    28  Cl  11.560405  11.547472   9.107933   9.231575  11.620846
                   11         12         13         14         15
    11  C    0.000000
    12  C    1.211153   0.000000
    13  C    2.694477   1.483357   0.000000
    14  C    3.602356   2.499377   1.401949   0.000000
    15  C    3.607655   2.496944   1.400826   2.427777   0.000000
    16  C    4.941077   3.781471   2.423353   1.397331   2.800603
    17  H    3.569481   2.710615   2.162246   1.087612   3.413340
    18  C    4.945394   3.780373   2.423339   2.801449   1.397589
    19  H    3.579824   2.707578   2.161876   3.414164   1.088196
    20  C    5.484551   4.273459   2.790148   2.417221   2.416794
    21  H    5.754378   4.657403   3.411253   2.160006   3.888786
    22  H    5.760653   4.655543   3.411019   3.889543   2.160442
    23  O    5.717754   6.928001   8.410126   9.150568   9.229706
    24  C    6.648764   7.849781   9.325452  10.183795  10.005133
    25  H    6.649220   7.820971   9.271270  10.144624   9.913269
    26  H    6.688179   7.864929   9.320797  10.280680   9.883669
    27  H    7.619446   8.827611  10.308806  11.115318  11.032549
    28  Cl   7.268847   6.057753   4.574427   4.060155   4.060008
                   16         17         18         19         20
    16  C    0.000000
    17  H    2.157772   0.000000
    18  C    2.427264   3.889057   0.000000
    19  H    3.888797   4.312656   2.157688   0.000000
    20  C    1.397434   3.403836   1.397286   3.403567   0.000000
    21  H    1.088192   2.488514   3.411848   4.976979   2.158937
    22  H    3.411901   4.977152   1.088103   2.488214   2.158905
    23  O   10.541771   8.760074  10.610873   8.906920  11.198864
    24  C   11.556725   9.885752  11.399994   9.556762  12.104895
    25  H   11.499117   9.876554  11.295970   9.450585  12.017384
    26  H   11.629022  10.076332  11.279988   9.344668  12.077086
    27  H   12.499072  10.760094  12.425888  10.608253  13.095277
    28  Cl   2.758300   4.916065   2.758217   4.915897   1.784298
                   21         22         23         24         25
    21  H    0.000000
    22  H    4.308070   0.000000
    23  O   11.204115  11.318955   0.000000
    24  C   12.283408  12.020301   1.447209   0.000000
    25  H   12.236977  11.896059   2.096809   1.083782   0.000000
    26  H   12.415465  11.829778   2.096747   1.083664   1.773196
    27  H   13.189853  13.066195   2.043331   1.080953   1.761892
    28  Cl   2.891731   2.891923  12.982606  13.884995  13.783991
                   26         27         28
    26  H    0.000000
    27  H    1.761324   0.000000
    28  Cl  13.846802  14.878245   0.000000
 Stoichiometry    C15H11ClO
 Framework group  C1[X(C15H11ClO)]
 Deg. of freedom    78
 Full point group                 C1      NOp   1
 Largest Abelian subgroup         C1      NOp   1
 Largest concise Abelian subgroup C1      NOp   1
                         Standard orientation:                         
 ---------------------------------------------------------------------
 Center     Atomic      Atomic             Coordinates (Angstroms)
 Number     Number       Type             X           Y           Z
 ---------------------------------------------------------------------
      1          6           0        4.103077    1.361524   -0.260295
      2          6           0        2.710757    1.289720   -0.282487
      3          6           0        2.066309    0.062195   -0.051703
      4          6           0        2.825068   -1.092249    0.136027
      5          6           0        4.222583   -1.021808    0.160429
      6          6           0        4.871139    0.212603   -0.037541
      7          1           0        4.603621    2.315288   -0.414618
      8          1           0        2.123570    2.188868   -0.458658
      9          1           0        2.328383   -2.047486    0.290251
     10          1           0        4.781521   -1.931744    0.334281
     11          6           0        0.581881    0.047249   -0.041698
     12          6           0       -0.628955    0.020176   -0.035645
     13          6           0       -2.112144    0.001054   -0.024268
     14          6           0       -2.826660    1.173944    0.257259
     15          6           0       -2.796962   -1.198978   -0.255051
     16          6           0       -4.223767    1.152859    0.270755
     17          1           0       -2.294669    2.103270    0.447623
     18          6           0       -4.194337   -1.219496   -0.241763
     19          1           0       -2.242297   -2.111980   -0.462282
     20          6           0       -4.901539   -0.043744    0.022583
     21          1           0       -4.782713    2.063780    0.475610
     22          1           0       -4.730105   -2.146844   -0.433978
     23          8           0        6.287743    0.415774   -0.035549
     24          6           0        7.184456   -0.692909    0.211716
     25          1           0        7.010050   -1.124197    1.190570
     26          1           0        7.078951   -1.456620   -0.549824
     27          1           0        8.190358   -0.298792    0.175759
     28         17           0       -6.685532   -0.070152    0.042338
 ---------------------------------------------------------------------
 Rotational constants (GHZ):      2.5938921      0.1010682      0.0976294
 Standard basis: 6-31G (6D, 7F)
 There are   179 symmetry adapted cartesian basis functions of A   symmetry.
 There are   179 symmetry adapted basis functions of A   symmetry.
   179 basis functions,   442 primitive gaussians,   179 cartesian basis functions
    63 alpha electrons       63 beta electrons
       nuclear repulsion energy      1041.3676097702 Hartrees.
 NAtoms=   28 NActive=   28 NUniq=   28 SFac= 1.00D+00 NAtFMM=   60 NAOKFM=F Big=F
 Integral buffers will be    131072 words long.
 Raffenetti 2 integral format.
 Two-electron integral symmetry is turned on.
 Nuclear repulsion after empirical dispersion term =     1041.3470783353 Hartrees.
 One-electron integrals computed using PRISM.
 NBasis=   179 RedAO= T EigKep=  1.69D-04  NBF=   179
 NBsUse=   179 1.00D-06 EigRej= -1.00D+00 NBFU=   179
 Initial guess from the checkpoint file:  "D:\User Dont delete\Downloads\molecule_28.chk"
 B after Tr=     0.000000    0.000000    0.000000
         Rot=    0.999977    0.006669   -0.000385   -0.000698 Ang=   0.77 deg.
 ExpMin= 1.43D-01 ExpMax= 2.52D+04 ExpMxC= 3.78D+03 IAcc=1 IRadAn=         1 AccDes= 0.00D+00
 Harris functional with IExCor=  402 and IRadAn=       1 diagonalized for initial guess.
 HarFok:  IExCor=  402 AccDes= 0.00D+00 IRadAn=         1 IDoV= 1 UseB2=F ITyADJ=14
 ICtDFT=  3500011 ScaDFX=  1.000000  1.000000  1.000000  1.000000
 FoFCou: FMM=F IPFlag=           0 FMFlag=      100000 FMFlg1=           0
         NFxFlg=           0 DoJE=T BraDBF=F KetDBF=T FulRan=T
         wScrn=  0.000000 ICntrl=     500 IOpCl=  0 I1Cent=   200000004 NGrid=           0
         NMat0=    1 NMatS0=      1 NMatT0=    0 NMatD0=    1 NMtDS0=    0 NMtDT0=    0
 Petite list used in FoFCou.
 Keep R1 ints in memory in canonical form, NReq=132807145.
 Requested convergence on RMS density matrix=1.00D-08 within 128 cycles.
 Requested convergence on MAX density matrix=1.00D-06.
 Requested convergence on             energy=1.00D-06.
 No special actions if energy rises.
 Integral accuracy reduced to 1.0D-05 until final iterations.
 Initial convergence to 1.0D-05 achieved.  Increase integral accuracy.
 SCF Done:  E(RB3LYP) =  -1113.41555762     A.U. after   15 cycles
            NFock= 15  Conv=0.86D-08     -V/T= 2.0042
 Calling FoFJK, ICntrl=      2127 FMM=F ISym2X=0 I1Cent= 0 IOpClX= 0 NMat=1 NMatS=1 NMatT=0.
 ***** Axes restored to original set *****
 -------------------------------------------------------------------
 Center     Atomic                   Forces (Hartrees/Bohr)
 Number     Number              X              Y              Z
 -------------------------------------------------------------------
      1        6          -0.000077970   -0.004505260    0.008382888
      2        6          -0.008864213    0.001824988    0.004505953
      3        6           0.046713756   -0.007700763    0.008908390
      4        6          -0.004243451    0.005768614   -0.005071895
      5        6          -0.006071524   -0.001043152   -0.000064051
      6        6          -0.017848520    0.002988659   -0.004911445
      7        1          -0.000378224    0.000942160   -0.003689770
      8        1          -0.001287988    0.001551321   -0.002699204
      9        1          -0.001437556   -0.000475643    0.002006715
     10        1          -0.002550741   -0.000294067   -0.000303686
     11        6          -0.049739204    0.001756874   -0.007392500
     12        6           0.049615258   -0.001131032    0.002028426
     13        6          -0.045553331    0.004452212   -0.000745049
     14        6           0.004698174   -0.002756170    0.004314694
     15        6           0.005303679   -0.002410812   -0.005172359
     16        6           0.002929360    0.000625573    0.005197264
     17        1           0.001291660    0.000229007   -0.002581937
     18        6           0.003083885    0.000768110   -0.004800494
     19        1           0.001269279    0.000115587    0.003006505
     20        6          -0.020549956   -0.000192603   -0.000576849
     21        1          -0.001038032    0.000197605   -0.002918178
     22        1          -0.001186208    0.000191998    0.002811507
     23        8           0.024217283   -0.002653032    0.004877070
     24        6           0.007231137   -0.000363126   -0.000047905
     25        1           0.002207174    0.008555749   -0.002726074
     26        1           0.001576015   -0.004184558   -0.008222968
     27        1          -0.004627718   -0.002077330    0.005474151
     28       17           0.015317975   -0.000180909    0.000410802
 -------------------------------------------------------------------
 Cartesian Forces:  Max     0.049739204 RMS     0.011895215

 GradGradGradGradGradGradGradGradGradGradGradGradGradGradGradGradGradGrad
 Berny optimization.
 Using GEDIIS/GDIIS optimizer.
 FormGI is forming the generalized inverse of G from B-inverse, IUseBI=4.
 GSVD:  received Info=                   1 from GESDD.
 Internal  Forces:  Max     0.034755674 RMS     0.006132866
 Search for a local minimum.
 Step number   2 out of a maximum of  143
 All quantities printed in internal units (Hartrees-Bohrs-Radians)
 Mixed Optimization -- RFO/linear search
 Update second derivatives using D2CorX and points    1    2
 DE= -2.36D-02 DEPred=-3.52D-02 R= 6.69D-01
 TightC=F SS=  1.41D+00  RLast= 3.03D-01 DXNew= 5.0454D-01 9.0909D-01
 Trust test= 6.69D-01 RLast= 3.03D-01 DXMaxT set to 5.05D-01
 ITU=  1  0
 Use linear search instead of GDIIS.
     Eigenvalues ---    0.00230   0.00230   0.00230   0.01295   0.01295
     Eigenvalues ---    0.01517   0.01652   0.01962   0.02078   0.02091
     Eigenvalues ---    0.02104   0.02111   0.02116   0.02117   0.02118
     Eigenvalues ---    0.02119   0.02122   0.02124   0.02126   0.02128
     Eigenvalues ---    0.02132   0.02147   0.02164   0.03962   0.04704
     Eigenvalues ---    0.10126   0.10537   0.15798   0.15994   0.15996
     Eigenvalues ---    0.15997   0.15997   0.16000   0.16000   0.16000
     Eigenvalues ---    0.16000   0.16000   0.16153   0.21208   0.21992
     Eigenvalues ---    0.21996   0.22980   0.23410   0.23995   0.24042
     Eigenvalues ---    0.24986   0.25000   0.25000   0.25234   0.28372
     Eigenvalues ---    0.29448   0.34110   0.34230   0.34304   0.34372
[...]
 5,-0.00015400,0.00445940,0.00085262,-0.00022376,0.00046571,-0.12095914
 ,0.05342314,-0.26472894,-0.00030890,-0.00112923,0.00057868,0.00383496,
 0.00156934,-0.00205785,-0.00009047,-0.00019896,-0.00006907,-0.01721101
 ,0.00547958,-0.01921007,0.12910036,-0.05953349,0.27881294,-0.00002234,
 0.00000295,-0.00001135,-0.00002666,0.00000612,-0.00002635,0.00009921,0
 .00001594,-0.00007997,-0.00006019,-0.00000982,0.00004976,-0.00002888,0
 .00000079,-0.00000124,0.00007638,0.00000061,-0.00000918,-0.00000798,-0
 .00000042,0.00000280,0.00001183,0.00000200,-0.00000959,0.00001075,-0.0
 0000115,0.00000481,-0.00001518,0.00000137,-0.00000456,-0.00030451,0.00
 001410,-0.00004991,-0.00039629,-0.00025135,0.00118225,-0.00426831,0.00
 060318,-0.00164259,-0.00061297,0.00016531,-0.00071939,-0.01185857,-0.0
 0607644,0.02840690,-0.00135086,0.00079028,-0.00291537,0.00007961,-0.00
 004186,0.00009260,-0.13483830,-0.02673110,0.12731490,0.00068747,-0.000
 01278,-0.00040525,0.00909586,0.00369777,-0.01691083,0.00061712,0.00015
 448,-0.00070131,0.14233567,-0.00000383,-0.00000201,-0.00000479,0.00000
 151,-0.00001552,-0.00000687,-0.00000516,-0.00000400,0.00000265,0.00000
 406,0.00000648,0.00000452,-0.00000467,-0.00000387,0.00000428,0.0000116
 3,0.00000400,-0.00000099,-0.00000045,0.00000242,0.00000105,0.00000062,
 0.00000394,0.00000092,0.00000084,0.00000678,0.00000173,-0.00000033,0.0
 0000216,-0.00000019,0.00002781,-0.00015708,-0.00002662,-0.00001010,0.0
 0033908,0.00002578,0.00053270,0.00697104,0.00124683,0.00020086,-0.0004
 1343,-0.00018986,0.00125058,0.00425470,-0.00069908,0.00098128,0.004846
 43,0.00172190,-0.00003967,-0.00091279,-0.00020283,-0.02605296,-0.04865
 382,0.04789628,-0.00016315,-0.00420304,-0.00112705,-0.00410225,0.00241
 667,0.00546233,-0.00016655,0.00038197,0.00028935,0.02755310,0.03762449
 ,0.00001869,-0.00000539,0.00001909,-0.00000582,-0.00000728,0.00001581,
 0.00001357,0.00000077,-0.00000813,-0.00001190,0.00000575,-0.00001689,0
 .00002301,0.00000378,-0.00002187,-0.00005810,0.,0.00000924,0.00000294,
 0.00000104,-0.00000226,-0.00000345,0.00000080,0.00000092,-0.00000404,0
 .00000191,-0.00000094,0.00000301,-0.00000034,0.00000336,-0.00011057,-0
 .00002540,-0.00003986,0.00011110,0.00004742,0.00012422,-0.00133006,0.0
 0124055,0.00187508,-0.00087698,-0.00018667,0.00045521,-0.00411822,-0.0
 0004175,0.00467726,-0.00376309,0.00173900,-0.00212760,0.00008291,-0.00
 020264,-0.00006721,0.12430536,0.04795734,-0.26242864,0.00026245,-0.001
 14051,0.00057898,0.01771318,0.00476232,-0.01916516,0.00072373,0.000260
 53,-0.00077766,-0.13273982,-0.05366950,0.27624239,-0.05054880,0.003786
 61,-0.01181159,0.00862072,0.00042046,-0.00223585,-0.00597213,-0.000446
 79,0.00243032,0.00410585,-0.00023966,0.00127657,-0.03845389,-0.0006489
 0,0.00708852,-0.26416728,-0.00364654,0.03628859,0.00103365,-0.00027705
 ,0.00085424,-0.00090731,0.00007660,-0.00023969,-0.00117370,-0.00000080
 ,0.00009781,0.00040242,0.00000684,-0.00032485,0.00356322,-0.00011504,0
 .00014570,-0.00357885,0.00008391,-0.00004781,0.00298883,-0.00006276,0.
 00001008,-0.00091861,0.00002075,-0.00000879,-0.00091847,0.00002243,-0.
 00001606,-0.00004378,-0.00006206,0.00027971,0.00009952,-0.00001809,0.0
 0007041,-0.00004443,0.00006372,-0.00027842,0.00010251,0.00001213,-0.00
 006408,0.00094599,-0.00002069,0.00000710,-0.00009914,0.00002013,-0.000
 08088,-0.00010603,-0.00001604,0.00008035,0.47772218,0.01136768,0.00506
 682,0.00000199,-0.00056947,0.00386626,0.00269891,0.00004488,-0.0007728
 8,-0.00107732,0.00093395,0.00576831,0.00295842,-0.00755949,0.00830993,
 0.00115105,0.00639502,-0.04315732,0.01281738,-0.00017151,-0.00292103,-
 0.00099357,0.00037453,0.00019698,0.00004710,-0.00029039,-0.00010134,-0
 .00006403,0.00035353,-0.00270205,-0.00091064,-0.00009860,-0.00045502,-
 0.00020730,0.00010722,0.00002752,0.00001746,-0.00010190,0.00000184,0.0
 0000375,0.00003090,0.00000871,0.00000439,0.00003328,0.00000998,0.00001
 083,0.00000427,0.00000969,-0.00000940,-0.00000560,-0.00001029,-0.00000
 773,0.00000467,-0.00000156,0.00000761,-0.00000409,-0.00000991,-0.00000
 056,-0.00003906,0.00000041,-0.00000032,0.00000285,-0.00000506,0.000002
 01,0.00000497,-0.00000354,-0.00000385,-0.02718119,0.07784314,-0.045500
 13,0.00068508,0.00633769,0.00217130,0.00260963,-0.00733171,0.00024360,
 -0.00103530,0.00356515,-0.00394805,0.00306578,-0.00681534,0.03782250,0
 .00053122,0.00266753,-0.00825968,0.01371536,-0.10030605,0.00038633,-0.
 00098441,0.00119061,-0.00156201,0.00007383,0.00002743,0.00138556,-0.00
 009019,0.00015388,-0.00186634,-0.00087979,0.00117695,0.00007346,-0.000
 20598,0.00040459,-0.00015234,0.00001961,-0.00003978,0.00018468,0.00000
 023,-0.00001697,-0.00005394,0.00000531,-0.00000838,-0.00006423,0.00001
 180,-0.00003353,-0.00001430,-0.00000347,0.00002433,0.00001483,-0.00000
 660,0.00001583,-0.00001670,0.00000234,-0.00000861,0.00000806,-0.000002
 02,-0.00000188,0.00008857,-0.00000197,0.00000035,-0.00000419,0.0000004
 6,-0.00000622,-0.00001296,-0.00000196,0.00000557,0.08352566,-0.0570378
 7,0.31012193,-0.00056031,-0.00123533,0.00579755,-0.00142566,0.00037322
 ,-0.00139195,0.00148552,0.00003271,-0.00026150,-0.00055423,0.00042539,
 -0.00179426,0.00290075,0.00010410,-0.00085707,-0.04582827,0.00932842,-
 0.03768845,0.00011538,0.00007282,-0.00039226,-0.00022448,-0.00003523,0
 .00015014,0.00042905,0.00000659,-0.00006708,-0.00234452,0.00022333,-0.
 00077145,-0.00104479,0.00003228,-0.00007673,0.00095010,-0.00002384,0.0
 0001979,-0.00078261,0.00001654,-0.00000070,0.00023538,-0.00000855,0.00
 001627,0.00023649,-0.00000319,-0.00000784,0.00000824,0.00001459,-0.000
 06574,-0.00002525,0.00000507,-0.00001965,0.00000729,-0.00001484,0.0000
 6458,-0.00002695,-0.00000319,0.00001761,-0.00024633,0.00000524,-0.0000
 0112,0.00002326,-0.00000503,0.00002058,0.00002633,0.00000416,-0.000020
 40,-0.10386580,0.00655454,-0.02482457,0.57493359,-0.00105212,0.0028099
 6,0.00007379,0.00010121,0.00149580,0.00037610,-0.00034647,0.00021778,-
 0.00011022,0.00038413,0.00038781,0.00051872,-0.00223285,-0.00127174,-0
 .00092537,0.00320139,-0.00459885,-0.00012918,-0.00003807,-0.00061495,-
 0.00020333,-0.00007205,-0.00026863,-0.00010110,-0.00012285,0.00000256,
 0.00003333,-0.00022119,0.00007991,0.00015606,0.00024723,-0.00029282,-0
 .00004639,-0.00026095,-0.00000251,0.00000095,0.00022933,0.00002058,0.0
 0000578,-0.00006950,-0.00000422,-0.00000325,-0.00007183,-0.00000561,-0
 .00000666,-0.00000470,-0.00000846,0.00002164,0.00000823,0.00000516,0.0
 0000802,-0.00000430,-0.00000060,-0.00002160,0.00000855,0.00001121,-0.0
 0000227,0.00007473,-0.00000059,0.00000028,-0.00000709,0.00000508,-0.00
 000547,-0.00000897,0.00000314,0.00000720,0.01485985,-0.06182909,0.0230
 7646,0.01991381,0.56636579,0.00496756,0.00009203,0.00195693,-0.0001840
 4,0.00035178,0.00003570,0.00142176,-0.00014334,0.00069546,-0.00160680,
 0.00051387,-0.00162700,0.00951247,-0.00113608,0.00266426,-0.01049727,-
 0.00067758,-0.00060993,0.00009953,-0.00021330,0.00027793,0.00031290,-0
 .00010445,0.00014271,0.00050719,0.00002169,-0.00013427,0.00120671,0.00
 011507,-0.00051144,-0.00103050,-0.00002716,-0.00008503,0.00107246,-0.0
 0002037,-0.00001358,-0.00094557,0.00002491,0.00000091,0.00028685,-0.00
 000871,0.00000659,0.00029692,-0.00001281,0.00002169,0.00001983,0.00001
 994,-0.00009385,-0.00003364,0.00000830,-0.00002672,0.00001794,-0.00002
 070,0.00008458,-0.00003457,-0.00000121,0.00001936,-0.00030960,0.000006
 50,-0.00000016,0.00002973,-0.00000566,0.00002616,0.00003788,0.00000602
 ,-0.00002555,-0.06166537,0.02381831,-0.15650249,-0.08865707,0.02311478
 ,0.47738664,-0.00122201,-0.00032484,-0.00073277,0.00089629,-0.00015565
 ,-0.00048179,-0.00003583,-0.00023134,0.00086746,-0.00080092,-0.0004213
 1,-0.00043684,0.00024545,-0.00022273,0.00088436,0.00485322,0.00208744,
 -0.00065821,0.00005493,0.00009561,0.00016259,-0.00000318,0.00004764,0.
 00001160,-0.00000982,0.00003627,-0.00000104,-0.00166393,0.00140345,0.0
 0053894,0.00002240,0.00011126,0.00005438,0.00000137,-0.00000626,-0.000
 00782,-0.00001457,-0.00000723,-0.00000369,0.00000449,0.00000153,-0.000
 00317,0.00000502,-0.00000093,0.00000196,0.00000336,-0.00000049,-0.0000
 0243,-0.00000118,0.00000023,-0.00000085,0.00000273,0.00000180,0.000003
 12,-0.00000153,-0.00000117,0.00000103,-0.00001196,0.00000007,0.0000002
 0,0.00000099,-0.00000045,0.00000066,0.00000080,-0.00000008,-0.00000076
 ,-0.00124561,0.02101893,-0.01535849,-0.06621875,-0.05432973,0.02143367
 ,0.06708014,0.00080607,-0.00018268,0.00017214,-0.00033464,0.00007962,0
 .00001959,0.00016865,-0.00005347,-0.00011483,-0.00008606,0.00004643,-0
 .00050366,0.00058815,-0.00011461,0.00094682,-0.00276837,0.00013037,0.0
 0019490,-0.00006775,-0.00003152,-0.00012783,0.00002570,-0.00000292,0.0
 0000088,0.00005831,0.00001175,0.00000058,0.00021056,-0.00009102,-0.000
 87511,-0.00013586,0.00003119,-0.00006011,0.00010212,0.00000344,-0.0000
 0024,-0.00008312,-0.00000168,0.00000333,0.00002389,0.00000029,0.000005
 40,0.00002540,0.00000098,0.00000222,-0.00000174,0.00000234,-0.00001016
 ,-0.00000152,-0.00000132,-0.00000211,-0.00000189,0.00000011,0.00000829
 ,-0.00000129,-0.00000268,-0.00000088,-0.00001933,0.00000017,0.00000016
 ,0.00000155,-0.00000146,0.00000178,0.00000326,-0.00000079,-0.00000224,
 0.00464262,0.00003079,0.00754822,-0.05084199,-0.26925312,0.07479586,0.
 05379776,0.28983029,-0.00117251,-0.00027900,-0.00067532,0.00050091,-0.
 00024957,-0.00017345,-0.00037897,-0.00001556,0.00026705,0.00000254,0.0
 0001222,-0.00004903,-0.00083552,-0.00060443,0.00080988,0.00616876,0.00
 080590,0.00030915,0.00010581,0.00016500,0.00021979,-0.00004599,0.00005
 635,-0.00001674,-0.00006085,-0.00001750,0.00003181,0.00024093,-0.00004
 410,0.00007820,0.00022039,0.00001580,0.00001456,-0.00023229,0.00000039
 ,-0.00000284,0.00018995,-0.00000386,0.00000005,-0.00005863,0.00000018,
 -0.00000281,-0.00005872,0.00000016,-0.00000007,-0.00000317,-0.00000310
 ,0.00001608,0.00000703,-0.00000019,0.00000525,-0.00000339,0.00000225,-
 0.00001592,0.00000710,0.00000241,-0.00000390,0.00006111,-0.00000124,0.
 00000046,-0.00000619,0.00000193,-0.00000502,-0.00000675,-0.00000039,0.
 00000529,-0.00676932,0.02853152,-0.02268251,0.01892761,0.07241140,-0.0
 7635392,-0.01582773,-0.08899335,0.09029040,-0.00122278,0.00064628,-0.0
 0051598,0.00091300,0.00031230,-0.00037507,-0.00003773,-0.00016367,0.00
 088290,-0.00077561,0.00059064,-0.00018801,0.00023101,-0.00017632,0.000
 84800,0.00482223,-0.00177420,-0.00153499,0.00005149,-0.00015909,0.0001
 0827,-0.00000577,-0.00004756,-0.00000964,-0.00001293,-0.00003142,-0.00
 001648,-0.00173035,-0.00144892,-0.00007097,0.00002102,-0.00012436,0.00
 000385,-0.00000030,0.00000912,-0.00000428,-0.00001263,0.00000857,-0.00
 000028,0.00000402,-0.00000008,-0.00000372,0.00000455,-0.00000010,0.000
 00207,0.00000349,0.00000130,-0.00000175,-0.00000118,0.00000014,-0.0000
 0085,0.00000274,-0.00000297,0.00000186,-0.00000151,0.00000056,0.000001
 47,-0.00001172,0.00000030,0.00000024,0.00000099,0.00000006,0.00000074,
 0.00000074,0.00000032,-0.00000064,-0.00203631,-0.01206619,-0.02283213,
 -0.06273033,0.03439318,0.03691588,0.00236414,-0.00700038,-0.00393122,0
 .06343991,-0.00019011,-0.00033100,0.00002110,0.00005034,-0.00007137,0.
 00005000,0.00000963,-0.00003914,-0.00006761,0.00010433,-0.00018742,0.0
 0045747,-0.00018557,0.00020102,-0.00127483,-0.00030888,0.00062470,-0.0
 0001917,0.00001530,0.00003458,0.00003300,-0.00000250,0.00001868,0.0000
 1539,-0.00002587,0.00001108,-0.00001061,-0.00023655,-0.00034757,0.0006
 4661,0.00002837,0.00001478,0.00005806,0.00000743,0.00000171,0.00000280
 ,-0.00000592,-0.00000166,-0.00000404,0.00000343,0.00000175,-0.00000305
 ,0.00000209,0.00000163,-0.00000148,0.00000280,-0.00000043,0.00000245,-
 0.00000164,-0.00000094,-0.00000081,0.00000310,0.00000124,-0.00000024,-
 0.00000189,-0.00000226,0.00000159,-0.00000828,0.00000013,-0.00000041,0
 .00000119,-0.00000073,0.00000024,-0.00000011,-0.00000070,-0.00000057,-
 0.00076296,0.01034944,0.00877685,0.03229508,-0.17963336,-0.12431299,0.
 00693634,-0.02012234,-0.02220807,-0.03593298,0.18728842,-0.00138096,0.
 00049800,-0.00052659,0.00059866,0.00027968,-0.00003993,-0.00041681,-0.
 00011500,0.00025433,0.00004501,-0.00007233,0.00016034,-0.00099214,0.00
 034944,0.00050824,0.00668409,-0.00093684,-0.00015878,0.00011567,-0.000
 25874,0.00015738,-0.00005441,-0.00003802,-0.00003580,-0.00007926,0.000
 01000,0.00003552,0.00013858,-0.00018245,0.00040266,0.00025662,-0.00002
 629,0.00003254,-0.00025342,0.00001176,0.00000050,0.00020736,-0.0000049
 7,-0.00000186,-0.00006317,0.00000448,-0.00000382,-0.00006393,0.0000031
 5,-0.00000027,-0.00000217,-0.00000460,0.00001872,0.00000695,-0.0000030
 4,0.00000488,-0.00000219,0.00000602,-0.00001706,0.00000688,-0.00000193
 ,-0.00000434,0.00006362,-0.00000152,0.00000027,-0.00000631,0.00000038,
 -0.00000575,-0.00000755,-0.00000216,0.00000526,-0.00888155,-0.01266792
 ,-0.03220696,0.03325412,-0.12180358,-0.16945485,-0.00016917,0.00820449
 ,0.00958417,-0.03096037,0.13524209,0.19646735,-0.00102131,-0.00002772,
 0.00023808,0.00001192,0.00006673,-0.00029942,-0.00005511,0.00001122,-0
 .00004763,0.00006748,-0.00001725,0.00008093,0.00018343,0.00003542,-0.0
 0013493,0.00245229,0.00055664,-0.00264528,-0.00000083,0.00001058,-0.00
 004505,-0.00009750,0.00000345,-0.00000962,-0.00003879,-0.00000137,0.00
 001223,0.00015775,0.00001240,-0.00011348,0.00011479,-0.00000535,0.0000
 1168,-0.00013934,0.00000400,-0.00000531,0.00013238,-0.00000298,0.00000
 151,-0.00004168,0.00000029,0.00000237,-0.00004117,0.00000124,-0.000001
 82,-0.00000572,-0.00000235,0.00001093,0.00000626,-0.00000114,0.0000045
 6,-0.00000580,0.00000270,-0.00001151,0.00000637,0.00000095,-0.00000473
 ,0.00005225,-0.00000116,0.00000047,-0.00000514,0.00000100,-0.00000392,
 -0.00000493,-0.00000077,0.00000389,-0.02412346,0.00080448,-0.00132844,
 -0.29582493,-0.01447130,0.08637890,-0.00431887,0.00085555,0.00304632,-
 0.00329242,-0.00180208,0.00204950,0.32589984,0.00037318,0.00025548,-0.
 00006896,-0.00003618,-0.00003587,0.00011282,-0.00002103,-0.00002446,-0
 .00003270,0.00003663,0.00012692,-0.00006865,-0.00007117,0.00034747,0.0
 0037235,0.00044744,0.00014388,0.00117189,-0.00000680,0.00001550,0.0000
 1392,0.00003130,-0.00003141,-0.00000863,0.00001637,0.00002731,0.000007
 65,-0.00008422,-0.00041340,-0.00028021,-0.00001077,-0.00001521,-0.0000
 1536,0.00000679,-0.00000092,-0.00000047,-0.00000663,0.00000158,0.00000
 110,0.00000207,-0.00000103,-0.00000008,0.00000198,-0.00000016,0.000000
 36,-0.00000018,0.00000005,-0.00000089,-0.00000022,0.00000082,0.0000000
 2,-0.00000008,-0.00000084,0.00000053,-0.00000006,0.00000045,0.00000005
 ,-0.00000122,0.00000007,-0.00000004,0.00000024,0.00000048,0.00000027,0
 .00000028,0.00000037,-0.00000008,0.00945395,0.00047813,0.00012590,-0.0
 1722956,-0.05361995,0.00380424,-0.02983597,-0.00030827,0.01041343,0.02
 296588,0.00218966,-0.00849252,0.01396537,0.05086369,-0.00154145,-0.000
 03304,0.00053270,0.00015756,0.00010308,-0.00048462,0.00009545,-0.00003
 532,0.00011643,-0.00015770,-0.00006395,0.00040990,0.00033609,0.0003623
 7,-0.00121235,-0.00217687,0.00116457,-0.00454831,0.00003192,0.00001246
 ,-0.00003923,-0.00013312,-0.00000613,0.00000651,-0.00006653,0.00000923
 ,-0.00000573,0.00031582,-0.00028862,0.00077671,0.00003573,-0.00001581,
 0.00004825,-0.00001759,-0.00000023,0.00000170,0.00001764,0.00000077,-0
 .00000332,-0.00000550,0.00000008,-0.00000085,-0.00000507,0.00000042,-0
 .00000147,0.00000131,-0.00000070,0.00000282,0.00000050,0.00000011,0.00
 000030,0.00000080,0.00000028,-0.00000202,-0.00000028,-0.00000004,0.000
 00067,0.00000068,-0.00000004,0.00000017,-0.00000057,0.00000020,-0.0000
 0029,-0.00000076,0.00000002,0.00000035,-0.03972800,0.00091040,0.000263
 59,0.09862968,0.00355383,-0.07787737,0.00972459,-0.00121340,-0.0016504
 3,0.02168093,0.00259530,-0.00517658,-0.08718980,-0.00705585,0.08884245
 ,-0.00028759,0.00007316,-0.00029908,-0.00000872,0.00005502,-0.00024319
 ,0.00031807,0.00000035,-0.00002764,0.00001411,-0.00005254,0.00023254,-
 0.00034998,-0.00006642,0.00032676,0.00098231,0.00001410,-0.00015080,-0
 .00005603,-0.00000779,0.00003951,0.00006958,0.00000594,-0.00003297,0.0
 0006599,-0.00000971,0.00003691,-0.00006587,0.00001368,-0.00005502,-0.0
 0015880,-0.00000026,0.00001921,-0.00005097,-0.00001344,-0.00000502,-0.
 00030829,0.00000077,-0.00002343,0.00340247,-0.00094543,0.00429449,0.00
 344923,0.00095770,-0.00415789,-0.03560202,0.00176243,-0.00430137,-0.00
 142877,0.00009208,-0.00026702,-0.03520499,-0.00010984,0.00397428,-0.00
 142097,-0.00002440,0.00024948,-0.12647697,0.00221793,-0.00035610,0.000
 83342,-0.00012342,0.00023488,0.00086022,-0.00000345,-0.00030033,-0.001
 38129,0.00005181,-0.00010605,0.00035183,-0.00010766,0.00044626,0.00001
 284,0.00003434,-0.00008722,0.00001224,0.00000590,-0.00009363,-0.000067
 76,0.00000260,-0.00000545,0.19249670,0.00000642,-0.00000039,0.00000548
 ,0.00000025,0.00000245,0.00000888,-0.00000631,0.00002753,0.00001035,0.
 ,0.00000478,-0.00000126,0.00000680,0.00000293,-0.00000776,-0.00002032,
 -0.00000137,0.00000331,0.00000159,-0.00000142,-0.00000121,-0.00000118,
 -0.00000329,-0.00000102,-0.00000183,-0.00000290,-0.00000251,0.00000089
 ,-0.00000198,0.00000069,0.00000423,0.00003847,0.00000649,-0.00001338,-
 0.00072312,-0.00022203,-0.00000011,-0.00042236,-0.00046866,0.00033231,
 0.00412151,0.00161875,-0.00031931,0.00409344,0.00179415,-0.00478952,0.
 00368359,0.00033155,-0.00014216,0.00014899,0.00001715,0.00643610,0.003
 48500,0.00020367,0.00020898,0.00014585,0.00000850,0.00221640,-0.021430
 11,0.00304911,-0.00023626,-0.00248686,-0.00072959,0.00011749,-0.002493
 08,-0.00074221,0.00002857,0.00000114,0.00000148,-0.00000714,-0.0000002
 7,-0.00000894,-0.00000015,0.00000013,0.00000141,-0.00000042,0.00000010
 ,0.00000243,0.00000147,-0.00000034,0.00000003,-0.00382342,0.01181157,-
 0.00000262,-0.00000051,0.00000348,0.00000006,0.00000397,-0.00001319,0.
 00000211,0.00000975,-0.00001373,-0.00000081,0.00000345,-0.00001076,0.0
 0000129,-0.00000119,0.00000648,0.00000201,0.00000022,-0.00000219,-0.00
 000220,-0.00000037,0.00000017,-0.00000134,-0.00000166,0.00000395,0.000
 00191,-0.00000181,0.00000436,0.00000180,-0.00000046,0.00000007,-0.0000
 0082,0.00000689,0.00000949,-0.00000562,-0.00022203,0.00021272,-0.00001
 909,-0.00046874,0.00155451,-0.00137740,0.00173345,-0.00307838,0.001510
 95,0.00167954,-0.00309987,0.02478376,-0.00025616,0.00257518,0.00077270
 ,-0.00000387,0.00009780,-0.02508287,0.00079081,0.00240068,-0.00078657,
 0.00002945,0.00009188,-0.00035069,0.00304904,-0.03420163,0.00073566,-0
 .00073975,0.00056174,-0.00083717,-0.00073136,0.00066372,-0.00000279,-0
 .00000061,0.00000500,-0.00000009,0.00000008,-0.00000276,0.00000019,-0.
 00000075,-0.00000018,0.00000017,0.00000093,0.00000043,-0.00000046,-0.0
 0000007,0.00000007,0.00065793,-0.00487825,0.03223096||-0.00000477,0.00
 000246,-0.00000027,0.00000125,0.00000002,-0.00000140,0.00000117,-0.000
 00015,0.00000263,-0.00000301,0.00000034,0.00000048,0.00000021,0.000000
 21,-0.00000125,0.00000743,-0.00000112,0.00000257,0.00000177,-0.0000003
 6,0.00000120,0.00000037,-0.00000056,0.00000094,0.00000017,-0.00000031,
 -0.00000016,-0.00000060,-0.00000050,0.00000126,-0.00000001,0.00000126,
 -0.00000125,-0.00000094,-0.00000052,-0.00000029,-0.00000221,-0.0000024
 4,-0.00000012,0.00000277,0.00000182,-0.00000143,0.00000279,0.00000148,
 -0.00000039,-0.00000014,-0.00000016,-0.00000091,0.00000038,-0.00000008
 ,-0.00000018,-0.00000079,0.00000110,-0.00000131,-0.00000074,0.00000030
 ,-0.00000133,-0.00000199,-0.00000079,-0.00000137,0.00000052,0.00000033
 ,-0.00000118,-0.00000026,0.,-0.00000143,-0.00000362,-0.00000553,0.0000
 0305,-0.00000134,0.00000401,-0.00000103,-0.00000023,-0.00000048,0.0000
 0063,-0.00000026,-0.00000121,0.00000228,0.00000020,0.00000019,0.000001
 88,0.00000188,0.00000068,-0.00000165|||@


 IN THE UNIVERSE THE DIFFICULT THINGS ARE DONE AS IF THEY WERE EASY.

                                                          -- LAO-TSU
 Job cpu time:       0 days  0 hours  4 minutes 46.0 seconds.
 File lengths (MBytes):  RWF=    137 Int=      0 D2E=      0 Chk=      4 Scr=      1
 Normal termination of Gaussian 09 at Mon Sep 11 20:38:38 2023.
