 Entering Link 1 = C:\G09W\l1.exe PID=      3316.
  
 Copyright (c) 1988,1990,1992,1993,1995,1998,2003,2009,2013,
            Gaussian, Inc.  All Rights Reserved.
  
 This is part of the Gaussian(R) 09 program.  It is based on
 the Gaussian(R) 03 system (copyright 2003, Gaussian, Inc.),
 the Gaussian(R) 98 system (copyright 1998, Gaussian, Inc.),
 the Gaussian(R) 94 system (copyright 1995, Gaussian, Inc.),
 the Gaussian 92(TM) system (copyright 1992, Gaussian, Inc.),
 the Gaussian 90(TM) system (copyright 1990, Gaussian, Inc.),
 the Gaussian 88(TM) system (copyright 1988, Gaussian, Inc.),
 the Gaussian 86(TM) system (copyright 1986, Carnegie Mellon
 University), and the Gaussian 82(TM) system (copyright 1983,
 Carnegie Mellon University). Gaussian is a federally registered
 trademark of Gaussian, Inc.
  
 This software contains proprietary and confidential information,
 including trade secrets, belonging to Gaussian, Inc.
  
 This software is provided under written license and may be
 used, copied, transmitted, or stored only in accord with that
 written license.
  
 The following legend is applicable only to US Government
 contracts under FAR:
  
                    RESTRICTED RIGHTS LEGEND
  
 Use, reproduction and disclosure by the US Government is
 subject to restrictions as set forth in subparagraphs (a)
 and (c) of the Commercial Computer Software - Restricted
 Rights clause in FAR 52.227-19.
  
 Gaussian, Inc.
 340 Quinnipiac St., Bldg. 40, Wallingford CT 06492
  
  
 ---------------------------------------------------------------
 Warning -- This program may not be used in any manner that
 competes with the business of Gaussian, Inc. or will provide
 assistance to any competitor of Gaussian, Inc.  The licensee
 of this program is prohibited from giving any competitor of
 Gaussian, Inc. access to this program.  By using this program,
 the user acknowledges that Gaussian, Inc. is engaged in the
 business of creating and licensing software in the field of
 computational chemistry and represents and warrants to the
 licensee that it is not a competitor of Gaussian, Inc. and that
 it will not use this program in any manner prohibited above.
 ---------------------------------------------------------------
  

 Cite this work as:
 Gaussian 09, Revision D.01,
 M. J. Frisch, G. W. Trucks, H. B. Schlegel, G. E. Scuseria, 
 M. A. Robb, J. R. Cheeseman, G. Scalmani, V. Barone, B. Mennucci, 
 G. A. Petersson, H. Nakatsuji, M. Caricato, X. Li, H. P. Hratchian, 
 A. F. Izmaylov, J. Bloino, G. Zheng, J. L. Sonnenberg, M. Hada, 
 M. Ehara, K. Toyota, R. Fukuda, J. Hasegawa, M. Ishida, T. Nakajima, 
 Y. Honda, O. Kitao, H. Nakai, T. Vreven, J. A. Montgomery, Jr., 
 J. E. Peralta, F. Ogliaro, M. Bearpark, J. J. Heyd, E. Brothers, 
 K. N. Kudin, V. N. Staroverov, T. Keith, R. Kobayashi, J. Normand, 
 K. Raghavachari, A. Rendell, J. C. Burant, S. S. Iyengar, J. Tomasi, 
 M. Cossi, N. Rega, J. M. Millam, M. Klene, J. E. Knox, J. B. Cross, 
 V. Bakken, C. Adamo, J. Jaramillo, R. Gomperts, R. E. Stratmann, 
 O. Yazyev, A. J. Austin, R. Cammi, C. Pomelli, J. W. Ochterski, 
 R. L. Martin, K. Morokuma, V. G. Zakrzewski, G. A. Voth, 
 P. Salvador, J. J. Dannenberg, S. Dapprich, A. D. Daniels, 
 O. Farkas, J. B. Foresman, J. V. Ortiz, J. Cioslowski, 
 and D. J. Fox, Gaussian, Inc., Wallingford CT, 2013.
 
 ******************************************
 Gaussian 09:  EM64W-G09RevD.01 13-Apr-2013
                12-Sep-2023 
 ******************************************
 %nprocshared=6
 Will use up to    6 processors via shared memory.
 %mem=6GB
 %chk=D:\User Dont delete\Downloads\molecule_32.chk
 ----------------------------------------------
 # opt freq b3lyp/6-31g empiricaldispersion=gd3
 ----------------------------------------------
 1/14=-1,18=20,19=15,26=3,38=1/1,3;
 2/9=110,12=2,17=6,18=5,40=1/2;
 3/5=1,6=6,11=2,16=1,25=1,30=1,71=1,74=-5,124=31/1,2,3;
 4//1;
 5/5=2,38=5/2;
 6/7=2,8=2,9=2,10=2,28=1/1;
 7//1,2,3,16;
 1/14=-1,18=20,19=15,26=3/3(2);
 2/9=110/2;
 99//99;
 2/9=110/2;
 3/5=1,6=6,11=2,16=1,25=1,30=1,71=1,74=-5,124=31/1,2,3;
 4/5=5,16=3,69=1/1;
 5/5=2,38=5/2;
 7//1,2,3,16;
 1/14=-1,18=20,19=15,26=3/3(-5);
 2/9=110/2;
 6/7=2,8=2,9=2,10=2,19=2,28=1/1;
 99/9=1/99;
 -------------------
 Title Card Required
 -------------------
 Symbolic Z-matrix:
 Charge =  0 Multiplicity = 1
 C                    -5.33559  -0.93632   1.21752 
 C                    -3.9208   -0.97369   1.20624 
 C                    -3.25152  -0.50476   0.07853 
 C                    -3.97388  -0.04724  -1.01321 
 C                    -5.37317  -0.02998  -0.95143 
 H                    -5.8565   -1.26309   2.09308 
 H                    -3.38374  -1.34979   2.06498 
 H                    -3.47776   0.29758  -1.90012 
 H                    -5.94289   0.33706  -1.76216 
 C                    -1.70743  -0.51205   0.02278 
 C                    -0.50686  -0.51291  -0.03033 
 C                     1.03104  -0.51398  -0.09865 
 C                     1.7534   -0.51074   1.1062 
 C                     1.75097  -0.49616  -1.31937 
 C                     3.15594  -0.50917   1.10611 
 H                     1.22116  -0.53024   2.04799 
 C                     3.12977  -0.50389  -1.32262 
 H                     1.20396  -0.48933  -2.23851 
 C                     3.85891  -0.50848  -0.11739 
 H                     3.68082  -0.52023   2.03799 
 H                     3.67535  -0.50216  -2.24295 
 N                    -6.0147   -0.49631   0.12982 
 O                     5.28865  -0.53228  -0.13068 
 C                     5.78826   0.80753  -0.1443 
 H                     6.8581    0.78926  -0.14493 
 H                     5.43959   1.30929  -1.0227 
 H                     5.44092   1.32657   0.72452 
 

 GradGradGradGradGradGradGradGradGradGradGradGradGradGradGradGradGradGrad
 Berny optimization.
 Initialization pass.
                           ----------------------------
                           !    Initial Parameters    !
                           ! (Angstroms and Degrees)  !
 --------------------------                            --------------------------
 ! Name  Definition              Value          Derivative Info.                !
 --------------------------------------------------------------------------------
 ! R1    R(1,2)                  1.4153         estimate D2E/DX2                !
 ! R2    R(1,6)                  1.0699         estimate D2E/DX2                !
 ! R3    R(1,22)                 1.3557         estimate D2E/DX2                !
 ! R4    R(2,3)                  1.3927         estimate D2E/DX2                !
 ! R5    R(2,7)                  1.0804         estimate D2E/DX2                !
 ! R6    R(3,4)                  1.3867         estimate D2E/DX2                !
 ! R7    R(3,10)                 1.5451         estimate D2E/DX2                !
 ! R8    R(4,5)                  1.4008         estimate D2E/DX2                !
 ! R9    R(4,8)                  1.0732         estimate D2E/DX2                !
 ! R10   R(5,9)                  1.0567         estimate D2E/DX2                !
 ! R11   R(5,22)                 1.3409         estimate D2E/DX2                !
 ! R12   R(10,11)                1.2017         estimate D2E/DX2                !
 ! R13   R(11,12)                1.5394         estimate D2E/DX2                !
 ! R14   R(12,13)                1.4048         estimate D2E/DX2                !
 ! R15   R(12,14)                1.4173         estimate D2E/DX2                !
 ! R16   R(13,15)                1.4025         estimate D2E/DX2                !
 ! R17   R(13,16)                1.082          estimate D2E/DX2                !
 ! R18   R(14,17)                1.3788         estimate D2E/DX2                !
 ! R19   R(14,18)                1.0696         estimate D2E/DX2                !
 ! R20   R(15,19)                1.4111         estimate D2E/DX2                !
 ! R21   R(15,20)                1.0696         estimate D2E/DX2                !
 ! R22   R(17,19)                1.4086         estimate D2E/DX2                !
 ! R23   R(17,21)                1.0699         estimate D2E/DX2                !
 ! R24   R(19,23)                1.43           estimate D2E/DX2                !
 ! R25   R(23,24)                1.43           estimate D2E/DX2                !
 ! R26   R(24,25)                1.07           estimate D2E/DX2                !
 ! R27   R(24,26)                1.07           estimate D2E/DX2                !
 ! R28   R(24,27)                1.07           estimate D2E/DX2                !
 ! A1    A(2,1,6)              119.0224         estimate D2E/DX2                !
 ! A2    A(2,1,22)             120.1928         estimate D2E/DX2                !
 ! A3    A(6,1,22)             120.7844         estimate D2E/DX2                !
 ! A4    A(1,2,3)              118.552          estimate D2E/DX2                !
 ! A5    A(1,2,7)              119.9825         estimate D2E/DX2                !
 ! A6    A(3,2,7)              121.4619         estimate D2E/DX2                !
 ! A7    A(2,3,4)              119.8838         estimate D2E/DX2                !
 ! A8    A(2,3,10)             120.5226         estimate D2E/DX2                !
 ! A9    A(4,3,10)             119.5852         estimate D2E/DX2                !
 ! A10   A(3,4,5)              119.3213         estimate D2E/DX2                !
 ! A11   A(3,4,8)              121.0535         estimate D2E/DX2                !
 ! A12   A(5,4,8)              119.6245         estimate D2E/DX2                !
 ! A13   A(4,5,9)              120.5992         estimate D2E/DX2                !
 ! A14   A(4,5,22)             120.6102         estimate D2E/DX2                !
 ! A15   A(9,5,22)             118.784          estimate D2E/DX2                !
 ! A16   A(11,12,13)           118.4006         estimate D2E/DX2                !
 ! A17   A(11,12,14)           123.0706         estimate D2E/DX2                !
 ! A18   A(13,12,14)           118.5206         estimate D2E/DX2                !
 ! A19   A(12,13,15)           120.9407         estimate D2E/DX2                !
 ! A20   A(12,13,16)           119.575          estimate D2E/DX2                !
 ! A21   A(15,13,16)           119.4723         estimate D2E/DX2                !
 ! A22   A(12,14,17)           120.6579         estimate D2E/DX2                !
 ! A23   A(12,14,18)           118.7132         estimate D2E/DX2                !
 ! A24   A(17,14,18)           120.6243         estimate D2E/DX2                !
 ! A25   A(13,15,19)           119.8836         estimate D2E/DX2                !
 ! A26   A(13,15,20)           119.3838         estimate D2E/DX2                !
 ! A27   A(19,15,20)           120.7287         estimate D2E/DX2                !
 ! A28   A(14,17,19)           121.0381         estimate D2E/DX2                !
 ! A29   A(14,17,21)           120.7938         estimate D2E/DX2                !
 ! A30   A(19,17,21)           118.1675         estimate D2E/DX2                !
 ! A31   A(15,19,17)           118.9474         estimate D2E/DX2                !
 ! A32   A(15,19,23)           120.4071         estimate D2E/DX2                !
 ! A33   A(17,19,23)           120.639          estimate D2E/DX2                !
 ! A34   A(1,22,5)             121.343          estimate D2E/DX2                !
 ! A35   A(19,23,24)           109.5            estimate D2E/DX2                !
 ! A36   A(23,24,25)           109.4712         estimate D2E/DX2                !
 ! A37   A(23,24,26)           109.4712         estimate D2E/DX2                !
 ! A38   A(23,24,27)           109.4712         estimate D2E/DX2                !
 ! A39   A(25,24,26)           109.4713         estimate D2E/DX2                !
 ! A40   A(25,24,27)           109.4712         estimate D2E/DX2                !
 ! A41   A(26,24,27)           109.4712         estimate D2E/DX2                !
 ! A42   L(3,10,11,8,-1)       179.4829         estimate D2E/DX2                !
 ! A43   L(10,11,12,16,-1)     180.0109         estimate D2E/DX2                !
 ! A44   L(3,10,11,8,-2)       179.9513         estimate D2E/DX2                !
 ! A45   L(10,11,12,16,-2)     180.0011         estimate D2E/DX2                !
 ! D1    D(6,1,2,3)           -177.9065         estimate D2E/DX2                !
 ! D2    D(6,1,2,7)              1.406          estimate D2E/DX2                !
 ! D3    D(22,1,2,3)             2.3258         estimate D2E/DX2                !
 ! D4    D(22,1,2,7)          -178.3617         estimate D2E/DX2                !
 ! D5    D(2,1,22,5)            -3.1631         estimate D2E/DX2                !
 ! D6    D(6,1,22,5)           177.0733         estimate D2E/DX2                !
 ! D7    D(1,2,3,4)             -1.6333         estimate D2E/DX2                !
 ! D8    D(1,2,3,10)           179.4208         estimate D2E/DX2                !
 ! D9    D(7,2,3,4)            179.0648         estimate D2E/DX2                !
 ! D10   D(7,2,3,10)             0.1189         estimate D2E/DX2                !
 ! D11   D(2,3,4,5)              1.706          estimate D2E/DX2                !
 ! D12   D(2,3,4,8)           -178.6165         estimate D2E/DX2                !
 ! D13   D(10,3,4,5)          -179.3382         estimate D2E/DX2                !
 ! D14   D(10,3,4,8)             0.3393         estimate D2E/DX2                !
 ! D15   D(2,3,12,13)          -23.3907         estimate D2E/DX2                !
 ! D16   D(2,3,12,14)          157.7644         estimate D2E/DX2                !
 ! D17   D(4,3,12,13)          157.6378         estimate D2E/DX2                !
 ! D18   D(4,3,12,14)          -21.207          estimate D2E/DX2                !
 ! D19   D(3,4,5,9)            178.4627         estimate D2E/DX2                !
 ! D20   D(3,4,5,22)            -2.4828         estimate D2E/DX2                !
 ! D21   D(8,4,5,9)             -1.2195         estimate D2E/DX2                !
 ! D22   D(8,4,5,22)           177.8351         estimate D2E/DX2                !
 ! D23   D(4,5,22,1)             3.239          estimate D2E/DX2                !
 ! D24   D(9,5,22,1)          -177.6895         estimate D2E/DX2                !
 ! D25   D(11,12,13,15)       -179.8876         estimate D2E/DX2                !
 ! D26   D(11,12,13,16)          1.379          estimate D2E/DX2                !
 ! D27   D(14,12,13,15)         -0.8961         estimate D2E/DX2                !
 ! D28   D(14,12,13,16)       -179.6295         estimate D2E/DX2                !
 ! D29   D(11,12,14,17)       -179.7164         estimate D2E/DX2                !
 ! D30   D(11,12,14,18)         -0.4938         estimate D2E/DX2                !
 ! D31   D(13,12,14,17)          1.3423         estimate D2E/DX2                !
 ! D32   D(13,12,14,18)       -179.4352         estimate D2E/DX2                !
 ! D33   D(12,13,15,19)          0.1113         estimate D2E/DX2                !
 ! D34   D(12,13,15,20)       -179.1687         estimate D2E/DX2                !
 ! D35   D(16,13,15,19)        178.846          estimate D2E/DX2                !
 ! D36   D(16,13,15,20)         -0.434          estimate D2E/DX2                !
 ! D37   D(12,14,17,19)         -1.0033         estimate D2E/DX2                !
 ! D38   D(12,14,17,21)        179.2717         estimate D2E/DX2                !
 ! D39   D(18,14,17,19)        179.789          estimate D2E/DX2                !
 ! D40   D(18,14,17,21)          0.064          estimate D2E/DX2                !
 ! D41   D(13,15,19,17)          0.2553         estimate D2E/DX2                !
 ! D42   D(13,15,19,23)       -178.8197         estimate D2E/DX2                !
 ! D43   D(20,15,19,17)        179.5255         estimate D2E/DX2                !
 ! D44   D(20,15,19,23)          0.4504         estimate D2E/DX2                !
 ! D45   D(14,17,19,15)          0.1916         estimate D2E/DX2                !
 ! D46   D(14,17,19,23)        179.2645         estimate D2E/DX2                !
 ! D47   D(21,17,19,15)        179.9236         estimate D2E/DX2                !
 ! D48   D(21,17,19,23)         -1.0035         estimate D2E/DX2                !
 ! D49   D(15,19,23,24)        -90.9744         estimate D2E/DX2                !
 ! D50   D(17,19,23,24)         89.9663         estimate D2E/DX2                !
 ! D51   D(19,23,24,25)        179.4712         estimate D2E/DX2                !
 ! D52   D(19,23,24,26)        -60.5288         estimate D2E/DX2                !
 ! D53   D(19,23,24,27)         59.4712         estimate D2E/DX2                !
 --------------------------------------------------------------------------------
 Trust Radius=3.00D-01 FncErr=1.00D-07 GrdErr=1.00D-06
 Number of steps in this run=    136 maximum allowed number of steps=    162.
 GradGradGradGradGradGradGradGradGradGradGradGradGradGradGradGradGradGrad

                          Input orientation:                          
 ---------------------------------------------------------------------
 Center     Atomic      Atomic             Coordinates (Angstroms)
 Number     Number       Type             X           Y           Z
 ---------------------------------------------------------------------
      1          6           0       -5.335589   -0.936318    1.217525
      2          6           0       -3.920797   -0.973686    1.206235
      3          6           0       -3.251519   -0.504765    0.078525
      4          6           0       -3.973880   -0.047240   -1.013206
      5          6           0       -5.373174   -0.029984   -0.951425
      6          1           0       -5.856504   -1.263087    2.093083
      7          1           0       -3.383745   -1.349790    2.064984
      8          1           0       -3.477755    0.297580   -1.900122
      9          1           0       -5.942894    0.337063   -1.762161
     10          6           0       -1.707427   -0.512050    0.022778
     11          6           0       -0.506864   -0.512908   -0.030329
     12          6           0        1.031039   -0.513982   -0.098650
     13          6           0        1.753400   -0.510743    1.106204
     14          6           0        1.750972   -0.496164   -1.319365
     15          6           0        3.155942   -0.509173    1.106109
     16          1           0        1.221162   -0.530238    2.047990
     17          6           0        3.129769   -0.503892   -1.322620
     18          1           0        1.203958   -0.489327   -2.238507
     19          6           0        3.858905   -0.508479   -0.117385
     20          1           0        3.680817   -0.520227    2.037987
     21          1           0        3.675349   -0.502159   -2.242952
     22          7           0       -6.014700   -0.496311    0.129817
     23          8           0        5.288645   -0.532283   -0.130676
     24          6           0        5.788256    0.807531   -0.144304
     25          1           0        6.858100    0.789259   -0.144935
     26          1           0        5.439589    1.309288   -1.022695
     27          1           0        5.440915    1.326565    0.724521
 ---------------------------------------------------------------------
                    Distance matrix (angstroms):
                    1          2          3          4          5
     1  C    0.000000
     2  C    1.415330   0.000000
     3  C    2.413898   1.392677   0.000000
     4  C    2.760592   2.405627   1.386727   0.000000
     5  C    2.351000   2.766852   2.405750   1.400763   0.000000
     6  H    1.069923   2.148770   3.379267   3.830351   3.320118
     7  H    2.167681   1.080430   2.162769   3.394135   3.846874
     8  H    3.833245   3.385536   2.147087   1.073155   2.144746
     9  H    3.296793   3.823390   3.367536   2.141410   1.056691
    10  C    3.843303   2.551997   1.545116   2.534980   3.823501
    11  C    5.005296   3.660102   2.746825   3.633606   4.976204
    12  C    6.514954   5.141472   4.286232   5.109156   6.478844
    13  C    7.102624   5.693930   5.109342   6.124416   7.433238
    14  C    7.539820   6.227010   5.194140   5.750582   7.148857
    15  C    8.502997   7.092675   6.489338   7.452466   8.786859
    16  H    6.621597   5.229239   4.887159   6.049188   7.261681
    17  C    8.848820   7.505086   6.533304   7.125034   8.524226
    18  H    7.410102   6.193865   5.021967   5.339177   6.717606
    19  C    9.300739   7.905198   7.113124   7.897326   9.282018
    20  H    9.063215   7.660416   7.203958   8.253962   9.547339
    21  H    9.662317   8.355876   7.305529   7.760794   9.152418
    22  N    1.355694   2.402288   2.763669   2.381829   1.340934
    23  O   10.717053   9.316437   8.542771   9.317108  10.705154
    24  C   11.341760   9.963053   9.137249   9.837934  11.221872
    25  H   12.390317  11.005375  10.194550  10.898873  12.285180
    26  H   11.232354   9.889233   8.946443   9.510713  10.895622
    27  H   11.022555   9.652195   8.906711   9.671888  11.026946
                    6          7          8          9         10
     6  H    0.000000
     7  H    2.474439   0.000000
     8  H    4.903041   4.294733   0.000000
     9  H    4.175027   4.903239   2.469312   0.000000
    10  C    4.697347   2.771724   2.736258   4.673990   0.000000
    11  C    5.804334   3.656111   3.602667   5.768198   1.201737
    12  C    7.266575   4.987003   4.922719   7.219923   2.741157
    13  C    7.710421   5.292780   6.087393   8.257071   3.626449
    14  C    8.372973   6.208688   5.320422   7.751510   3.709733
    15  C    9.097620   6.662851   7.327633   9.577677   4.982567
    16  H    7.115649   4.677298   6.192955   8.160463   3.560681
    17  C    9.643471   7.390350   6.680961   9.122150   5.020820
    18  H    8.319345   6.348814   4.759429   7.210223   3.686473
    19  C    9.992236   7.610947   7.593053   9.974742   5.568098
    20  H    9.566367   7.113152   8.211130  10.382287   5.752765
    21  H   10.499354   8.313097   7.205831   9.666749   5.840197
    22  N    2.113619   3.375681   3.344698   2.068635   4.308631
    23  O   11.388307   8.983295   8.981614  11.382661   6.997784
    24  C   12.037185   9.677840   9.444677  11.851527   7.612784
    25  H   13.072185  10.693674  10.495348  12.910668   8.665436
    26  H   11.996954   9.718831   9.017342  11.447836   7.449169
    27  H   11.670945   9.318495   9.353622  11.694178   7.414293
                   11         12         13         14         15
    11  C    0.000000
    12  C    1.539421   0.000000
    13  C    2.529922   1.404809   0.000000
    14  C    2.599946   1.417310   2.425614   0.000000
    15  C    3.835056   2.442679   1.402543   2.803041   0.000000
    16  H    2.702921   2.155104   1.081952   3.408950   2.151966
    17  C    3.859430   2.429583   2.791707   1.378823   2.428876
    18  H    2.793478   2.146974   3.389607   1.069622   3.872608
    19  C    4.366640   2.827933   2.435226   2.426580   1.411062
    20  H    4.670616   3.403906   2.140852   3.872557   1.069585
    21  H    4.731461   3.404489   3.861451   2.134543   3.389106
    22  N    5.510188   7.049464   7.829234   7.899733   9.222471
    23  O    5.796411   4.257766   3.745436   3.732214   2.465481
    24  C    6.433125   4.937570   4.425120   4.402279   3.197862
    25  H    7.480072   5.971199   5.414177   5.395772   4.117889
    26  H    6.298055   4.859371   4.629548   4.117471   3.612984
    27  H    6.271327   4.848942   4.137530   4.595160   2.955782
                   16         17         18         19         20
    16  H    0.000000
    17  C    3.873563   0.000000
    18  H    4.286727   2.132560   0.000000
    19  C    3.412772   1.408634   3.398274   0.000000
    20  H    2.459696   3.405525   4.942083   2.162749   0.000000
    21  H    4.943278   1.069892   2.471428   2.133487   4.280980
    22  N    7.485869   9.259101   7.597238   9.876706   9.881535
    23  O    4.614218   2.466228   4.596680   1.430000   2.699696
    24  C    5.239669   3.189955   5.204164   2.335595   3.311591
    25  H    6.190724   4.118207   6.163372   3.268035   4.071244
    26  H    5.532458   2.951752   4.759599   2.573407   3.975950
    27  H    4.796416   3.589256   5.479855   2.564946   2.869456
                   21         22         23         24         25
    21  H    0.000000
    22  N    9.976327   0.000000
    23  O    2.658071  11.306403   0.000000
    24  C    3.253304  11.877918   1.430000   0.000000
    25  H    4.024841  12.939751   2.051796   1.070000   0.000000
    26  H    2.807652  11.652863   2.051796   1.070000   1.747303
    27  H    3.907346  11.614976   2.051796   1.070000   1.747303
                   26         27
    26  H    0.000000
    27  H    1.747303   0.000000
 Stoichiometry    C14H11NO
 Framework group  C1[X(C14H11NO)]
 Deg. of freedom    75
 Full point group                 C1      NOp   1
 Largest Abelian subgroup         C1      NOp   1
 Largest concise Abelian subgroup C1      NOp   1
                         Standard orientation:                         
 ---------------------------------------------------------------------
 Center     Atomic      Atomic             Coordinates (Angstroms)
 Number     Number       Type             X           Y           Z
 ---------------------------------------------------------------------
      1          6           0        5.272026    1.136110   -0.082771
      2          6           0        3.860238    1.184306   -0.170460
      3          6           0        3.141081    0.006495    0.016958
      4          6           0        3.813297   -1.183983    0.249117
      5          6           0        5.211841   -1.177996    0.327709
      6          1           0        5.830118    2.042403   -0.191862
      7          1           0        3.363263    2.123133   -0.367816
      8          1           0        3.278901   -2.106176    0.374180
      9          1           0        5.743148   -2.069201    0.527865
     10          6           0        1.597671    0.009451   -0.055583
     11          6           0        0.397170    0.001181   -0.109434
     12          6           0       -1.140664   -0.009702   -0.178456
     13          6           0       -1.828881    1.190848    0.063456
     14          6           0       -1.894255   -1.178238   -0.453032
     15          6           0       -3.229742    1.241049    0.016609
     16          1           0       -1.270408    2.094466    0.268887
     17          6           0       -3.271103   -1.129954   -0.508818
     18          1           0       -1.373669   -2.095976   -0.628641
     19          6           0       -3.965751    0.072916   -0.274688
     20          1           0       -3.727689    2.171328    0.191655
     21          1           0       -3.841569   -2.008298   -0.727335
     22          7           0        5.901886   -0.045071    0.131695
     23          8           0       -5.393089    0.116749   -0.350105
     24          6           0       -5.948096   -0.170053    0.936212
     25          1           0       -7.015864   -0.128069    0.881370
     26          1           0       -5.645034   -1.148580    1.245305
     27          1           0       -5.598674    0.551890    1.644451
 ---------------------------------------------------------------------
 Rotational constants (GHZ):      2.5317362      0.1510277      0.1448823
 Standard basis: 6-31G (6D, 7F)
 There are   166 symmetry adapted cartesian basis functions of A   symmetry.
 There are   166 symmetry adapted basis functions of A   symmetry.
   166 basis functions,   396 primitive gaussians,   166 cartesian basis functions
    55 alpha electrons       55 beta electrons
       nuclear repulsion energy       874.7974670766 Hartrees.
 NAtoms=   27 NActive=   27 NUniq=   27 SFac= 1.00D+00 NAtFMM=   60 NAOKFM=F Big=F
 Integral buffers will be    131072 words long.
 Raffenetti 2 integral format.
 Two-electron integral symmetry is turned on.
 Nuclear repulsion after empirical dispersion term =      874.7795190486 Hartrees.
 One-electron integrals computed using PRISM.
 NBasis=   166 RedAO= T EigKep=  1.93D-04  NBF=   166
 NBsUse=   166 1.00D-06 EigRej= -1.00D+00 NBFU=   166
 ExpMin= 1.61D-01 ExpMax= 5.48D+03 ExpMxC= 8.25D+02 IAcc=1 IRadAn=         1 AccDes= 0.00D+00
 Harris functional with IExCor=  402 and IRadAn=       1 diagonalized for initial guess.
 HarFok:  IExCor=  402 AccDes= 0.00D+00 IRadAn=         1 IDoV= 1 UseB2=F ITyADJ=14
 ICtDFT=  3500011 ScaDFX=  1.000000  1.000000  1.000000  1.000000
 FoFCou: FMM=F IPFlag=           0 FMFlag=      100000 FMFlg1=           0
         NFxFlg=           0 DoJE=T BraDBF=F KetDBF=T FulRan=T
         wScrn=  0.000000 ICntrl=     500 IOpCl=  0 I1Cent=   200000004 NGrid=           0
         NMat0=    1 NMatS0=      1 NMatT0=    0 NMatD0=    1 NMtDS0=    0 NMtDT0=    0
 Petite list used in FoFCou.
 Keep R1 ints in memory in canonical form, NReq=98502739.
 Requested convergence on RMS density matrix=1.00D-08 within 128 cycles.
 Requested convergence on MAX density matrix=1.00D-06.
 Requested convergence on             energy=1.00D-06.
 No special actions if energy rises.
 Integral accuracy reduced to 1.0D-05 until final iterations.
 Initial convergence to 1.0D-05 achieved.  Increase integral accuracy.
 SCF Done:  E(RB3LYP) =  -669.831492950     A.U. after   15 cycles
            NFock= 15  Conv=0.76D-08     -V/T= 2.0057

 **********************************************************************

            Population analysis using the SCF density.

 **********************************************************************

 Orbital symmetries:
       Occupied  (A) (A) (A) (A) (A) (A) (A) (A) (A) (A) (A) (A)
                 (A) (A) (A) (A) (A) (A) (A) (A) (A) (A) (A) (A)
                 (A) (A) (A) (A) (A) (A) (A) (A) (A) (A) (A) (A)
                 (A) (A) (A) (A) (A) (A) (A) (A) (A) (A) (A) (A)
                 (A) (A) (A) (A) (A) (A) (A)
       Virtual   (A) (A) (A) (A) (A) (A) (A) (A) (A) (A) (A) (A)
                 (A) (A) (A) (A) (A) (A) (A) (A) (A) (A) (A) (A)
                 (A) (A) (A) (A) (A) (A) (A) (A) (A) (A) (A) (A)
                 (A) (A) (A) (A) (A) (A) (A) (A) (A) (A) (A) (A)
                 (A) (A) (A) (A) (A) (A) (A) (A) (A) (A) (A) (A)
                 (A) (A) (A) (A) (A) (A) (A) (A) (A) (A) (A) (A)
                 (A) (A) (A) (A) (A) (A) (A) (A) (A) (A) (A) (A)
                 (A) (A) (A) (A) (A) (A) (A) (A) (A) (A) (A) (A)
                 (A) (A) (A) (A) (A) (A) (A) (A) (A) (A) (A) (A)
                 (A) (A) (A)
 The electronic state is 1-A.
 Alpha  occ. eigenvalues --  -19.16484 -14.33558 -10.25621 -10.24454 -10.23497
 Alpha  occ. eigenvalues --  -10.23152 -10.22788 -10.22774 -10.20787 -10.20583
 Alpha  occ. eigenvalues --  -10.20566 -10.20498 -10.20456 -10.20144 -10.20142
 Alpha  occ. eigenvalues --  -10.20017  -1.05365  -0.95563  -0.87274  -0.83008
 Alpha  occ. eigenvalues --   -0.78220  -0.77707  -0.76762  -0.74561  -0.70087
 Alpha  occ. eigenvalues --   -0.64595  -0.64446  -0.62919  -0.61253  -0.55873
 Alpha  occ. eigenvalues --   -0.54012  -0.50667  -0.49837  -0.49103  -0.48629
 Alpha  occ. eigenvalues --   -0.46376  -0.45915  -0.44893  -0.44769  -0.44141
 Alpha  occ. eigenvalues --   -0.43255  -0.40839  -0.40318  -0.38809  -0.38399
 Alpha  occ. eigenvalues --   -0.36920  -0.34696  -0.32838  -0.29321  -0.27860
 Alpha  occ. eigenvalues --   -0.27553  -0.27273  -0.26759  -0.24116  -0.23547
 Alpha virt. eigenvalues --   -0.05099  -0.02163  -0.01358  -0.01164   0.05322
 Alpha virt. eigenvalues --    0.08412   0.08816   0.09733   0.10486   0.13118
 Alpha virt. eigenvalues --    0.13339   0.13737   0.14348   0.15463   0.15975
 Alpha virt. eigenvalues --    0.16392   0.16630   0.18123   0.18535   0.18798
 Alpha virt. eigenvalues --    0.20275   0.21042   0.23024   0.26054   0.30275
 Alpha virt. eigenvalues --    0.30560   0.30841   0.31675   0.32272   0.32978
 Alpha virt. eigenvalues --    0.35668   0.45939   0.46884   0.48860   0.49584
 Alpha virt. eigenvalues --    0.50471   0.51693   0.52459   0.52705   0.53608
 Alpha virt. eigenvalues --    0.54902   0.56234   0.56292   0.56883   0.58468
 Alpha virt. eigenvalues --    0.58557   0.58942   0.59184   0.59817   0.60329
 Alpha virt. eigenvalues --    0.60383   0.60735   0.62718   0.64274   0.64928
 Alpha virt. eigenvalues --    0.65308   0.65519   0.66563   0.68716   0.69537
 Alpha virt. eigenvalues --    0.70818   0.73115   0.74737   0.75235   0.76893
 Alpha virt. eigenvalues --    0.78429   0.78871   0.82623   0.84681   0.84986
 Alpha virt. eigenvalues --    0.85839   0.86648   0.87288   0.88857   0.89657
 Alpha virt. eigenvalues --    0.89863   0.90495   0.91958   0.92789   0.94690
 Alpha virt. eigenvalues --    0.95672   0.97411   0.99084   0.99194   1.01691
 Alpha virt. eigenvalues --    1.01899   1.03723   1.06314   1.12105   1.14099
 Alpha virt. eigenvalues --    1.15551   1.16129   1.16908   1.17627   1.18025
 Alpha virt. eigenvalues --    1.20728   1.25347   1.26429   1.27846   1.28858
 Alpha virt. eigenvalues --    1.29952   1.37809   1.42471   1.47269   1.47525
 Alpha virt. eigenvalues --    1.50271   1.54808   1.74126   1.83560   1.84715
 Alpha virt. eigenvalues --    2.06307
          Condensed to atoms (all electrons):
               1          2          3          4          5          6
     1  C    4.901617   0.413387  -0.034754  -0.039805  -0.080237   0.378159
     2  C    0.413387   5.094981   0.510571  -0.067932  -0.038842  -0.066139
     3  C   -0.034754   0.510571   4.809114   0.517722  -0.034482   0.002947
     4  C   -0.039805  -0.067932   0.517722   5.096074   0.409108  -0.000116
     5  C   -0.080237  -0.038842  -0.034482   0.409108   4.898019   0.004375
     6  H    0.378159  -0.066139   0.002947  -0.000116   0.004375   0.576691
     7  H   -0.023975   0.339543  -0.032230   0.005293   0.000219   0.000280
     8  H    0.000232   0.005489  -0.033423   0.339405  -0.024235   0.000023
     9  H    0.004983  -0.000175   0.003002  -0.067573   0.380160  -0.000019
    10  C    0.008808  -0.025073   0.266493  -0.028345   0.009391  -0.000219
    11  C    0.000565   0.000932  -0.116690  -0.000382   0.000636  -0.000006
    12  C    0.000002   0.000006   0.000497  -0.000004   0.000002   0.000000
    13  C    0.000000  -0.000002  -0.000006   0.000001   0.000000   0.000000
    14  C    0.000000   0.000001  -0.000005  -0.000002   0.000000   0.000000
    15  C    0.000000   0.000000   0.000001   0.000000   0.000000   0.000000
    16  H    0.000000   0.000004  -0.000051   0.000000   0.000000   0.000000
    17  C    0.000000   0.000000   0.000001   0.000000   0.000000   0.000000
    18  H    0.000000   0.000000  -0.000037   0.000002   0.000000   0.000000
    19  C    0.000000   0.000000   0.000000   0.000000   0.000000   0.000000
    20  H    0.000000   0.000000   0.000000   0.000000   0.000000   0.000000
    21  H    0.000000   0.000000   0.000000   0.000000   0.000000   0.000000
    22  N    0.444022  -0.068112  -0.034856  -0.070332   0.451663  -0.044953
    23  O    0.000000   0.000000   0.000000   0.000000   0.000000   0.000000
    24  C    0.000000   0.000000   0.000000   0.000000   0.000000   0.000000
    25  H    0.000000   0.000000   0.000000   0.000000   0.000000   0.000000
    26  H    0.000000   0.000000   0.000000   0.000000   0.000000   0.000000
    27  H    0.000000   0.000000   0.000000   0.000000   0.000000   0.000000
               7          8          9         10         11         12
     1  C   -0.023975   0.000232   0.004983   0.008808   0.000565   0.000002
     2  C    0.339543   0.005489  -0.000175  -0.025073   0.000932   0.000006
     3  C   -0.032230  -0.033423   0.003002   0.266493  -0.116690   0.000497
     4  C    0.005293   0.339405  -0.067573  -0.028345  -0.000382  -0.000004
     5  C    0.000219  -0.024235   0.380160   0.009391   0.000636   0.000002
     6  H    0.000280   0.000023  -0.000019  -0.000219  -0.000006   0.000000
     7  H    0.563988  -0.000096   0.000024  -0.006018  -0.001684  -0.000039
     8  H   -0.000096   0.566936   0.000149  -0.006276  -0.001788  -0.000048
     9  H    0.000024   0.000149   0.580635  -0.000223  -0.000006   0.000000
    10  C   -0.006018  -0.006276  -0.000223   5.623713   0.531927  -0.108010
    11  C   -0.001684  -0.001788  -0.000006   0.531927   5.636207   0.261223
    12  C   -0.000039  -0.000048   0.000000  -0.108010   0.261223   4.793076
    13  C    0.000002   0.000000   0.000000  -0.001138  -0.025243   0.516868
    14  C    0.000000   0.000003   0.000000  -0.000046  -0.020427   0.514524
    15  C    0.000000   0.000000   0.000000   0.000406   0.007060  -0.040905
    16  H    0.000004   0.000000   0.000000  -0.001842  -0.004359  -0.032925
    17  C    0.000000   0.000000   0.000000   0.000411   0.007652  -0.034500
    18  H    0.000000   0.000002   0.000000  -0.001946  -0.005939  -0.032753
    19  C    0.000000   0.000000   0.000000   0.000057   0.001621  -0.021737
    20  H    0.000000   0.000000   0.000000  -0.000011  -0.000297   0.003801
    21  H    0.000000   0.000000   0.000000  -0.000008  -0.000266   0.003698
    22  N    0.004761   0.005208  -0.049205   0.001502   0.000063   0.000000
    23  O    0.000000   0.000000   0.000000   0.000000  -0.000002  -0.000222
    24  C    0.000000   0.000000   0.000000   0.000000   0.000000   0.000044
    25  H    0.000000   0.000000   0.000000   0.000000   0.000000  -0.000001
    26  H    0.000000   0.000000   0.000000   0.000000   0.000000   0.000000
    27  H    0.000000   0.000000   0.000000   0.000000   0.000000  -0.000002
              13         14         15         16         17         18
     1  C    0.000000   0.000000   0.000000   0.000000   0.000000   0.000000
     2  C   -0.000002   0.000001   0.000000   0.000004   0.000000   0.000000
     3  C   -0.000006  -0.000005   0.000001  -0.000051   0.000001  -0.000037
     4  C    0.000001  -0.000002   0.000000   0.000000   0.000000   0.000002
     5  C    0.000000   0.000000   0.000000   0.000000   0.000000   0.000000
     6  H    0.000000   0.000000   0.000000   0.000000   0.000000   0.000000
     7  H    0.000002   0.000000   0.000000   0.000004   0.000000   0.000000
     8  H    0.000000   0.000003   0.000000   0.000000   0.000000   0.000002
     9  H    0.000000   0.000000   0.000000   0.000000   0.000000   0.000000
    10  C   -0.001138  -0.000046   0.000406  -0.001842   0.000411  -0.001946
    11  C   -0.025243  -0.020427   0.007060  -0.004359   0.007652  -0.005939
    12  C    0.516868   0.514524  -0.040905  -0.032925  -0.034500  -0.032753
    13  C    4.982199  -0.073698   0.438105   0.350113  -0.031450   0.004907
    14  C   -0.073698   4.953223  -0.030490   0.004523   0.444733   0.351194
    15  C    0.438105  -0.030490   5.119712  -0.027888  -0.099959   0.000436
    16  H    0.350113   0.004523  -0.027888   0.564646   0.000479  -0.000182
    17  C   -0.031450   0.444733  -0.099959   0.000479   5.119075  -0.030016
    18  H    0.004907   0.351194   0.000436  -0.000182  -0.030016   0.569534
    19  C   -0.027180  -0.028290   0.466139   0.002969   0.461822   0.003307
    20  H   -0.033041   0.000385   0.352207  -0.004276   0.005782   0.000013
    21  H    0.000322  -0.032496   0.006378   0.000013   0.350707  -0.004529
    22  N    0.000000   0.000000   0.000000   0.000000   0.000000   0.000000
    23  O    0.004453   0.004688  -0.070272  -0.000045  -0.068838  -0.000046
    24  C    0.000010   0.000015  -0.007158  -0.000003  -0.006955  -0.000003
    25  H    0.000008   0.000009  -0.000083   0.000000  -0.000075   0.000000
    26  H    0.000093  -0.000776  -0.001294   0.000000   0.009870   0.000008
    27  H   -0.000728   0.000094   0.010114   0.000008  -0.001361   0.000000
              19         20         21         22         23         24
     1  C    0.000000   0.000000   0.000000   0.444022   0.000000   0.000000
     2  C    0.000000   0.000000   0.000000  -0.068112   0.000000   0.000000
     3  C    0.000000   0.000000   0.000000  -0.034856   0.000000   0.000000
     4  C    0.000000   0.000000   0.000000  -0.070332   0.000000   0.000000
     5  C    0.000000   0.000000   0.000000   0.451663   0.000000   0.000000
     6  H    0.000000   0.000000   0.000000  -0.044953   0.000000   0.000000
     7  H    0.000000   0.000000   0.000000   0.004761   0.000000   0.000000
     8  H    0.000000   0.000000   0.000000   0.005208   0.000000   0.000000
     9  H    0.000000   0.000000   0.000000  -0.049205   0.000000   0.000000
    10  C    0.000057  -0.000011  -0.000008   0.001502   0.000000   0.000000
    11  C    0.001621  -0.000297  -0.000266   0.000063  -0.000002   0.000000
    12  C   -0.021737   0.003801   0.003698   0.000000  -0.000222   0.000044
    13  C   -0.027180  -0.033041   0.000322   0.000000   0.004453   0.000010
    14  C   -0.028290   0.000385  -0.032496   0.000000   0.004688   0.000015
    15  C    0.466139   0.352207   0.006378   0.000000  -0.070272  -0.007158
    16  H    0.002969  -0.004276   0.000013   0.000000  -0.000045  -0.000003
    17  C    0.461822   0.005782   0.350707   0.000000  -0.068838  -0.006955
    18  H    0.003307   0.000013  -0.004529   0.000000  -0.000046  -0.000003
    19  C    4.775897  -0.035529  -0.036767   0.000000   0.246078  -0.053051
    20  H   -0.035529   0.573369  -0.000152   0.000000  -0.002454   0.000017
    21  H   -0.036767  -0.000152   0.575037   0.000000  -0.002324  -0.000018
    22  N    0.000000   0.000000   0.000000   6.748613   0.000000   0.000000
    23  O    0.246078  -0.002454  -0.002324   0.000000   8.339829   0.218603
    24  C   -0.053051   0.000017  -0.000018   0.000000   0.218603   4.925015
    25  H    0.005293  -0.000092  -0.000106   0.000000  -0.030383   0.376967
    26  H   -0.004979   0.000156   0.000895   0.000000  -0.050497   0.361463
    27  H   -0.004586   0.000882   0.000205   0.000000  -0.050503   0.360994
              25         26         27
     1  C    0.000000   0.000000   0.000000
     2  C    0.000000   0.000000   0.000000
     3  C    0.000000   0.000000   0.000000
     4  C    0.000000   0.000000   0.000000
     5  C    0.000000   0.000000   0.000000
     6  H    0.000000   0.000000   0.000000
     7  H    0.000000   0.000000   0.000000
     8  H    0.000000   0.000000   0.000000
     9  H    0.000000   0.000000   0.000000
    10  C    0.000000   0.000000   0.000000
    11  C    0.000000   0.000000   0.000000
    12  C   -0.000001   0.000000  -0.000002
    13  C    0.000008   0.000093  -0.000728
    14  C    0.000009  -0.000776   0.000094
    15  C   -0.000083  -0.001294   0.010114
    16  H    0.000000   0.000000   0.000008
    17  C   -0.000075   0.009870  -0.001361
    18  H    0.000000   0.000008   0.000000
    19  C    0.005293  -0.004979  -0.004586
    20  H   -0.000092   0.000156   0.000882
    21  H   -0.000106   0.000895   0.000205
    22  N    0.000000   0.000000   0.000000
    23  O   -0.030383  -0.050497  -0.050503
    24  C    0.376967   0.361463   0.360994
    25  H    0.556431  -0.035460  -0.035246
    26  H   -0.035460   0.629398  -0.050868
    27  H   -0.035246  -0.050868   0.628445
 Mulliken charges:
               1
     1  C    0.026998
     2  C   -0.098637
     3  C    0.176185
     4  C   -0.093113
     5  C    0.024224
     6  H    0.148978
     7  H    0.149927
     8  H    0.148421
     9  H    0.148249
    10  C   -0.263550
    11  C   -0.270796
    12  C    0.177408
    13  C   -0.104594
    14  C   -0.087162
    15  C   -0.122508
    16  H    0.148812
    17  C   -0.127379
    18  H    0.146048
    19  C    0.248936
    20  H    0.139241
    21  H    0.139411
    22  N   -0.388374
    23  O   -0.538064
    24  C   -0.175941
    25  H    0.162739
    26  H    0.141990
    27  H    0.142553
 Sum of Mulliken charges =   0.00000
 Mulliken charges with hydrogens summed into heavy atoms:
               1
     1  C    0.175976
     2  C    0.051290
     3  C    0.176185
     4  C    0.055307
     5  C    0.172473
    10  C   -0.263550
    11  C   -0.270796
    12  C    0.177408
    13  C    0.044218
    14  C    0.058886
    15  C    0.016733
    17  C    0.012032
    19  C    0.248936
    22  N   -0.388374
    23  O   -0.538064
    24  C    0.271341
 Electronic spatial extent (au):  <R**2>=           6980.3607
 Charge=              0.0000 electrons
 Dipole moment (field-independent basis, Debye):
    X=             -2.3800    Y=             -0.3247    Z=              1.5860  Tot=              2.8784
 Quadrupole moment (field-independent basis, Debye-Ang):
   XX=           -106.1890   YY=            -79.7253   ZZ=            -95.2773
   XY=              2.9483   XZ=            -10.2343   YZ=              0.2095
 Traceless Quadrupole moment (field-independent basis, Debye-Ang):
   XX=            -12.4585   YY=             14.0053   ZZ=             -1.5468
   XY=              2.9483   XZ=            -10.2343   YZ=              0.2095
 Octapole moment (field-independent basis, Debye-Ang**2):
  XXX=           -210.1326  YYY=              0.6050  ZZZ=              2.3538  XYY=             11.0260
  XXY=            -10.4230  XXZ=             57.7923  XZZ=            -11.3734  YZZ=             -1.1960
  YYZ=              0.0307  XYZ=            -11.1291
 Hexadecapole moment (field-independent basis, Debye-Ang**3):
 XXXX=          -9712.3037 YYYY=           -522.0943 ZZZZ=           -182.0609 XXXY=            111.2021
 XXXZ=           -389.1916 YYYX=             -2.0041 YYYZ=              0.9647 ZZZX=             -8.7265
 ZZZY=             -0.1739 XXYY=          -1335.6403 XXZZ=          -1505.3137 YYZZ=           -130.7555
 XXYZ=            -20.8914 YYXZ=              5.7472 ZZXY=              0.1048
 N-N= 8.747795190486D+02 E-N=-3.305986981741D+03  KE= 6.660039625278D+02
 Calling FoFJK, ICntrl=      2127 FMM=F ISym2X=0 I1Cent= 0 IOpClX= 0 NMat=1 NMatS=1 NMatT=0.
 ***** Axes restored to original set *****
 -------------------------------------------------------------------
 Center     Atomic                   Forces (Hartrees/Bohr)
 Number     Number              X              Y              Z
 -------------------------------------------------------------------
      1        6           0.031482385    0.006014849   -0.025735263
      2        6          -0.018404866   -0.000731081    0.011096832
      3        6           0.074229981   -0.005127391   -0.000221685
      4        6          -0.011588087    0.007560504   -0.010850611
      5        6           0.027665577   -0.014447530    0.020846612
      6        1          -0.011776754   -0.002937632    0.003868529
      7        1           0.002559531    0.000214859    0.001331096
      8        1           0.005291123    0.003259960   -0.005168501
      9        1          -0.014148940    0.005352125   -0.014324886
     10        6          -0.093744639   -0.000209338    0.004174498
     11        6           0.094022665   -0.000311368   -0.009651685
     12        6          -0.048263578    0.002647337    0.003567180
     13        6           0.003942770   -0.002259754   -0.000002356
     14        6          -0.019044335   -0.001729917    0.013186632
     15        6          -0.002251548    0.000311781   -0.015912907
     16        1          -0.000948836    0.000553678    0.001316654
     17        6           0.017193960    0.001668220    0.010891210
     18        1          -0.004496524   -0.000122640   -0.009773321
     19        6          -0.007420600   -0.009106346    0.007434039
     20        1           0.007770177   -0.000310340    0.007684673
     21        1           0.004997385   -0.000569303   -0.009688811
     22        7          -0.024338068    0.001101967    0.016478139
     23        8          -0.025078098   -0.016909821   -0.000125197
     24        6           0.005997655    0.005333467   -0.000144477
     25        1           0.014835837   -0.004762002   -0.000019795
     26        1          -0.004255274    0.012678999   -0.014937107
     27        1          -0.004228896    0.012836715    0.014680505
 -------------------------------------------------------------------
 Cartesian Forces:  Max     0.094022665 RMS     0.020738865

 GradGradGradGradGradGradGradGradGradGradGradGradGradGradGradGradGradGrad
 Berny optimization.
 FormGI is forming the generalized inverse of G from B-inverse, IUseBI=4.
 GSVD:  received Info=                   1 from GESDD.
 Internal  Forces:  Max     0.061552814 RMS     0.010702217
 Search for a local minimum.
 Step number   1 out of a maximum of  136
 All quantities printed in internal units (Hartrees-Bohrs-Radians)
 Mixed Optimization -- RFO/linear search
 Second derivative matrix not updated -- first step.
 ITU=  0
     Eigenvalues ---    0.00230   0.00240   0.00244   0.01295   0.01295
     Eigenvalues ---    0.01489   0.01595   0.01844   0.01942   0.01993
     Eigenvalues ---    0.01993   0.01999   0.02041   0.02054   0.02064
     Eigenvalues ---    0.02101   0.02138   0.02163   0.02193   0.02214
     Eigenvalues ---    0.02225   0.02329   0.03975   0.04664   0.10344
     Eigenvalues ---    0.10344   0.15996   0.15999   0.15999   0.15999
     Eigenvalues ---    0.15999   0.16000   0.16000   0.16000   0.16000
     Eigenvalues ---    0.16000   0.16000   0.21985   0.21999   0.22859
     Eigenvalues ---    0.22957   0.23855   0.23998   0.24996   0.24996
     Eigenvalues ---    0.24997   0.25000   0.28071   0.28570   0.35760
     Eigenvalues ---    0.35942   0.36834   0.37230   0.37230   0.37230
     Eigenvalues ---    0.37240   0.37244   0.37278   0.37283   0.38964
     Eigenvalues ---    0.40248   0.40695   0.40989   0.40989   0.41266
     Eigenvalues ---    0.43382   0.44460   0.44534   0.44795   0.44890
     Eigenvalues ---    0.47092   0.48393   0.52542   0.55660   1.03955
 RFO step:  Lambda=-4.09499695D-02 EMin= 2.30000000D-03
 Linear search not attempted -- first point.
 Maximum step size (   0.300) exceeded in Quadratic search.
    -- Step size scaled by   0.855
 Iteration  1 RMS(Cart)=  0.06796326 RMS(Int)=  0.00164708
 Iteration  2 RMS(Cart)=  0.00255737 RMS(Int)=  0.00013313
 Iteration  3 RMS(Cart)=  0.00000670 RMS(Int)=  0.00013309
 Iteration  4 RMS(Cart)=  0.00000000 RMS(Int)=  0.00013309
 Variable       Old X    -DE/DX   Delta X   Delta X   Delta X     New X
                                 (Linear)    (Quad)   (Total)
    R1        2.67459  -0.00968   0.00000  -0.01874  -0.01871   2.65588
    R2        2.02186   0.00980   0.00000   0.02028   0.02028   2.04214
    R3        2.56189  -0.00851   0.00000  -0.01397  -0.01391   2.54798
    R4        2.63178   0.00818   0.00000   0.01423   0.01420   2.64598
    R5        2.04172   0.00226   0.00000   0.00482   0.00482   2.04654
    R6        2.62053   0.01243   0.00000   0.02202   0.02197   2.64250
    R7        2.91985  -0.06103   0.00000  -0.16229  -0.16229   2.75756
    R8        2.64706   0.00101   0.00000   0.00287   0.00284   2.64989
    R9        2.02797   0.00776   0.00000   0.01622   0.01622   2.04419
   R10        1.99686   0.02048   0.00000   0.04068   0.04068   2.03753
   R11        2.53400   0.00606   0.00000   0.00807   0.00809   2.54209
   R12        2.27095   0.03281   0.00000   0.02597   0.02597   2.29692
   R13        2.90908  -0.06155   0.00000  -0.16118  -0.16118   2.74790
   R14        2.65470   0.00085   0.00000   0.00146   0.00145   2.65615
   R15        2.67833  -0.00866   0.00000  -0.01497  -0.01499   2.66334
   R16        2.65042  -0.00401   0.00000  -0.00772  -0.00772   2.64270
   R17        2.04459   0.00160   0.00000   0.00344   0.00344   2.04803
   R18        2.60560   0.01157   0.00000   0.01923   0.01923   2.62482
   R19        2.02129   0.01070   0.00000   0.02212   0.02212   2.04341
   R20        2.66652  -0.01214   0.00000  -0.02243  -0.02242   2.64411
   R21        2.02122   0.01051   0.00000   0.02173   0.02173   2.04295
   R22        2.66193  -0.00689   0.00000  -0.01218  -0.01217   2.64977
   R23        2.02180   0.01088   0.00000   0.02252   0.02252   2.04432
   R24        2.70231  -0.01288   0.00000  -0.02443  -0.02443   2.67788
   R25        2.70231   0.02877   0.00000   0.05458   0.05458   2.75689
   R26        2.02201   0.01491   0.00000   0.03087   0.03087   2.05288
   R27        2.02201   0.01960   0.00000   0.04056   0.04056   2.06257
   R28        2.02201   0.01952   0.00000   0.04040   0.04040   2.06241
    A1        2.07733   0.00104   0.00000   0.01423   0.01421   2.09154
    A2        2.09776   0.01404   0.00000   0.04020   0.04024   2.13800
    A3        2.10809  -0.01509   0.00000  -0.05441  -0.05443   2.05365
    A4        2.06912  -0.00053   0.00000  -0.00346  -0.00351   2.06561
    A5        2.09409   0.00194   0.00000   0.00888   0.00889   2.10298
    A6        2.11991  -0.00140   0.00000  -0.00534  -0.00533   2.11458
    A7        2.09237  -0.00493   0.00000  -0.01125  -0.01139   2.08098
    A8        2.10352   0.00110   0.00000   0.00165   0.00172   2.10523
    A9        2.08716   0.00384   0.00000   0.00969   0.00975   2.09690
   A10        2.08255  -0.00588   0.00000  -0.01444  -0.01458   2.06797
   A11        2.11278   0.00103   0.00000  -0.00090  -0.00083   2.11195
   A12        2.08784   0.00485   0.00000   0.01536   0.01543   2.10327
   A13        2.10485  -0.00164   0.00000  -0.00207  -0.00207   2.10279
   A14        2.10505   0.01062   0.00000   0.03547   0.03540   2.14044
   A15        2.07317  -0.00897   0.00000  -0.03323  -0.03323   2.03995
   A16        2.06648   0.00468   0.00000   0.01277   0.01278   2.07926
   A17        2.14799  -0.01001   0.00000  -0.03042  -0.03041   2.11758
   A18        2.06857   0.00534   0.00000   0.01778   0.01773   2.08631
   A19        2.11081  -0.00270   0.00000  -0.00947  -0.00950   2.10131
   A20        2.08698   0.00117   0.00000   0.00402   0.00402   2.09100
   A21        2.08518   0.00154   0.00000   0.00557   0.00558   2.09076
   A22        2.10588  -0.00470   0.00000  -0.01169  -0.01171   2.09417
   A23        2.07194   0.00350   0.00000   0.01074   0.01074   2.08268
   A24        2.10529   0.00121   0.00000   0.00100   0.00101   2.10630
   A25        2.09236  -0.00131   0.00000  -0.00638  -0.00636   2.08600
   A26        2.08364   0.00368   0.00000   0.01609   0.01608   2.09972
   A27        2.10711  -0.00238   0.00000  -0.00971  -0.00972   2.09739
   A28        2.11251  -0.00510   0.00000  -0.01441  -0.01440   2.09811
   A29        2.10825   0.00190   0.00000   0.00446   0.00445   2.11270
   A30        2.06241   0.00320   0.00000   0.00997   0.00996   2.07237
   A31        2.07602   0.00848   0.00000   0.02435   0.02438   2.10041
   A32        2.10150  -0.00333   0.00000  -0.00951  -0.00953   2.09197
   A33        2.10555  -0.00515   0.00000  -0.01487  -0.01489   2.09066
   A34        2.11783  -0.01321   0.00000  -0.04501  -0.04498   2.07285
   A35        1.91114   0.02433   0.00000   0.07153   0.07153   1.98267
   A36        1.91063  -0.00956   0.00000  -0.04320  -0.04305   1.86759
   A37        1.91063   0.00684   0.00000   0.03035   0.03011   1.94075
   A38        1.91063   0.00665   0.00000   0.02956   0.02931   1.93995
   A39        1.91063  -0.00049   0.00000  -0.00456  -0.00440   1.90623
   A40        1.91063  -0.00042   0.00000  -0.00429  -0.00415   1.90648
   A41        1.91063  -0.00302   0.00000  -0.00787  -0.00844   1.90219
   A42        3.13257   0.00079   0.00000   0.00798   0.00800   3.14056
   A43        3.14178  -0.00097   0.00000  -0.01962  -0.01964   3.12214
   A44        3.14074  -0.00006   0.00000  -0.00082  -0.00087   3.13987
   A45        3.14161   0.00014   0.00000   0.00157   0.00156   3.14317
    D1       -3.10505  -0.00074   0.00000  -0.01227  -0.01247  -3.11752
    D2        0.02454  -0.00035   0.00000  -0.00581  -0.00586   0.01868
    D3        0.04059  -0.00095   0.00000  -0.01638  -0.01677   0.02382
    D4       -3.11300  -0.00056   0.00000  -0.00992  -0.01017  -3.12317
    D5       -0.05521   0.00199   0.00000   0.02567   0.02543  -0.02978
    D6        3.09051   0.00174   0.00000   0.02132   0.02106   3.11157
    D7       -0.02851   0.00089   0.00000   0.01139   0.01124  -0.01726
    D8        3.13148   0.00040   0.00000   0.00550   0.00554   3.13702
    D9        3.12527   0.00047   0.00000   0.00473   0.00449   3.12976
   D10        0.00208  -0.00002   0.00000  -0.00116  -0.00122   0.00086
   D11        0.02978  -0.00098   0.00000  -0.01252  -0.01236   0.01741
   D12       -3.11745  -0.00072   0.00000  -0.00853  -0.00829  -3.12574
   D13       -3.13004  -0.00052   0.00000  -0.00677  -0.00676  -3.13681
   D14        0.00592  -0.00027   0.00000  -0.00279  -0.00270   0.00323
   D15       -0.40825   0.00072   0.00000   0.01109   0.01099  -0.39726
   D16        2.75351   0.00012   0.00000   0.00277   0.00275   2.75626
   D17        2.75130   0.00008   0.00000   0.00128   0.00130   2.75260
   D18       -0.37013  -0.00052   0.00000  -0.00705  -0.00694  -0.37707
   D19        3.11476   0.00043   0.00000   0.00711   0.00728   3.12204
   D20       -0.04333   0.00121   0.00000   0.01876   0.01916  -0.02417
   D21       -0.02128   0.00019   0.00000   0.00323   0.00328  -0.01800
   D22        3.10381   0.00097   0.00000   0.01488   0.01517   3.11897
   D23        0.05653  -0.00208   0.00000  -0.02676  -0.02657   0.02996
   D24       -3.10127  -0.00126   0.00000  -0.01504  -0.01482  -3.11609
   D25       -3.13963   0.00011   0.00000   0.00027   0.00016  -3.13947
   D26        0.02407  -0.00034   0.00000  -0.00599  -0.00607   0.01800
   D27       -0.01564   0.00047   0.00000   0.00759   0.00765  -0.00799
   D28       -3.13513   0.00002   0.00000   0.00133   0.00142  -3.13371
   D29       -3.13664  -0.00018   0.00000  -0.00235  -0.00242  -3.13906
   D30       -0.00862   0.00009   0.00000   0.00136   0.00131  -0.00731
   D31        0.02343  -0.00072   0.00000  -0.01053  -0.01056   0.01287
   D32       -3.13173  -0.00046   0.00000  -0.00682  -0.00684  -3.13857
   D33        0.00194  -0.00011   0.00000  -0.00156  -0.00154   0.00040
   D34       -3.12708  -0.00009   0.00000  -0.00144  -0.00141  -3.12850
   D35        3.12145   0.00033   0.00000   0.00467   0.00467   3.12612
   D36       -0.00757   0.00036   0.00000   0.00479   0.00480  -0.00278
   D37       -0.01751   0.00055   0.00000   0.00740   0.00734  -0.01017
   D38        3.12888   0.00001   0.00000   0.00003   0.00001   3.12889
   D39        3.13791   0.00027   0.00000   0.00355   0.00349   3.14140
   D40        0.00112  -0.00027   0.00000  -0.00382  -0.00384  -0.00272
   D41        0.00446  -0.00016   0.00000  -0.00208  -0.00206   0.00239
   D42       -3.12099   0.00002   0.00000   0.00017   0.00018  -3.12081
   D43        3.13331  -0.00014   0.00000  -0.00201  -0.00200   3.13131
   D44        0.00786   0.00004   0.00000   0.00024   0.00025   0.00811
   D45        0.00334  -0.00006   0.00000  -0.00082  -0.00083   0.00252
   D46        3.12875  -0.00022   0.00000  -0.00302  -0.00302   3.12573
   D47        3.14026   0.00047   0.00000   0.00635   0.00633  -3.13660
   D48       -0.01751   0.00030   0.00000   0.00415   0.00413  -0.01338
   D49       -1.58780  -0.00001   0.00000  -0.00071  -0.00068  -1.58848
   D50        1.57021   0.00004   0.00000   0.00121   0.00118   1.57139
   D51        3.13236   0.00005   0.00000   0.00091   0.00092   3.13328
   D52       -1.05643  -0.00222   0.00000  -0.01253  -0.01310  -1.06953
   D53        1.03797   0.00235   0.00000   0.01452   0.01509   1.05306
         Item               Value     Threshold  Converged?
 Maximum Force            0.061553     0.000450     NO 
 RMS     Force            0.010702     0.000300     NO 
 Maximum Displacement     0.239656     0.001800     NO 
 RMS     Displacement     0.069209     0.001200     NO 
 Predicted change in Energy=-2.198757D-02
 GradGradGradGradGradGradGradGradGradGradGradGradGradGradGradGradGradGrad

                          Input orientation:                          
 ---------------------------------------------------------------------
 Center     Atomic      Atomic             Coordinates (Angstroms)
 Number     Number       Type             X           Y           Z
 ---------------------------------------------------------------------
      1          6           0       -5.232323   -0.937933    1.209925
      2          6           0       -3.827275   -0.968329    1.197828
      3          6           0       -3.161924   -0.502440    0.057303
      4          6           0       -3.911097   -0.045583   -1.031462
      5          6           0       -5.309719   -0.051812   -0.930660
      6          1           0       -5.769773   -1.270785    2.086376
      7          1           0       -3.278257   -1.339293    2.054457
      8          1           0       -3.427006    0.306873   -1.932346
      9          1           0       -5.918282    0.310179   -1.743779
     10          6           0       -1.704076   -0.506158   -0.006241
     11          6           0       -0.489773   -0.507238   -0.059703
     12          6           0        0.963918   -0.506868   -0.095382
     13          6           0        1.678115   -0.506430    1.115221
     14          6           0        1.666952   -0.494545   -1.316833
     15          6           0        3.076565   -0.503512    1.111754
     16          1           0        1.142009   -0.523296    2.056957
     17          6           0        3.055945   -0.497565   -1.318431
     18          1           0        1.114115   -0.492072   -2.246151
     19          6           0        3.762942   -0.500531   -0.107523
     20          1           0        3.624426   -0.515403    2.043660
     21          1           0        3.612833   -0.500033   -2.245889
     22          7           0       -5.956608   -0.504106    0.158637
     23          8           0        5.179782   -0.523102   -0.119665
     24          6           0        5.784936    0.804283   -0.132985
     25          1           0        6.861971    0.662438   -0.132824
     26          1           0        5.495972    1.360790   -1.026345
     27          1           0        5.497600    1.376952    0.750531
 ---------------------------------------------------------------------
                    Distance matrix (angstroms):
                    1          2          3          4          5
     1  C    0.000000
     2  C    1.405429   0.000000
     3  C    2.409304   1.400194   0.000000
     4  C    2.750589   2.414170   1.398351   0.000000
     5  C    2.318040   2.751019   2.406691   1.402264   0.000000
     6  H    1.080652   2.157382   3.392399   3.831019   3.286343
     7  H    2.166264   1.082982   2.168521   3.405447   3.833455
     8  H    3.831786   3.403578   2.164245   1.081740   2.162554
     9  H    3.279130   3.828831   3.391425   2.159342   1.078216
    10  C    3.756863   2.484222   1.459237   2.476721   3.749886
    11  C    4.928411   3.596236   2.674716   3.586488   4.919132
    12  C    6.346893   4.984062   4.128668   4.985459   6.345336
    13  C    6.924545   5.525350   4.954309   6.004991   7.295350
    14  C    7.360780   6.060901   5.020592   5.603359   7.001362
    15  C    8.320816   6.920005   6.326974   7.323284   8.643219
    16  H    6.443718   5.062602   4.745829   5.941415   7.125514
    17  C    8.676514   7.343834   6.368246   6.987582   8.386501
    18  H    7.240203   6.041949   4.857007   5.189179   6.571909
    19  C    9.101746   7.715839   6.926827   7.742836   9.120969
    20  H    8.905933   7.513216   7.071091   8.152374   9.427642
    21  H    9.506377   8.211802   7.155559   7.634846   9.030098
    22  N    1.348333   2.414431   2.796521   2.410538   1.345215
    23  O   10.504848   9.113786   8.343609   9.148961  10.531356
    24  C   11.234710   9.864472   9.043784   9.774588  11.156189
    25  H   12.273391  10.894495  10.093144  10.833644  12.218705
    26  H   11.197381   9.863806   8.922168   9.511617  10.898053
    27  H   10.986400   9.625679   8.888196   9.681047  11.030227
                    6          7          8          9         10
     6  H    0.000000
     7  H    2.492662   0.000000
     8  H    4.911994   4.315853   0.000000
     9  H    4.146274   4.910916   2.498405   0.000000
    10  C    4.636119   2.723718   2.709130   4.630873   0.000000
    11  C    5.750397   3.596892   3.577276   5.742212   1.215480
    12  C    7.119427   4.828125   4.828749   7.123866   2.669482
    13  C    7.549730   5.112871   6.000949   8.157573   3.563270
    14  C    8.215184   6.044360   5.193219   7.639741   3.616851
    15  C    8.932877   6.478501   7.226320   9.472246   4.909627
    16  H    6.952147   4.494954   6.122060   8.061513   3.515292
    17  C    9.491253   7.225441   6.561452   9.020539   4.937582
    18  H    8.170992   6.205316   4.621533   7.095816   3.599944
    19  C    9.812194   7.413242   7.461717   9.851938   5.467958
    20  H    9.424617   6.951686   8.136796  10.299979   5.709212
    21  H   10.363198   8.166055   7.092865   9.578660   5.769366
    22  N    2.082998   3.386035   3.380648   2.069714   4.255728
    23  O   11.194571   8.771055   8.834674  11.247184   6.884813
    24  C   11.947501   9.566676   9.399201  11.823879   7.603855
    25  H   12.970088  10.564817  10.451208  12.886200   8.646317
    26  H   11.980452   9.683433   9.030565  11.484933   7.507782
    27  H   11.651124   9.278678   9.380377  11.733795   7.482174
                   11         12         13         14         15
    11  C    0.000000
    12  C    1.454129   0.000000
    13  C    2.465803   1.405574   0.000000
    14  C    2.496397   1.409379   2.432109   0.000000
    15  C    3.753810   2.433200   1.398457   2.808046   0.000000
    16  H    2.672680   2.159756   1.083771   3.414505   2.153208
    17  C    3.762526   2.423327   2.796633   1.388997   2.430281
    18  H    2.711686   2.156058   3.408390   1.081326   3.889327
    19  C    4.252989   2.799057   2.416949   2.419843   1.399200
    20  H    4.620696   3.413777   2.156433   3.889094   1.081083
    21  H    4.648746   3.411961   3.878174   2.156300   3.400201
    22  N    5.471194   6.925187   7.694417   7.765034   9.083316
    23  O    5.669894   4.215966   3.713071   3.711335   2.437274
    24  C    6.410727   4.996273   4.487980   4.477303   3.254993
    25  H    7.444571   6.012962   5.458593   5.452405   4.151833
    26  H    6.344530   4.989424   4.759081   4.264745   3.728354
    27  H    6.328924   4.981829   4.274177   4.738181   3.086752
                   16         17         18         19         20
    16  H    0.000000
    17  C    3.880342   0.000000
    18  H    4.303311   2.152068   0.000000
    19  C    3.399232   1.402195   3.404421   0.000000
    20  H    2.482465   3.409860   4.970380   2.155689   0.000000
    21  H    4.961854   1.081808   2.498730   2.143628   4.289592
    22  N    7.348085   9.132791   7.468485   9.723194   9.764714
    23  O    4.587079   2.438930   4.588306   1.417072   2.664426
    24  C    5.302365   3.247689   5.287965   2.406584   3.338736
    25  H    6.238515   4.151760   6.231925   3.310154   4.075057
    26  H    5.658049   3.080995   4.911384   2.704097   4.055578
    27  H    4.928373   3.708921   5.629235   2.696338   2.960063
                   21         22         23         24         25
    21  H    0.000000
    22  N    9.866912   0.000000
    23  O    2.641343  11.139883   0.000000
    24  C    3.299036  11.817816   1.458883   0.000000
    25  H    4.046391  12.874849   2.058018   1.086336   0.000000
    26  H    2.914818  11.663773   2.114497   1.091464   1.775396
    27  H    4.006738  11.622718   2.113872   1.091381   1.775488
                   26         27
    26  H    0.000000
    27  H    1.776950   0.000000
 Stoichiometry    C14H11NO
 Framework group  C1[X(C14H11NO)]
 Deg. of freedom    75
 Full point group                 C1      NOp   1
 Largest Abelian subgroup         C1      NOp   1
 Largest concise Abelian subgroup C1      NOp   1
                         Standard orientation:                         
 ---------------------------------------------------------------------
 Center     Atomic      Atomic             Coordinates (Angstroms)
 Number     Number       Type             X           Y           Z
 ---------------------------------------------------------------------
      1          6           0        5.162650    1.135067   -0.085175
      2          6           0        3.760447    1.179557   -0.169305
      3          6           0        3.045105   -0.009634    0.016846
      4          6           0        3.744213   -1.196534    0.257479
      5          6           0        5.143971   -1.146388    0.324604
      6          1           0        5.737384    2.042635   -0.202694
      7          1           0        3.251270    2.114414   -0.368380
      8          1           0        3.221259   -2.134024    0.390876
      9          1           0        5.714172   -2.038962    0.526428
     10          6           0        1.587630   -0.019183   -0.054201
     11          6           0        0.373536   -0.028086   -0.111526
     12          6           0       -1.079220   -0.011443   -0.172467
     13          6           0       -1.760091    1.195914    0.060646
     14          6           0       -1.814568   -1.181837   -0.447766
     15          6           0       -3.156927    1.241510    0.011125
     16          1           0       -1.198742    2.100062    0.265494
     17          6           0       -3.201650   -1.133489   -0.502335
     18          1           0       -1.287442   -2.109423   -0.623804
     19          6           0       -3.875175    0.074634   -0.272214
     20          1           0       -3.678604    2.173450    0.178707
     21          1           0       -3.782529   -2.018846   -0.723767
     22          7           0        5.838910   -0.009456    0.140079
     23          8           0       -5.289497    0.117834   -0.349152
     24          6           0       -5.952140   -0.156066    0.921369
     25          1           0       -7.021569   -0.087534    0.743181
     26          1           0       -5.711756   -1.157033    1.284099
     27          1           0       -5.666520    0.574652    1.680042
 ---------------------------------------------------------------------
 Rotational constants (GHZ):      2.5410546      0.1558245      0.1492818
 Standard basis: 6-31G (6D, 7F)
 There are   166 symmetry adapted cartesian basis functions of A   symmetry.
 There are   166 symmetry adapted basis functions of A   symmetry.
   166 basis functions,   396 primitive gaussians,   166 cartesian basis functions
    55 alpha electrons       55 beta electrons
       nuclear repulsion energy       880.9473819308 Hartrees.
 NAtoms=   27 NActive=   27 NUniq=   27 SFac= 1.00D+00 NAtFMM=   60 NAOKFM=F Big=F
 Integral buffers will be    131072 words long.
 Raffenetti 2 integral format.
 Two-electron integral symmetry is turned on.
 Nuclear repulsion after empirical dispersion term =      880.9292318332 Hartrees.
 One-electron integrals computed using PRISM.
 NBasis=   166 RedAO= T EigKep=  1.56D-04  NBF=   166
 NBsUse=   166 1.00D-06 EigRej= -1.00D+00 NBFU=   166
 Initial guess from the checkpoint file:  "D:\User Dont delete\Downloads\molecule_32.chk"
 B after Tr=     0.000000    0.000000    0.000000
         Rot=    0.999997    0.002410    0.000736   -0.000315 Ang=   0.29 deg.
 ExpMin= 1.61D-01 ExpMax= 5.48D+03 ExpMxC= 8.25D+02 IAcc=1 IRadAn=         1 AccDes= 0.00D+00
 Harris functional with IExCor=  402 and IRadAn=       1 diagonalized for initial guess.
 HarFok:  IExCor=  402 AccDes= 0.00D+00 IRadAn=         1 IDoV= 1 UseB2=F ITyADJ=14
 ICtDFT=  3500011 ScaDFX=  1.000000  1.000000  1.000000  1.000000
 FoFCou: FMM=F IPFlag=           0 FMFlag=      100000 FMFlg1=           0
         NFxFlg=           0 DoJE=T BraDBF=F KetDBF=T FulRan=T
         wScrn=  0.000000 ICntrl=     500 IOpCl=  0 I1Cent=   200000004 NGrid=           0
         NMat0=    1 NMatS0=      1 NMatT0=    0 NMatD0=    1 NMtDS0=    0 NMtDT0=    0
 Petite list used in FoFCou.
 Keep R1 ints in memory in canonical form, NReq=98502739.
 Requested convergence on RMS density matrix=1.00D-08 within 128 cycles.
 Requested convergence on MAX density matrix=1.00D-06.
 Requested convergence on             energy=1.00D-06.
 No special actions if energy rises.
 Integral accuracy reduced to 1.0D-05 until final iterations.
 Initial convergence to 1.0D-05 achieved.  Increase integral accuracy.
 SCF Done:  E(RB3LYP) =  -669.854432055     A.U. after   13 cycles
            NFock= 13  Conv=0.78D-08     -V/T= 2.0057
 Calling FoFJK, ICntrl=      2127 FMM=F ISym2X=0 I1Cent= 0 IOpClX= 0 NMat=1 NMatS=1 NMatT=0.
 ***** Axes restored to original set *****
 -------------------------------------------------------------------
 Center     Atomic                   Forces (Hartrees/Bohr)
 Number     Number              X              Y              Z
 -------------------------------------------------------------------
      1        6           0.014767518   -0.000953397   -0.002775913
      2        6          -0.013688446    0.000067784    0.005523086
      3        6           0.035994503   -0.002659798   -0.001845560
      4        6          -0.013093480    0.003326994   -0.004361922
      5        6           0.012719666   -0.002599010   -0.000196450
      6        1          -0.003848307   -0.001311127    0.000603478
      7        1           0.000970911    0.000566952   -0.000077270
      8        1           0.001277143    0.000950006   -0.000299892
      9        1          -0.003507307    0.000563812   -0.003258935
     10        6          -0.027370644   -0.000180020    0.001548933
     11        6           0.024605011   -0.000160772   -0.002530520
     12        6          -0.023487765    0.001681020    0.001661693
     13        6           0.006767812   -0.001945668    0.002527116
     14        6          -0.002615241   -0.001109928    0.001857613
     15        6          -0.003218864    0.000166295   -0.001526113
     16        1          -0.000796738    0.000432240   -0.000180188
     17        6           0.006376095    0.001034585    0.000537899
     18        1          -0.000624693   -0.000096971   -0.001888306
     19        6           0.003237122   -0.001096349    0.000436293
     20        1           0.002545966   -0.000052366    0.000820618
     21        1           0.000868863   -0.000265140   -0.001579039
     22        7          -0.010774277    0.002225495    0.005089239
     23        8          -0.009099911   -0.001231958   -0.000028639
     24        6           0.002943103    0.002415577   -0.000069737
     25        1           0.002575414   -0.002868280    0.000003966
     26        1          -0.001791437    0.001501389   -0.003308340
     27        1          -0.001732017    0.001598637    0.003316891
 -------------------------------------------------------------------
 Cartesian Forces:  Max     0.035994503 RMS     0.007477106

 GradGradGradGradGradGradGradGradGradGradGradGradGradGradGradGradGradGrad
 Berny optimization.
 Using GEDIIS/GDIIS optimizer.
 FormGI is forming the generalized inverse of G from B-inverse, IUseBI=4.
 GSVD:  received Info=                   1 from GESDD.
 Internal  Forces:  Max     0.020867660 RMS     0.003365627
 Search for a local minimum.
 Step number   2 out of a maximum of  136
 All quantities printed in internal units (Hartrees-Bohrs-Radians)
 Mixed Optimization -- RFO/linear search
 Update second derivatives using D2CorX and points    1    2
 DE= -2.29D-02 DEPred=-2.20D-02 R= 1.04D+00
 TightC=F SS=  1.41D+00  RLast= 3.08D-01 DXNew= 5.0454D-01 9.2307D-01
 Trust test= 1.04D+00 RLast= 3.08D-01 DXMaxT set to 5.05D-01
 ITU=  1  0
 Use linear search instead of GDIIS.
     Eigenvalues ---    0.00230   0.00240   0.00245   0.01295   0.01295
     Eigenvalues ---    0.01496   0.01589   0.01847   0.01943   0.01989
     Eigenvalues ---    0.01992   0.02000   0.02041   0.02049   0.02061
     Eigenvalues ---    0.02099   0.02137   0.02162   0.02192   0.02213
     Eigenvalues ---    0.02225   0.02326   0.03955   0.04669   0.10091
     Eigenvalues ---    0.10500   0.15708   0.15998   0.15999   0.15999
     Eigenvalues ---    0.16000   0.16000   0.16000   0.16000   0.16000
     Eigenvalues ---    0.16000   0.16259   0.21878   0.21996   0.22457
     Eigenvalues ---    0.23043   0.23251   0.24151   0.24868   0.24996
     Eigenvalues ---    0.24998   0.25314   0.26667   0.28580   0.35761
     Eigenvalues ---    0.35945   0.36849   0.37188   0.37230   0.37230
     Eigenvalues ---    0.37241   0.37268   0.37281   0.37415   0.38889
     Eigenvalues ---    0.40134   0.40557   0.40811   0.41283   0.41676
     Eigenvalues ---    0.43573   0.44420   0.44716   0.44878   0.45486
     Eigenvalues ---    0.47076   0.48324   0.53122   0.55580   1.03962
 RFO step:  Lambda=-2.60455657D-03 EMin= 2.29980690D-03
 Quartic linear search produced a step of  0.34114.
 Iteration  1 RMS(Cart)=  0.19597610 RMS(Int)=  0.01738185
 Iteration  2 RMS(Cart)=  0.18109612 RMS(Int)=  0.00470766
 Iteration  3 RMS(Cart)=  0.01539275 RMS(Int)=  0.00037611
 Iteration  4 RMS(Cart)=  0.00001253 RMS(Int)=  0.00037611
 Iteration  5 RMS(Cart)=  0.00000001 RMS(Int)=  0.00037611
 Variable       Old X    -DE/DX   Delta X   Delta X   Delta X     New X
                                 (Linear)    (Quad)   (Total)
    R1        2.65588  -0.00577  -0.00638  -0.01107  -0.01743   2.63844
    R2        2.04214   0.00281   0.00692   0.00202   0.00893   2.05107
    R3        2.54798   0.00207  -0.00475   0.00979   0.00504   2.55301
    R4        2.64598   0.00727   0.00485   0.01547   0.02035   2.66633
    R5        2.04654   0.00024   0.00165  -0.00104   0.00061   2.04714
    R6        2.64250   0.00891   0.00749   0.01707   0.02457   2.66708
    R7        2.75756  -0.02087  -0.05536  -0.03039  -0.08577   2.67179
    R8        2.64989  -0.00358   0.00097  -0.01117  -0.01022   2.63967
    R9        2.04419   0.00113   0.00553  -0.00235   0.00318   2.04738
   R10        2.03753   0.00463   0.01388  -0.00014   0.01373   2.05127
   R11        2.54209   0.00534   0.00276   0.00937   0.01209   2.55418
   R12        2.29692   0.00654   0.00886  -0.00054   0.00830   2.30522
   R13        2.74790  -0.01811  -0.05498  -0.01662  -0.07157   2.67634
   R14        2.65615   0.00446   0.00049   0.01300   0.01348   2.66963
   R15        2.66334   0.00182  -0.00511   0.01209   0.00696   2.67030
   R16        2.64270  -0.00142  -0.00263  -0.00159  -0.00423   2.63847
   R17        2.04803   0.00023   0.00117  -0.00052   0.00066   2.04869
   R18        2.62482   0.00413   0.00656   0.00424   0.01080   2.63562
   R19        2.04341   0.00194   0.00754  -0.00181   0.00573   2.04914
   R20        2.64411  -0.00112  -0.00765   0.00455  -0.00308   2.64103
   R21        2.04295   0.00200   0.00741  -0.00146   0.00595   2.04890
   R22        2.64977  -0.00202  -0.00415  -0.00170  -0.00583   2.64393
   R23        2.04432   0.00180   0.00768  -0.00247   0.00521   2.04954
   R24        2.67788  -0.00713  -0.00833  -0.01367  -0.02201   2.65587
   R25        2.75689   0.00324   0.01862  -0.01067   0.00795   2.76484
   R26        2.05288   0.00293   0.01053  -0.00175   0.00878   2.06166
   R27        2.06257   0.00395   0.01384  -0.00193   0.01191   2.07448
   R28        2.06241   0.00398   0.01378  -0.00175   0.01203   2.07444
    A1        2.09154   0.00101   0.00485   0.00577   0.01064   2.10218
    A2        2.13800   0.00368   0.01373   0.00130   0.01498   2.15298
    A3        2.05365  -0.00470  -0.01857  -0.00707  -0.02562   2.02803
    A4        2.06561   0.00190  -0.00120   0.01192   0.01072   2.07634
    A5        2.10298   0.00005   0.00303  -0.00128   0.00174   2.10472
    A6        2.11458  -0.00195  -0.00182  -0.01062  -0.01245   2.10213
    A7        2.08098  -0.00512  -0.00389  -0.02128  -0.02531   2.05567
    A8        2.10523   0.00167   0.00059   0.00771   0.00831   2.11354
[...]
 .03929783,-0.06241881,0.07360446,0.00047362,-0.00399384,-0.00185124,-0
 .00179328,0.00383889,0.00272558,0.00009064,-0.00079464,-0.00030412,0.0
 0706300,0.00152275,0.00974345,-0.04205442,0.05438245,0.00002433,0.0000
 0977,-0.00000775,-0.00003876,0.00000045,0.00000415,0.00008422,0.000000
 58,-0.00001107,-0.00004152,-0.00000667,-0.00000875,0.00002521,-0.00000
 442,0.00000925,-0.00000375,-0.00000215,0.00000508,0.00000477,0.0000018
 2,-0.00000066,0.00000410,0.00000167,0.00000203,-0.00000397,0.00000249,
 -0.00000470,-0.00001978,-0.00006714,-0.00004531,-0.00001266,0.00020053
 ,0.00014675,0.00095273,0.00195554,0.00265830,0.00337324,-0.00017481,0.
 00409514,0.00113360,-0.00020214,0.00026339,-0.11876176,0.07376109,-0.2
 4843986,-0.00026915,-0.00190268,0.00013495,0.00345785,0.00281084,-0.00
 165092,-0.00006180,-0.00030341,-0.00014406,-0.01728945,0.00747385,-0.0
 1757762,0.12879828,-0.08185729,0.26012051,0.00004192,0.00000350,-0.000
 00012,-0.00009481,-0.00000322,-0.00000512,0.00022230,0.00004273,-0.000
 06587,-0.00013882,-0.00001799,0.00002029,0.00004216,0.00000287,-0.0000
 0295,-0.00001091,-0.00000378,0.00000738,0.00001386,0.00000374,-0.00000
 835,0.00001219,-0.00000072,0.00000350,-0.00001761,0.00000273,-0.000010
 22,-0.00045337,0.00000855,-0.00006661,-0.00034197,-0.00052014,0.001153
 82,-0.00441662,-0.00004715,-0.00187995,-0.00057214,0.00023733,-0.00067
 193,-0.01268454,-0.01198548,0.02828792,-0.00155803,0.00061966,-0.00277
 084,0.00005632,0.00002834,0.00010885,-0.12687058,-0.04931783,0.1114219
 4,0.00067127,0.00044330,-0.00025952,0.01194639,0.00611600,-0.01445624,
 0.00044339,0.00031045,-0.00074255,0.13898818,0.00001549,-0.00000508,-0
 .00000687,-0.00002559,-0.00001804,-0.00000510,0.00005917,-0.00002352,-
 0.00001108,-0.00002925,0.00000713,0.00000290,0.00001376,0.00001377,0.0
 0001074,-0.00000285,0.00000102,0.00000370,0.00000276,0.00000627,0.0000
 0083,0.00000321,0.00000230,0.00000206,-0.00000319,0.00000122,-0.000003
 20,-0.00003384,-0.00018037,-0.00005715,-0.00005788,0.00063209,0.000292
 54,-0.00023518,0.00633300,0.00156675,0.00037207,-0.00013849,-0.0002068
 5,0.00040090,0.00229110,0.00140473,0.00101338,0.00416505,0.00252379,0.
 00002781,-0.00085619,-0.00031114,-0.04893517,-0.07208773,0.08779739,0.
 00020467,-0.00365291,-0.00181939,-0.00627541,0.00101677,0.00702924,-0.
 00027823,-0.00003956,0.00030616,0.05410965,0.06551395,-0.00003115,-0.0
 0000898,0.00000895,0.00005275,-0.00000116,-0.00000597,-0.00010834,-0.0
 0001396,-0.00001474,0.00004944,0.00000489,0.00000629,-0.00003116,0.000
 00881,-0.00001133,0.00000498,0.00000354,-0.00000563,-0.00000582,0.0000
 0100,0.00000280,-0.00000668,0.00000136,-0.00000182,0.00000514,-0.00000
 216,0.00000669,0.00004299,-0.00004970,-0.00006398,-0.00004235,0.000211
 12,0.00019519,-0.00139322,0.00160013,0.00256826,-0.00102008,-0.0002307
 1,0.00017362,-0.00376748,-0.00077658,0.00415311,-0.00378985,0.00245428
 ,-0.00194702,0.00011020,-0.00031104,-0.00015400,0.11043349,0.08773068,
 -0.24241767,0.00035770,-0.00177715,0.00029192,0.01761165,0.00921053,-0
 .01657385,0.00078079,0.00040980,-0.00082528,-0.11987514,-0.09649877,0.
 25315661,-0.16473156,0.02724545,-0.08727580,-0.03238283,0.01056797,-0.
 03717256,0.00960473,0.00095948,0.00095232,-0.03409817,-0.01700902,0.03
 384610,-0.16667026,-0.03914684,0.08409664,0.01251876,-0.00194328,0.007
 88221,-0.00569897,-0.00097491,0.00008812,-0.00569102,-0.00063418,-0.00
 079553,0.01235257,0.00365379,-0.00661935,-0.00569839,-0.00008204,-0.00
 009031,0.00400917,0.00022534,0.00009303,-0.00109898,-0.00010031,0.0000
 2593,0.00037411,-0.00018050,0.00053088,0.00043384,0.00023305,-0.000528
 14,-0.00046756,-0.00018250,0.00039118,0.00005531,0.00000090,0.00000814
 ,-0.00052317,0.00013759,-0.00044725,0.00005345,0.00000724,-0.00000870,
 0.00105867,-0.00000160,0.00019050,-0.00004750,0.00001053,-0.00003468,-
 0.00005898,-0.00002050,0.00004371,0.37778642,0.02112883,-0.09212065,0.
 06271227,0.03056025,0.02603619,-0.00117164,0.00097480,-0.01864289,0.02
 275984,-0.03703374,0.02061878,0.00093338,-0.03302888,-0.09900020,0.070
 99339,0.00865098,-0.00712150,0.01035123,-0.00084306,0.00725351,0.00209
 858,-0.00075879,0.00728116,0.00205129,-0.00693492,-0.00769704,0.009084
 28,-0.00008220,-0.00334517,-0.00162561,0.00021743,0.00025804,-0.000194
 36,-0.00007382,0.00018943,0.00008624,0.00000611,-0.00001065,0.00005533
 ,0.00003623,0.00001397,-0.00000355,-0.00002164,-0.00001033,0.00000689,
 0.00000039,-0.00000073,-0.00000910,-0.00003094,0.00000739,-0.00004007,
 0.00000653,0.00000067,-0.00000979,0.00005553,-0.00000394,0.00002113,-0
 .00000555,-0.00000417,-0.00000390,0.00000046,-0.00000590,0.00000001,0.
 01723325,0.16630142,-0.07145306,0.06378799,-0.24688414,-0.08888614,-0.
 00469484,0.01998327,0.00091720,0.02275791,-0.06861089,0.08564335,0.004
 46289,0.02705032,0.06826386,0.06991301,-0.23810679,-0.01951889,0.00848
 562,-0.02909356,-0.00025422,0.00207487,0.00271188,-0.00047185,0.002073
 57,0.00267983,0.02077115,0.01095221,-0.02837672,-0.00009216,-0.0016257
 0,0.00022030,0.00011430,-0.00019291,0.00068728,-0.00004261,0.00008157,
 0.00000933,0.00004829,0.00002250,-0.00003930,-0.00001911,0.00003107,-0
 .00007374,-0.00002528,-0.00002150,0.00004490,0.00000948,-0.00000900,0.
 00002071,-0.00001106,-0.00001034,0.00001890,-0.00000685,-0.00000968,0.
 00002025,0.00004276,0.00001107,-0.00002065,0.00000692,-0.00000107,-0.0
 0000131,-0.00001053,-0.00000368,0.00000175,0.00501671,-0.17808169,0.55
 775481,0.00106388,0.00018984,-0.00030441,-0.00174966,-0.00022038,0.000
 25990,0.00422200,0.00023645,0.00013127,-0.00175287,0.00001476,-0.00034
 884,0.00105606,-0.00007407,0.00037805,-0.00014162,-0.00007794,0.000177
 29,0.00013100,0.00002521,-0.00004016,0.00013204,-0.00000619,0.00004110
 ,-0.00014540,0.00006366,-0.00018992,-0.00507614,-0.00030140,-0.0001194
 4,0.00497480,0.00036792,0.00001293,-0.00696374,0.00057744,-0.00254370,
 0.00904598,-0.00073145,0.00269861,0.00457562,0.00037837,-0.00131288,-0
 .05178202,-0.00759853,0.00960576,-0.00092690,-0.00014605,0.00017945,-0
 .03802132,0.00011786,-0.00851682,-0.00113459,-0.00002051,-0.00011698,-
 0.26425659,0.00065796,-0.04110706,0.00102653,0.00057238,-0.00074780,0.
 00033467,0.00007578,0.00036876,-0.00139501,-0.00007335,-0.00005691,0.4
 8042902,0.00008192,0.00001900,-0.00002121,-0.00013498,-0.00000642,0.00
 002645,0.00032501,0.00001214,0.00001924,-0.00014283,0.00000629,-0.0000
 1389,0.00008175,-0.00000792,0.00003073,-0.00001028,-0.00000900,0.00001
 224,0.00001431,-0.00000658,-0.00001150,0.00001174,-0.00000897,-0.00000
 166,-0.00001378,0.00000308,-0.00001750,-0.00036612,0.00000381,0.000017
 71,0.00035737,-0.00035526,-0.00032558,-0.00022537,-0.00034455,-0.00174
 510,0.00097784,0.00285205,0.00435251,-0.00162939,0.00459137,0.00457759
 ,-0.01995038,0.00412588,-0.00039007,-0.00063822,0.00013767,0.00004909,
 0.01136933,0.00858272,0.00208786,0.00045971,-0.00009699,-0.00010347,-0
 .01574096,-0.04881767,0.01884423,0.00039710,-0.00250496,-0.00156498,-0
 .00047573,-0.00235843,-0.00143453,-0.00011047,0.00000164,-0.00001066,0
 .05512868,0.10285755,-0.00002550,-0.00000222,0.00000648,0.00003881,0.0
 0001140,-0.00000967,-0.00009692,0.00000373,-0.00002919,0.00005897,0.00
 001387,-0.00001484,-0.00002524,0.00000328,-0.00001456,0.00000228,0.000
 00033,-0.00000403,-0.00001184,-0.00000958,0.00001068,-0.00000528,-0.00
 000482,0.00000112,0.00001052,-0.00000386,0.00000909,0.00004697,0.00002
 902,-0.00003129,0.00004057,-0.00032376,0.00033937,-0.00046703,-0.00160
 349,0.00306357,-0.00172249,0.00405176,-0.00632043,0.00388257,0.0049315
 0,-0.00560501,0.04156818,0.00178427,0.00803491,0.00145324,0.00013571,0
 .00010463,-0.03763292,0.00010628,0.00171333,-0.00135990,-0.00018811,0.
 00007893,0.00133196,0.02173204,-0.09646952,-0.00029457,-0.00153410,0.0
 0078133,0.00179743,-0.00133751,0.00089701,0.00003926,-0.00000411,0.000
 02259,-0.06945510,-0.08936125,0.28361613,-0.00027718,-0.00004705,0.000
 07305,0.00045095,0.00006143,-0.00007837,-0.00110729,-0.00006251,-0.000
 03817,0.00045450,-0.00000737,0.00010071,-0.00027766,0.00001803,-0.0000
 9503,0.00003487,0.00001978,-0.00004551,-0.00003419,-0.00000751,0.00001
 221,-0.00003536,0.00000151,-0.00001201,0.00003736,-0.00001683,0.000049
 55,0.00134003,0.00008174,0.00002500,-0.00141267,-0.00008950,0.00003579
 ,0.00176000,-0.00000177,0.00028418,-0.00154728,-0.00067242,0.00118741,
 -0.00073023,-0.00076757,0.00176555,-0.00024454,0.00197616,-0.00566310,
 -0.00021612,0.00006199,-0.00014472,0.00312794,-0.00005476,0.00096743,0
 .00043186,-0.00000111,0.00007598,-0.04657942,-0.01614803,0.03439248,0.
 00010859,-0.00009674,0.00038566,-0.00232257,-0.00040765,0.00062658,0.0
 0036284,0.00001834,0.00001753,-0.10473799,-0.01236768,0.02348738,0.571
 59259,-0.00013858,-0.00002547,0.00003844,0.00022760,0.00002344,-0.0000
 3795,-0.00055540,-0.00000456,-0.00001076,0.00023492,-0.00000802,0.0000
 3903,-0.00013962,0.00000757,-0.00005222,0.00001768,0.00001241,-0.00002
 185,-0.00001839,0.00000206,0.00000947,-0.00001883,0.00000979,-0.000001
 12,0.00002051,-0.00000566,0.00002716,0.00064433,0.00003069,0.00002285,
 -0.00060458,-0.00030493,-0.00009300,0.00073468,0.00027964,-0.00014944,
 -0.00029867,0.00134517,0.00058409,-0.00073098,0.00013696,0.00086118,0.
 00169557,0.00297281,0.00005323,0.00012197,-0.00023510,-0.00016054,0.00
 383276,-0.00080256,-0.00129349,0.00020702,0.00000673,0.00006077,-0.006
 18103,-0.00513040,0.00033169,0.00008550,-0.00053494,-0.00030757,0.0003
 0614,0.00002805,0.00026504,0.00018445,0.00000262,0.00001009,-0.0259098
 5,-0.07189242,0.03574014,-0.03356593,0.55589218,0.00031001,0.00005461,
 -0.00008778,-0.00050841,-0.00006720,0.00007766,0.00123715,0.00007594,0
 .00005014,-0.00052632,-0.00000365,-0.00009219,0.00031296,-0.00002444,0
 .00011530,-0.00004010,-0.00002149,0.00005129,0.00004036,0.00001138,-0.
 00001539,0.00004065,0.00000245,0.00001144,-0.00004711,0.00002058,-0.00
 005813,-0.00143061,-0.00007612,-0.00005903,0.00136825,-0.00000230,-0.0
 0005259,-0.00162140,-0.00027940,0.00060925,0.00021902,0.00051825,0.000
 28872,0.00167168,0.00085411,-0.00139758,-0.00493730,0.00010281,0.00174
 223,-0.00030007,-0.00017112,0.00008455,-0.00909482,-0.00197694,0.00195
 375,-0.00046258,0.00002421,-0.00012779,0.00859126,-0.00142316,0.000614
 85,-0.00008591,-0.00033968,0.00020429,-0.00122107,0.00013868,-0.000464
 44,-0.00041238,-0.00001918,-0.00002907,0.05853950,0.03812420,-0.144683
 96,0.08672203,0.03737979,0.49119201,0.00004636,0.00000836,-0.00001349,
 -0.00007811,-0.00000875,0.00000902,0.00018045,0.00001056,0.00000410,-0
 .00007712,0.00000017,-0.00001399,0.00004567,-0.00000301,0.00001591,-0.
 00000718,-0.00000379,0.00000846,0.00000772,0.00000159,-0.00000292,0.00
 000768,-0.00000088,0.00000355,-0.00000680,0.00000288,-0.00000871,-0.00
 019627,-0.00001278,-0.00000133,0.00016608,0.00001502,-0.00000631,-0.00
 008925,-0.00001999,0.00004183,0.00002115,-0.00011383,0.00030037,0.0000
 7859,0.00003326,-0.00009193,-0.00103965,0.00001673,-0.00026980,-0.0000
 9844,-0.00000648,0.00000515,0.00018065,-0.00007283,0.00014431,-0.00003
 854,0.00000014,-0.00001234,0.00233713,-0.00089974,0.00266539,-0.000002
 04,-0.00001787,0.00004254,0.00015785,0.00000182,0.00010736,-0.00006259
 ,-0.00000368,-0.00000136,-0.02468133,-0.00187477,0.00037847,-0.2919916
 3,0.01861477,-0.09036701,0.32204634,0.00000503,0.00000106,-0.00000155,
 -0.00000816,-0.00000179,0.00000107,0.00001991,0.00000220,0.00000249,-0
 .00000803,-0.00000029,-0.00000121,0.00000471,-0.00000076,0.00000158,-0
 .00000069,0.,0.00000088,0.00000058,0.00000085,0.00000007,0.00000032,0.
 00000044,0.00000005,-0.00000071,0.00000052,-0.00000073,-0.00002199,-0.
 00000169,-0.00000127,0.00002881,-0.00000768,-0.00002372,0.00002889,-0.
 00001219,-0.00004894,0.00005830,-0.00007916,0.00018663,-0.00005512,0.0
 0015133,-0.00011291,-0.00063695,0.00025533,-0.00013393,-0.00005227,-0.
 00003017,-0.00001529,0.00009742,0.00020893,0.00058994,-0.00002844,0.00
 002332,0.00001096,-0.00073637,-0.00036374,0.00187211,0.00001003,0.0000
 1046,0.00002298,0.00015784,-0.00029968,-0.00043193,-0.00000623,-0.0000
 0094,-0.00000068,-0.01604464,-0.00027368,-0.00032147,0.02315651,-0.053
 49549,0.00505028,-0.01698384,0.05224864,-0.00000486,-0.00000096,0.0000
 0175,0.00000751,0.00000097,-0.00000201,-0.00002005,0.00000085,-0.00000
 391,0.00000723,0.00000023,0.00000046,-0.00000406,0.00000022,-0.0000017
 6,0.00000045,0.00000034,-0.00000041,-0.00000030,0.00000025,0.00000014,
 0.00000045,-0.00000016,0.00000093,0.00000059,-0.00000010,0.00000065,0.
 00002246,0.00000035,0.00000236,-0.00004196,-0.00002612,0.00004143,-0.0
 0008459,-0.00005749,0.00010083,-0.00014503,0.00015624,-0.00044107,0.00
 013679,-0.00009730,0.00038723,0.00142177,-0.00001913,0.00054611,0.0001
 2369,-0.00000720,0.00000795,-0.00029536,0.00055997,-0.00107107,0.00006
 162,0.00001597,-0.00000102,0.00224915,0.00184490,-0.00396574,-0.000029
 61,0.00001812,-0.00003335,-0.00029664,-0.00045925,0.00065911,0.0000052
 4,-0.00000023,0.00000074,0.03705661,0.00217795,0.00159581,-0.10212566,
 0.00424897,-0.08215547,0.09207620,-0.00994132,0.09156028,-0.00000334,-
 0.00000199,0.00000212,0.00000675,-0.00000033,0.00000211,-0.00001079,-0
 .00000924,-0.00000062,0.00000677,0.00000092,0.,-0.00000418,0.00000280,
 -0.00000138,0.00000118,0.00000047,-0.00000124,-0.00000127,-0.00000021,
 0.00000048,-0.00000158,-0.00000022,-0.00000142,0.00000082,-0.00000057,
 0.00000094,-0.00000239,-0.00001149,0.00000197,0.00002164,0.00012787,0.
 00000818,-0.00003200,0.00029615,-0.00084381,0.00092905,-0.00033678,0.0
 0035237,-0.00074393,-0.00062491,0.00005451,-0.00124830,-0.00076835,0.0
 0037998,-0.00000958,0.00004761,0.00001707,0.00022214,0.00027411,-0.000
 77711,-0.00001762,0.00002697,0.00001898,0.00483857,0.00170722,0.001962
 79,0.00005129,0.00018043,-0.00008563,-0.00179980,0.00137249,0.00021396
 ,0.00000643,0.00000084,-0.00000098,-0.00339293,0.00833658,0.02472899,-
 0.05878677,-0.02203480,-0.03295524,-0.00183498,-0.01946833,-0.02482046
 ,0.05959959,0.00001186,0.00000180,-0.00000301,-0.00002273,-0.00000115,
 0.00000083,0.00004674,0.00000143,-0.00000372,-0.00002004,0.00000161,-0
 .00000440,0.00001088,0.00000050,0.00000247,-0.00000280,-0.00000156,0.0
 0000266,0.00000317,-0.00000029,-0.00000101,0.00000334,-0.00000199,0.00
 000175,-0.00000159,0.00000025,-0.00000231,-0.00005556,-0.00000334,0.00
 000067,0.00001526,0.00001602,0.00005534,-0.00007174,0.00000247,-0.0001
 3641,0.00007295,-0.00012990,0.00005218,-0.00012903,-0.00026345,0.00039
 527,-0.00004660,-0.00044254,0.00004788,-0.00000757,0.00002324,0.000024
 27,0.00007650,0.00035474,-0.00131872,0.00001315,0.00001293,-0.00001312
 ,0.00143284,0.00086541,0.00022573,0.00000052,0.00007650,0.00001671,0.0
 0018811,-0.00033883,0.00054085,-0.00001694,-0.00000118,0.00000230,-0.0
 0151356,0.01020172,0.01591009,-0.02040329,-0.14545259,-0.12274010,0.00
 180499,0.00228722,0.00300298,0.02399939,0.15015564,-0.00007147,-0.0000
 1331,0.00001866,0.00011637,0.00001749,-0.00002014,-0.00028555,-0.00001
 673,-0.00001330,0.00011861,0.00000127,0.00002492,-0.00007162,0.0000062
 2,-0.00002460,0.00000886,0.00000439,-0.00001172,-0.00000861,-0.0000036
 0,0.00000247,-0.00000837,-0.00000250,-0.00000284,0.00001009,-0.0000052
 3,0.00001264,0.00034800,0.00002584,0.00001332,-0.00035142,-0.00004125,
 0.00002683,0.00047718,-0.00012317,0.00020501,-0.00060521,0.00024118,-0
 .00001558,-0.00012137,-0.00016212,0.00022295,0.00136520,0.00055186,-0.
 00039908,0.00005518,-0.00002776,-0.00003498,0.00101669,0.00035591,0.00
 038836,0.00007874,0.00001078,0.00003684,-0.00637637,-0.00098728,-0.000
 43568,-0.00010807,-0.00026890,0.00011479,-0.00015026,-0.00026355,0.000
 45369,0.00009361,0.00000576,0.00000659,0.00997354,-0.00580713,-0.03072
 404,-0.02904955,-0.12008796,-0.20790310,-0.00137041,-0.00795678,-0.006
 68789,0.02605608,0.13017018,0.23769269,-0.00000530,-0.00000061,0.00000
 328,0.00000935,0.,0.00000114,-0.00001933,0.00000613,0.00000448,0.00000
 986,-0.00000012,0.00000013,-0.00000582,-0.00000154,-0.00000401,0.00000
 122,0.00000077,-0.00000134,-0.00000130,-0.00000017,0.00000056,-0.00000
 168,0.00000113,-0.00000068,0.00000105,-0.00000013,0.00000149,0.0000057
 9,0.00000683,0.00000938,0.00002282,-0.00010284,-0.00007288,-0.00002279
 ,0.00035153,-0.00081949,0.00087164,0.00011674,0.00053079,-0.00082529,0
 .00031909,0.00048889,-0.00124833,0.00019517,0.00074476,-0.00000123,-0.
 00004880,-0.00001948,0.00026933,0.00039836,-0.00088259,-0.00000798,-0.
 00003526,-0.00000578,0.00493629,-0.00203966,0.00048872,0.00006285,-0.0
 0007131,-0.00017326,-0.00158976,-0.00136821,-0.00073823,0.00000868,0.0
 0000059,-0.00000054,-0.00083350,-0.02386038,0.01223121,-0.06940064,0.0
 6326874,-0.01504255,-0.00507176,0.03048343,-0.00530119,0.00220523,-0.0
 0538822,-0.00113986,0.07063060,0.00003886,0.00000592,-0.00001059,-0.00
 006064,-0.00000793,0.00001428,0.00015598,0.00000395,0.00000959,-0.0000
 6424,0.00000287,-0.00001160,0.00003933,-0.00000197,0.00001536,-0.00000
 366,-0.00000302,0.00000526,0.00000353,-0.00000094,-0.00000222,0.000003
 33,-0.00000222,-0.00000161,-0.00000536,0.00000143,-0.00000736,-0.00019
 333,-0.00000466,-0.00000471,0.00022592,0.00004260,-0.00005313,-0.00026
 111,-0.00002507,-0.00019114,0.00044585,0.00012291,0.00010218,0.0000947
 4,0.00013318,-0.00046978,-0.00102240,-0.00020714,0.00024924,-0.0000310
 8,-0.00001420,-0.00000063,-0.00073205,-0.00015429,0.00073635,-0.000066
 12,0.00001092,-0.00000335,0.00380361,0.00004059,0.00028574,0.00009005,
 -0.00003082,-0.00016733,-0.00020934,-0.00000696,-0.00090538,-0.0000497
 2,0.00000044,-0.00000493,-0.00568841,-0.00671209,0.01024087,0.05932222
 ,-0.28285800,0.04478751,-0.00048808,-0.00062306,-0.00141907,0.00688339
 ,-0.01736465,0.00437636,-0.06223126,0.30765219,-0.00006116,-0.00000971
 ,0.00001650,0.00010186,0.00001224,-0.00001595,-0.00024340,-0.00001363,
 -0.00000734,0.00010178,-0.00000228,0.00002057,-0.00006045,0.00000298,-
 0.00002050,0.00000845,0.00000488,-0.00001030,-0.00000866,-0.00000088,0
 .00000315,-0.00000866,0.00000162,-0.00000251,0.00000853,-0.00000334,0.
 00001124,0.00029550,0.00001310,0.00000651,-0.00027242,0.00000541,-0.00
 000098,0.00039689,-0.00003174,0.00022341,-0.00042335,-0.00021682,-0.00
 021102,-0.00003811,0.00004020,-0.00009201,0.00104314,-0.00016704,-0.00
 063416,0.00003928,0.00005798,-0.00000587,0.00076263,-0.00070561,0.0008
 4807,0.00005013,-0.00001942,0.00002924,-0.00558508,0.00051679,0.000292
 40,-0.00010292,0.00012153,0.00021069,-0.00030723,-0.00009596,-0.000089
 27,0.00008111,0.00000361,0.00000273,0.00543723,0.03048871,-0.01636843,
 -0.01295640,0.04254395,-0.05986896,-0.00364307,0.01125266,-0.00054208,
 0.00568735,-0.02622934,0.00705316,0.00969704,-0.05756990,0.06915172||0
 .00000332,-0.00000534,-0.00000325,-0.00000274,-0.00000292,-0.00000635,
 -0.00001529,0.00001831,0.00000732,-0.00000440,-0.00000933,-0.00000670,
 0.00001246,0.00001349,-0.00000059,-0.00000244,0.00000597,-0.00000338,0
 .00000060,-0.00000147,-0.00000122,0.00000400,0.00000154,-0.00000168,-0
 .00000019,-0.00000402,-0.00000153,0.00001757,-0.00000337,-0.00000532,0
 .00000982,-0.00000043,0.00000115,0.00000248,-0.00000513,0.00001463,-0.
 00001885,0.00000346,-0.00000832,0.00001693,-0.00000066,-0.00000838,0.0
 0001240,0.00000024,-0.00000395,-0.00000055,0.00000003,0.00000040,-0.00
 001006,0.00000164,0.00000041,-0.00000364,0.00000169,0.00000248,-0.0000
 0750,-0.00000090,0.00000440,0.00000050,-0.00000005,0.00000140,0.000004
 29,-0.00000103,0.00000223,-0.00000926,-0.00000425,0.00000137,-0.000010
 62,-0.00000884,0.00001505,0.00000711,0.00000351,-0.00002051,-0.0000007
 9,-0.00000030,0.00000649,-0.00000296,0.00000018,0.00001026,-0.00000219
 ,-0.00000203,0.00000360|||@


 WHEN A MATHEMATICIAN ENGAGED IN INVESTIGATING
 PHYSICAL ACTIONS AND RESULTS HAS ARRIVED AT HIS
 CONCLUSIONS, MAY THEY NOT BE EXPRESSED IN COMMON
 LANGUAGE AS FULLY, CLEARLY, AND DEFINITELY AS IN
 MATHEMATICAL FORMULAE?
           - LETTER FROM M. FARADAY TO J.C. MAXWELL, 1857.
 Job cpu time:       0 days  0 hours  4 minutes 12.0 seconds.
 File lengths (MBytes):  RWF=    112 Int=      0 D2E=      0 Chk=      4 Scr=      1
 Normal termination of Gaussian 09 at Tue Sep 12 10:00:25 2023.
