 Entering Link 1 = C:\G09W\l1.exe PID=       300.
  
 Copyright (c) 1988,1990,1992,1993,1995,1998,2003,2009,2013,
            Gaussian, Inc.  All Rights Reserved.
  
 This is part of the Gaussian(R) 09 program.  It is based on
 the Gaussian(R) 03 system (copyright 2003, Gaussian, Inc.),
 the Gaussian(R) 98 system (copyright 1998, Gaussian, Inc.),
 the Gaussian(R) 94 system (copyright 1995, Gaussian, Inc.),
 the Gaussian 92(TM) system (copyright 1992, Gaussian, Inc.),
 the Gaussian 90(TM) system (copyright 1990, Gaussian, Inc.),
 the Gaussian 88(TM) system (copyright 1988, Gaussian, Inc.),
 the Gaussian 86(TM) system (copyright 1986, Carnegie Mellon
 University), and the Gaussian 82(TM) system (copyright 1983,
 Carnegie Mellon University). Gaussian is a federally registered
 trademark of Gaussian, Inc.
  
 This software contains proprietary and confidential information,
 including trade secrets, belonging to Gaussian, Inc.
  
 This software is provided under written license and may be
 used, copied, transmitted, or stored only in accord with that
 written license.
  
 The following legend is applicable only to US Government
 contracts under FAR:
  
                    RESTRICTED RIGHTS LEGEND
  
 Use, reproduction and disclosure by the US Government is
 subject to restrictions as set forth in subparagraphs (a)
 and (c) of the Commercial Computer Software - Restricted
 Rights clause in FAR 52.227-19.
  
 Gaussian, Inc.
 340 Quinnipiac St., Bldg. 40, Wallingford CT 06492
  
  
 ---------------------------------------------------------------
 Warning -- This program may not be used in any manner that
 competes with the business of Gaussian, Inc. or will provide
 assistance to any competitor of Gaussian, Inc.  The licensee
 of this program is prohibited from giving any competitor of
 Gaussian, Inc. access to this program.  By using this program,
 the user acknowledges that Gaussian, Inc. is engaged in the
 business of creating and licensing software in the field of
 computational chemistry and represents and warrants to the
 licensee that it is not a competitor of Gaussian, Inc. and that
 it will not use this program in any manner prohibited above.
 ---------------------------------------------------------------
  

 Cite this work as:
 Gaussian 09, Revision D.01,
 M. J. Frisch, G. W. Trucks, H. B. Schlegel, G. E. Scuseria, 
 M. A. Robb, J. R. Cheeseman, G. Scalmani, V. Barone, B. Mennucci, 
 G. A. Petersson, H. Nakatsuji, M. Caricato, X. Li, H. P. Hratchian, 
 A. F. Izmaylov, J. Bloino, G. Zheng, J. L. Sonnenberg, M. Hada, 
 M. Ehara, K. Toyota, R. Fukuda, J. Hasegawa, M. Ishida, T. Nakajima, 
 Y. Honda, O. Kitao, H. Nakai, T. Vreven, J. A. Montgomery, Jr., 
 J. E. Peralta, F. Ogliaro, M. Bearpark, J. J. Heyd, E. Brothers, 
 K. N. Kudin, V. N. Staroverov, T. Keith, R. Kobayashi, J. Normand, 
 K. Raghavachari, A. Rendell, J. C. Burant, S. S. Iyengar, J. Tomasi, 
 M. Cossi, N. Rega, J. M. Millam, M. Klene, J. E. Knox, J. B. Cross, 
 V. Bakken, C. Adamo, J. Jaramillo, R. Gomperts, R. E. Stratmann, 
 O. Yazyev, A. J. Austin, R. Cammi, C. Pomelli, J. W. Ochterski, 
 R. L. Martin, K. Morokuma, V. G. Zakrzewski, G. A. Voth, 
 P. Salvador, J. J. Dannenberg, S. Dapprich, A. D. Daniels, 
 O. Farkas, J. B. Foresman, J. V. Ortiz, J. Cioslowski, 
 and D. J. Fox, Gaussian, Inc., Wallingford CT, 2013.
 
 ******************************************
 Gaussian 09:  EM64W-G09RevD.01 13-Apr-2013
                11-Sep-2023 
 ******************************************
 %nprocshared=6
 Will use up to    6 processors via shared memory.
 %mem=6GB
 %chk=D:\User Dont delete\Downloads\molecule_26.chk
 ----------------------------------------------
 # opt freq b3lyp/6-31g empiricaldispersion=gd3
 ----------------------------------------------
 1/14=-1,18=20,19=15,26=3,38=1/1,3;
 2/9=110,12=2,17=6,18=5,40=1/2;
 3/5=1,6=6,11=2,16=1,25=1,30=1,71=1,74=-5,124=31/1,2,3;
 4//1;
 5/5=2,38=5/2;
 6/7=2,8=2,9=2,10=2,28=1/1;
 7//1,2,3,16;
 1/14=-1,18=20,19=15,26=3/3(2);
 2/9=110/2;
 99//99;
 2/9=110/2;
 3/5=1,6=6,11=2,16=1,25=1,30=1,71=1,74=-5,124=31/1,2,3;
 4/5=5,16=3,69=1/1;
 5/5=2,38=5/2;
 7//1,2,3,16;
 1/14=-1,18=20,19=15,26=3/3(-5);
 2/9=110/2;
 6/7=2,8=2,9=2,10=2,19=2,28=1/1;
 99/9=1/99;
 -------------------
 Title Card Required
 -------------------
 Symbolic Z-matrix:
 Charge =  0 Multiplicity = 1
 C                    -3.91026  -0.97885   1.0873 
 C                    -3.24353  -0.49817  -0.05029 
 C                    -3.96927  -0.06568  -1.15526 
 C                    -5.36722  -0.03465  -1.10341 
 C                    -6.03529  -0.47585   0.04315 
 H                    -3.33932  -1.35081   1.9443 
 H                    -3.4475    0.28095  -2.05001 
 H                    -5.9376    0.33606  -1.95976 
 H                    -7.12782  -0.45137   0.08272 
 C                    -1.70232  -0.51098  -0.00174 
 C                    -0.50316  -0.51544   0.00061 
 C                     1.03814  -0.52118   0.00361 
 C                     1.73324  -0.49899   1.21632 
 C                     1.73531  -0.50038  -1.20582 
 C                     3.13124  -0.50192   1.21672 
 H                     1.18549  -0.5016    2.1622 
 C                     3.13359  -0.50384  -1.20525 
 H                     1.18944  -0.5035   -2.1542 
 C                     3.82894  -0.50274   0.00634 
 H                     3.67742  -0.50148   2.16417 
 H                     3.6812   -0.50459  -2.15173 
 N                    -5.30642  -0.95004   1.13808 
 C                     5.36894  -0.50335   0.00776 
 H                     5.7252   -1.5123    0.01056 
 H                     5.72661  -0.00123  -0.86679 
 H                     5.725     0.00305   0.8805 
 

 GradGradGradGradGradGradGradGradGradGradGradGradGradGradGradGradGradGrad
 Berny optimization.
 Initialization pass.
                           ----------------------------
                           !    Initial Parameters    !
                           ! (Angstroms and Degrees)  !
 --------------------------                            --------------------------
 ! Name  Definition              Value          Derivative Info.                !
 --------------------------------------------------------------------------------
 ! R1    R(1,2)                  1.4035         estimate D2E/DX2                !
 ! R2    R(1,6)                  1.0949         estimate D2E/DX2                !
 ! R3    R(1,22)                 1.3974         estimate D2E/DX2                !
 ! R4    R(2,3)                  1.3909         estimate D2E/DX2                !
 ! R5    R(2,10)                 1.542          estimate D2E/DX2                !
 ! R6    R(3,4)                  1.3993         estimate D2E/DX2                !
 ! R7    R(3,7)                  1.0922         estimate D2E/DX2                !
 ! R8    R(4,5)                  1.3984         estimate D2E/DX2                !
 ! R9    R(4,8)                  1.0937         estimate D2E/DX2                !
 ! R10   R(5,9)                  1.0935         estimate D2E/DX2                !
 ! R11   R(5,22)                 1.3982         estimate D2E/DX2                !
 ! R12   R(10,11)                1.1992         estimate D2E/DX2                !
 ! R13   R(11,12)                1.5413         estimate D2E/DX2                !
 ! R14   R(12,13)                1.398          estimate D2E/DX2                !
 ! R15   R(12,14)                1.3961         estimate D2E/DX2                !
 ! R16   R(13,15)                1.398          estimate D2E/DX2                !
 ! R17   R(13,16)                1.093          estimate D2E/DX2                !
 ! R18   R(14,17)                1.3983         estimate D2E/DX2                !
 ! R19   R(14,18)                1.0943         estimate D2E/DX2                !
 ! R20   R(15,19)                1.3971         estimate D2E/DX2                !
 ! R21   R(15,20)                1.0936         estimate D2E/DX2                !
 ! R22   R(17,19)                1.3969         estimate D2E/DX2                !
 ! R23   R(17,21)                1.0935         estimate D2E/DX2                !
 ! R24   R(19,23)                1.54           estimate D2E/DX2                !
 ! R25   R(23,24)                1.07           estimate D2E/DX2                !
 ! R26   R(23,25)                1.07           estimate D2E/DX2                !
 ! R27   R(23,26)                1.07           estimate D2E/DX2                !
 ! A1    A(2,1,6)              120.204          estimate D2E/DX2                !
 ! A2    A(2,1,22)             119.8047         estimate D2E/DX2                !
 ! A3    A(6,1,22)             119.971          estimate D2E/DX2                !
 ! A4    A(1,2,3)              120.1683         estimate D2E/DX2                !
 ! A5    A(1,2,10)             116.5157         estimate D2E/DX2                !
 ! A6    A(3,2,10)             123.304          estimate D2E/DX2                !
 ! A7    A(2,3,4)              119.9162         estimate D2E/DX2                !
 ! A8    A(2,3,7)              120.0131         estimate D2E/DX2                !
 ! A9    A(4,3,7)              120.0388         estimate D2E/DX2                !
 ! A10   A(3,4,5)              120.0444         estimate D2E/DX2                !
 ! A11   A(3,4,8)              119.9699         estimate D2E/DX2                !
 ! A12   A(5,4,8)              119.9857         estimate D2E/DX2                !
 ! A13   A(4,5,9)              119.9936         estimate D2E/DX2                !
 ! A14   A(4,5,22)             120.0015         estimate D2E/DX2                !
 ! A15   A(9,5,22)             120.0048         estimate D2E/DX2                !
 ! A16   A(11,12,13)           119.9238         estimate D2E/DX2                !
 ! A17   A(11,12,14)           119.8422         estimate D2E/DX2                !
 ! A18   A(13,12,14)           120.1945         estimate D2E/DX2                !
 ! A19   A(12,13,15)           119.8308         estimate D2E/DX2                !
 ! A20   A(12,13,16)           120.098          estimate D2E/DX2                !
 ! A21   A(15,13,16)           120.0575         estimate D2E/DX2                !
 ! A22   A(12,14,17)           119.9314         estimate D2E/DX2                !
 ! A23   A(12,14,18)           120.108          estimate D2E/DX2                !
 ! A24   A(17,14,18)           119.947          estimate D2E/DX2                !
 ! A25   A(13,15,19)           119.944          estimate D2E/DX2                !
 ! A26   A(13,15,20)           119.9792         estimate D2E/DX2                !
 ! A27   A(19,15,20)           120.0767         estimate D2E/DX2                !
 ! A28   A(14,17,19)           119.8756         estimate D2E/DX2                !
 ! A29   A(14,17,21)           120.0284         estimate D2E/DX2                !
 ! A30   A(19,17,21)           120.0958         estimate D2E/DX2                !
 ! A31   A(15,19,17)           120.1873         estimate D2E/DX2                !
 ! A32   A(15,19,23)           119.9076         estimate D2E/DX2                !
 ! A33   A(17,19,23)           119.9051         estimate D2E/DX2                !
 ! A34   A(1,22,5)             119.958          estimate D2E/DX2                !
 ! A35   A(19,23,24)           109.4712         estimate D2E/DX2                !
 ! A36   A(19,23,25)           109.4712         estimate D2E/DX2                !
 ! A37   A(19,23,26)           109.4712         estimate D2E/DX2                !
 ! A38   A(24,23,25)           109.4713         estimate D2E/DX2                !
 ! A39   A(24,23,26)           109.4712         estimate D2E/DX2                !
 ! A40   A(25,23,26)           109.4712         estimate D2E/DX2                !
 ! A41   L(2,10,11,6,-1)       181.6583         estimate D2E/DX2                !
 ! A42   L(10,11,12,18,-1)     179.9996         estimate D2E/DX2                !
 ! A43   L(2,10,11,6,-2)       179.4663         estimate D2E/DX2                !
 ! A44   L(10,11,12,18,-2)     179.9998         estimate D2E/DX2                !
 ! D1    D(6,1,2,3)            177.9414         estimate D2E/DX2                !
 ! D2    D(6,1,2,10)            -0.8433         estimate D2E/DX2                !
 ! D3    D(22,1,2,3)            -3.6992         estimate D2E/DX2                !
 ! D4    D(22,1,2,10)          177.5162         estimate D2E/DX2                !
 ! D5    D(2,1,22,5)             1.6809         estimate D2E/DX2                !
 ! D6    D(6,1,22,5)          -179.9557         estimate D2E/DX2                !
 ! D7    D(1,2,3,4)              3.816          estimate D2E/DX2                !
 ! D8    D(1,2,3,7)           -178.2399         estimate D2E/DX2                !
 ! D9    D(10,2,3,4)          -177.4853         estimate D2E/DX2                !
 ! D10   D(10,2,3,7)             0.4589         estimate D2E/DX2                !
 ! D11   D(1,2,12,13)          -24.1431         estimate D2E/DX2                !
 ! D12   D(1,2,12,14)          158.2445         estimate D2E/DX2                !
 ! D13   D(3,2,12,13)          157.4038         estimate D2E/DX2                !
 ! D14   D(3,2,12,14)          -20.2086         estimate D2E/DX2                !
 ! D15   D(2,3,4,5)             -1.9249         estimate D2E/DX2                !
 ! D16   D(2,3,4,8)            178.0            estimate D2E/DX2                !
 ! D17   D(7,3,4,5)           -179.8685         estimate D2E/DX2                !
 ! D18   D(7,3,4,8)              0.0564         estimate D2E/DX2                !
 ! D19   D(3,4,5,9)           -179.9913         estimate D2E/DX2                !
 ! D20   D(3,4,5,22)            -0.0841         estimate D2E/DX2                !
 ! D21   D(8,4,5,9)              0.0838         estimate D2E/DX2                !
 ! D22   D(8,4,5,22)           179.991          estimate D2E/DX2                !
 ! D23   D(4,5,22,1)             0.1967         estimate D2E/DX2                !
 ! D24   D(9,5,22,1)          -179.8961         estimate D2E/DX2                !
 ! D25   D(11,12,13,15)       -179.8905         estimate D2E/DX2                !
 ! D26   D(11,12,13,16)          1.4544         estimate D2E/DX2                !
 ! D27   D(14,12,13,15)         -2.1768         estimate D2E/DX2                !
 ! D28   D(14,12,13,16)        179.1681         estimate D2E/DX2                !
 ! D29   D(11,12,14,17)        179.9195         estimate D2E/DX2                !
 ! D30   D(11,12,14,18)         -1.4191         estimate D2E/DX2                !
 ! D31   D(13,12,14,17)          2.2039         estimate D2E/DX2                !
 ! D32   D(13,12,14,18)       -179.1347         estimate D2E/DX2                !
 ! D33   D(12,13,15,19)          1.1475         estimate D2E/DX2                !
 ! D34   D(12,13,15,20)       -178.9793         estimate D2E/DX2                !
 ! D35   D(16,13,15,19)        179.8032         estimate D2E/DX2                !
 ! D36   D(16,13,15,20)         -0.3236         estimate D2E/DX2                !
 ! D37   D(12,14,17,19)         -1.1998         estimate D2E/DX2                !
 ! D38   D(12,14,17,21)        178.9699         estimate D2E/DX2                !
 ! D39   D(18,14,17,19)       -179.8633         estimate D2E/DX2                !
 ! D40   D(18,14,17,21)          0.3064         estimate D2E/DX2                !
 ! D41   D(13,15,19,17)         -0.1518         estimate D2E/DX2                !
 ! D42   D(13,15,19,23)        179.8876         estimate D2E/DX2                !
 ! D43   D(20,15,19,17)        179.9751         estimate D2E/DX2                !
 ! D44   D(20,15,19,23)          0.0145         estimate D2E/DX2                !
 ! D45   D(14,17,19,15)          0.1766         estimate D2E/DX2                !
 ! D46   D(14,17,19,23)       -179.8628         estimate D2E/DX2                !
 ! D47   D(21,17,19,15)       -179.9932         estimate D2E/DX2                !
 ! D48   D(21,17,19,23)         -0.0326         estimate D2E/DX2                !
 ! D49   D(15,19,23,24)         89.8852         estimate D2E/DX2                !
 ! D50   D(15,19,23,25)       -150.1148         estimate D2E/DX2                !
 ! D51   D(15,19,23,26)        -30.1148         estimate D2E/DX2                !
 ! D52   D(17,19,23,24)        -90.0755         estimate D2E/DX2                !
 ! D53   D(17,19,23,25)         29.9245         estimate D2E/DX2                !
 ! D54   D(17,19,23,26)        149.9245         estimate D2E/DX2                !
 --------------------------------------------------------------------------------
 Trust Radius=3.00D-01 FncErr=1.00D-07 GrdErr=1.00D-06
 Number of steps in this run=    135 maximum allowed number of steps=    156.
 GradGradGradGradGradGradGradGradGradGradGradGradGradGradGradGradGradGrad

                          Input orientation:                          
 ---------------------------------------------------------------------
 Center     Atomic      Atomic             Coordinates (Angstroms)
 Number     Number       Type             X           Y           Z
 ---------------------------------------------------------------------
      1          6           0       -3.910257   -0.978854    1.087296
      2          6           0       -3.243530   -0.498173   -0.050288
      3          6           0       -3.969271   -0.065678   -1.155262
      4          6           0       -5.367223   -0.034654   -1.103412
      5          6           0       -6.035290   -0.475849    0.043153
      6          1           0       -3.339319   -1.350808    1.944296
      7          1           0       -3.447499    0.280946   -2.050008
      8          1           0       -5.937596    0.336059   -1.959755
      9          1           0       -7.127821   -0.451371    0.082722
     10          6           0       -1.702325   -0.510980   -0.001736
     11          6           0       -0.503164   -0.515444    0.000607
     12          6           0        1.038137   -0.521178    0.003607
     13          6           0        1.733241   -0.498994    1.216317
     14          6           0        1.735313   -0.500380   -1.205823
     15          6           0        3.131236   -0.501924    1.216721
     16          1           0        1.185494   -0.501600    2.162198
     17          6           0        3.133594   -0.503838   -1.205245
     18          1           0        1.189441   -0.503497   -2.154202
     19          6           0        3.828940   -0.502741    0.006338
     20          1           0        3.677424   -0.501477    2.164168
     21          1           0        3.681197   -0.504590   -2.151735
     22          7           0       -5.306420   -0.950037    1.138085
     23          6           0        5.368939   -0.503352    0.007760
     24          1           0        5.725203   -1.512296    0.010562
     25          1           0        5.726612   -0.001233   -0.866795
     26          1           0        5.725000    0.003050    0.880502
 ---------------------------------------------------------------------
                    Distance matrix (angstroms):
                    1          2          3          4          5
     1  C    0.000000
     2  C    1.403451   0.000000
     3  C    2.422073   1.390941   0.000000
     4  C    2.795257   2.415365   1.399257   0.000000
     5  C    2.420541   2.793413   2.423402   1.398420   0.000000
     6  H    1.094883   2.171296   3.414038   3.890139   3.412940
     7  H    3.412318   2.155808   1.092229   2.163558   3.413316
     8  H    3.888910   3.405877   2.164002   1.093653   2.163419
     9  H    3.411763   3.886849   3.414353   2.163394   1.093521
    10  C    2.505965   1.542023   2.582240   3.856430   4.333341
    11  C    3.606095   2.740893   3.681334   5.010897   5.532432
    12  C    5.086300   4.282068   5.159902   6.518499   7.073683
    13  C    5.665332   5.135421   6.191187   7.484206   7.856649
    14  C    6.112265   5.111179   5.721346   7.118525   7.870376
    15  C    7.058812   6.499459   7.498920   8.821857   9.241382
    16  H    5.229709   4.950895   6.145499   7.336235   7.525340
    17  C    7.422750   6.480869   7.116542   8.514363   9.253525
    18  H    6.061368   4.906905   5.272748   6.656861   7.551548
    19  C    7.828813   7.072698   7.896355   9.274699   9.864335
    20  H    7.678571   7.266598   8.347484   9.628117   9.941639
    21  H    8.267189   7.236571   7.727564   9.121058   9.961349
    22  N    1.397384   2.423205   2.798124   2.421968   1.398207
    23  C    9.353875   8.612666   9.420527  10.803682  11.404317
    24  H    9.710098   9.026091   9.870900  11.245722  11.806121
    25  H    9.881470   9.020925   9.700387  11.096408  11.806592
    26  H    9.687367   9.030622   9.905955  11.268307  11.799786
                    6          7          8          9         10
     6  H    0.000000
     7  H    4.316107   0.000000
     8  H    4.983792   2.492341   0.000000
     9  H    4.315923   4.316201   2.491665   0.000000
    10  C    2.678077   2.805031   4.742240   5.426481   0.000000
    11  C    3.538295   3.675373   5.839617   6.625476   1.199171
    12  C    4.859699   4.998166   7.297294   8.166640   2.740486
    13  C    5.194844   6.173917   8.344249   8.933406   3.645121
    14  C    6.033106   5.308923   7.755100   8.956444   3.642429
    15  C    6.566433   7.386755   9.645513  10.321665   4.984779
    16  H    4.608966   6.310283   8.272277   8.569594   3.608627
    17  C    7.248142   6.681339   9.141181  10.342062   4.983432
    18  H    6.166464   4.703979   7.178949   8.612978   3.604924
    19  C    7.473876   7.601926   9.997716  10.957147   5.531276
    20  H    7.071378   8.314806  10.495562  11.004011   5.799390
    21  H    8.171976   7.172567   9.657366  11.037685   5.796968
    22  N    2.163349   3.890352   3.413069   2.163322   3.805452
    23  C    8.961144   9.087305  11.507104  12.497093   7.071274
    24  H    9.269895   9.570795  11.971610  12.896937   7.494728
    25  H    9.587215   9.254401  11.720157  12.897312   7.496484
    26  H    9.226401   9.633268  12.008085  12.885572   7.497181
                   11         12         13         14         15
    11  C    0.000000
    12  C    1.541315   0.000000
    13  C    2.545531   1.397972   0.000000
    14  C    2.542927   1.396141   2.422141   0.000000
    15  C    3.832490   2.419314   1.397998   2.795948   0.000000
    16  H    2.743033   2.163703   1.093035   3.412604   2.163294
    17  C    3.831478   2.419207   2.797315   1.398285   2.421968
    18  H    2.740120   2.163180   3.414109   1.094262   3.890205
    19  C    4.332126   2.790865   2.419920   2.419217   1.397075
    20  H    4.707283   3.410902   2.162932   3.889555   1.093608
    21  H    4.705483   3.410504   3.890801   2.163615   3.413057
    22  N    4.955199   6.459440   7.054530   7.435193   8.449913
    23  C    5.872120   4.330841   3.831308   3.830931   2.543404
    24  H    6.307643   4.790715   4.291431   4.292177   3.033865
    25  H    6.310857   4.796847   4.531460   4.036652   3.365666
    26  H    6.311345   4.796921   4.037197   4.530320   2.663767
                   16         17         18         19         20
    16  H    0.000000
    17  C    3.890343   0.000000
    18  H    4.316402   2.163389   0.000000
    19  C    3.411091   1.396940   3.410995   0.000000
    20  H    2.491931   3.413020   4.983813   2.163144   0.000000
    21  H    4.983830   1.093486   2.491757   2.163125   4.315906
    22  N    6.587476   8.770639   7.296215   9.216058   9.053370
    23  C    4.705616   2.543256   4.705559   1.540000   2.740679
    24  H    5.124451   3.035064   5.126112   2.148263   3.138976
    25  H    5.481507   2.662876   4.742954   2.148263   3.692716
    26  H    4.743895   3.364917   5.480632   2.148263   2.468788
                   21         22         23         24         25
    21  H    0.000000
    22  N    9.581158   0.000000
    23  C    2.740784  10.744321   0.000000
    24  H    3.141491  11.103339   1.070000   0.000000
    25  H    2.467421  11.253780   1.070000   1.747303   0.000000
    26  H    3.691787  11.075512   1.070000   1.747303   1.747303
                   26
    26  H    0.000000
 Stoichiometry    C14H11N
 Framework group  C1[X(C14H11N)]
 Deg. of freedom    72
 Full point group                 C1      NOp   1
 Largest Abelian subgroup         C1      NOp   1
 Largest concise Abelian subgroup C1      NOp   1
                         Standard orientation:                         
 ---------------------------------------------------------------------
 Center     Atomic      Atomic             Coordinates (Angstroms)
 Number     Number       Type             X           Y           Z
 ---------------------------------------------------------------------
      1          6           0        3.328504   -1.182815    0.272219
      2          6           0        2.668636    0.027820    0.010279
      3          6           0        3.400926    1.190062   -0.208036
      4          6           0        4.798684    1.137461   -0.245807
      5          6           0        5.459953   -0.074665   -0.024332
      6          1           0        2.752390   -2.090978    0.477408
      7          1           0        2.884466    2.136405   -0.383156
      8          1           0        5.374227    2.044751   -0.449901
      9          1           0        6.552338   -0.114795   -0.053903
     10          6           0        1.127182   -0.014083    0.011246
     11          6           0       -0.071983   -0.010847    0.013180
     12          6           0       -1.613290   -0.006677    0.015665
     13          6           0       -2.314273   -1.190416   -0.232750
     14          6           0       -2.304468    1.189224    0.218896
     15          6           0       -3.712256   -1.183935   -0.232297
     16          1           0       -1.771180   -2.123190   -0.405112
     17          6           0       -3.702739    1.195438    0.219835
     18          1           0       -1.753961    2.117581    0.399185
     19          6           0       -4.404014    0.008887   -0.007651
     20          1           0       -4.263082   -2.111871   -0.409789
     21          1           0       -4.245693    2.128185    0.395610
     22          7           0        4.724472   -1.234775    0.236810
     23          6           0       -5.943998    0.015553   -0.009905
     24          1           0       -6.302933   -0.172865    0.980330
     25          1           0       -6.296051    0.970092   -0.341287
     26          1           0       -6.302998   -0.745937   -0.670323
 ---------------------------------------------------------------------
 Rotational constants (GHZ):      2.8126004      0.1855673      0.1750659
 Standard basis: 6-31G (6D, 7F)
 There are   157 symmetry adapted cartesian basis functions of A   symmetry.
 There are   157 symmetry adapted basis functions of A   symmetry.
   157 basis functions,   374 primitive gaussians,   157 cartesian basis functions
    51 alpha electrons       51 beta electrons
       nuclear repulsion energy       774.4695330949 Hartrees.
 NAtoms=   26 NActive=   26 NUniq=   26 SFac= 1.00D+00 NAtFMM=   60 NAOKFM=F Big=F
 Integral buffers will be    131072 words long.
 Raffenetti 2 integral format.
 Two-electron integral symmetry is turned on.
 Nuclear repulsion after empirical dispersion term =      774.4532043919 Hartrees.
 One-electron integrals computed using PRISM.
 NBasis=   157 RedAO= T EigKep=  1.95D-04  NBF=   157
 NBsUse=   157 1.00D-06 EigRej= -1.00D+00 NBFU=   157
 ExpMin= 1.61D-01 ExpMax= 4.17D+03 ExpMxC= 6.27D+02 IAcc=1 IRadAn=         1 AccDes= 0.00D+00
 Harris functional with IExCor=  402 and IRadAn=       1 diagonalized for initial guess.
 HarFok:  IExCor=  402 AccDes= 0.00D+00 IRadAn=         1 IDoV= 1 UseB2=F ITyADJ=14
 ICtDFT=  3500011 ScaDFX=  1.000000  1.000000  1.000000  1.000000
 FoFCou: FMM=F IPFlag=           0 FMFlag=      100000 FMFlg1=           0
         NFxFlg=           0 DoJE=T BraDBF=F KetDBF=T FulRan=T
         wScrn=  0.000000 ICntrl=     500 IOpCl=  0 I1Cent=   200000004 NGrid=           0
         NMat0=    1 NMatS0=      1 NMatT0=    0 NMatD0=    1 NMtDS0=    0 NMtDT0=    0
 Petite list used in FoFCou.
 Keep R1 ints in memory in canonical form, NReq=78990140.
 Requested convergence on RMS density matrix=1.00D-08 within 128 cycles.
 Requested convergence on MAX density matrix=1.00D-06.
 Requested convergence on             energy=1.00D-06.
 No special actions if energy rises.
 Integral accuracy reduced to 1.0D-05 until final iterations.
 Initial convergence to 1.0D-05 achieved.  Increase integral accuracy.
 SCF Done:  E(RB3LYP) =  -594.660332633     A.U. after   15 cycles
            NFock= 15  Conv=0.72D-08     -V/T= 2.0065

 **********************************************************************

            Population analysis using the SCF density.

 **********************************************************************

 Orbital symmetries:
       Occupied  (A) (A) (A) (A) (A) (A) (A) (A) (A) (A) (A) (A)
                 (A) (A) (A) (A) (A) (A) (A) (A) (A) (A) (A) (A)
                 (A) (A) (A) (A) (A) (A) (A) (A) (A) (A) (A) (A)
                 (A) (A) (A) (A) (A) (A) (A) (A) (A) (A) (A) (A)
                 (A) (A) (A)
       Virtual   (A) (A) (A) (A) (A) (A) (A) (A) (A) (A) (A) (A)
                 (A) (A) (A) (A) (A) (A) (A) (A) (A) (A) (A) (A)
                 (A) (A) (A) (A) (A) (A) (A) (A) (A) (A) (A) (A)
                 (A) (A) (A) (A) (A) (A) (A) (A) (A) (A) (A) (A)
                 (A) (A) (A) (A) (A) (A) (A) (A) (A) (A) (A) (A)
                 (A) (A) (A) (A) (A) (A) (A) (A) (A) (A) (A) (A)
                 (A) (A) (A) (A) (A) (A) (A) (A) (A) (A) (A) (A)
                 (A) (A) (A) (A) (A) (A) (A) (A) (A) (A) (A) (A)
                 (A) (A) (A) (A) (A) (A) (A) (A) (A) (A)
 The electronic state is 1-A.
 Alpha  occ. eigenvalues --  -14.34357 -10.23651 -10.23466 -10.23340 -10.22447
 Alpha  occ. eigenvalues --  -10.21480 -10.20735 -10.20338 -10.19742 -10.19719
 Alpha  occ. eigenvalues --  -10.19645 -10.19358 -10.19234 -10.19217 -10.17664
 Alpha  occ. eigenvalues --   -0.93434  -0.87161  -0.81760  -0.79310  -0.78093
 Alpha  occ. eigenvalues --   -0.75582  -0.74503  -0.69653  -0.64298  -0.63357
 Alpha  occ. eigenvalues --   -0.61816  -0.59647  -0.54336  -0.52800  -0.49347
 Alpha  occ. eigenvalues --   -0.48834  -0.47514  -0.46217  -0.45052  -0.43237
 Alpha  occ. eigenvalues --   -0.43221  -0.42706  -0.40789  -0.40010  -0.39880
 Alpha  occ. eigenvalues --   -0.38442  -0.37375  -0.35292  -0.34917  -0.31905
 Alpha  occ. eigenvalues --   -0.28877  -0.28294  -0.26864  -0.25910  -0.24359
 Alpha  occ. eigenvalues --   -0.22814
 Alpha virt. eigenvalues --   -0.04359  -0.02981  -0.00722  -0.00194   0.05823
 Alpha virt. eigenvalues --    0.08646   0.09176   0.09340   0.11973   0.12924
 Alpha virt. eigenvalues --    0.13688   0.14089   0.14457   0.15989   0.17168
 Alpha virt. eigenvalues --    0.17542   0.17946   0.19104   0.19409   0.20386
 Alpha virt. eigenvalues --    0.21977   0.22394   0.24274   0.28141   0.30655
 Alpha virt. eigenvalues --    0.32153   0.32725   0.33760   0.34518   0.37046
 Alpha virt. eigenvalues --    0.42179   0.45797   0.48575   0.49823   0.51102
 Alpha virt. eigenvalues --    0.51381   0.52088   0.53614   0.54550   0.56050
 Alpha virt. eigenvalues --    0.57223   0.57795   0.57992   0.58554   0.59941
 Alpha virt. eigenvalues --    0.60170   0.60274   0.60321   0.61576   0.61732
 Alpha virt. eigenvalues --    0.62422   0.63655   0.64555   0.65611   0.66265
 Alpha virt. eigenvalues --    0.67710   0.68628   0.69526   0.71078   0.73715
 Alpha virt. eigenvalues --    0.74883   0.75046   0.75760   0.78480   0.78996
 Alpha virt. eigenvalues --    0.79668   0.83233   0.83556   0.84848   0.85085
 Alpha virt. eigenvalues --    0.86754   0.87111   0.87642   0.89157   0.89379
 Alpha virt. eigenvalues --    0.92166   0.95128   0.95936   0.97445   0.97631
 Alpha virt. eigenvalues --    0.99014   0.99682   1.00846   1.03203   1.06232
 Alpha virt. eigenvalues --    1.07947   1.11516   1.14427   1.15310   1.18160
 Alpha virt. eigenvalues --    1.19629   1.21540   1.22118   1.23913   1.24652
 Alpha virt. eigenvalues --    1.25493   1.28630   1.34306   1.44981   1.45571
 Alpha virt. eigenvalues --    1.47420   1.48420   1.51977   1.75896   1.87188
 Alpha virt. eigenvalues --    1.91175
          Condensed to atoms (all electrons):
               1          2          3          4          5          6
     1  C    4.964738   0.382109  -0.084588  -0.029596  -0.090303   0.377369
     2  C    0.382109   5.080574   0.524146  -0.033677  -0.006823  -0.065150
     3  C   -0.084588   0.524146   4.966340   0.497097  -0.076792   0.002816
     4  C   -0.029596  -0.033677   0.497097   5.052000   0.457728  -0.000195
     5  C   -0.090303  -0.006823  -0.076792   0.457728   4.894617   0.003433
     6  H    0.377369  -0.065150   0.002816  -0.000195   0.003433   0.542204
     7  H    0.003940  -0.032689   0.361336  -0.035811   0.003517  -0.000157
     8  H    0.000632   0.004815  -0.033524   0.337283  -0.024260   0.000018
     9  H    0.004092   0.000000   0.003227  -0.061904   0.377474  -0.000029
    10  C    0.009657   0.214744  -0.046815   0.010455   0.002978   0.003893
    11  C    0.011994  -0.176870  -0.006522   0.000703   0.000129   0.000832
    12  C    0.000123  -0.000661  -0.000048   0.000002   0.000000  -0.000013
    13  C   -0.000003   0.000004   0.000001   0.000000   0.000000   0.000002
    14  C    0.000001  -0.000001  -0.000002   0.000000   0.000000   0.000000
    15  C    0.000000   0.000002   0.000000   0.000000   0.000000   0.000000
    16  H    0.000004  -0.000048   0.000000   0.000000   0.000000   0.000006
    17  C    0.000000   0.000001   0.000000   0.000000   0.000000   0.000000
    18  H    0.000000  -0.000055   0.000003   0.000000   0.000000   0.000000
    19  C    0.000000   0.000000   0.000000   0.000000   0.000000   0.000000
    20  H    0.000000   0.000000   0.000000   0.000000   0.000000   0.000000
    21  H    0.000000   0.000000   0.000000   0.000000   0.000000   0.000000
    22  N    0.402756  -0.036640  -0.057796  -0.047645   0.419149  -0.035646
    23  C    0.000000   0.000000   0.000000   0.000000   0.000000   0.000000
    24  H    0.000000   0.000000   0.000000   0.000000   0.000000   0.000000
    25  H    0.000000   0.000000   0.000000   0.000000   0.000000   0.000000
    26  H    0.000000   0.000000   0.000000   0.000000   0.000000   0.000000
               7          8          9         10         11         12
     1  C    0.003940   0.000632   0.004092   0.009657   0.011994   0.000123
     2  C   -0.032689   0.004815   0.000000   0.214744  -0.176870  -0.000661
     3  C    0.361336  -0.033524   0.003227  -0.046815  -0.006522  -0.000048
     4  C   -0.035811   0.337283  -0.061904   0.010455   0.000703   0.000002
     5  C    0.003517  -0.024260   0.377474   0.002978   0.000129   0.000000
     6  H   -0.000157   0.000018  -0.000029   0.003893   0.000832  -0.000013
     7  H    0.557904  -0.004711  -0.000151  -0.007327  -0.002472  -0.000046
     8  H   -0.004711   0.575359   0.000096  -0.000126  -0.000004   0.000000
     9  H   -0.000151   0.000096   0.564597   0.000017   0.000000   0.000000
    10  C   -0.007327  -0.000126   0.000017   5.798694   0.424949  -0.130077
    11  C   -0.002472  -0.000004   0.000000   0.424949   5.778950   0.262866
    12  C   -0.000046   0.000000   0.000000  -0.130077   0.262866   4.806727
    13  C    0.000000   0.000000   0.000000  -0.000428  -0.024993   0.525219
    14  C    0.000003   0.000000   0.000000  -0.000014  -0.023645   0.526030
    15  C    0.000000   0.000000   0.000000   0.000507   0.008635  -0.040731
    16  H    0.000000   0.000000   0.000000  -0.001879  -0.005187  -0.032410
    17  C    0.000000   0.000000   0.000000   0.000465   0.008560  -0.041113
    18  H    0.000002   0.000000   0.000000  -0.002003  -0.005106  -0.032448
    19  C    0.000000   0.000000   0.000000   0.000077   0.001849  -0.016163
    20  H    0.000000   0.000000   0.000000  -0.000010  -0.000298   0.003174
    21  H    0.000000   0.000000   0.000000  -0.000010  -0.000298   0.003191
    22  N   -0.000259   0.004716  -0.041664   0.008913   0.000443   0.000001
    23  C    0.000000   0.000000   0.000000   0.000000  -0.000013   0.000083
    24  H    0.000000   0.000000   0.000000   0.000000   0.000000   0.000026
    25  H    0.000000   0.000000   0.000000   0.000000   0.000000   0.000023
    26  H    0.000000   0.000000   0.000000   0.000000   0.000000   0.000023
              13         14         15         16         17         18
     1  C   -0.000003   0.000001   0.000000   0.000004   0.000000   0.000000
     2  C    0.000004  -0.000001   0.000002  -0.000048   0.000001  -0.000055
     3  C    0.000001  -0.000002   0.000000   0.000000   0.000000   0.000003
     4  C    0.000000   0.000000   0.000000   0.000000   0.000000   0.000000
     5  C    0.000000   0.000000   0.000000   0.000000   0.000000   0.000000
     6  H    0.000002   0.000000   0.000000   0.000006   0.000000   0.000000
     7  H    0.000000   0.000003   0.000000   0.000000   0.000000   0.000002
     8  H    0.000000   0.000000   0.000000   0.000000   0.000000   0.000000
     9  H    0.000000   0.000000   0.000000   0.000000   0.000000   0.000000
    10  C   -0.000428  -0.000014   0.000507  -0.001879   0.000465  -0.002003
    11  C   -0.024993  -0.023645   0.008635  -0.005187   0.008560  -0.005106
    12  C    0.525219   0.526030  -0.040731  -0.032410  -0.041113  -0.032448
    13  C    4.947545  -0.066388   0.482017   0.348972  -0.046768   0.004407
    14  C   -0.066388   4.948268  -0.046683   0.004375   0.482603   0.348350
    15  C    0.482017  -0.046683   4.986228  -0.030132  -0.046922   0.000563
    16  H    0.348972   0.004375  -0.030132   0.570504   0.000568  -0.000161
    17  C   -0.046768   0.482603  -0.046922   0.000568   4.985076  -0.030255
    18  H    0.004407   0.348350   0.000563  -0.000161  -0.030255   0.573435
    19  C   -0.054917  -0.054909   0.544640   0.003631   0.545182   0.003655
    20  H   -0.030276   0.000758   0.350425  -0.003524   0.004513   0.000015
    21  H    0.000758  -0.030410   0.004513   0.000014   0.350348  -0.003551
    22  N    0.000000   0.000000   0.000000   0.000000   0.000000   0.000000
    23  C    0.006657   0.006672  -0.048409  -0.000162  -0.048379  -0.000164
    24  H   -0.000135  -0.000135  -0.002010   0.000003  -0.002004   0.000003
    25  H   -0.000252   0.000217   0.002992   0.000002  -0.002382  -0.000002
    26  H    0.000217  -0.000252  -0.002366  -0.000002   0.002978   0.000002
              19         20         21         22         23         24
     1  C    0.000000   0.000000   0.000000   0.402756   0.000000   0.000000
     2  C    0.000000   0.000000   0.000000  -0.036640   0.000000   0.000000
     3  C    0.000000   0.000000   0.000000  -0.057796   0.000000   0.000000
     4  C    0.000000   0.000000   0.000000  -0.047645   0.000000   0.000000
     5  C    0.000000   0.000000   0.000000   0.419149   0.000000   0.000000
     6  H    0.000000   0.000000   0.000000  -0.035646   0.000000   0.000000
     7  H    0.000000   0.000000   0.000000  -0.000259   0.000000   0.000000
     8  H    0.000000   0.000000   0.000000   0.004716   0.000000   0.000000
     9  H    0.000000   0.000000   0.000000  -0.041664   0.000000   0.000000
    10  C    0.000077  -0.000010  -0.000010   0.008913   0.000000   0.000000
    11  C    0.001849  -0.000298  -0.000298   0.000443  -0.000013   0.000000
    12  C   -0.016163   0.003174   0.003191   0.000001   0.000083   0.000026
    13  C   -0.054917  -0.030276   0.000758   0.000000   0.006657  -0.000135
    14  C   -0.054909   0.000758  -0.030410   0.000000   0.006672  -0.000135
    15  C    0.544640   0.350425   0.004513   0.000000  -0.048409  -0.002010
    16  H    0.003631  -0.003524   0.000014   0.000000  -0.000162   0.000003
    17  C    0.545182   0.004513   0.350348   0.000000  -0.048379  -0.002004
    18  H    0.003655   0.000015  -0.003551   0.000000  -0.000164   0.000003
    19  C    4.784926  -0.038216  -0.038140   0.000000   0.319004  -0.033354
    20  H   -0.038216   0.585688  -0.000170   0.000000  -0.006840   0.000500
    21  H   -0.038140  -0.000170   0.586444   0.000000  -0.006851   0.000497
    22  N    0.000000   0.000000   0.000000   6.797783   0.000000   0.000000
    23  C    0.319004  -0.006840  -0.006851   0.000000   5.132518   0.371939
    24  H   -0.033354   0.000500   0.000497   0.000000   0.371939   0.561953
    25  H   -0.035235   0.000110   0.003946   0.000000   0.371623  -0.029872
    26  H   -0.035191   0.003926   0.000109   0.000000   0.371689  -0.029846
              25         26
     1  C    0.000000   0.000000
     2  C    0.000000   0.000000
     3  C    0.000000   0.000000
     4  C    0.000000   0.000000
     5  C    0.000000   0.000000
     6  H    0.000000   0.000000
     7  H    0.000000   0.000000
     8  H    0.000000   0.000000
     9  H    0.000000   0.000000
    10  C    0.000000   0.000000
    11  C    0.000000   0.000000
    12  C    0.000023   0.000023
    13  C   -0.000252   0.000217
    14  C    0.000217  -0.000252
    15  C    0.002992  -0.002366
    16  H    0.000002  -0.000002
    17  C   -0.002382   0.002978
    18  H   -0.000002   0.000002
    19  C   -0.035235  -0.035191
    20  H    0.000110   0.003926
    21  H    0.003946   0.000109
    22  N    0.000000   0.000000
    23  C    0.371623   0.371689
    24  H   -0.029872  -0.029846
    25  H    0.569212  -0.029105
    26  H   -0.029105   0.568687
 Mulliken charges:
               1
     1  C    0.047076
     2  C    0.146219
     3  C   -0.048879
     4  C   -0.146441
     5  C    0.039152
     6  H    0.170615
     7  H    0.156923
     8  H    0.139707
     9  H    0.154243
    10  C   -0.286658
    11  C   -0.254503
    12  C    0.166224
    13  C   -0.091639
    14  C   -0.094838
    15  C   -0.163269
    16  H    0.145426
    17  C   -0.162472
    18  H    0.143311
    19  C    0.103160
    20  H    0.130226
    21  H    0.129609
    22  N   -0.414111
    23  C   -0.469369
    24  H    0.162435
    25  H    0.148723
    26  H    0.149131
 Sum of Mulliken charges =   0.00000
 Mulliken charges with hydrogens summed into heavy atoms:
               1
     1  C    0.217691
     2  C    0.146219
     3  C    0.108044
     4  C   -0.006734
     5  C    0.193394
    10  C   -0.286658
    11  C   -0.254503
    12  C    0.166224
    13  C    0.053787
    14  C    0.048473
    15  C   -0.033043
    17  C   -0.032863
    19  C    0.103160
    22  N   -0.414111
    23  C   -0.009079
 Electronic spatial extent (au):  <R**2>=           5858.5686
 Charge=              0.0000 electrons
 Dipole moment (field-independent basis, Debye):
    X=             -2.2824    Y=              2.1529    Z=             -0.3946  Tot=              3.1623
 Quadrupole moment (field-independent basis, Debye-Ang):
   XX=            -74.8748   YY=            -81.3928   ZZ=            -90.9317
   XY=             12.4828   XZ=             -2.8675   YZ=              0.7762
 Traceless Quadrupole moment (field-independent basis, Debye-Ang):
   XX=              7.5249   YY=              1.0070   ZZ=             -8.5319
   XY=             12.4828   XZ=             -2.8675   YZ=              0.7762
 Octapole moment (field-independent basis, Debye-Ang**2):
  XXX=            -51.6137  YYY=              9.5960  ZZZ=              0.9047  XYY=            -20.5198
  XXY=             66.5288  XXZ=            -13.9629  XZZ=             -2.1335  YZZ=             -0.8036
  YYZ=             -2.4174  XYZ=             -4.8566
 Hexadecapole moment (field-independent basis, Debye-Ang**3):
 XXXX=          -6786.7762 YYYY=           -540.7087 ZZZZ=           -119.8656 XXXY=            353.9363
 XXXZ=            -90.8028 YYYX=             52.0069 YYYZ=              3.1499 ZZZX=             -1.3852
 ZZZY=             -0.6350 XXYY=          -1340.7392 XXZZ=          -1316.1274 YYZZ=           -120.7759
 XXYZ=             15.2935 YYXZ=             -9.2322 ZZXY=              0.2483
 N-N= 7.744532043919D+02 E-N=-2.927701317411D+03  KE= 5.908375857659D+02
 Calling FoFJK, ICntrl=      2127 FMM=F ISym2X=0 I1Cent= 0 IOpClX= 0 NMat=1 NMatS=1 NMatT=0.
 ***** Axes restored to original set *****
 -------------------------------------------------------------------
 Center     Atomic                   Forces (Hartrees/Bohr)
 Number     Number              X              Y              Z
 -------------------------------------------------------------------
      1        6          -0.046921790    0.010137823   -0.009560947
      2        6           0.071057061   -0.010342259    0.015461405
      3        6          -0.000601762    0.009689840   -0.012722888
      4        6          -0.004244415    0.000885545   -0.006001461
      5        6           0.033821445   -0.008618731    0.019564062
      6        1          -0.010615914    0.001814901   -0.003471298
      7        1          -0.001973325   -0.001685048    0.004866046
      8        1           0.003101465   -0.002488944    0.003935401
      9        1           0.007566645   -0.003143711    0.007889383
     10        6          -0.099322666    0.002530137   -0.010717721
     11        6           0.098380235   -0.000704931    0.000691547
     12        6          -0.066481071    0.004574939    0.001547318
     13        6           0.001106752   -0.003704288    0.012953658
     14        6           0.001252946   -0.003432944   -0.015081154
     15        6          -0.005969179    0.000617851    0.004844701
     16        1           0.002078759    0.000359673   -0.005623929
     17        6          -0.006047931    0.000714597   -0.004378152
     18        1           0.002363933    0.000266688    0.006300736
     19        6           0.025842534    0.000845714   -0.000040571
     20        1          -0.002686132    0.000540604   -0.004804175
     21        1          -0.002703407    0.000524834    0.004707119
     22        7           0.008962547    0.001351146   -0.010359039
     23        6          -0.034985960    0.001889459   -0.000043976
     24        1           0.009311129   -0.016351559    0.000056248
     25        1           0.008855889    0.006831100   -0.012982811
     26        1           0.008852209    0.006897566    0.012970497
 -------------------------------------------------------------------
 Cartesian Forces:  Max     0.099322666 RMS     0.022025473

 GradGradGradGradGradGradGradGradGradGradGradGradGradGradGradGradGradGrad
 Berny optimization.
 FormGI is forming the generalized inverse of G from B-inverse, IUseBI=4.
 GSVD:  received Info=                   1 from GESDD.
 Internal  Forces:  Max     0.060441473 RMS     0.011120148
 Search for a local minimum.
 Step number   1 out of a maximum of  135
 All quantities printed in internal units (Hartrees-Bohrs-Radians)
 Mixed Optimization -- RFO/linear search
 Second derivative matrix not updated -- first step.
 ITU=  0
     Eigenvalues ---    0.00230   0.00230   0.00230   0.00237   0.01366
     Eigenvalues ---    0.01516   0.01660   0.01801   0.01938   0.01982
     Eigenvalues ---    0.02056   0.02104   0.02116   0.02117   0.02120
     Eigenvalues ---    0.02122   0.02125   0.02126   0.02132   0.02138
     Eigenvalues ---    0.02163   0.03988   0.04701   0.07243   0.07243
     Eigenvalues ---    0.15990   0.15995   0.15996   0.15996   0.16000
     Eigenvalues ---    0.16000   0.16000   0.16000   0.16000   0.16000
     Eigenvalues ---    0.16000   0.21992   0.21994   0.22981   0.23180
     Eigenvalues ---    0.23471   0.23992   0.24980   0.24994   0.25000
     Eigenvalues ---    0.28340   0.28403   0.28519   0.34254   0.34325
     Eigenvalues ---    0.34394   0.34399   0.34409   0.34413   0.34464
     Eigenvalues ---    0.34556   0.37230   0.37230   0.37230   0.41553
     Eigenvalues ---    0.41751   0.42205   0.42632   0.45389   0.45833
     Eigenvalues ---    0.45928   0.45974   0.45996   0.46091   0.46204
     Eigenvalues ---    0.46793   1.05241
 RFO step:  Lambda=-4.14242189D-02 EMin= 2.30000000D-03
 Linear search not attempted -- first point.
 Maximum step size (   0.300) exceeded in Quadratic search.
    -- Step size scaled by   0.860
 Iteration  1 RMS(Cart)=  0.08022124 RMS(Int)=  0.00093288
 Iteration  2 RMS(Cart)=  0.00189781 RMS(Int)=  0.00008536
 Iteration  3 RMS(Cart)=  0.00000211 RMS(Int)=  0.00008536
 Iteration  4 RMS(Cart)=  0.00000000 RMS(Int)=  0.00008536
 Variable       Old X    -DE/DX   Delta X   Delta X   Delta X     New X
                                 (Linear)    (Quad)   (Total)
    R1        2.65214   0.00478   0.00000   0.00859   0.00856   2.66070
    R2        2.06903  -0.00887   0.00000  -0.01988  -0.01988   2.04915
    R3        2.64067  -0.04268   0.00000  -0.07601  -0.07608   2.56460
    R4        2.62850   0.00322   0.00000   0.00841   0.00844   2.63694
    R5        2.91400  -0.06044   0.00000  -0.16008  -0.16008   2.75392
    R6        2.64421  -0.00619   0.00000  -0.00779  -0.00773   2.63649
    R7        2.06401  -0.00546   0.00000  -0.01214  -0.01214   2.05187
    R8        2.64263   0.00137   0.00000   0.00215   0.00217   2.64480
    R9        2.06671  -0.00554   0.00000  -0.01237  -0.01237   2.05433
   R10        2.06646  -0.00734   0.00000  -0.01639  -0.01639   2.05006
   R11        2.64223  -0.03846   0.00000  -0.06919  -0.06923   2.57299
   R12        2.26611   0.03917   0.00000   0.03081   0.03081   2.29692
   R13        2.91266  -0.05921   0.00000  -0.15652  -0.15652   2.75614
   R14        2.64178   0.00544   0.00000   0.00939   0.00937   2.65115
   R15        2.63832   0.00660   0.00000   0.01134   0.01132   2.64964
   R16        2.64183   0.00026   0.00000   0.00041   0.00041   2.64224
   R17        2.06554  -0.00591   0.00000  -0.01317  -0.01317   2.05237
   R18        2.64238   0.00021   0.00000   0.00039   0.00039   2.64276
   R19        2.06786  -0.00664   0.00000  -0.01485  -0.01485   2.05300
   R20        2.64009   0.00709   0.00000   0.01205   0.01207   2.65216
   R21        2.06662  -0.00550   0.00000  -0.01228  -0.01228   2.05434
   R22        2.63983   0.00707   0.00000   0.01205   0.01207   2.65190
   R23        2.06639  -0.00543   0.00000  -0.01211  -0.01211   2.05428
   R24        2.91018  -0.00797   0.00000  -0.02098  -0.02098   2.88919
   R25        2.02201   0.01852   0.00000   0.03851   0.03851   2.06052
   R26        2.02201   0.01678   0.00000   0.03488   0.03488   2.05689
   R27        2.02201   0.01679   0.00000   0.03492   0.03492   2.05692
    A1        2.09796  -0.00082   0.00000   0.00713   0.00714   2.10509
    A2        2.09099   0.01619   0.00000   0.04820   0.04807   2.13905
    A3        2.09389  -0.01534   0.00000  -0.05491  -0.05491   2.03898
    A4        2.09733  -0.00696   0.00000  -0.01473  -0.01474   2.08259
    A5        2.03358   0.01307   0.00000   0.03572   0.03571   2.06930
    A6        2.15206  -0.00610   0.00000  -0.02086  -0.02087   2.13119
    A7        2.09293  -0.01200   0.00000  -0.02778  -0.02773   2.06520
    A8        2.09462   0.00525   0.00000   0.01090   0.01083   2.10545
    A9        2.09507   0.00678   0.00000   0.01736   0.01728   2.11235
   A10        2.09517  -0.00503   0.00000  -0.01133  -0.01126   2.08391
   A11        2.09387   0.00223   0.00000   0.00444   0.00440   2.09827
   A12        2.09414   0.00280   0.00000   0.00689   0.00685   2.10100
   A13        2.09428   0.00054   0.00000   0.01378   0.01379   2.10808
   A14        2.09442   0.01685   0.00000   0.04903   0.04900   2.14342
   A15        2.09448  -0.01739   0.00000  -0.06281  -0.06280   2.03168
   A16        2.09307   0.00060   0.00000   0.00193   0.00193   2.09500
   A17        2.09164   0.00045   0.00000   0.00150   0.00151   2.09315
   A18        2.09779  -0.00103   0.00000  -0.00306  -0.00312   2.09467
   A19        2.09144  -0.00032   0.00000  -0.00140  -0.00144   2.09000
   A20        2.09611  -0.00088   0.00000  -0.00368  -0.00369   2.09242
   A21        2.09540   0.00122   0.00000   0.00530   0.00530   2.10069
   A22        2.09320  -0.00070   0.00000  -0.00245  -0.00249   2.09071
   A23        2.09628  -0.00078   0.00000  -0.00350  -0.00350   2.09278
   A24        2.09347   0.00149   0.00000   0.00616   0.00616   2.09963
   A25        2.09342   0.00427   0.00000   0.01343   0.01344   2.10686
   A26        2.09403  -0.00206   0.00000  -0.00640  -0.00641   2.08762
   A27        2.09573  -0.00221   0.00000  -0.00703  -0.00703   2.08870
   A28        2.09222   0.00442   0.00000   0.01407   0.01409   2.10631
   A29        2.09489  -0.00219   0.00000  -0.00696  -0.00696   2.08793
   A30        2.09607  -0.00223   0.00000  -0.00712  -0.00712   2.08894
   A31        2.09766  -0.00661   0.00000  -0.02011  -0.02008   2.07758
   A32        2.09278   0.00329   0.00000   0.01002   0.01000   2.10278
   A33        2.09274   0.00331   0.00000   0.01009   0.01006   2.10280
   A34        2.09366  -0.00896   0.00000  -0.04209  -0.04227   2.05140
   A35        1.91063   0.00312   0.00000   0.01268   0.01258   1.92322
   A36        1.91063   0.00360   0.00000   0.01573   0.01560   1.92623
   A37        1.91063   0.00363   0.00000   0.01583   0.01570   1.92634
   A38        1.91063  -0.00361   0.00000  -0.01610  -0.01619   1.89445
   A39        1.91063  -0.00363   0.00000  -0.01616  -0.01625   1.89438
   A40        1.91063  -0.00311   0.00000  -0.01198  -0.01213   1.89850
   A41        3.17054  -0.00350   0.00000  -0.03426  -0.03428   3.13626
   A42        3.14159   0.00133   0.00000   0.02685   0.02682   3.16841
   A43        3.13228   0.00080   0.00000   0.00815   0.00803   3.14031
   A44        3.14159  -0.00007   0.00000   0.00017   0.00027   3.14186
    D1        3.10566   0.00037   0.00000   0.00586   0.00576   3.11143
    D2       -0.01472   0.00002   0.00000  -0.00022  -0.00029  -0.01500
    D3       -0.06456   0.00131   0.00000   0.02214   0.02244  -0.04212
    D4        3.09824   0.00096   0.00000   0.01606   0.01639   3.11463
    D5        0.02934  -0.00079   0.00000  -0.01220  -0.01213   0.01721
    D6       -3.14082   0.00039   0.00000   0.00507   0.00491  -3.13591
    D7        0.06660  -0.00211   0.00000  -0.02468  -0.02433   0.04227
    D8       -3.11087  -0.00089   0.00000  -0.00898  -0.00874  -3.11962
    D9       -3.09770  -0.00150   0.00000  -0.01745  -0.01734  -3.11504
   D10        0.00801  -0.00028   0.00000  -0.00175  -0.00176   0.00625
   D11       -0.42138   0.00103   0.00000   0.01603   0.01606  -0.40532
   D12        2.76189   0.00006   0.00000   0.00175   0.00188   2.76377
   D13        2.74721   0.00011   0.00000   0.00162   0.00150   2.74871
   D14       -0.35271  -0.00086   0.00000  -0.01265  -0.01268  -0.36539
   D15       -0.03360   0.00080   0.00000   0.01312   0.01324  -0.02035
   D16        3.10669   0.00096   0.00000   0.01351   0.01348   3.12017
   D17       -3.13930  -0.00039   0.00000  -0.00245  -0.00227  -3.14157
   D18        0.00098  -0.00023   0.00000  -0.00207  -0.00203  -0.00105
   D19       -3.14144  -0.00006   0.00000  -0.00252  -0.00270   3.13905
   D20       -0.00147  -0.00017   0.00000  -0.00277  -0.00289  -0.00435
   D21        0.00146  -0.00021   0.00000  -0.00291  -0.00293  -0.00147
   D22        3.14144  -0.00033   0.00000  -0.00316  -0.00312   3.13831
   D23        0.00343   0.00042   0.00000   0.00303   0.00276   0.00619
   D24       -3.13978   0.00032   0.00000   0.00285   0.00264  -3.13714
   D25       -3.13968   0.00034   0.00000   0.00383   0.00380  -3.13588
   D26        0.02538  -0.00045   0.00000  -0.00695  -0.00697   0.01842
   D27       -0.03799   0.00102   0.00000   0.01467   0.01467  -0.02332
   D28        3.12707   0.00023   0.00000   0.00389   0.00390   3.13098
   D29        3.14019  -0.00035   0.00000  -0.00400  -0.00397   3.13622
   D30       -0.02477   0.00040   0.00000   0.00630   0.00632  -0.01845
   D31        0.03847  -0.00104   0.00000  -0.01484  -0.01484   0.02363
   D32       -3.12649  -0.00028   0.00000  -0.00454  -0.00455  -3.13104
   D33        0.02003  -0.00056   0.00000  -0.00811  -0.00815   0.01188
   D34       -3.12378  -0.00053   0.00000  -0.00763  -0.00766  -3.13144
   D35        3.13816   0.00019   0.00000   0.00255   0.00255   3.14070
   D36       -0.00565   0.00022   0.00000   0.00302   0.00303  -0.00262
   D37       -0.02094   0.00059   0.00000   0.00841   0.00845  -0.01249
   D38        3.12361   0.00053   0.00000   0.00746   0.00749   3.13110
   D39       -3.13921  -0.00013   0.00000  -0.00175  -0.00174  -3.14095
   D40        0.00535  -0.00020   0.00000  -0.00270  -0.00271   0.00264
   D41       -0.00265   0.00018   0.00000   0.00190   0.00191  -0.00074
   D42        3.13963   0.00054   0.00000   0.00774   0.00771  -3.13584
   D43        3.14116   0.00015   0.00000   0.00143   0.00143  -3.14060
   D44        0.00025   0.00051   0.00000   0.00726   0.00723   0.00748
   D45        0.00308  -0.00018   0.00000  -0.00203  -0.00204   0.00104
   D46       -3.13920  -0.00054   0.00000  -0.00787  -0.00785   3.13614
   D47       -3.14147  -0.00012   0.00000  -0.00108  -0.00108   3.14063
   D48       -0.00057  -0.00048   0.00000  -0.00691  -0.00688  -0.00745
   D49        1.56879  -0.00019   0.00000  -0.00297  -0.00300   1.56579
   D50       -2.62000  -0.00049   0.00000  -0.00529  -0.00535  -2.62534
   D51       -0.52560   0.00012   0.00000  -0.00063  -0.00064  -0.52624
   D52       -1.57211   0.00018   0.00000   0.00286   0.00290  -1.56922
   D53        0.52228  -0.00013   0.00000   0.00055   0.00055   0.52284
   D54        2.61668   0.00049   0.00000   0.00520   0.00526   2.62194
         Item               Value     Threshold  Converged?
 Maximum Force            0.060441     0.000450     NO 
 RMS     Force            0.011120     0.000300     NO 
 Maximum Displacement     0.279891     0.001800     NO 
 RMS     Displacement     0.080891     0.001200     NO 
 Predicted change in Energy=-2.225099D-02
 GradGradGradGradGradGradGradGradGradGradGradGradGradGradGradGradGradGrad

                          Input orientation:                          
 ---------------------------------------------------------------------
 Center     Atomic      Atomic             Coordinates (Angstroms)
 Number     Number       Type             X           Y           Z
 ---------------------------------------------------------------------
      1          6           0       -3.831009   -0.953471    1.065641
      2          6           0       -3.162272   -0.483387   -0.080755
      3          6           0       -3.908276   -0.045206   -1.175581
      4          6           0       -5.299471   -0.042663   -1.070395
      5          6           0       -5.900155   -0.498292    0.108745
      6          1           0       -3.272231   -1.324943    1.917475
      7          1           0       -3.414578    0.302430   -2.078010
      8          1           0       -5.910103    0.311242   -1.897245
      9          1           0       -6.979709   -0.503939    0.215631
     10          6           0       -1.704996   -0.489671   -0.088985
     11          6           0       -0.489554   -0.498600   -0.090371
     12          6           0        0.968410   -0.509839   -0.052929
     13          6           0        1.639326   -0.496509    1.179104
     14          6           0        1.699029   -0.498734   -1.249608
     15          6           0        3.037237   -0.500462    1.207916
     16          1           0        1.071185   -0.495154    2.104716
     17          6           0        3.096958   -0.503039   -1.210209
     18          1           0        1.177552   -0.499153   -2.202672
     19          6           0        3.778771   -0.503309    0.016351
     20          1           0        3.554816   -0.499704    2.163905
     21          1           0        3.660801   -0.504319   -2.139625
     22          7           0       -5.183908   -0.955399    1.172661
     23          6           0        5.307155   -0.515208    0.054080
     24          1           0        5.675363   -1.541465    0.066012
     25          1           0        5.711620   -0.012492   -0.822522
     26          1           0        5.668094   -0.007604    0.946740
 ---------------------------------------------------------------------
                    Distance matrix (angstroms):
                    1          2          3          4          5
     1  C    0.000000
     2  C    1.407982   0.000000
     3  C    2.419503   1.395409   0.000000
     4  C    2.747472   2.396090   1.395169   0.000000
     5  C    2.324694   2.744473   2.412957   1.399567   0.000000
     6  H    1.084364   2.170998   3.407239   3.831620   3.295579
     7  H    3.410755   2.161063   1.085802   2.164995   3.406046
     8  H    3.834166   3.388458   2.157584   1.087107   2.163201
     9  H    3.292249   3.828981   3.402883   2.165603   1.084847
    10  C    2.463373   1.457313   2.496533   3.752763   4.199825
    11  C    3.564911   2.672778   3.615370   4.929871   5.414263
    12  C    4.947972   4.130860   5.025762   6.367089   6.870476
    13  C    5.490560   4.964147   6.043517   7.308428   7.615080
    14  C    6.012362   4.999870   5.626103   7.015635   7.719632
    15  C    6.884640   6.332052   7.357205   8.654536   9.004730
    16  H    5.032022   4.764303   5.979785   7.132415   7.251448
    17  C    7.306102   6.360347   7.020264   8.410204   9.093278
    18  H    5.997830   4.830823   5.208323   6.591075   7.445575
    19  C    7.694960   6.941751   7.792384   9.154654   9.679368
    20  H    7.480809   7.082234   8.188802   9.437584   9.675751
    21  H    8.161048   7.126971   7.644023   9.035644   9.821766
    22  N    1.357126   2.425048   2.823106   2.424405   1.361570
    23  C    9.204421   8.470560   9.308981  10.676528  11.207455
    24  H    9.576853   8.901958   9.778879  11.134847  11.622506
    25  H    9.773043   8.917282   9.626428  11.013922  11.659184
    26  H    9.546820   8.902667   9.808798  11.151572  11.608936
                    6          7          8          9         10
     6  H    0.000000
     7  H    4.316539   0.000000
     8  H    4.918085   2.502080   0.000000
     9  H    4.161216   4.315227   2.504560   0.000000
    10  C    2.679512   2.739765   4.646955   5.283521   0.000000
    11  C    3.529529   3.626034   5.770874   6.497367   1.215475
    12  C    4.746569   4.896050   7.168655   7.952657   2.673725
    13  C    5.035363   6.065397   8.192085   8.672721   3.576672
    14  C    5.952013   5.241860   7.679479   8.801560   3.596459
    15  C    6.402548   7.284769   9.505566  10.065975   4.916385
    16  H    4.425932   6.184934   8.087296   8.269560   3.538296
    17  C    7.143144   6.618305   9.069853  10.177045   4.931134
    18  H    6.120303   4.663232   7.140370   8.508180   3.574471
    19  C    7.348876   7.535239   9.909572  10.760325   5.484796
    20  H    6.881157   8.198153  10.331277  10.713170   5.721996
    21  H    8.074677   7.121491   9.608647  10.898059   5.744312
    22  N    2.084663   3.908903   3.399421   2.084376   3.729810
    23  C    8.816675   9.015706  11.415672  12.287931   7.013656
    24  H    9.139706   9.519653  11.895795  12.698413   7.456540
    25  H    9.483653   9.217533  11.675799  12.743199   7.468063
    26  H    9.088845   9.578108  11.926633  12.678635   7.461070
                   11         12         13         14         15
    11  C    0.000000
    12  C    1.458488   0.000000
    13  C    2.478649   1.402930   0.000000
    14  C    2.476637   1.402130   2.429446   0.000000
    15  C    3.758166   2.422781   1.398214   2.798254   0.000000
    16  H    2.693385   2.160141   1.086067   3.412577   2.160934
    17  C    3.757277   2.422821   2.798849   1.398490   2.418865
    18  H    2.690922   2.159918   3.413158   1.086402   3.884654
    19  C    4.269662   2.811223   2.435008   2.434748   1.403463
    20  H    4.630194   3.406458   2.153822   3.885359   1.087108
    21  H    4.628707   3.406362   3.885921   2.154231   3.405125
    22  N    4.882711   6.289006   6.838650   7.311002   8.233798
    23  C    5.798532   4.340068   3.836535   3.836462   2.546386
    24  H    6.254457   4.820146   4.315148   4.316175   3.057342
    25  H    6.263139   4.830908   4.563371   4.064445   3.393098
    26  H    6.263650   4.831005   4.064972   4.562743   2.689336
                   16         17         18         19         20
    16  H    0.000000
    17  C    3.884913   0.000000
    18  H    4.308702   2.160814   0.000000
    19  C    3.419408   1.403324   3.419125   0.000000
    20  H    2.484340   3.405040   4.971758   2.159203   0.000000
    21  H    4.971983   1.087076   2.484055   2.159201   4.304837
    22  N    6.340879   8.628757   7.215899   9.048262   8.806561
    23  C    4.706267   2.546280   4.706039   1.528896   2.742680
    24  H    5.142911   3.058634   5.144282   2.162706   3.159611
    25  H    5.507750   2.688381   4.764391   2.163450   3.715901
    26  H    4.765520   3.392437   5.506848   2.163536   2.487890
                   21         22         23         24         25
    21  H    0.000000
    22  N    9.455347   0.000000
    23  C    2.742797  10.559706   0.000000
    24  H    3.162114  10.931235   1.090378   0.000000
    25  H    2.486465  11.116760   1.088460   1.768775   0.000000
    26  H    3.715050  10.895655   1.088477   1.768746   1.769804
                   26
    26  H    0.000000
 Stoichiometry    C14H11N
 Framework group  C1[X(C14H11N)]
 Deg. of freedom    72
 Full point group                 C1      NOp   1
 Largest Abelian subgroup         C1      NOp   1
 Largest concise Abelian subgroup C1      NOp   1
                         Standard orientation:                         
 ---------------------------------------------------------------------
 Center     Atomic      Atomic             Coordinates (Angstroms)
 Number     Number       Type             X           Y           Z
 ---------------------------------------------------------------------
      1          6           0        3.258355   -1.159997    0.257083
      2          6           0        2.594253    0.055619    0.004773
      3          6           0        3.344639    1.210008   -0.222104
      4          6           0        4.735540    1.102515   -0.240473
      5          6           0        5.331542   -0.142393   -0.008580
      6          1           0        2.696071   -2.063878    0.463680
      7          1           0        2.854521    2.162687   -0.398612
      8          1           0        5.349552    1.978431   -0.434280
      9          1           0        6.410773   -0.252041   -0.020004
     10          6           0        1.136993    0.067347    0.008772
     11          6           0       -0.078462    0.071063    0.014721
     12          6           0       -1.536551    0.036992    0.015165
     13          6           0       -2.210831   -1.169240   -0.226835
     14          6           0       -2.263818    1.217595    0.223077
     15          6           0       -3.608822   -1.193685   -0.231808
     16          1           0       -1.645254   -2.080594   -0.397417
     17          6           0       -3.661857    1.182681    0.216498
     18          1           0       -1.739708    2.152516    0.400565
     19          6           0       -4.347060   -0.020644   -0.011155
     20          1           0       -4.129041   -2.131431   -0.410159
     21          1           0       -4.223127    2.097773    0.387719
     22          7           0        4.610939   -1.269991    0.242674
     23          6           0       -5.875572   -0.054887   -0.010293
     24          1           0       -6.246991   -0.254645    0.995226
     25          1           0       -6.276049    0.900709   -0.343758
     26          1           0       -6.237406   -0.837444   -0.674719
 ---------------------------------------------------------------------
 Rotational constants (GHZ):      2.8055770      0.1925352      0.1812194
 Standard basis: 6-31G (6D, 7F)
 There are   157 symmetry adapted cartesian basis functions of A   symmetry.
 There are   157 symmetry adapted basis functions of A   symmetry.
   157 basis functions,   374 primitive gaussians,   157 cartesian basis functions
    51 alpha electrons       51 beta electrons
       nuclear repulsion energy       782.6056403981 Hartrees.
 NAtoms=   26 NActive=   26 NUniq=   26 SFac= 1.00D+00 NAtFMM=   60 NAOKFM=F Big=F
 Integral buffers will be    131072 words long.
 Raffenetti 2 integral format.
 Two-electron integral symmetry is turned on.
 Nuclear repulsion after empirical dispersion term =      782.5891338695 Hartrees.
 One-electron integrals computed using PRISM.
 NBasis=   157 RedAO= T EigKep=  1.58D-04  NBF=   157
 NBsUse=   157 1.00D-06 EigRej= -1.00D+00 NBFU=   157
 Initial guess from the checkpoint file:  "D:\User Dont delete\Downloads\molecule_26.chk"
 B after Tr=     0.000000    0.000000    0.000000
         Rot=    1.000000    0.000668    0.000269   -0.000418 Ang=   0.10 deg.
 ExpMin= 1.61D-01 ExpMax= 4.17D+03 ExpMxC= 6.27D+02 IAcc=1 IRadAn=         1 AccDes= 0.00D+00
 Harris functional with IExCor=  402 and IRadAn=       1 diagonalized for initial guess.
 HarFok:  IExCor=  402 AccDes= 0.00D+00 IRadAn=         1 IDoV= 1 UseB2=F ITyADJ=14
 ICtDFT=  3500011 ScaDFX=  1.000000  1.000000  1.000000  1.000000
 FoFCou: FMM=F IPFlag=           0 FMFlag=      100000 FMFlg1=           0
         NFxFlg=           0 DoJE=T BraDBF=F KetDBF=T FulRan=T
         wScrn=  0.000000 ICntrl=     500 IOpCl=  0 I1Cent=   200000004 NGrid=           0
         NMat0=    1 NMatS0=      1 NMatT0=    0 NMatD0=    1 NMtDS0=    0 NMtDT0=    0
 Petite list used in FoFCou.
 Keep R1 ints in memory in canonical form, NReq=78990140.
 Requested convergence on RMS density matrix=1.00D-08 within 128 cycles.
 Requested convergence on MAX density matrix=1.00D-06.
 Requested convergence on             energy=1.00D-06.
 No special actions if energy rises.
 Integral accuracy reduced to 1.0D-05 until final iterations.
 EnCoef did     4 forward-backward iterations
 Initial convergence to 1.0D-05 achieved.  Increase integral accuracy.
 SCF Done:  E(RB3LYP) =  -594.683629819     A.U. after   14 cycles
            NFock= 14  Conv=0.85D-08     -V/T= 2.0059
 Calling FoFJK, ICntrl=      2127 FMM=F ISym2X=0 I1Cent= 0 IOpClX= 0 NMat=1 NMatS=1 NMatT=0.
 ***** Axes restored to original set *****
 -------------------------------------------------------------------
 Center     Atomic                   Forces (Hartrees/Bohr)
 Number     Number              X              Y              Z
 -------------------------------------------------------------------
      1        6          -0.015350871    0.002491312    0.001171160
      2        6           0.036114429   -0.006257630    0.007374683
      3        6          -0.006344310    0.004727284   -0.005091441
      4        6          -0.003010669    0.000236673   -0.002754623
      5        6           0.003831941   -0.001209278    0.003527581
      6        1          -0.000267731    0.000390229   -0.000175487
      7        1           0.000081987   -0.000399611    0.001554577
      8        1           0.000088158   -0.001115101    0.001663638
      9        1           0.000410711   -0.000312371    0.001030661
     10        6          -0.027809219    0.000466506   -0.002936813
     11        6           0.026448978   -0.000600238    0.002037931
     12        6          -0.031560220    0.003356276   -0.001416237
     13        6           0.007137672   -0.002524332    0.004613321
     14        6           0.008051466   -0.002083215   -0.004744889
     15        6          -0.004350639    0.000326972    0.000724524
     16        1           0.000187635    0.000231810   -0.001380637
     17        6          -0.004368673    0.000368462   -0.000871679
     18        1           0.000183910    0.000169435    0.001576834
     19        6           0.011714810    0.000610848    0.000240637
     20        1          -0.000196279    0.000409657   -0.000774205
     21        1          -0.000190439    0.000383890    0.000727054
     22        7           0.005227987    0.000899552   -0.005961346
     23        6          -0.015945082    0.000865427   -0.000387922
     24        1           0.003465014   -0.003705587    0.000107180
     25        1           0.003294243    0.001129561   -0.002817733
     26        1           0.003155191    0.001143468    0.002963230
 -------------------------------------------------------------------
 Cartesian Forces:  Max     0.036114429 RMS     0.008019877

 GradGradGradGradGradGradGradGradGradGradGradGradGradGradGradGradGradGrad
 Berny optimization.
 Using GEDIIS/GDIIS optimizer.
 FormGI is forming the generalized inverse of G from B-inverse, IUseBI=4.
 GSVD:  received Info=                   1 from GESDD.
 Internal  Forces:  Max     0.020770337 RMS     0.003432510
 Search for a local minimum.
 Step number   2 out of a maximum of  135
 All quantities printed in internal units (Hartrees-Bohrs-Radians)
 Mixed Optimization -- RFO/linear search
 Update second derivatives using D2CorX and points    1    2
 DE= -2.33D-02 DEPred=-2.23D-02 R= 1.05D+00
 TightC=F SS=  1.41D+00  RLast= 3.06D-01 DXNew= 5.0454D-01 9.1940D-01
 Trust test= 1.05D+00 RLast= 3.06D-01 DXMaxT set to 5.05D-01
 ITU=  1  0
 Use linear search instead of GDIIS.
     Eigenvalues ---    0.00230   0.00230   0.00231   0.00237   0.01352
     Eigenvalues ---    0.01494   0.01660   0.01805   0.01942   0.01988
     Eigenvalues ---    0.02052   0.02104   0.02116   0.02117   0.02119
     Eigenvalues ---    0.02122   0.02125   0.02126   0.02131   0.02138
     Eigenvalues ---    0.02162   0.03944   0.04725   0.07055   0.07090
     Eigenvalues ---    0.15801   0.15997   0.15999   0.15999   0.16000
     Eigenvalues ---    0.16000   0.16000   0.16000   0.16000   0.16000
     Eigenvalues ---    0.16270   0.21666   0.21998   0.22131   0.22994
     Eigenvalues ---    0.23649   0.24040   0.24976   0.24999   0.25080
     Eigenvalues ---    0.26937   0.28377   0.28839   0.34291   0.34332
     Eigenvalues ---    0.34385   0.34400   0.34411   0.34456   0.34541
     Eigenvalues ---    0.34621   0.37190   0.37230   0.37236   0.41301
     Eigenvalues ---    0.41710   0.41741   0.42563   0.45386   0.45697
     Eigenvalues ---    0.45936   0.45965   0.46068   0.46111   0.46271
     Eigenvalues ---    0.49389   1.05376
 RFO step:  Lambda=-3.69396205D-03 EMin= 2.29982783D-03
 Quartic linear search produced a step of  0.30667.
 Iteration  1 RMS(Cart)=  0.20608624 RMS(Int)=  0.02362809
 Iteration  2 RMS(Cart)=  0.19877357 RMS(Int)=  0.00717457
 Iteration  3 RMS(Cart)=  0.05622085 RMS(Int)=  0.00063777
 Iteration  4 RMS(Cart)=  0.00101655 RMS(Int)=  0.00055198
 Iteration  5 RMS(Cart)=  0.00000049 RMS(Int)=  0.00055198
 Variable       Old X    -DE/DX   Delta X   Delta X   Delta X     New X
                                 (Linear)    (Quad)   (Total)
    R1        2.66070   0.00307   0.00263   0.00667   0.00933   2.67003
    R2        2.04915  -0.00041  -0.00610   0.00499  -0.00111   2.04804
    R3        2.56460  -0.00837  -0.02333  -0.00124  -0.02455   2.54004
    R4        2.63694   0.00970   0.00259   0.02543   0.02804   2.66498
    R5        2.75392  -0.02077  -0.04909  -0.03892  -0.08804   2.66588
    R6        2.63649   0.00166  -0.00237   0.00797   0.00559   2.64208
    R7        2.05187  -0.00138  -0.00372  -0.00119  -0.00491   2.04695
    R8        2.64480  -0.00120   0.00066  -0.00451  -0.00388   2.64092
    R9        2.05433  -0.00168  -0.00379  -0.00224  -0.00604   2.04830
   R10        2.05006  -0.00031  -0.00503   0.00423  -0.00079   2.04927
   R11        2.57299  -0.00639  -0.02123   0.00175  -0.01951   2.55348
   R12        2.29692   0.00703   0.00945   0.00045   0.00988   2.30679
   R13        2.75614  -0.01946  -0.04800  -0.03402  -0.08197   2.67417
   R14        2.65115   0.00529   0.00287   0.01249   0.01537   2.66652
   R15        2.64964   0.00592   0.00347   0.01361   0.01708   2.66672
   R16        2.64224  -0.00169   0.00013  -0.00492  -0.00479   2.63745
   R17        2.05237  -0.00127  -0.00404  -0.00046  -0.00450   2.04787
   R18        2.64276  -0.00174   0.00012  -0.00500  -0.00488   2.63788
   R19        2.05300  -0.00147  -0.00456  -0.00066  -0.00522   2.04778
   R20        2.65216   0.00170   0.00370   0.00063   0.00433   2.65649
   R21        2.05434  -0.00077  -0.00377   0.00112  -0.00264   2.05169
   R22        2.65190   0.00166   0.00370   0.00053   0.00422   2.65612
   R23        2.05428  -0.00072  -0.00372   0.00127  -0.00245   2.05183
   R24        2.88919  -0.00603  -0.00644  -0.01999  -0.02642   2.86277
   R25        2.06052   0.00466   0.01181   0.00381   0.01562   2.07614
   R26        2.05689   0.00401   0.01070   0.00274   0.01344   2.07033
   R27        2.05692   0.00401   0.01071   0.00271   0.01342   2.07034
    A1        2.10509  -0.00135   0.00219  -0.01161  -0.00945   2.09565
    A2        2.13905   0.00285   0.01474  -0.00225   0.01247   2.15152
    A3        2.03898  -0.00150  -0.01684   0.01390  -0.00296   2.03602
    A4        2.08259  -0.00667  -0.00452  -0.02533  -0.03000   2.05259
    A5        2.06930   0.00675   0.01095   0.02012   0.03106   2.10036
    A6        2.13119  -0.00007  -0.00640   0.00547  -0.00096   2.13023
    A7        2.06520   0.00107  -0.00850   0.02185   0.01327   2.07847
    A8        2.10545  -0.00135   0.00332  -0.01595  -0.01267   2.09278
    A9        2.11235   0.00029   0.00530  -0.00569  -0.00043   2.11192
   A10        2.08391  -0.00163  -0.00345  -0.00403  -0.00757   2.07634
   A11        2.09827   0.00186   0.00135   0.01089   0.01229   2.11056
   A12        2.10100  -0.00023   0.00210  -0.00686  -0.00471   2.09629
   A13        2.10808   0.00063   0.00423   0.00067   0.00495   2.11302
   A14        2.14342   0.00100   0.01503  -0.01619  -0.00126   2.14216
   A15        2.03168  -0.00163  -0.01926   0.01553  -0.00368   2.02800
   A16        2.09500   0.00171   0.00059   0.00775   0.00821   2.10321
   A17        2.09315   0.00292   0.00046   0.01416   0.01456   2.10771
   A18        2.09467  -0.00462  -0.00096  -0.02141  -0.02241   2.07226
   A19        2.09000   0.00165  -0.00044   0.01040   0.00993   2.09993
   A20        2.09242  -0.00140  -0.00113  -0.00782  -0.00897   2.08345
   A21        2.10069  -0.00025   0.00162  -0.00248  -0.00088   2.09981
   A22        2.09071   0.00160  -0.00076   0.01066   0.00987   2.10057
   A23        2.09278  -0.00141  -0.00107  -0.00808  -0.00917   2.08361
   A24        2.09963  -0.00019   0.00189  -0.00249  -0.00062   2.09901
   A25        2.10686   0.00180   0.00412   0.00368   0.00778   2.11465
   A26        2.08762  -0.00070  -0.00197  -0.00038  -0.00233   2.08529
   A27        2.08870  -0.00110  -0.00216  -0.00330  -0.00545   2.08325
   A28        2.10631   0.00174   0.00432   0.00324   0.00753   2.11385
   A29        2.08793  -0.00065  -0.00214   0.00010  -0.00202   2.08590
   A30        2.08894  -0.00109  -0.00218  -0.00334  -0.00551   2.08343
   A31        2.07758  -0.00217  -0.00616  -0.00627  -0.01247   2.06511
   A32        2.10278   0.00106   0.00307   0.00302   0.00608   2.10887
   A33        2.10280   0.00111   0.00309   0.00321   0.00629   2.10910
   A34        2.05140   0.00341  -0.01296   0.02688   0.01384   2.06523
   A35        1.92322   0.00190   0.00386   0.00877   0.01253   1.93575
   A36        1.92623   0.00199   0.00478   0.00974   0.01438   1.94061
   A37        1.92634   0.00199   0.00482   0.00971   0.01438   1.94072
   A38        1.89445  -0.00217  -0.00496  -0.01133  -0.01639   1.87806
   A39        1.89438  -0.00218  -0.00498  -0.01144  -0.01652   1.87786
   A40        1.89850  -0.00171  -0.00372  -0.00634  -0.01024   1.88826
   A41        3.13626   0.00015  -0.01051   0.03283   0.02197   3.15823
[...]
 000919,-0.00000979,0.00000154,-0.00001051,0.00000818,-0.00000176,0.000
 00883,0.00001024,-0.00000004,0.00000118,0.00310157,-0.00001336,-0.0000
 1676,-0.00440297,-0.00010356,-0.00002339,0.00652883,0.00013165,0.00065
 186,-0.03185761,-0.00455644,0.03197646,-0.02996839,0.00580914,-0.03285
 906,-0.17534898,-0.01694728,0.11279073,-0.00488587,0.00005879,-0.00101
 649,-0.17262269,0.01881280,-0.11086542,-0.00494089,-0.00023864,0.00085
 432,0.65286063,-0.00004226,-0.00000688,-0.00002129,0.00015010,0.000099
 79,0.00000783,-0.00005116,-0.00001373,0.00001109,0.00000775,-0.0000126
 0,0.00002718,-0.00002970,-0.00000027,0.00000094,0.00000782,0.00000812,
 -0.00000277,0.00000723,0.00000839,0.00000348,-0.00000959,0.00000215,-0
 .00000894,-0.00000976,0.00000357,-0.00000163,-0.00012499,0.00006626,-0
 .00009842,0.00001969,-0.00092972,0.00005523,-0.00043454,-0.00877636,0.
 00925035,-0.01159250,0.00812158,-0.00488256,0.01205248,0.00767073,-0.0
 0287881,-0.00662898,-0.07532398,0.02993925,0.00050223,0.00750985,0.000
 96953,0.00863328,-0.07628389,0.03260197,-0.00008135,0.00755579,0.00093
 385,-0.00871976,0.19261593,-0.00003216,0.00000041,-0.00001407,0.000003
 01,0.00001068,0.00003623,0.00002637,-0.00000170,-0.00000307,-0.0000145
 7,-0.00000491,0.00001597,-0.00000311,0.00000309,-0.00001752,0.00000076
 ,0.00000032,0.00000369,0.00000173,0.00000130,0.00000383,-0.00000074,0.
 00000032,-0.00000083,-0.00000116,0.00000034,-0.00000035,0.00001817,-0.
 00009696,0.00065466,-0.00003280,0.00005361,-0.00126399,0.00059660,0.00
 925920,-0.06516743,0.07344583,-0.00441143,0.03228553,-0.07451242,-0.00
 334264,0.03081225,0.04868387,0.02934300,-0.26528237,-0.00184289,0.0010
 8755,0.00174119,-0.04672521,0.03319215,-0.26710361,0.00180918,0.000809
 67,0.00175452,-0.00148912,-0.07721417,0.66235529,-0.00009592,0.0000139
 0,-0.00007822,0.00018307,-0.00001330,0.00009349,-0.00005975,-0.0000027
 4,0.00001620,-0.00000315,-0.00000116,0.00000969,-0.00000825,0.00000009
 ,-0.00000139,0.00001693,0.00000057,-0.00000398,0.00001629,-0.00000189,
 0.00001053,-0.00001280,0.00000128,-0.00000771,-0.00001120,0.00000069,-
 0.00000216,-0.00043942,-0.00000703,0.00007438,-0.00037220,0.00018049,-
 0.00135236,-0.00465680,-0.00019657,0.00170763,-0.01242468,0.00498386,-
 0.03053449,-0.00049541,-0.00010763,0.00071897,-0.12598152,0.01839147,-
 0.11712930,0.00057507,-0.00009066,0.00045014,-0.00136024,-0.00049835,0
 .00324435,0.00007299,0.00000469,-0.00010761,0.00955360,-0.00270271,0.0
 1659303,0.13390141,0.00000457,0.00000570,0.00000493,-0.00001416,-0.000
 00942,-0.00000086,0.00000469,-0.00001499,-0.00000326,-0.00000021,-0.00
 000334,-0.00000346,0.00000222,0.00000154,0.00000058,-0.00000118,0.0000
 0426,0.00000099,-0.00000107,0.00000418,0.00000007,0.00000100,0.0000017
 6,0.00000122,0.00000115,0.00000002,0.00000021,0.00000084,-0.00016447,-
 0.00001962,0.00000814,0.00046053,0.00006422,-0.00011456,0.00735293,0.0
 0083941,-0.00049725,0.00330461,0.00016271,-0.00019164,-0.00028105,-0.0
 0008735,0.01851748,-0.04417380,0.03572429,0.00002812,-0.00418965,-0.00
 080832,-0.00050006,0.00599358,0.00150214,0.00001017,-0.00121492,-0.000
 19678,0.00206216,0.00357111,0.00366688,-0.01975856,0.03274852,-0.00003
 608,0.00000501,-0.00002180,0.00012096,-0.00000064,-0.00000482,-0.00003
 865,-0.00000292,0.00000332,0.00000247,-0.00000374,0.00002063,-0.000017
 21,0.00000081,-0.00000329,0.00000932,0.00000122,-0.00000331,0.00000826
 ,-0.00000015,0.00000444,-0.00000757,0.00000148,-0.00000710,-0.00000886
 ,0.00000043,-0.00000161,-0.00006863,-0.00001865,-0.00004120,0.00003148
 ,0.00005419,0.00005562,0.00099036,0.00081491,0.00203059,0.00404938,0.0
 0005692,0.00313023,0.00098101,-0.00011219,0.00030205,-0.11670189,0.035
 99870,-0.26660576,-0.00042021,-0.00078183,0.00083546,0.00392141,0.0012
 5200,-0.00233777,-0.00012654,-0.00017234,-0.00006376,-0.01699812,0.003
 83367,-0.02008865,0.12460758,-0.04038397,0.28268357,-0.00005035,0.0000
 0362,-0.00002615,0.00019096,0.00001580,-0.00009045,-0.00009948,-0.0000
 0625,0.00004645,-0.00000490,-0.00000013,-0.00000481,-0.00000914,0.0000
 0078,-0.00000341,0.00001601,0.00000169,-0.00001136,0.00001480,-0.00000
 080,0.00000591,-0.00001984,0.00000143,-0.00000860,-0.00001140,0.000000
 34,-0.00000268,-0.00044645,0.00001540,-0.00006561,-0.00039051,-0.00024
 835,0.00132816,-0.00460358,0.00036572,-0.00181438,-0.00046486,0.000123
 03,-0.00072585,-0.01287002,-0.00474718,0.03029479,-0.00123569,0.000532
 97,-0.00321623,0.00006881,-0.00002898,0.00010501,-0.13011657,-0.019463
 70,0.11941333,0.00057580,0.00005697,-0.00046866,0.00950741,0.00251211,
 -0.01606567,0.00056234,0.00015626,-0.00071109,0.13833543,-0.00000671,-
 0.00001153,-0.00000308,0.00002372,-0.00001279,-0.00000172,-0.00000709,
 0.00000690,0.00000254,0.00000056,0.00000498,0.00000439,-0.00000309,-0.
 00000052,-0.00000071,0.00000150,0.00000372,-0.00000039,0.00000172,0.00
 000394,0.00000132,-0.00000159,0.00000137,-0.00000125,-0.00000164,0.000
 00133,-0.00000009,-0.00001976,-0.00016550,-0.00002077,0.00001881,0.000
 46510,0.00006562,0.00021582,0.00732201,0.00090566,0.00012625,-0.000291
 57,-0.00010146,0.00083838,0.00331748,-0.00016197,0.00074874,0.00599696
 ,0.00125783,-0.00003009,-0.00120874,-0.00018075,-0.01920886,-0.0443793
 4,0.03652963,-0.00010445,-0.00416598,-0.00083652,-0.00343095,0.0034737
 7,0.00407177,-0.00007898,0.00023314,0.00024675,0.02052870,0.03300585,0
 .00003335,-0.00000308,0.00000765,-0.00011662,-0.00000159,-0.00000320,0
 .00003579,0.00000265,-0.00001138,-0.00000141,0.00000418,-0.00001835,0.
 00001589,-0.00000078,0.00000305,-0.00000785,-0.00000018,0.00000521,-0.
 00000873,0.00000105,-0.00000286,0.00000857,-0.00000107,0.00000756,0.00
 000861,-0.00000003,0.00000167,0.00006085,-0.00002188,-0.00004182,-0.00
 003590,0.00007527,0.00007902,-0.00107946,0.00093097,0.00201634,-0.0010
 0583,-0.00007614,0.00027207,-0.00428875,-0.00005848,0.00350909,-0.0038
 7001,0.00150590,-0.00246896,0.00012437,-0.00020514,-0.00006141,0.11902
 471,0.03625538,-0.26207081,0.00040941,-0.00086254,0.00082314,0.0173172
 5,0.00391254,-0.02002507,0.00075634,0.00019155,-0.00109949,-0.12709381
 ,-0.04086391,0.27793156,-0.33600289,0.00283622,-0.00810552,-0.04662398
 ,-0.01287567,0.08322101,-0.05896262,0.00512775,-0.03031630,0.06752056,
 0.00613561,-0.04009615,-0.17487067,0.01326542,-0.07937459,-0.02844803,
 0.00021680,-0.00047470,-0.00004596,0.00005630,-0.00050673,0.00002524,-
 0.00042400,0.00294226,-0.01647364,0.00594475,-0.03682385,0.00956197,-0
 .00052561,0.00325519,-0.00482711,0.00013844,-0.00070130,0.00203364,0.0
 0002040,-0.00022040,-0.00060473,0.00005536,-0.00032094,-0.00049655,-0.
 00003867,0.00027493,0.00019038,0.00002222,-0.00012956,0.00007758,-0.00
 001330,0.00007596,0.00015601,-0.00002051,0.00012496,0.00004521,0.00000
 623,-0.00004526,-0.00011410,-0.00002155,0.00001253,-0.00003665,0.00000
 270,-0.00001944,-0.00003809,-0.00000383,0.00002098,0.58794559,0.000310
 04,-0.06881375,0.00798536,-0.00430235,0.02194172,-0.00286659,0.0057340
 4,-0.00791271,0.00114088,-0.00274826,0.02037993,0.01533365,0.01598048,
 -0.07416939,0.02985222,0.00467170,-0.00410986,-0.00202974,0.00004746,-
 0.00405914,-0.00071272,-0.00051122,0.00761192,0.00186021,0.00133546,-0
 .00405054,0.00014166,-0.00060047,0.00814340,0.00216842,0.00008440,-0.0
 0073108,-0.00012660,-0.00005980,-0.00029152,-0.00010040,-0.00001665,-0
 .00008456,0.00003426,0.00001394,0.00008193,-0.00001420,-0.00001741,0.0
 0012685,0.00000697,0.00000257,-0.00004995,-0.00000719,-0.00001574,-0.0
 0006299,-0.00000935,0.00000653,0.00001010,-0.00000524,0.00001532,-0.00
 000775,-0.00000203,-0.00000762,0.00000062,-0.00000124,-0.00000119,-0.0
 0000668,-0.00000148,-0.01992033,0.10605586,0.00778886,0.00789456,-0.11
 735516,0.02943338,-0.00255673,0.03643557,-0.03410976,0.00116167,-0.013
 75537,0.01562167,0.01501508,-0.07192456,-0.09640635,0.02994736,-0.2536
 4486,-0.02844485,-0.00186818,0.00834802,-0.00044676,-0.00071348,0.0003
 1647,0.00349191,0.00185719,-0.00386973,-0.00792561,-0.00002367,-0.0035
 7995,0.00373090,0.00216627,-0.00523080,-0.00038860,-0.00013022,0.00006
 936,0.00029024,-0.00010367,0.00035040,0.00010838,0.00003299,-0.0003002
 3,-0.00005935,-0.00001097,0.00015148,0.00011633,0.00000706,0.00008539,
 -0.00002067,-0.00000714,-0.00000541,0.00008921,-0.00000907,-0.00001342
 ,-0.00004076,-0.00000674,0.00004693,-0.00009425,-0.00000658,0.00001120
 ,0.00004207,-0.00000069,0.00000614,0.00001402,-0.00000083,-0.00000025,
 0.10720097,-0.05264591,0.42385355,-0.00006617,-0.00000890,0.00005756,0
 .00024060,-0.00001483,-0.00000427,-0.00006408,0.00000960,-0.00005736,0
 .00003652,0.00000321,-0.00001247,-0.00003044,0.00000036,-0.00000118,-0
 .00000045,-0.00000025,0.00000045,-0.00000121,-0.00000044,-0.00000011,0
 .00000007,0.00000024,-0.00000096,0.00000014,-0.00000035,-0.00000023,-0
 .00065578,-0.00000713,-0.00000303,0.00113751,0.00017858,0.00003524,-0.
 00174352,-0.00011841,-0.00004336,0.00300583,-0.00064062,0.00125208,0.0
 0303067,-0.00025840,-0.00124661,-0.02408901,0.00024850,0.00302379,-0.0
 0011223,0.00014181,-0.00015662,-0.02345560,0.00121327,-0.00323746,-0.0
 0009117,0.00008734,0.00019183,-0.20919519,0.00381160,-0.00044906,0.001
 15060,0.00062753,-0.00125177,0.00115396,0.00021616,0.00140777,0.000042
 13,-0.00000159,0.00001497,0.48820804,0.00009418,0.00000181,0.00000363,
 -0.00031112,0.00003637,0.00001220,0.00008983,-0.00000154,0.00001204,-0
 .00002698,0.00000442,-0.00003904,0.00005862,-0.00000030,0.00000194,-0.
 00000835,-0.00000191,0.00000268,-0.00000820,0.00000059,-0.00000335,0.0
 0001215,-0.00000148,0.00001244,0.00001243,-0.00000008,0.00000291,0.000
 44126,0.00006817,0.00001329,-0.00058025,-0.00092757,-0.00019677,0.0009
 9642,-0.00083648,-0.00006091,-0.00151524,0.00643906,0.00214454,-0.0010
 2320,0.00625674,0.00137162,-0.00493397,0.00555528,0.00005829,-0.000357
 41,0.00000109,-0.00000895,0.00508560,0.00479345,0.00079271,0.00005796,
 0.00002143,0.00000835,-0.00068422,-0.07456622,0.00284003,0.00009844,-0
 .00343481,-0.00126825,0.00043387,-0.00336397,-0.00004175,0.00000116,-0
 .00000323,0.00000024,0.01159346,0.54065390,0.00000871,-0.00000201,-0.0
 0001238,-0.00004518,0.00000630,-0.00000879,0.00001349,0.00000313,-0.00
 000729,-0.00000215,-0.00000409,-0.00000312,0.00000797,0.00000103,0.000
 00183,-0.00000371,-0.00000003,0.00000498,0.00000200,-0.00000034,0.0000
 0317,0.00000220,-0.00000038,0.00000193,0.00000197,-0.00000180,0.000001
 10,0.00006132,0.00001014,0.00001155,-0.00007999,-0.00019061,0.00023811
 ,0.00013512,-0.00007831,-0.00035802,0.00135353,0.00076641,-0.00453455,
 -0.00159839,0.00276998,-0.00436761,0.03114615,-0.00162226,0.00250916,0
 .00127369,0.00005181,0.00002427,-0.03158314,0.00248537,0.00265899,-0.0
 0132639,-0.00004637,-0.00001603,-0.00109774,0.00286338,-0.09184830,0.0
 0112344,0.00022636,0.00064444,-0.00104221,-0.00153039,0.00055836,0.000
 00385,0.00000527,0.00000468,0.00087603,-0.00770299,0.58833830,-0.00005
 512,0.00000393,-0.00003562,0.00017222,-0.00000131,-0.00000322,-0.00005
 554,-0.00000634,0.00002214,0.00000244,-0.00000692,0.00003979,-0.000035
 66,0.00000088,-0.00000208,0.00001095,0.00000381,-0.00000411,0.00001045
 ,0.00000252,0.00000413,-0.00001298,0.00000292,-0.00001149,-0.00001282,
 0.00000124,-0.00000268,-0.00009797,-0.00002562,-0.00000533,-0.00009615
 ,0.00017589,0.00002720,0.00001711,0.00022651,0.00002072,-0.00041155,-0
 .00145037,-0.00046212,-0.00044418,-0.00151965,-0.00000952,-0.00019892,
 -0.00030946,-0.00147424,-0.00011211,0.00003287,0.00005939,-0.00020584,
 -0.00073919,0.00131170,-0.00011295,0.00004683,-0.00004943,-0.01749526,
 0.03241603,0.00492858,0.00007637,0.00063791,0.00046141,0.00008312,0.00
 074292,-0.00023284,-0.00003105,-0.00000202,-0.00000499,-0.07115208,0.0
 7802573,0.01207931,0.08228299,-0.00000567,-0.00000186,0.00001951,0.000
 01691,0.00000180,0.00000065,-0.00000296,0.00000523,-0.00001805,0.00001
 020,0.00000167,-0.00001107,-0.00000463,-0.00000038,0.00000158,-0.00000
 364,-0.00000211,0.00000251,-0.00000398,-0.00000164,-0.00000230,0.00000
 327,-0.00000142,0.00000270,0.00000392,-0.00000061,0.00000052,-0.000128
 46,0.00000165,0.00000362,0.00028984,-0.00005684,-0.00000821,-0.0004734
 7,-0.00001210,-0.00016945,0.00068613,0.00001316,0.00010919,0.00036060,
 0.00012979,0.00009689,-0.00059465,0.00006145,0.00067209,0.00003887,0.0
 0003017,0.00000305,-0.00003891,0.00043275,-0.00053316,0.00004518,0.000
 01152,0.00000959,0.00056989,0.00289135,0.00034162,0.00004234,-0.000246
 40,0.00006603,0.00006283,-0.00031418,-0.00010116,0.00002169,0.00000159
 ,0.00000279,0.07426950,-0.27051773,-0.03440372,-0.08468535,0.29710459,
 0.00000092,-0.00000003,0.00000903,0.00000387,0.00000031,0.00000007,-0.
 00000182,-0.00000029,0.00000093,0.00000167,0.00000155,-0.00000257,-0.0
 0000061,-0.00000066,0.00000065,-0.00000066,-0.00000077,-0.00000093,-0.
 00000070,0.00000026,-0.00000123,-0.00000033,-0.00000001,0.00000010,0.0
 0000051,0.00000042,0.00000012,-0.00002042,0.00000293,-0.00001963,0.000
 04334,-0.00000636,0.00000137,-0.00008110,-0.00016344,0.00099002,-0.000
 92729,0.00044417,-0.00048448,0.00108756,-0.00027810,-0.00058164,0.0016
 5603,0.00063330,-0.00000033,0.00002544,-0.00004806,-0.00002266,-0.0017
 4756,-0.00050244,-0.00038884,-0.00001427,0.00006048,-0.00000544,-0.000
 09024,0.00063296,0.00084968,0.00007553,-0.00030739,-0.00020915,-0.0000
 5407,0.00029032,-0.00014253,0.00000197,-0.00000068,-0.00000333,0.01149
 782,-0.03437427,-0.05273649,-0.01301845,0.03847687,0.05349134,-0.00002
 587,0.00000293,-0.00000361,0.00009336,-0.00000104,0.00000303,-0.000028
 69,-0.00000148,0.00001126,0.00000279,-0.00000141,0.00001468,-0.0000169
 0,0.00000007,-0.00000132,0.00000549,-0.00000057,-0.00000441,0.00000401
 ,-0.00000153,0.00000010,-0.00000651,0.00000054,-0.00000539,-0.00000565
 ,0.00000025,-0.00000149,-0.00007757,0.00001098,-0.00000633,0.00003883,
 -0.00004551,-0.00010709,0.00009248,-0.00012117,-0.00018867,-0.00011782
 ,0.00064387,0.00144776,0.00000338,0.00042567,0.00020131,-0.00551869,-0
 .00017458,-0.00209541,-0.00042948,0.00004953,0.00001110,0.00134111,0.0
 0029887,0.00183800,0.00001798,-0.00002020,-0.00002755,-0.01533944,-0.0
 1946865,0.02702633,0.00006601,-0.00029307,-0.00005285,-0.00021023,-0.0
 0027078,-0.00143245,-0.00001283,0.00000058,-0.00000394,-0.08501654,-0.
 05628472,0.06856385,0.00401153,0.00611778,-0.00780067,0.09661662,-0.00
 002284,-0.00000020,0.00000029,0.00008397,0.00000039,-0.00000037,-0.000
 02381,-0.00000046,0.00000255,0.00000451,-0.00000271,0.00001216,-0.0000
 1311,0.00000035,-0.00000136,0.00000328,0.00000048,-0.00000278,0.000003
 53,0.00000071,0.00000140,-0.00000465,0.00000102,-0.00000431,-0.0000046
 5,0.00000025,-0.00000091,-0.00009321,-0.00000245,-0.00000327,0.0001040
 7,0.00000172,-0.00001538,-0.00010803,0.00008831,-0.00050398,0.00089187
 ,0.00003325,0.00013041,-0.00026139,0.00004323,-0.00005829,0.00001549,0
 .00035718,-0.00000266,0.00003244,-0.00007034,-0.00002269,0.00033801,0.
 00038162,0.00022255,-0.00002510,-0.00003098,-0.00000506,0.00382981,0.0
 0173604,-0.00220624,0.00004242,-0.00002723,0.00001659,-0.00029726,0.00
 005561,-0.00046754,-0.00000712,0.00000055,-0.00000229,-0.05855760,-0.1
 3460311,0.10980888,-0.01205531,-0.01890081,0.02513845,0.06146851,0.144
 21421,0.00000155,-0.00000114,0.00000752,-0.00001525,-0.00000635,-0.000
 00221,0.00000537,-0.00000047,-0.00001170,0.00000652,0.00000306,-0.0000
 0714,-0.00000270,-0.00000056,0.00000221,-0.00000404,0.00000085,0.00000
 392,-0.00000439,0.00000153,-0.00000169,0.00000371,0.00000030,0.0000032
 5,0.00000415,0.00000061,0.00000072,-0.00002780,-0.00000650,-0.00000504
 ,0.00012489,0.00011437,0.00007093,-0.00027718,-0.00009620,0.00019883,0
 .00000068,0.00007055,-0.00004670,0.00060684,-0.00052011,0.00002145,0.0
 0029164,0.00054926,0.00051975,0.00005809,-0.00001406,-0.00000298,-0.00
 204397,-0.00058092,0.00044137,0.00006415,0.00003164,0.00001931,-0.0007
 9157,-0.00119375,-0.00019439,-0.00019750,-0.00001814,0.00050417,0.0000
 0465,0.00047483,0.00027611,0.00001852,-0.00000364,-0.00000022,0.070580
 28,0.10938593,-0.18969969,-0.00172102,-0.00414689,0.00369448,-0.078237
 01,-0.12249006,0.20469808,-0.00003040,0.00000261,-0.00001955,0.0000930
 1,-0.00000054,-0.00000619,-0.00002829,0.00000210,0.00000160,0.00000411
 ,-0.00000321,0.00001792,-0.00001800,0.00000028,-0.00000083,0.00000465,
 -0.00000117,-0.00000058,0.00000560,-0.00000154,0.00000318,-0.00000518,
 0.00000047,-0.00000489,-0.00000554,-0.00000043,-0.00000105,-0.00007745
 ,0.00000873,0.00000978,0.00003840,-0.00007482,0.00008461,0.00008342,-0
 .00017437,0.00013206,0.00002068,0.00046365,-0.00006222,-0.00010192,0.0
 0106888,-0.00116190,0.00132492,0.00084276,-0.00163344,0.00001852,-0.00
 002799,0.00001999,-0.00552568,-0.00079530,0.00183299,-0.00042879,0.000
 05355,-0.00000483,-0.01486326,-0.01020282,-0.03197709,-0.00021667,-0.0
 0069317,0.00127526,0.00006247,-0.00029546,-0.00005026,-0.00000941,0.00
 000211,0.00000299,-0.08233259,-0.03126744,-0.07987374,0.00386301,0.003
 40277,0.00936354,0.00451265,0.00465617,0.01155140,0.09361176,-0.000022
 24,0.00000001,-0.00000280,0.00007501,-0.00000133,-0.00000185,-0.000020
 80,0.,-0.00000417,0.00000637,-0.00000175,0.00001012,-0.00001360,0.0000
 0047,-0.00000079,0.00000233,0.00000134,-0.00000057,0.00000179,0.000000
 38,0.00000127,-0.00000247,0.00000084,-0.00000285,-0.00000313,0.0000002
 9,-0.00000073,-0.00009705,-0.00000516,0.00000109,0.00013756,0.00003731
 ,0.00000724,-0.00019637,-0.00007716,0.00040623,-0.00005739,-0.00013008
 ,0.00001036,0.00084849,0.00007265,-0.00006813,-0.00031508,0.00029188,-
 0.00027828,-0.00000416,-0.00001784,-0.00000746,0.00012594,0.00052340,0
 .00000474,0.00005018,-0.00007326,0.00000059,0.00340759,0.00058698,0.00
 259815,-0.00029304,0.00007758,0.00039722,-0.00001766,0.00002863,-0.000
 17274,-0.00000047,-0.00000133,0.00000097,-0.03279266,-0.07557388,-0.07
 341476,-0.01151844,-0.01063066,-0.02999954,0.00766513,0.00672338,0.018
 44584,0.03303419,0.07816733,-0.00001070,0.00000511,-0.00001674,0.00004
 060,0.00000758,-0.00000220,-0.00001260,0.00000032,0.00000625,-0.000004
 63,-0.00000084,0.00001288,-0.00000217,-0.00000008,-0.00000299,0.000005
 24,-0.00000088,-0.00000276,0.00000552,-0.00000232,0.00000341,-0.000003
 79,-0.00000011,-0.00000404,-0.00000539,0.00000049,-0.00000074,-0.00000
 150,0.00000637,-0.00000254,-0.00008942,-0.00012738,0.00003619,0.000228
 77,0.00000120,0.00037310,-0.00066718,0.00048255,0.00017896,0.00027425,
 -0.00000837,-0.00011367,0.00206799,0.00054332,0.00054322,-0.00006785,-
 0.00004391,0.00000467,-0.00037711,-0.00055878,0.00036595,-0.00005278,-
 0.00000856,-0.00000038,0.00164558,0.00126566,0.00048563,-0.00010864,-0
 .00055570,0.00026705,0.00019272,-0.00014682,0.00045530,-0.00001839,-0.
 00000190,0.00000412,-0.08247333,-0.07296656,-0.25140860,-0.00191724,-0
 .00041518,-0.00443856,-0.00914922,-0.00954605,-0.02049034,0.09050127,0
 .08207084,0.27374682||0.00000957,-0.00001169,-0.00001746,-0.00000274,-
 0.00000213,0.00001557,-0.00000373,0.00000115,-0.00000706,0.00000790,-0
 .00000380,-0.00000700,0.00001382,0.00001155,0.00001674,-0.00000622,0.0
 0000620,0.00000265,-0.00000004,-0.00000050,0.00000039,0.00000048,-0.00
 000029,0.00000113,0.00000049,-0.00000410,0.00000089,-0.00000760,0.0000
 0656,-0.00000070,0.00000639,-0.00000345,-0.00000382,-0.00000071,-0.000
 00044,0.00000317,-0.00000414,0.00000301,-0.00000249,-0.00000333,-0.000
 00059,0.00000041,0.00000057,-0.00000135,0.00000079,0.00000078,-0.00000
 005,0.00000050,-0.00000192,0.00000092,-0.00000516,0.00000132,-0.000000
 17,-0.00000019,-0.00000057,0.00000222,0.00000465,-0.00000029,0.0000001
 2,-0.00000128,-0.00000039,-0.00000156,0.00000121,-0.00001001,-0.000001
 62,-0.00000087,-0.00000179,0.00000032,-0.00000119,0.00000141,-0.000000
 23,-0.00000068,0.00000042,0.00000015,0.00000001,0.00000035,-0.00000025
 ,-0.00000020|||@


 WE STILL HAVE JUDGEMENT HERE,
 THAT WE TEACH BUT BLOODY INSTRUCTIONS,
 WHICH, BEING TAUGHT,
 RETURN TO PLAGUE THE INVENTOR.
           MACBETH ACT I, SCENE VII
 Job cpu time:       0 days  0 hours  3 minutes 53.0 seconds.
 File lengths (MBytes):  RWF=     97 Int=      0 D2E=      0 Chk=      3 Scr=      1
 Normal termination of Gaussian 09 at Mon Sep 11 19:44:47 2023.
