 Entering Link 1 = C:\G09W\l1.exe PID=      3768.
  
 Copyright (c) 1988,1990,1992,1993,1995,1998,2003,2009,2013,
            Gaussian, Inc.  All Rights Reserved.
  
 This is part of the Gaussian(R) 09 program.  It is based on
 the Gaussian(R) 03 system (copyright 2003, Gaussian, Inc.),
 the Gaussian(R) 98 system (copyright 1998, Gaussian, Inc.),
 the Gaussian(R) 94 system (copyright 1995, Gaussian, Inc.),
 the Gaussian 92(TM) system (copyright 1992, Gaussian, Inc.),
 the Gaussian 90(TM) system (copyright 1990, Gaussian, Inc.),
 the Gaussian 88(TM) system (copyright 1988, Gaussian, Inc.),
 the Gaussian 86(TM) system (copyright 1986, Carnegie Mellon
 University), and the Gaussian 82(TM) system (copyright 1983,
 Carnegie Mellon University). Gaussian is a federally registered
 trademark of Gaussian, Inc.
  
 This software contains proprietary and confidential information,
 including trade secrets, belonging to Gaussian, Inc.
  
 This software is provided under written license and may be
 used, copied, transmitted, or stored only in accord with that
 written license.
  
 The following legend is applicable only to US Government
 contracts under FAR:
  
                    RESTRICTED RIGHTS LEGEND
  
 Use, reproduction and disclosure by the US Government is
 subject to restrictions as set forth in subparagraphs (a)
 and (c) of the Commercial Computer Software - Restricted
 Rights clause in FAR 52.227-19.
  
 Gaussian, Inc.
 340 Quinnipiac St., Bldg. 40, Wallingford CT 06492
  
  
 ---------------------------------------------------------------
 Warning -- This program may not be used in any manner that
 competes with the business of Gaussian, Inc. or will provide
 assistance to any competitor of Gaussian, Inc.  The licensee
 of this program is prohibited from giving any competitor of
 Gaussian, Inc. access to this program.  By using this program,
 the user acknowledges that Gaussian, Inc. is engaged in the
 business of creating and licensing software in the field of
 computational chemistry and represents and warrants to the
 licensee that it is not a competitor of Gaussian, Inc. and that
 it will not use this program in any manner prohibited above.
 ---------------------------------------------------------------
  

 Cite this work as:
 Gaussian 09, Revision D.01,
 M. J. Frisch, G. W. Trucks, H. B. Schlegel, G. E. Scuseria, 
 M. A. Robb, J. R. Cheeseman, G. Scalmani, V. Barone, B. Mennucci, 
 G. A. Petersson, H. Nakatsuji, M. Caricato, X. Li, H. P. Hratchian, 
 A. F. Izmaylov, J. Bloino, G. Zheng, J. L. Sonnenberg, M. Hada, 
 M. Ehara, K. Toyota, R. Fukuda, J. Hasegawa, M. Ishida, T. Nakajima, 
 Y. Honda, O. Kitao, H. Nakai, T. Vreven, J. A. Montgomery, Jr., 
 J. E. Peralta, F. Ogliaro, M. Bearpark, J. J. Heyd, E. Brothers, 
 K. N. Kudin, V. N. Staroverov, T. Keith, R. Kobayashi, J. Normand, 
 K. Raghavachari, A. Rendell, J. C. Burant, S. S. Iyengar, J. Tomasi, 
 M. Cossi, N. Rega, J. M. Millam, M. Klene, J. E. Knox, J. B. Cross, 
 V. Bakken, C. Adamo, J. Jaramillo, R. Gomperts, R. E. Stratmann, 
 O. Yazyev, A. J. Austin, R. Cammi, C. Pomelli, J. W. Ochterski, 
 R. L. Martin, K. Morokuma, V. G. Zakrzewski, G. A. Voth, 
 P. Salvador, J. J. Dannenberg, S. Dapprich, A. D. Daniels, 
 O. Farkas, J. B. Foresman, J. V. Ortiz, J. Cioslowski, 
 and D. J. Fox, Gaussian, Inc., Wallingford CT, 2013.
 
 ******************************************
 Gaussian 09:  EM64W-G09RevD.01 13-Apr-2013
                11-Sep-2023 
 ******************************************
 %nprocshared=6
 Will use up to    6 processors via shared memory.
 %mem=6GB
 %chk=D:\User Dont delete\Downloads\molecule_29.chk
 ----------------------------------------------
 # opt freq b3lyp/6-31g empiricaldispersion=gd3
 ----------------------------------------------
 1/14=-1,18=20,19=15,26=3,38=1/1,3;
 2/9=110,12=2,17=6,18=5,40=1/2;
 3/5=1,6=6,11=2,16=1,25=1,30=1,71=1,74=-5,124=31/1,2,3;
 4//1;
 5/5=2,38=5/2;
 6/7=2,8=2,9=2,10=2,28=1/1;
 7//1,2,3,16;
 1/14=-1,18=20,19=15,26=3/3(2);
 2/9=110/2;
 99//99;
 2/9=110/2;
 3/5=1,6=6,11=2,16=1,25=1,30=1,71=1,74=-5,124=31/1,2,3;
 4/5=5,16=3,69=1/1;
 5/5=2,38=5/2;
 7//1,2,3,16;
 1/14=-1,18=20,19=15,26=3/3(-5);
 2/9=110/2;
 6/7=2,8=2,9=2,10=2,19=2,28=1/1;
 99/9=1/99;
 -------------------
 Title Card Required
 -------------------
 Symbolic Z-matrix:
 Charge =  0 Multiplicity = 1
 C                    -5.30642  -0.95004   1.13808 
 C                    -3.91026  -0.97885   1.0873 
 C                    -3.24353  -0.49817  -0.05029 
 C                    -3.96927  -0.06568  -1.15526 
 C                    -5.36722  -0.03465  -1.10341 
 C                    -6.03529  -0.47585   0.04315 
 H                    -5.82877  -1.29526   2.03458 
 H                    -3.33932  -1.35081   1.9443 
 H                    -3.4475    0.28095  -2.05001 
 H                    -5.9376    0.33606  -1.95976 
 C                    -1.70232  -0.51098  -0.00174 
 C                    -0.50316  -0.51544   0.00061 
 C                     1.03814  -0.52118   0.00361 
 C                     1.73324  -0.49899   1.21632 
 C                     1.73531  -0.50038  -1.20582 
 C                     3.13124  -0.50192   1.21672 
 H                     1.18549  -0.5016    2.1622 
 C                     3.13359  -0.50384  -1.20525 
 H                     1.18944  -0.5035   -2.1542 
 C                     3.82894  -0.50274   0.00634 
 H                     3.67742  -0.50148   2.16417 
 H                     3.6812   -0.50459  -2.15173 
 O                    -7.464    -0.44384   0.0949 
 C                    -7.97293   0.10488  -1.12362 
 H                    -7.5899    1.09513  -1.25625 
 H                    -7.66817  -0.5085   -1.94569 
 H                    -9.04154   0.13858  -1.08069 
 O                     5.25894  -0.50331   0.00766 
 C                     5.73574  -1.85141   0.02168 
 H                     6.8057   -1.8514    0.01335 
 H                     5.38593  -2.34428   0.90464 
 H                     5.37234  -2.36726  -0.84246 
 

 GradGradGradGradGradGradGradGradGradGradGradGradGradGradGradGradGradGrad
 Berny optimization.
 Initialization pass.
                           ----------------------------
                           !    Initial Parameters    !
                           ! (Angstroms and Degrees)  !
 --------------------------                            --------------------------
 ! Name  Definition              Value          Derivative Info.                !
 --------------------------------------------------------------------------------
 ! R1    R(1,2)                  1.3974         estimate D2E/DX2                !
 ! R2    R(1,6)                  1.3982         estimate D2E/DX2                !
 ! R3    R(1,7)                  1.0935         estimate D2E/DX2                !
 ! R4    R(2,3)                  1.4035         estimate D2E/DX2                !
 ! R5    R(2,8)                  1.0949         estimate D2E/DX2                !
 ! R6    R(3,4)                  1.3909         estimate D2E/DX2                !
 ! R7    R(3,11)                 1.542          estimate D2E/DX2                !
 ! R8    R(4,5)                  1.3993         estimate D2E/DX2                !
 ! R9    R(4,9)                  1.0922         estimate D2E/DX2                !
 ! R10   R(5,6)                  1.3984         estimate D2E/DX2                !
 ! R11   R(5,10)                 1.0937         estimate D2E/DX2                !
 ! R12   R(6,23)                 1.43           estimate D2E/DX2                !
 ! R13   R(11,12)                1.1992         estimate D2E/DX2                !
 ! R14   R(12,13)                1.5413         estimate D2E/DX2                !
 ! R15   R(13,14)                1.398          estimate D2E/DX2                !
 ! R16   R(13,15)                1.3961         estimate D2E/DX2                !
 ! R17   R(14,16)                1.398          estimate D2E/DX2                !
 ! R18   R(14,17)                1.093          estimate D2E/DX2                !
 ! R19   R(15,18)                1.3983         estimate D2E/DX2                !
 ! R20   R(15,19)                1.0943         estimate D2E/DX2                !
 ! R21   R(16,20)                1.3971         estimate D2E/DX2                !
 ! R22   R(16,21)                1.0936         estimate D2E/DX2                !
 ! R23   R(18,20)                1.3969         estimate D2E/DX2                !
 ! R24   R(18,22)                1.0935         estimate D2E/DX2                !
 ! R25   R(20,28)                1.43           estimate D2E/DX2                !
 ! R26   R(23,24)                1.43           estimate D2E/DX2                !
 ! R27   R(24,25)                1.07           estimate D2E/DX2                !
 ! R28   R(24,26)                1.07           estimate D2E/DX2                !
 ! R29   R(24,27)                1.07           estimate D2E/DX2                !
 ! R30   R(28,29)                1.43           estimate D2E/DX2                !
 ! R31   R(29,30)                1.07           estimate D2E/DX2                !
 ! R32   R(29,31)                1.07           estimate D2E/DX2                !
 ! R33   R(29,32)                1.07           estimate D2E/DX2                !
 ! A1    A(2,1,6)              119.958          estimate D2E/DX2                !
 ! A2    A(2,1,7)              120.0372         estimate D2E/DX2                !
 ! A3    A(6,1,7)              120.0045         estimate D2E/DX2                !
 ! A4    A(1,2,3)              119.8047         estimate D2E/DX2                !
 ! A5    A(1,2,8)              119.971          estimate D2E/DX2                !
 ! A6    A(3,2,8)              120.204          estimate D2E/DX2                !
 ! A7    A(2,3,4)              120.1683         estimate D2E/DX2                !
 ! A8    A(2,3,11)             116.5157         estimate D2E/DX2                !
 ! A9    A(4,3,11)             123.304          estimate D2E/DX2                !
 ! A10   A(3,4,5)              119.9162         estimate D2E/DX2                !
 ! A11   A(3,4,9)              120.0131         estimate D2E/DX2                !
 ! A12   A(5,4,9)              120.0388         estimate D2E/DX2                !
 ! A13   A(4,5,6)              120.0444         estimate D2E/DX2                !
 ! A14   A(4,5,10)             119.9699         estimate D2E/DX2                !
 ! A15   A(6,5,10)             119.9857         estimate D2E/DX2                !
 ! A16   A(1,6,5)              120.0015         estimate D2E/DX2                !
 ! A17   A(1,6,23)             120.0048         estimate D2E/DX2                !
 ! A18   A(5,6,23)             119.9936         estimate D2E/DX2                !
 ! A19   A(12,13,14)           119.9238         estimate D2E/DX2                !
 ! A20   A(12,13,15)           119.8422         estimate D2E/DX2                !
 ! A21   A(14,13,15)           120.1945         estimate D2E/DX2                !
 ! A22   A(13,14,16)           119.8308         estimate D2E/DX2                !
 ! A23   A(13,14,17)           120.098          estimate D2E/DX2                !
 ! A24   A(16,14,17)           120.0575         estimate D2E/DX2                !
 ! A25   A(13,15,18)           119.9314         estimate D2E/DX2                !
 ! A26   A(13,15,19)           120.108          estimate D2E/DX2                !
 ! A27   A(18,15,19)           119.947          estimate D2E/DX2                !
 ! A28   A(14,16,20)           119.944          estimate D2E/DX2                !
 ! A29   A(14,16,21)           119.9792         estimate D2E/DX2                !
 ! A30   A(20,16,21)           120.0767         estimate D2E/DX2                !
 ! A31   A(15,18,20)           119.8756         estimate D2E/DX2                !
 ! A32   A(15,18,22)           120.0284         estimate D2E/DX2                !
 ! A33   A(20,18,22)           120.0958         estimate D2E/DX2                !
 ! A34   A(16,20,18)           120.1873         estimate D2E/DX2                !
 ! A35   A(16,20,28)           119.9076         estimate D2E/DX2                !
 ! A36   A(18,20,28)           119.9051         estimate D2E/DX2                !
 ! A37   A(6,23,24)            109.4712         estimate D2E/DX2                !
 ! A38   A(23,24,25)           109.4712         estimate D2E/DX2                !
 ! A39   A(23,24,26)           109.4712         estimate D2E/DX2                !
 ! A40   A(23,24,27)           109.4712         estimate D2E/DX2                !
 ! A41   A(25,24,26)           109.4713         estimate D2E/DX2                !
 ! A42   A(25,24,27)           109.4712         estimate D2E/DX2                !
 ! A43   A(26,24,27)           109.4712         estimate D2E/DX2                !
 ! A44   A(20,28,29)           109.5            estimate D2E/DX2                !
 ! A45   A(28,29,30)           109.4712         estimate D2E/DX2                !
 ! A46   A(28,29,31)           109.4712         estimate D2E/DX2                !
 ! A47   A(28,29,32)           109.4712         estimate D2E/DX2                !
 ! A48   A(30,29,31)           109.4713         estimate D2E/DX2                !
 ! A49   A(30,29,32)           109.4712         estimate D2E/DX2                !
 ! A50   A(31,29,32)           109.4712         estimate D2E/DX2                !
 ! A51   L(3,11,12,8,-1)       181.6583         estimate D2E/DX2                !
 ! A52   L(11,12,13,19,-1)     179.9996         estimate D2E/DX2                !
 ! A53   L(3,11,12,8,-2)       179.4663         estimate D2E/DX2                !
 ! A54   L(11,12,13,19,-2)     179.9998         estimate D2E/DX2                !
 ! D1    D(6,1,2,3)              1.6809         estimate D2E/DX2                !
 ! D2    D(6,1,2,8)           -179.9557         estimate D2E/DX2                !
 ! D3    D(7,1,2,3)           -178.1363         estimate D2E/DX2                !
 ! D4    D(7,1,2,8)              0.227          estimate D2E/DX2                !
 ! D5    D(2,1,6,5)              0.1967         estimate D2E/DX2                !
 ! D6    D(2,1,6,23)          -179.8961         estimate D2E/DX2                !
 ! D7    D(7,1,6,5)           -179.986          estimate D2E/DX2                !
 ! D8    D(7,1,6,23)            -0.0788         estimate D2E/DX2                !
 ! D9    D(1,2,3,4)             -3.6992         estimate D2E/DX2                !
 ! D10   D(1,2,3,11)           177.5162         estimate D2E/DX2                !
 ! D11   D(8,2,3,4)            177.9414         estimate D2E/DX2                !
 ! D12   D(8,2,3,11)            -0.8433         estimate D2E/DX2                !
 ! D13   D(2,3,4,5)              3.816          estimate D2E/DX2                !
 ! D14   D(2,3,4,9)           -178.2399         estimate D2E/DX2                !
 ! D15   D(11,3,4,5)          -177.4853         estimate D2E/DX2                !
 ! D16   D(11,3,4,9)             0.4589         estimate D2E/DX2                !
 ! D17   D(2,3,13,14)          -24.1431         estimate D2E/DX2                !
 ! D18   D(2,3,13,15)          158.2445         estimate D2E/DX2                !
 ! D19   D(4,3,13,14)          157.4038         estimate D2E/DX2                !
 ! D20   D(4,3,13,15)          -20.2086         estimate D2E/DX2                !
 ! D21   D(3,4,5,6)             -1.9249         estimate D2E/DX2                !
 ! D22   D(3,4,5,10)           178.0            estimate D2E/DX2                !
 ! D23   D(9,4,5,6)           -179.8685         estimate D2E/DX2                !
 ! D24   D(9,4,5,10)             0.0564         estimate D2E/DX2                !
 ! D25   D(4,5,6,1)             -0.0841         estimate D2E/DX2                !
 ! D26   D(4,5,6,23)          -179.9913         estimate D2E/DX2                !
 ! D27   D(10,5,6,1)           179.991          estimate D2E/DX2                !
 ! D28   D(10,5,6,23)            0.0838         estimate D2E/DX2                !
 ! D29   D(1,6,23,24)          178.732          estimate D2E/DX2                !
 ! D30   D(5,6,23,24)           -1.3607         estimate D2E/DX2                !
 ! D31   D(12,13,14,16)       -179.8905         estimate D2E/DX2                !
 ! D32   D(12,13,14,17)          1.4544         estimate D2E/DX2                !
 ! D33   D(15,13,14,16)         -2.1768         estimate D2E/DX2                !
 ! D34   D(15,13,14,17)        179.1681         estimate D2E/DX2                !
 ! D35   D(12,13,15,18)        179.9195         estimate D2E/DX2                !
 ! D36   D(12,13,15,19)         -1.4191         estimate D2E/DX2                !
 ! D37   D(14,13,15,18)          2.2039         estimate D2E/DX2                !
 ! D38   D(14,13,15,19)       -179.1347         estimate D2E/DX2                !
 ! D39   D(13,14,16,20)          1.1475         estimate D2E/DX2                !
 ! D40   D(13,14,16,21)       -178.9793         estimate D2E/DX2                !
 ! D41   D(17,14,16,20)        179.8032         estimate D2E/DX2                !
 ! D42   D(17,14,16,21)         -0.3236         estimate D2E/DX2                !
 ! D43   D(13,15,18,20)         -1.1998         estimate D2E/DX2                !
 ! D44   D(13,15,18,22)        178.9699         estimate D2E/DX2                !
 ! D45   D(19,15,18,20)       -179.8633         estimate D2E/DX2                !
 ! D46   D(19,15,18,22)          0.3064         estimate D2E/DX2                !
 ! D47   D(14,16,20,18)         -0.1518         estimate D2E/DX2                !
 ! D48   D(14,16,20,28)        179.8876         estimate D2E/DX2                !
 ! D49   D(21,16,20,18)        179.9751         estimate D2E/DX2                !
 ! D50   D(21,16,20,28)          0.0145         estimate D2E/DX2                !
 ! D51   D(15,18,20,16)          0.1766         estimate D2E/DX2                !
 ! D52   D(15,18,20,28)       -179.8628         estimate D2E/DX2                !
 ! D53   D(22,18,20,16)       -179.9932         estimate D2E/DX2                !
 ! D54   D(22,18,20,28)         -0.0326         estimate D2E/DX2                !
 ! D55   D(16,20,28,29)         89.4483         estimate D2E/DX2                !
 ! D56   D(18,20,28,29)        -90.5123         estimate D2E/DX2                !
 ! D57   D(6,23,24,25)         -59.3961         estimate D2E/DX2                !
 ! D58   D(6,23,24,26)          60.6039         estimate D2E/DX2                !
 ! D59   D(6,23,24,27)        -179.3961         estimate D2E/DX2                !
 ! D60   D(20,28,29,30)        179.4712         estimate D2E/DX2                !
 ! D61   D(20,28,29,31)        -60.5288         estimate D2E/DX2                !
 ! D62   D(20,28,29,32)         59.4712         estimate D2E/DX2                !
 --------------------------------------------------------------------------------
 Trust Radius=3.00D-01 FncErr=1.00D-07 GrdErr=1.00D-06
 Number of steps in this run=    159 maximum allowed number of steps=    192.
 GradGradGradGradGradGradGradGradGradGradGradGradGradGradGradGradGradGrad

                          Input orientation:                          
 ---------------------------------------------------------------------
 Center     Atomic      Atomic             Coordinates (Angstroms)
 Number     Number       Type             X           Y           Z
 ---------------------------------------------------------------------
      1          6           0       -5.306420   -0.950037    1.138085
      2          6           0       -3.910257   -0.978854    1.087296
      3          6           0       -3.243530   -0.498173   -0.050288
      4          6           0       -3.969271   -0.065678   -1.155262
      5          6           0       -5.367223   -0.034654   -1.103412
      6          6           0       -6.035290   -0.475849    0.043153
      7          1           0       -5.828773   -1.295255    2.034578
      8          1           0       -3.339319   -1.350808    1.944296
      9          1           0       -3.447499    0.280946   -2.050008
     10          1           0       -5.937596    0.336059   -1.959755
     11          6           0       -1.702325   -0.510980   -0.001736
     12          6           0       -0.503164   -0.515444    0.000607
     13          6           0        1.038137   -0.521178    0.003607
     14          6           0        1.733241   -0.498994    1.216317
     15          6           0        1.735313   -0.500380   -1.205823
     16          6           0        3.131236   -0.501924    1.216721
     17          1           0        1.185494   -0.501600    2.162198
     18          6           0        3.133594   -0.503838   -1.205245
     19          1           0        1.189441   -0.503497   -2.154202
     20          6           0        3.828940   -0.502741    0.006338
     21          1           0        3.677424   -0.501477    2.164168
     22          1           0        3.681197   -0.504590   -2.151735
     23          8           0       -7.463995   -0.443839    0.094897
     24          6           0       -7.972932    0.104878   -1.123624
     25          1           0       -7.589896    1.095127   -1.256250
     26          1           0       -7.668174   -0.508498   -1.945690
     27          1           0       -9.041539    0.138582   -1.080691
     28          8           0        5.258939   -0.503308    0.007659
     29          6           0        5.735736   -1.851406    0.021681
     30          1           0        6.805703   -1.851400    0.013353
     31          1           0        5.385932   -2.344276    0.904640
     32          1           0        5.372335   -2.367258   -0.842459
 ---------------------------------------------------------------------
                    Distance matrix (angstroms):
                    1          2          3          4          5
     1  C    0.000000
     2  C    1.397384   0.000000
     3  C    2.423205   1.403451   0.000000
     4  C    2.798124   2.422073   1.390941   0.000000
     5  C    2.421968   2.795257   2.415365   1.399257   0.000000
     6  C    1.398207   2.420541   2.793413   2.423402   1.398420
     7  H    1.093494   2.162905   3.415478   3.891618   3.413082
     8  H    2.163349   1.094883   2.171296   3.414038   3.890139
     9  H    3.890352   3.412318   2.155808   1.092229   2.163558
    10  H    3.413069   3.888910   3.405877   2.164002   1.093653
    11  C    3.805452   2.505965   1.542023   2.582240   3.856430
    12  C    4.955199   3.606095   2.740893   3.681334   5.010897
    13  C    6.459440   5.086300   4.282068   5.159902   6.518499
    14  C    7.054530   5.665332   5.135421   6.191187   7.484206
    15  C    7.435193   6.112265   5.111179   5.721346   7.118525
    16  C    8.449913   7.058812   6.499459   7.498920   8.821857
    17  H    6.587476   5.229709   4.950895   6.145499   7.336235
    18  C    8.770639   7.422750   6.480869   7.116542   8.514363
    19  H    7.296215   6.061368   4.906905   5.272748   6.656861
    20  C    9.216058   7.828813   7.072698   7.896355   9.274699
    21  H    9.053370   7.678571   7.266598   8.347484   9.628117
    22  H    9.581158   8.267189   7.236571   7.727564   9.121058
    23  O    2.449410   3.728291   4.223311   3.730818   2.449456
    24  C    3.652185   4.750576   4.887020   4.007418   2.609521
    25  H    3.889704   4.830461   4.783706   3.803498   2.498008
    26  H    3.909284   4.852028   4.813536   3.808248   2.495664
    27  H    4.478747   5.681452   5.923183   5.076927   3.678469
    28  O   10.635047   9.244777   8.502668   9.311485  10.694364
    29  C   11.134991   9.743821   9.080949   9.937865  11.306728
    30  H   12.197582  10.804929  10.140137  10.984286  12.358311
    31  H   10.785397   9.397706   8.876239   9.846574  11.180204
    32  H   10.952939   9.582178   8.851788   9.626044  10.993054
                    6          7          8          9         10
     6  C    0.000000
     7  H    2.163297   0.000000
     8  H    3.412940   2.491710   0.000000
     9  H    3.413316   4.983846   4.316107   0.000000
    10  H    2.163419   4.315986   4.983792   2.492341   0.000000
    11  C    4.333341   4.667894   2.678077   2.805031   4.742240
    12  C    5.532432   5.753890   3.538295   3.675373   5.839617
    13  C    7.073683   7.202672   4.859699   4.998166   7.297294
    14  C    7.856649   7.647721   5.194844   6.173917   8.344249
    15  C    7.870376   8.267250   6.033106   5.308923   7.755100
    16  C    9.241382   9.032166   6.566433   7.386755   9.645513
    17  H    7.525340   7.060178   4.608966   6.310283   8.272277
    18  C    9.253525   9.562783   7.248142   6.681339   9.141181
    19  H    7.551548   8.211460   6.166464   4.703979   7.178949
    20  C    9.864335   9.900164   7.473876   7.601926   9.997716
    21  H    9.941639   9.540161   7.071378   8.314806  10.495562
    22  H    9.961349  10.420647   8.171976   7.172567   9.657366
    23  O    1.430000   2.676047   4.610404   4.610659   2.675768
    24  C    2.335180   4.065960   5.744695   4.622633   2.212500
    25  H    2.563828   4.432272   5.856065   4.295625   1.949667
    26  H    2.573494   4.454764   5.880515   4.295137   1.925715
    27  H    3.267734   4.699219   6.624511   5.679184   3.232061
    28  O   11.294319  11.299245   8.854313   8.980596  11.399019
    29  C   11.851147  11.751550   9.289976   9.652493  12.040671
    30  H   12.914494  12.807210  10.339275  10.673918  13.079366
    31  H   11.605064  11.320195   8.842956   9.677357  11.983791
    32  H   11.597227  11.614274   9.202831   9.287660  11.682072
                   11         12         13         14         15
    11  C    0.000000
    12  C    1.199171   0.000000
    13  C    2.740486   1.541315   0.000000
    14  C    3.645121   2.545531   1.397972   0.000000
    15  C    3.642429   2.542927   1.396141   2.422141   0.000000
    16  C    4.984779   3.832490   2.419314   1.397998   2.795948
    17  H    3.608627   2.743033   2.163703   1.093035   3.412604
    18  C    4.983432   3.831478   2.419207   2.797315   1.398285
    19  H    3.604924   2.740120   2.163180   3.414109   1.094262
    20  C    5.531276   4.332126   2.790865   2.419920   2.419217
    21  H    5.799390   4.707283   3.410902   2.162932   3.889555
    22  H    5.796968   4.705483   3.410504   3.890801   2.163615
    23  O    5.762872   6.961838   8.502974   9.265516   9.290982
    24  C    6.399878   7.579323   9.102855  10.002489   9.727442
    25  H    6.230320   7.375324   8.868069   9.776283   9.460852
    26  H    6.274578   7.424654   8.921871   9.918921   9.432552
    27  H    7.446486   8.631385  10.159275  11.035336  10.796503
    28  O    6.961274   5.762120   4.220842   3.727119   3.726726
    29  C    7.557912   6.380369   4.882342   4.390460   4.397206
    30  H    8.612984   7.429972   5.918987   5.385721   5.387068
    31  H    7.377390   6.232444   4.799882   4.104188   4.602285
    32  H    7.362296   6.217835   4.786347   4.579517   4.104290
                   16         17         18         19         20
    16  C    0.000000
    17  H    2.163294   0.000000
    18  C    2.421968   3.890343   0.000000
    19  H    3.890205   4.316402   2.163389   0.000000
    20  C    1.397075   3.411091   1.396940   3.410995   0.000000
    21  H    1.093608   2.491931   3.413020   4.983813   2.163144
    22  H    3.413057   4.983830   1.093486   2.491757   2.163125
    23  O   10.654614   8.893297  10.677212   8.941139  11.293436
    24  C   11.364329   9.748908  11.123494   9.240200  11.871402
    25  H   11.117951   9.552109  10.842164   8.968761  11.599014
    26  H   11.252917   9.760237  10.827117   8.860070  11.661650
    27  H   12.404225  10.747947  12.192706  10.307165  12.932214
    28  O    2.447234   4.608145   2.447086   4.608086   1.430000
    29  C    3.167435   5.206582   3.176858   5.217291   2.335595
    30  H    4.095228   6.166543   4.096986   6.169080   3.268035
    31  H    2.928363   4.756111   3.593307   5.509585   2.573407
    32  H    3.569625   5.480719   2.935287   4.763495   2.564946
                   21         22         23         24         25
    21  H    0.000000
    22  H    4.315906   0.000000
    23  O   11.332098  11.369536   0.000000
    24  C   12.120563  11.715254   1.430000   0.000000
    25  H   11.882799  11.419217   2.051796   1.070000   0.000000
    26  H   12.067046  11.351242   2.051796   1.070000   1.747303
    27  H   13.141949  12.783928   2.051796   1.070000   1.747303
    28  O    2.674271   2.674370  12.723372  13.294063  13.009421
    29  C    3.263312   3.280058  13.274770  13.894832  13.707211
    30  H    4.029197   4.032871  14.339183  14.950847  14.748804
    31  H    2.810929   3.953732  13.014914  13.732133  13.596730
    32  H    3.923477   2.836140  13.013438  13.575223  13.423069
                   26         27         28         29         30
    26  H    0.000000
    27  H    1.747303   0.000000
    28  O   13.073861  14.356191   0.000000
    29  C   13.613918  14.951359   1.430000   0.000000
    30  H   14.667459  16.009124   2.051796   1.070000   0.000000
    31  H   13.487185  14.773560   2.051796   1.070000   1.747303
    32  H   13.218434  14.632012   2.051796   1.070000   1.747303
                   31         32
    31  H    0.000000
    32  H    1.747303   0.000000
 Stoichiometry    C16H14O2
 Framework group  C1[X(C16H14O2)]
 Deg. of freedom    90
 Full point group                 C1      NOp   1
 Largest Abelian subgroup         C1      NOp   1
 Largest concise Abelian subgroup C1      NOp   1
                         Standard orientation:                         
 ---------------------------------------------------------------------
 Center     Atomic      Atomic             Coordinates (Angstroms)
 Number     Number       Type             X           Y           Z
 ---------------------------------------------------------------------
      1          6           0       -4.135891    1.450417    0.281407
      2          6           0       -2.742337    1.349357    0.259597
      3          6           0       -2.136728    0.104359    0.029614
      4          6           0       -2.917475   -1.039509   -0.099682
      5          6           0       -4.312899   -0.937857   -0.080184
      6          6           0       -4.921656    0.306751    0.109407
      7          1           0       -4.611856    2.423628    0.429890
      8          1           0       -2.126826    2.244670    0.394986
      9          1           0       -2.442111   -2.011324   -0.249913
     10          1           0       -4.927760   -1.832267   -0.214547
     11          6           0       -0.596228    0.090047   -0.037410
     12          6           0        0.601017    0.043200   -0.086607
     13          6           0        2.139856   -0.017025   -0.149841
     14          6           0        2.869321    1.127180   -0.486001
     15          6           0        2.797926   -1.226267    0.082292
     16          6           0        4.264892    1.069776   -0.545018
     17          1           0        2.351443    2.069845   -0.680705
     18          6           0        4.193816   -1.283392    0.023734
     19          1           0        2.224436   -2.124285    0.331459
     20          6           0        4.924599   -0.135393   -0.291693
     21          1           0        4.838810    1.967494   -0.791388
     22          1           0        4.711708   -2.225863    0.221848
     23          8           0       -6.347831    0.409358    0.129330
     24          6           0       -6.921752   -0.880919   -0.095837
     25          1           0       -6.595665   -1.255884   -1.043449
     26          1           0       -6.610174   -1.549992    0.678863
     27          1           0       -7.988853   -0.802331   -0.091406
     28          8           0        6.352019   -0.193795   -0.354635
     29          6           0        6.899440    0.113092    0.930298
     30          1           0        7.967172    0.060242    0.884967
     31          1           0        6.603079    1.100237    1.217726
     32          1           0        6.537677   -0.591575    1.649653
 ---------------------------------------------------------------------
 Rotational constants (GHZ):      2.2464950      0.1047118      0.1012886
 Standard basis: 6-31G (6D, 7F)
 There are   190 symmetry adapted cartesian basis functions of A   symmetry.
 There are   190 symmetry adapted basis functions of A   symmetry.
   190 basis functions,   452 primitive gaussians,   190 cartesian basis functions
    63 alpha electrons       63 beta electrons
       nuclear repulsion energy      1073.8896419387 Hartrees.
 NAtoms=   32 NActive=   32 NUniq=   32 SFac= 1.00D+00 NAtFMM=   60 NAOKFM=F Big=F
 Integral buffers will be    131072 words long.
 Raffenetti 2 integral format.
 Two-electron integral symmetry is turned on.
 Nuclear repulsion after empirical dispersion term =     1073.8671025257 Hartrees.
 One-electron integrals computed using PRISM.
 NBasis=   190 RedAO= T EigKep=  1.92D-04  NBF=   190
 NBsUse=   190 1.00D-06 EigRej= -1.00D+00 NBFU=   190
 ExpMin= 1.61D-01 ExpMax= 5.48D+03 ExpMxC= 8.25D+02 IAcc=1 IRadAn=         1 AccDes= 0.00D+00
 Harris functional with IExCor=  402 and IRadAn=       1 diagonalized for initial guess.
 HarFok:  IExCor=  402 AccDes= 0.00D+00 IRadAn=         1 IDoV= 1 UseB2=F ITyADJ=14
 ICtDFT=  3500011 ScaDFX=  1.000000  1.000000  1.000000  1.000000
 FoFCou: FMM=F IPFlag=           0 FMFlag=      100000 FMFlg1=           0
         NFxFlg=           0 DoJE=T BraDBF=F KetDBF=T FulRan=T
         wScrn=  0.000000 ICntrl=     500 IOpCl=  0 I1Cent=   200000004 NGrid=           0
         NMat0=    1 NMatS0=      1 NMatT0=    0 NMatD0=    1 NMtDS0=    0 NMtDT0=    0
 Petite list used in FoFCou.
 Keep R1 ints in memory in canonical form, NReq=168242891.
 Requested convergence on RMS density matrix=1.00D-08 within 128 cycles.
 Requested convergence on MAX density matrix=1.00D-06.
 Requested convergence on             energy=1.00D-06.
 No special actions if energy rises.
 Integral accuracy reduced to 1.0D-05 until final iterations.
 Initial convergence to 1.0D-05 achieved.  Increase integral accuracy.
 SCF Done:  E(RB3LYP) =  -768.294878997     A.U. after   15 cycles
            NFock= 15  Conv=0.57D-08     -V/T= 2.0057

 **********************************************************************

            Population analysis using the SCF density.

 **********************************************************************

 Orbital symmetries:
       Occupied  (A) (A) (A) (A) (A) (A) (A) (A) (A) (A) (A) (A)
                 (A) (A) (A) (A) (A) (A) (A) (A) (A) (A) (A) (A)
                 (A) (A) (A) (A) (A) (A) (A) (A) (A) (A) (A) (A)
                 (A) (A) (A) (A) (A) (A) (A) (A) (A) (A) (A) (A)
                 (A) (A) (A) (A) (A) (A) (A) (A) (A) (A) (A) (A)
                 (A) (A) (A)
       Virtual   (A) (A) (A) (A) (A) (A) (A) (A) (A) (A) (A) (A)
                 (A) (A) (A) (A) (A) (A) (A) (A) (A) (A) (A) (A)
                 (A) (A) (A) (A) (A) (A) (A) (A) (A) (A) (A) (A)
                 (A) (A) (A) (A) (A) (A) (A) (A) (A) (A) (A) (A)
                 (A) (A) (A) (A) (A) (A) (A) (A) (A) (A) (A) (A)
                 (A) (A) (A) (A) (A) (A) (A) (A) (A) (A) (A) (A)
                 (A) (A) (A) (A) (A) (A) (A) (A) (A) (A) (A) (A)
                 (A) (A) (A) (A) (A) (A) (A) (A) (A) (A) (A) (A)
                 (A) (A) (A) (A) (A) (A) (A) (A) (A) (A) (A) (A)
                 (A) (A) (A) (A) (A) (A) (A) (A) (A) (A) (A) (A)
                 (A) (A) (A) (A) (A) (A) (A)
 The electronic state is 1-A.
 Alpha  occ. eigenvalues --  -19.17877 -19.15740 -10.25432 -10.24724 -10.22960
 Alpha  occ. eigenvalues --  -10.22550 -10.22270 -10.22221 -10.20114 -10.19998
 Alpha  occ. eigenvalues --  -10.19993 -10.19952 -10.19651 -10.19646 -10.19561
 Alpha  occ. eigenvalues --  -10.19515 -10.18981 -10.18728  -1.06257  -1.04739
 Alpha  occ. eigenvalues --   -0.86987  -0.86870  -0.78364  -0.76687  -0.76149
 Alpha  occ. eigenvalues --   -0.76005  -0.73322  -0.70873  -0.69349  -0.62541
 Alpha  occ. eigenvalues --   -0.62337  -0.60985  -0.59845  -0.55060  -0.53730
 Alpha  occ. eigenvalues --   -0.50592  -0.49056  -0.48777  -0.48576  -0.47747
 Alpha  occ. eigenvalues --   -0.46110  -0.45842  -0.45084  -0.44466  -0.43823
 Alpha  occ. eigenvalues --   -0.43197  -0.41802  -0.39861  -0.38898  -0.38374
 Alpha  occ. eigenvalues --   -0.37736  -0.37241  -0.36468  -0.34046  -0.33172
 Alpha  occ. eigenvalues --   -0.33089  -0.29453  -0.27686  -0.26940  -0.26167
 Alpha  occ. eigenvalues --   -0.26088  -0.24851  -0.21511
 Alpha virt. eigenvalues --   -0.03059  -0.00949  -0.00912   0.00785   0.06645
 Alpha virt. eigenvalues --    0.07820   0.08524   0.10151   0.10979   0.11338
 Alpha virt. eigenvalues --    0.11915   0.13396   0.13691   0.14277   0.15388
 Alpha virt. eigenvalues --    0.15476   0.16205   0.16690   0.16828   0.17086
 Alpha virt. eigenvalues --    0.17382   0.19452   0.19716   0.20219   0.20998
 Alpha virt. eigenvalues --    0.22076   0.23039   0.24509   0.30434   0.31887
 Alpha virt. eigenvalues --    0.32420   0.32713   0.32878   0.33647   0.34680
 Alpha virt. eigenvalues --    0.37046   0.47882   0.49832   0.50466   0.51226
 Alpha virt. eigenvalues --    0.52340   0.53043   0.53396   0.53895   0.54132
 Alpha virt. eigenvalues --    0.55053   0.55315   0.56127   0.56691   0.57255
 Alpha virt. eigenvalues --    0.57857   0.59112   0.59572   0.59726   0.60294
 Alpha virt. eigenvalues --    0.60706   0.60857   0.61028   0.61631   0.63287
 Alpha virt. eigenvalues --    0.64500   0.64765   0.66164   0.66835   0.67081
 Alpha virt. eigenvalues --    0.68498   0.68954   0.70666   0.71945   0.75232
 Alpha virt. eigenvalues --    0.75483   0.76090   0.77506   0.78336   0.79373
 Alpha virt. eigenvalues --    0.79735   0.83722   0.84614   0.85062   0.86332
 Alpha virt. eigenvalues --    0.87263   0.87562   0.88836   0.88941   0.89242
 Alpha virt. eigenvalues --    0.89795   0.92412   0.92652   0.93294   0.94870
 Alpha virt. eigenvalues --    0.95763   0.96666   0.98449   0.99552   1.01854
 Alpha virt. eigenvalues --    1.02531   1.05819   1.06228   1.06607   1.07872
 Alpha virt. eigenvalues --    1.11766   1.12757   1.14894   1.16654   1.18237
 Alpha virt. eigenvalues --    1.18495   1.18606   1.20126   1.22260   1.23429
 Alpha virt. eigenvalues --    1.26907   1.27347   1.28296   1.30643   1.33371
 Alpha virt. eigenvalues --    1.42013   1.42927   1.46358   1.47234   1.54000
 Alpha virt. eigenvalues --    1.54293   1.55255   1.75793   1.83635   1.87141
 Alpha virt. eigenvalues --    2.04779   2.12094
          Condensed to atoms (all electrons):
               1          2          3          4          5          6
     1  C    5.005011   0.498441  -0.047495  -0.034442  -0.085565   0.518128
     2  C    0.498441   4.951818   0.507744  -0.071393  -0.045984  -0.042159
     3  C   -0.047495   0.507744   4.804913   0.527852  -0.025435  -0.023616
     4  C   -0.034442  -0.071393   0.527852   4.967734   0.412025  -0.023869
     5  C   -0.085565  -0.045984  -0.025435   0.412025   5.257695   0.385426
     6  C    0.518128  -0.042159  -0.023616  -0.023869   0.385426   4.808863
     7  H    0.342715  -0.033353   0.003963   0.000151   0.006808  -0.029539
     8  H   -0.029201   0.350540  -0.032134   0.004577   0.000426   0.003985
     9  H    0.000556   0.004316  -0.029540   0.350413  -0.030276   0.003052
    10  H    0.002096   0.000953   0.003266  -0.021301   0.360460  -0.063092
    11  C    0.007547  -0.018836   0.261052  -0.027015   0.010114   0.001474
    12  C    0.000397   0.002103  -0.114214  -0.002537   0.000587   0.000054
    13  C    0.000002   0.000024   0.000519  -0.000024   0.000002   0.000000
    14  C    0.000000  -0.000002  -0.000007   0.000001   0.000000   0.000000
    15  C    0.000000   0.000001  -0.000002  -0.000002   0.000000   0.000000
    16  C    0.000000   0.000000   0.000002   0.000000   0.000000   0.000000
    17  H    0.000000   0.000003  -0.000042   0.000000   0.000000   0.000000
    18  C    0.000000   0.000000   0.000001   0.000000   0.000000   0.000000
    19  H    0.000000   0.000000  -0.000055   0.000003   0.000000   0.000000
    20  C    0.000000   0.000000   0.000000   0.000000   0.000000   0.000000
    21  H    0.000000   0.000000   0.000000   0.000000   0.000000   0.000000
    22  H    0.000000   0.000000   0.000000   0.000000   0.000000   0.000000
    23  O   -0.048239   0.003220  -0.000357   0.005204  -0.078370   0.243687
    24  C    0.004827  -0.000127  -0.000040   0.001235  -0.009038  -0.051988
    25  H   -0.000228  -0.000031   0.000011  -0.000102   0.005178  -0.011875
    26  H   -0.000343  -0.000009  -0.000004   0.000061   0.004808  -0.012396
    27  H   -0.000037   0.000005  -0.000001  -0.000021   0.000711   0.005437
    28  O    0.000000   0.000000   0.000000   0.000000   0.000000   0.000000
    29  C    0.000000   0.000000   0.000000   0.000000   0.000000   0.000000
    30  H    0.000000   0.000000   0.000000   0.000000   0.000000   0.000000
    31  H    0.000000   0.000000   0.000000   0.000000   0.000000   0.000000
    32  H    0.000000   0.000000   0.000000   0.000000   0.000000   0.000000
               7          8          9         10         11         12
     1  C    0.342715  -0.029201   0.000556   0.002096   0.007547   0.000397
     2  C   -0.033353   0.350540   0.004316   0.000953  -0.018836   0.002103
     3  C    0.003963  -0.032134  -0.029540   0.003266   0.261052  -0.114214
     4  C    0.000151   0.004577   0.350413  -0.021301  -0.027015  -0.002537
     5  C    0.006808   0.000426  -0.030276   0.360460   0.010114   0.000587
     6  C   -0.029539   0.003985   0.003052  -0.063092   0.001474   0.000054
     7  H    0.568915  -0.004330   0.000011  -0.000139  -0.000262  -0.000009
     8  H   -0.004330   0.562331  -0.000166   0.000012  -0.004615  -0.002157
     9  H    0.000011  -0.000166   0.565524  -0.003854  -0.005521  -0.001825
    10  H   -0.000139   0.000012  -0.003854   0.583810  -0.000265  -0.000008
    11  C   -0.000262  -0.004615  -0.005521  -0.000265   5.638265   0.528330
    12  C   -0.000009  -0.002157  -0.001825  -0.000008   0.528330   5.644864
    13  C    0.000000  -0.000058  -0.000040   0.000000  -0.110895   0.260412
    14  C    0.000000   0.000003   0.000000   0.000000  -0.000789  -0.023067
    15  C    0.000000   0.000000   0.000003   0.000000  -0.000023  -0.021302
    16  C    0.000000   0.000000   0.000000   0.000000   0.000486   0.008179
    17  H    0.000000   0.000005   0.000000   0.000000  -0.001868  -0.005146
    18  C    0.000000   0.000000   0.000000   0.000000   0.000411   0.007946
    19  H    0.000000   0.000000   0.000002   0.000000  -0.002076  -0.005013
    20  C    0.000000   0.000000   0.000000   0.000000   0.000060   0.001632
    21  H    0.000000   0.000000   0.000000   0.000000  -0.000009  -0.000273
    22  H    0.000000   0.000000   0.000000   0.000000  -0.000009  -0.000271
    23  O   -0.000634  -0.000041  -0.000037  -0.010914  -0.000003   0.000000
    24  C    0.000005   0.000002   0.000023   0.004629   0.000000   0.000000
    25  H    0.000029   0.000000  -0.000009   0.002045   0.000001   0.000000
    26  H    0.000027   0.000000   0.000001   0.002367   0.000000   0.000000
    27  H   -0.000017   0.000000   0.000000   0.000082   0.000000   0.000000
    28  O    0.000000   0.000000   0.000000   0.000000   0.000000  -0.000004
    29  C    0.000000   0.000000   0.000000   0.000000   0.000000   0.000000
    30  H    0.000000   0.000000   0.000000   0.000000   0.000000   0.000000
    31  H    0.000000   0.000000   0.000000   0.000000   0.000000   0.000000
    32  H    0.000000   0.000000   0.000000   0.000000   0.000000   0.000000
              13         14         15         16         17         18
     1  C    0.000002   0.000000   0.000000   0.000000   0.000000   0.000000
     2  C    0.000024  -0.000002   0.000001   0.000000   0.000003   0.000000
     3  C    0.000519  -0.000007  -0.000002   0.000002  -0.000042   0.000001
     4  C   -0.000024   0.000001  -0.000002   0.000000   0.000000   0.000000
     5  C    0.000002   0.000000   0.000000   0.000000   0.000000   0.000000
     6  C    0.000000   0.000000   0.000000   0.000000   0.000000   0.000000
     7  H    0.000000   0.000000   0.000000   0.000000   0.000000   0.000000
     8  H   -0.000058   0.000003   0.000000   0.000000   0.000005   0.000000
     9  H   -0.000040   0.000000   0.000003   0.000000   0.000000   0.000000
    10  H    0.000000   0.000000   0.000000   0.000000   0.000000   0.000000
    11  C   -0.110895  -0.000789  -0.000023   0.000486  -0.001868   0.000411
    12  C    0.260412  -0.023067  -0.021302   0.008179  -0.005146   0.007946
    13  C    4.791091   0.519315   0.519571  -0.038671  -0.030581  -0.039157
    14  C    0.519315   4.981023  -0.073401   0.431156   0.348981  -0.033779
    15  C    0.519571  -0.073401   4.981274  -0.033786   0.004438   0.431919
    16  C   -0.038671   0.431156  -0.033786   5.133638  -0.027535  -0.098433
    17  H   -0.030581   0.348981   0.004438  -0.027535   0.562673   0.000454
    18  C   -0.039157  -0.033779   0.431919  -0.098433   0.000454   5.130782
    19  H   -0.030361   0.004459   0.348486   0.000447  -0.000166  -0.027505
    20  C   -0.021536  -0.027739  -0.027965   0.465381   0.002973   0.467525
    21  H    0.003636  -0.030861   0.000377   0.349117  -0.003995   0.005684
    22  H    0.003652   0.000375  -0.030962   0.005709   0.000012   0.349059
    23  O    0.000000   0.000000   0.000000   0.000000   0.000000   0.000000
    24  C    0.000000   0.000000   0.000000   0.000000   0.000000   0.000000
    25  H    0.000000   0.000000   0.000000   0.000000   0.000000   0.000000
    26  H    0.000000   0.000000   0.000000   0.000000   0.000000   0.000000
    27  H    0.000000   0.000000   0.000000   0.000000   0.000000   0.000000
    28  O   -0.000368   0.004900   0.004894  -0.071674  -0.000045  -0.071478
    29  C    0.000010   0.000116   0.000103  -0.007588  -0.000002  -0.007755
    30  H   -0.000001   0.000008   0.000007  -0.000091   0.000000  -0.000079
    31  H    0.000011  -0.000836   0.000090   0.010528   0.000008  -0.001305
    32  H    0.000010   0.000089  -0.000836  -0.001331   0.000000   0.010536
              19         20         21         22         23         24
     1  C    0.000000   0.000000   0.000000   0.000000  -0.048239   0.004827
     2  C    0.000000   0.000000   0.000000   0.000000   0.003220  -0.000127
     3  C   -0.000055   0.000000   0.000000   0.000000  -0.000357  -0.000040
     4  C    0.000003   0.000000   0.000000   0.000000   0.005204   0.001235
     5  C    0.000000   0.000000   0.000000   0.000000  -0.078370  -0.009038
     6  C    0.000000   0.000000   0.000000   0.000000   0.243687  -0.051988
     7  H    0.000000   0.000000   0.000000   0.000000  -0.000634   0.000005
     8  H    0.000000   0.000000   0.000000   0.000000  -0.000041   0.000002
     9  H    0.000002   0.000000   0.000000   0.000000  -0.000037   0.000023
    10  H    0.000000   0.000000   0.000000   0.000000  -0.010914   0.004629
    11  C   -0.002076   0.000060  -0.000009  -0.000009  -0.000003   0.000000
    12  C   -0.005013   0.001632  -0.000273  -0.000271   0.000000   0.000000
    13  C   -0.030361  -0.021536   0.003636   0.003652   0.000000   0.000000
    14  C    0.004459  -0.027739  -0.030861   0.000375   0.000000   0.000000
    15  C    0.348486  -0.027965   0.000377  -0.030962   0.000000   0.000000
    16  C    0.000447   0.465381   0.349117   0.005709   0.000000   0.000000
    17  H   -0.000166   0.002973  -0.003995   0.000012   0.000000   0.000000
    18  C   -0.027505   0.467525   0.005684   0.349059   0.000000   0.000000
    19  H    0.563574   0.002981   0.000012  -0.004008   0.000000   0.000000
    20  C    0.002981   4.777960  -0.035580  -0.035397   0.000000   0.000000
    21  H    0.000012  -0.035580   0.572007  -0.000138   0.000000   0.000000
    22  H   -0.004008  -0.035397  -0.000138   0.572042   0.000000   0.000000
    23  O    0.000000   0.000000   0.000000   0.000000   8.342259   0.202599
    24  C    0.000000   0.000000   0.000000   0.000000   0.202599   4.929057
    25  H    0.000000   0.000000   0.000000   0.000000  -0.043245   0.365869
    26  H    0.000000   0.000000   0.000000   0.000000  -0.043193   0.365821
    27  H    0.000000   0.000000   0.000000   0.000000  -0.031466   0.374702
    28  O   -0.000045   0.248483  -0.002604  -0.002519   0.000000   0.000000
    29  C   -0.000002  -0.054583  -0.000052  -0.000019   0.000000   0.000000
    30  H    0.000000   0.005456  -0.000101  -0.000101   0.000000   0.000000
    31  H    0.000000  -0.005036   0.001045   0.000172   0.000000   0.000000
    32  H    0.000008  -0.004731   0.000187   0.000991   0.000000   0.000000
              25         26         27         28         29         30
     1  C   -0.000228  -0.000343  -0.000037   0.000000   0.000000   0.000000
     2  C   -0.000031  -0.000009   0.000005   0.000000   0.000000   0.000000
     3  C    0.000011  -0.000004  -0.000001   0.000000   0.000000   0.000000
     4  C   -0.000102   0.000061  -0.000021   0.000000   0.000000   0.000000
     5  C    0.005178   0.004808   0.000711   0.000000   0.000000   0.000000
     6  C   -0.011875  -0.012396   0.005437   0.000000   0.000000   0.000000
     7  H    0.000029   0.000027  -0.000017   0.000000   0.000000   0.000000
     8  H    0.000000   0.000000   0.000000   0.000000   0.000000   0.000000
     9  H   -0.000009   0.000001   0.000000   0.000000   0.000000   0.000000
    10  H    0.002045   0.002367   0.000082   0.000000   0.000000   0.000000
    11  C    0.000001   0.000000   0.000000   0.000000   0.000000   0.000000
    12  C    0.000000   0.000000   0.000000  -0.000004   0.000000   0.000000
    13  C    0.000000   0.000000   0.000000  -0.000368   0.000010  -0.000001
    14  C    0.000000   0.000000   0.000000   0.004900   0.000116   0.000008
    15  C    0.000000   0.000000   0.000000   0.004894   0.000103   0.000007
    16  C    0.000000   0.000000   0.000000  -0.071674  -0.007588  -0.000091
    17  H    0.000000   0.000000   0.000000  -0.000045  -0.000002   0.000000
    18  C    0.000000   0.000000   0.000000  -0.071478  -0.007755  -0.000079
    19  H    0.000000   0.000000   0.000000  -0.000045  -0.000002   0.000000
    20  C    0.000000   0.000000   0.000000   0.248483  -0.054583   0.005456
    21  H    0.000000   0.000000   0.000000  -0.002604  -0.000052  -0.000101
    22  H    0.000000   0.000000   0.000000  -0.002519  -0.000019  -0.000101
    23  O   -0.043245  -0.043193  -0.031466   0.000000   0.000000   0.000000
    24  C    0.365869   0.365821   0.374702   0.000000   0.000000   0.000000
    25  H    0.618491  -0.059512  -0.032812   0.000000   0.000000   0.000000
    26  H   -0.059512   0.619782  -0.033122   0.000000   0.000000   0.000000
    27  H   -0.032812  -0.033122   0.553396   0.000000   0.000000   0.000000
    28  O    0.000000   0.000000   0.000000   8.340463   0.220933  -0.030593
    29  C    0.000000   0.000000   0.000000   0.220933   4.925194   0.376743
    30  H    0.000000   0.000000   0.000000  -0.030593   0.376743   0.559773
    31  H    0.000000   0.000000   0.000000  -0.050910   0.360802  -0.035777
    32  H    0.000000   0.000000   0.000000  -0.050822   0.360317  -0.035580
              31         32
     1  C    0.000000   0.000000
     2  C    0.000000   0.000000
     3  C    0.000000   0.000000
     4  C    0.000000   0.000000
     5  C    0.000000   0.000000
     6  C    0.000000   0.000000
     7  H    0.000000   0.000000
     8  H    0.000000   0.000000
     9  H    0.000000   0.000000
    10  H    0.000000   0.000000
    11  C    0.000000   0.000000
    12  C    0.000000   0.000000
    13  C    0.000011   0.000010
    14  C   -0.000836   0.000089
    15  C    0.000090  -0.000836
    16  C    0.010528  -0.001331
    17  H    0.000008   0.000000
    18  C   -0.001305   0.010536
    19  H    0.000000   0.000008
    20  C   -0.005036  -0.004731
    21  H    0.001045   0.000187
    22  H    0.000172   0.000991
    23  O    0.000000   0.000000
    24  C    0.000000   0.000000
    25  H    0.000000   0.000000
    26  H    0.000000   0.000000
    27  H    0.000000   0.000000
    28  O   -0.050910  -0.050822
    29  C    0.360802   0.360317
    30  H   -0.035777  -0.035580
    31  H    0.631868  -0.051264
    32  H   -0.051264   0.631892
 Mulliken charges:
               1
     1  C   -0.134170
     2  C   -0.107273
     3  C    0.163619
     4  C   -0.088551
     5  C   -0.169574
     6  C    0.288428
     7  H    0.145657
     8  H    0.150820
     9  H    0.147366
    10  H    0.139853
    11  C   -0.275552
    12  C   -0.278678
    13  C    0.173437
    14  C   -0.099946
    15  C   -0.102886
    16  C   -0.125533
    17  H    0.149833
    18  C   -0.124827
    19  H    0.149258
    20  C    0.240117
    21  H    0.141548
    22  H    0.141413
    23  O   -0.540470
    24  C   -0.187576
    25  H    0.156190
    26  H    0.155711
    27  H    0.163142
    28  O   -0.538611
    29  C   -0.174218
    30  H    0.160337
    31  H    0.140603
    32  H    0.140533
 Sum of Mulliken charges =   0.00000
 Mulliken charges with hydrogens summed into heavy atoms:
               1
     1  C    0.011487
     2  C    0.043547
     3  C    0.163619
     4  C    0.058815
     5  C   -0.029720
     6  C    0.288428
    11  C   -0.275552
    12  C   -0.278678
    13  C    0.173437
    14  C    0.049888
    15  C    0.046372
    16  C    0.016014
    18  C    0.016586
    20  C    0.240117
    23  O   -0.540470
    24  C    0.287467
    28  O   -0.538611
    29  C    0.267255
 Electronic spatial extent (au):  <R**2>=          10005.4266
 Charge=              0.0000 electrons
 Dipole moment (field-independent basis, Debye):
    X=             -0.7449    Y=             -1.0972    Z=              1.3782  Tot=              1.9126
 Quadrupole moment (field-independent basis, Debye-Ang):
   XX=            -93.1273   YY=            -93.6453   ZZ=           -108.6460
   XY=             14.3818   XZ=             13.3190   YZ=             -0.8324
 Traceless Quadrupole moment (field-independent basis, Debye-Ang):
   XX=              5.3456   YY=              4.8276   ZZ=            -10.1731
   XY=             14.3818   XZ=             13.3190   YZ=             -0.8324
 Octapole moment (field-independent basis, Debye-Ang**2):
  XXX=            -48.5005  YYY=              1.9044  ZZZ=              1.8072  XYY=             -2.6668
  XXY=            -60.8788  XXZ=             66.2152  XZZ=              3.3431  YZZ=              0.1363
  YYZ=              0.6911  XYZ=            -11.1384
 Hexadecapole moment (field-independent basis, Debye-Ang**3):
 XXXX=         -11554.6486 YYYY=           -604.5155 ZZZZ=           -203.8372 XXXY=            712.0209
 XXXZ=            657.8588 YYYX=            -16.0402 YYYZ=             -2.3032 ZZZX=             12.4560
 ZZZY=             -0.0544 XXYY=          -2027.0197 XXZZ=          -2145.3425 YYZZ=           -148.9220
 XXYZ=            -17.7797 YYXZ=             -6.3214 ZZXY=              6.0689
 N-N= 1.073867102526D+03 E-N=-3.934850440365D+03  KE= 7.639652016352D+02
 Calling FoFJK, ICntrl=      2127 FMM=F ISym2X=0 I1Cent= 0 IOpClX= 0 NMat=1 NMatS=1 NMatT=0.
 ***** Axes restored to original set *****
 -------------------------------------------------------------------
 Center     Atomic                   Forces (Hartrees/Bohr)
 Number     Number              X              Y              Z
 -------------------------------------------------------------------
      1        6          -0.003332822   -0.006002732    0.011569736
      2        6          -0.008550501    0.001074702    0.008314276
      3        6           0.069980110   -0.009596796    0.012548585
      4        6           0.000571472    0.008330584   -0.009000396
      5        6           0.006658825    0.002221394   -0.010433976
      6        6          -0.013494604    0.000302431    0.000386717
      7        1           0.000931174    0.001945018   -0.006617018
      8        1          -0.003881494    0.003152313   -0.006304562
      9        1          -0.002721447   -0.001501491    0.004668607
     10        1           0.015149434   -0.003858701    0.006415106
     11        6          -0.098807599    0.002525997   -0.011033888
     12        6           0.099138196   -0.000875521    0.000654352
     13        6          -0.068334949    0.004478783    0.001503626
     14        6           0.002012831   -0.002811842    0.010221450
     15        6           0.002085886   -0.002536077   -0.012334264
     16        6           0.002114394    0.000125687    0.009119672
     17        1           0.002752792    0.000436368   -0.005766896
     18        6           0.002139966    0.000299621   -0.008673243
     19        1           0.003040171    0.000307044    0.006470725
     20        6           0.006828202    0.007299065   -0.000045554
     21        1          -0.001419257    0.000757580   -0.006445813
     22        1          -0.001438595    0.000714507    0.006396293
     23        8           0.029580875   -0.005002655    0.010599937
     24        6          -0.017485343   -0.000700866    0.003150405
     25        1           0.000879796    0.018316558   -0.004886648
     26        1          -0.000872565   -0.009109962   -0.016620222
     27        1          -0.014076631   -0.002018420    0.006194602
     28        8          -0.021021922    0.017258080   -0.000408797
     29        6           0.005608167   -0.004375426    0.000098179
     30        1           0.015022738    0.004410269   -0.000135550
     31        1          -0.004431436   -0.012612722    0.015069982
     32        1          -0.004625865   -0.012952790   -0.014675424
 -------------------------------------------------------------------
 Cartesian Forces:  Max     0.099138196 RMS     0.019275209

 GradGradGradGradGradGradGradGradGradGradGradGradGradGradGradGradGradGrad
 Berny optimization.
 FormGI is forming the generalized inverse of G from B-inverse, IUseBI=4.
 GSVD:  received Info=                   1 from GESDD.
 Internal  Forces:  Max     0.094121559 RMS     0.013591870
 Search for a local minimum.
 Step number   1 out of a maximum of  159
 All quantities printed in internal units (Hartrees-Bohrs-Radians)
 Mixed Optimization -- RFO/linear search
 Second derivative matrix not updated -- first step.
 ITU=  0
     Eigenvalues ---    0.00230   0.00230   0.00230   0.01295   0.01295
     Eigenvalues ---    0.01295   0.01295   0.01529   0.01650   0.01965
     Eigenvalues ---    0.01979   0.02079   0.02091   0.02104   0.02111
     Eigenvalues ---    0.02116   0.02117   0.02118   0.02120   0.02122
     Eigenvalues ---    0.02125   0.02126   0.02132   0.02148   0.02165
     Eigenvalues ---    0.03985   0.04701   0.10344   0.10344   0.10344
     Eigenvalues ---    0.10344   0.15990   0.15994   0.15995   0.15996
     Eigenvalues ---    0.16000   0.16000   0.16000   0.16000   0.16000
     Eigenvalues ---    0.16000   0.16000   0.16000   0.16000   0.16000
     Eigenvalues ---    0.21985   0.21994   0.22975   0.22981   0.23987
     Eigenvalues ---    0.23992   0.24980   0.24994   0.25000   0.25000
     Eigenvalues ---    0.25000   0.25000   0.28340   0.28403   0.34254
     Eigenvalues ---    0.34325   0.34394   0.34399   0.34412   0.34413
     Eigenvalues ---    0.34464   0.34556   0.37230   0.37230   0.37230
     Eigenvalues ---    0.37230   0.37230   0.37230   0.40989   0.40989
     Eigenvalues ---    0.40989   0.40989   0.41551   0.41751   0.42154
     Eigenvalues ---    0.42205   0.45390   0.45833   0.45928   0.45974
     Eigenvalues ---    0.45996   0.46091   0.46204   0.46785   1.05241
 RFO step:  Lambda=-7.65395025D-02 EMin= 2.30000000D-03
 Linear search not attempted -- first point.
 Maximum step size (   0.300) exceeded in Quadratic search.
    -- Step size scaled by   0.638
 Iteration  1 RMS(Cart)=  0.12133446 RMS(Int)=  0.00866951
 Iteration  2 RMS(Cart)=  0.03594721 RMS(Int)=  0.00062294
 Iteration  3 RMS(Cart)=  0.00117652 RMS(Int)=  0.00010261
 Iteration  4 RMS(Cart)=  0.00000112 RMS(Int)=  0.00010261
 Iteration  5 RMS(Cart)=  0.00000000 RMS(Int)=  0.00010261
 Variable       Old X    -DE/DX   Delta X   Delta X   Delta X     New X
                                 (Linear)    (Quad)   (Total)
    R1        2.64067  -0.00421   0.00000  -0.00539  -0.00539   2.63529
    R2        2.64223   0.00249   0.00000   0.00295   0.00296   2.64519
    R3        2.06640  -0.00648   0.00000  -0.00983  -0.00983   2.05657
    R4        2.65214   0.00344   0.00000   0.00378   0.00378   2.65592
    R5        2.06903  -0.00803   0.00000  -0.01222  -0.01222   2.05681
    R6        2.62850   0.00507   0.00000   0.00592   0.00591   2.63441
    R7        2.91400  -0.05964   0.00000  -0.10567  -0.10567   2.80833
    R8        2.64421   0.00018   0.00000   0.00061   0.00061   2.64482
    R9        2.06401  -0.00560   0.00000  -0.00846  -0.00846   2.05555
   R10        2.64263   0.01505   0.00000   0.01830   0.01830   2.66094
   R11        2.06671  -0.01423   0.00000  -0.02158  -0.02158   2.04512
   R12        2.70231   0.00195   0.00000   0.00255   0.00255   2.70486
   R13        2.26611   0.03947   0.00000   0.02230   0.02230   2.28840
   R14        2.91266  -0.05967   0.00000  -0.10554  -0.10554   2.80712
   R15        2.64178   0.00683   0.00000   0.00839   0.00839   2.65017
   R16        2.63832   0.00794   0.00000   0.00968   0.00968   2.64801
   R17        2.64183  -0.00060   0.00000  -0.00073  -0.00073   2.64111
   R18        2.06554  -0.00637   0.00000  -0.00965  -0.00965   2.05589
   R19        2.64238  -0.00063   0.00000  -0.00073  -0.00073   2.64164
   R20        2.06786  -0.00713   0.00000  -0.01083  -0.01083   2.05703
   R21        2.64009   0.00076   0.00000   0.00061   0.00061   2.64070
   R22        2.06662  -0.00629   0.00000  -0.00954  -0.00954   2.05708
   R23        2.63983   0.00066   0.00000   0.00052   0.00052   2.64035
   R24        2.06639  -0.00626   0.00000  -0.00949  -0.00949   2.05690
   R25        2.70231  -0.00945   0.00000  -0.01239  -0.01239   2.68992
   R26        2.70231   0.02409   0.00000   0.03158   0.03158   2.73389
   R27        2.02201   0.01787   0.00000   0.02540   0.02540   2.04740
   R28        2.02201   0.01774   0.00000   0.02521   0.02521   2.04722
   R29        2.02201   0.01424   0.00000   0.02024   0.02024   2.04224
   R30        2.70231   0.02794   0.00000   0.03663   0.03663   2.73893
   R31        2.02201   0.01502   0.00000   0.02135   0.02135   2.04335
   R32        2.02201   0.01970   0.00000   0.02799   0.02799   2.04999
   R33        2.02201   0.01967   0.00000   0.02794   0.02794   2.04995
    A1        2.09366   0.00510   0.00000   0.00993   0.00994   2.10360
    A2        2.09504  -0.00003   0.00000   0.00184   0.00184   2.09688
    A3        2.09447  -0.00508   0.00000  -0.01177  -0.01177   2.08270
    A4        2.09099   0.00256   0.00000   0.00382   0.00381   2.09479
    A5        2.09389  -0.00089   0.00000  -0.00083  -0.00083   2.09306
    A6        2.09796  -0.00164   0.00000  -0.00283  -0.00283   2.09512
    A7        2.09733  -0.00367   0.00000  -0.00801  -0.00803   2.08930
    A8        2.03358   0.01225   0.00000   0.02438   0.02439   2.05797
    A9        2.15206  -0.00857   0.00000  -0.01631  -0.01630   2.13576
   A10        2.09293   0.00271   0.00000   0.00635   0.00632   2.09925
   A11        2.09462  -0.00129   0.00000  -0.00293  -0.00293   2.09170
   A12        2.09507  -0.00139   0.00000  -0.00319  -0.00319   2.09188
   A13        2.09517  -0.00005   0.00000   0.00102   0.00101   2.09618
   A14        2.09387  -0.00937   0.00000  -0.02583  -0.02583   2.06804
   A15        2.09414   0.00942   0.00000   0.02482   0.02482   2.11897
   A16        2.09442  -0.00656   0.00000  -0.01248  -0.01247   2.08195
   A17        2.09448  -0.04099   0.00000  -0.08022  -0.08022   2.01426
   A18        2.09428   0.04755   0.00000   0.09270   0.09269   2.18698
   A19        2.09307   0.00079   0.00000   0.00107   0.00107   2.09413
   A20        2.09164   0.00046   0.00000   0.00042   0.00042   2.09206
   A21        2.09779  -0.00123   0.00000  -0.00133  -0.00134   2.09645
   A22        2.09144  -0.00014   0.00000   0.00027   0.00026   2.09170
   A23        2.09611  -0.00044   0.00000  -0.00148  -0.00148   2.09462
   A24        2.09540   0.00060   0.00000   0.00132   0.00132   2.09671
   A25        2.09320  -0.00048   0.00000  -0.00037  -0.00037   2.09282
   A26        2.09628  -0.00036   0.00000  -0.00141  -0.00141   2.09487
   A27        2.09347   0.00086   0.00000   0.00187   0.00187   2.09534
   A28        2.09342  -0.00102   0.00000  -0.00265  -0.00265   2.09077
   A29        2.09403   0.00256   0.00000   0.00686   0.00686   2.10089
   A30        2.09573  -0.00155   0.00000  -0.00421  -0.00422   2.09152
   A31        2.09222  -0.00089   0.00000  -0.00228  -0.00227   2.08995
   A32        2.09489   0.00247   0.00000   0.00659   0.00659   2.10148
   A33        2.09607  -0.00158   0.00000  -0.00432  -0.00432   2.09175
   A34        2.09766   0.00379   0.00000   0.00656   0.00656   2.10422
   A35        2.09278  -0.00182   0.00000  -0.00314  -0.00314   2.08964
   A36        2.09274  -0.00196   0.00000  -0.00341  -0.00342   2.08932
   A37        1.91063   0.09412   0.00000   0.18382   0.18382   2.09446
   A38        1.91063   0.00946   0.00000   0.02711   0.02677   1.93740
   A39        1.91063   0.00962   0.00000   0.02750   0.02716   1.93780
   A40        1.91063  -0.01458   0.00000  -0.04248  -0.04241   1.86822
   A41        1.91063  -0.00018   0.00000   0.00586   0.00519   1.91582
   A42        1.91063  -0.00203   0.00000  -0.00859  -0.00852   1.90211
   A43        1.91063  -0.00229   0.00000  -0.00941  -0.00935   1.90129
   A44        1.91114   0.02398   0.00000   0.04684   0.04684   1.95797
   A45        1.91063  -0.00940   0.00000  -0.02658  -0.02653   1.88411
   A46        1.91063   0.00676   0.00000   0.01885   0.01876   1.92940
   A47        1.91063   0.00673   0.00000   0.01875   0.01866   1.92930
   A48        1.91063  -0.00050   0.00000  -0.00259  -0.00253   1.90810
   A49        1.91063  -0.00048   0.00000  -0.00252  -0.00246   1.90817
   A50        1.91063  -0.00311   0.00000  -0.00591  -0.00613   1.90450
   A51        3.17054  -0.00301   0.00000  -0.01559  -0.01560   3.15494
   A52        3.14159   0.00105   0.00000   0.00865   0.00865   3.15023
   A53        3.13228   0.00081   0.00000   0.00434   0.00430   3.13658
   A54        3.14159  -0.00013   0.00000  -0.00073  -0.00070   3.14089
    D1        0.02934  -0.00071   0.00000  -0.00516  -0.00519   0.02415
    D2       -3.14082   0.00027   0.00000   0.00132   0.00129  -3.13953
    D3       -3.10907  -0.00086   0.00000  -0.00598  -0.00600  -3.11507
    D4        0.00396   0.00012   0.00000   0.00049   0.00047   0.00443
    D5        0.00343   0.00004   0.00000   0.00017   0.00017   0.00360
    D6       -3.13978   0.00006   0.00000   0.00030   0.00030  -3.13947
    D7       -3.14135   0.00021   0.00000   0.00103   0.00100  -3.14035
    D8       -0.00137   0.00023   0.00000   0.00115   0.00114  -0.00024
    D9       -0.06456   0.00167   0.00000   0.01106   0.01104  -0.05353
   D10        3.09824   0.00137   0.00000   0.00829   0.00826   3.10651
   D11        3.10566   0.00068   0.00000   0.00454   0.00452   3.11018
   D12       -0.01472   0.00038   0.00000   0.00177   0.00175  -0.01297
   D13        0.06660  -0.00175   0.00000  -0.01137  -0.01136   0.05525
   D14       -3.11087  -0.00068   0.00000  -0.00425  -0.00421  -3.11508
   D15       -3.09770  -0.00116   0.00000  -0.00789  -0.00794  -3.10564
   D16        0.00801  -0.00009   0.00000  -0.00076  -0.00079   0.00722
   D17       -0.42138   0.00093   0.00000   0.00649   0.00650  -0.41488
   D18        2.76189   0.00011   0.00000   0.00097   0.00101   2.76289
   D19        2.74721  -0.00002   0.00000  -0.00018  -0.00021   2.74700
   D20       -0.35271  -0.00083   0.00000  -0.00569  -0.00570  -0.35841
   D21       -0.03360   0.00089   0.00000   0.00596   0.00598  -0.02762
   D22        3.10669   0.00095   0.00000   0.00633   0.00634   3.11303
   D23       -3.13930  -0.00019   0.00000  -0.00118  -0.00117  -3.14047
   D24        0.00098  -0.00012   0.00000  -0.00081  -0.00081   0.00018
   D25       -0.00147  -0.00012   0.00000  -0.00056  -0.00054  -0.00201
   D26       -3.14144  -0.00006   0.00000  -0.00052  -0.00052   3.14122
   D27        3.14144  -0.00017   0.00000  -0.00089  -0.00088   3.14056
   D28        0.00146  -0.00011   0.00000  -0.00085  -0.00086   0.00060
   D29        3.11946  -0.00006   0.00000  -0.00058  -0.00058   3.11888
   D30       -0.02375  -0.00010   0.00000  -0.00056  -0.00055  -0.02430
   D31       -3.13968   0.00021   0.00000   0.00115   0.00114  -3.13854
   D32        0.02538  -0.00058   0.00000  -0.00403  -0.00403   0.02135
   D33       -0.03799   0.00086   0.00000   0.00576   0.00576  -0.03223
   D34        3.12707   0.00007   0.00000   0.00058   0.00058   3.12766
   D35        3.14019  -0.00022   0.00000  -0.00124  -0.00124   3.13895
   D36       -0.02477   0.00051   0.00000   0.00357   0.00358  -0.02119
   D37        0.03847  -0.00088   0.00000  -0.00586  -0.00586   0.03260
   D38       -3.12649  -0.00014   0.00000  -0.00105  -0.00105  -3.12754
   D39        0.02003  -0.00044   0.00000  -0.00301  -0.00301   0.01701
   D40       -3.12378  -0.00086   0.00000  -0.00571  -0.00573  -3.12950
   D41        3.13816   0.00034   0.00000   0.00213   0.00213   3.14029
   D42       -0.00565  -0.00008   0.00000  -0.00058  -0.00058  -0.00623
   D43       -0.02094   0.00047   0.00000   0.00320   0.00320  -0.01774
   D44        3.12361   0.00083   0.00000   0.00551   0.00552   3.12913
   D45       -3.13921  -0.00025   0.00000  -0.00156  -0.00157  -3.14077
   D46        0.00535   0.00011   0.00000   0.00075   0.00075   0.00610
   D47       -0.00265   0.00007   0.00000   0.00041   0.00041  -0.00224
   D48        3.13963  -0.00048   0.00000  -0.00314  -0.00314   3.13649
   D49        3.14116   0.00049   0.00000   0.00310   0.00309  -3.13893
   D50        0.00025  -0.00006   0.00000  -0.00045  -0.00046  -0.00020
   D51        0.00308  -0.00008   0.00000  -0.00049  -0.00049   0.00259
   D52       -3.13920   0.00047   0.00000   0.00306   0.00306  -3.13614
   D53       -3.14147  -0.00043   0.00000  -0.00278  -0.00278   3.13893
   D54       -0.00057   0.00011   0.00000   0.00077   0.00077   0.00020
   D55        1.56117   0.00026   0.00000   0.00172   0.00171   1.56287
   D56       -1.57974  -0.00028   0.00000  -0.00183  -0.00182  -1.58156
   D57       -1.03666  -0.00548   0.00000  -0.01868  -0.01926  -1.05592
   D58        1.05774   0.00598   0.00000   0.02195   0.02253   1.08027
   D59       -3.13105   0.00014   0.00000   0.00125   0.00125  -3.12980
   D60        3.13236   0.00006   0.00000   0.00041   0.00041   3.13278
   D61       -1.05643  -0.00217   0.00000  -0.00749  -0.00771  -1.06414
   D62        1.03797   0.00228   0.00000   0.00829   0.00851   1.04648
         Item               Value     Threshold  Converged?
 Maximum Force            0.094122     0.000450     NO 
 RMS     Force            0.013592     0.000300     NO 
 Maximum Displacement     0.805477     0.001800     NO 
 RMS     Displacement     0.153080     0.001200     NO 
 Predicted change in Energy=-3.676520D-02
 GradGradGradGradGradGradGradGradGradGradGradGradGradGradGradGradGradGrad

                          Input orientation:                          
 ---------------------------------------------------------------------
 Center     Atomic      Atomic             Coordinates (Angstroms)
 Number     Number       Type             X           Y           Z
 ---------------------------------------------------------------------
      1          6           0       -5.239380   -0.908388    1.036211
      2          6           0       -3.845577   -0.945705    1.010838
      3          6           0       -3.149796   -0.471772   -0.114582
      4          6           0       -3.859668   -0.025024   -1.228103
      5          6           0       -5.258464    0.014962   -1.203785
      6          6           0       -5.957946   -0.427870   -0.064756
      7          1           0       -5.779327   -1.251911    1.916454
      8          1           0       -3.296780   -1.323078    1.871686
      9          1           0       -3.323350    0.319042   -2.109684
     10          1           0       -5.779333    0.392063   -2.074252
     11          6           0       -1.664393   -0.491382   -0.073300
     12          6           0       -0.453622   -0.505467   -0.056436
     13          6           0        1.031372   -0.522064   -0.022906
     14          6           0        1.704818   -0.512236    1.207188
     15          6           0        1.756657   -0.504762   -1.221740
     16          6           0        3.102097   -0.524200    1.235288
     17          1           0        1.139839   -0.512574    2.136914
     18          6           0        3.154164   -0.517160   -1.191185
     19          1           0        1.232249   -0.499179   -2.175612
     20          6           0        3.820658   -0.525266    0.036792
     21          1           0        3.633483   -0.528064    2.185326
     22          1           0        3.725481   -0.515578   -2.117659
     23          8           0       -7.381913   -0.436073    0.080215
     24          6           0       -8.220595    0.065492   -0.986566
     25          1           0       -8.008892    1.108531   -1.189275
     26          1           0       -8.089977   -0.517278   -1.890417
     27          1           0       -9.244819   -0.027234   -0.654451
     28          8           0        5.243771   -0.531152    0.067033
     29          6           0        5.785161   -1.875473    0.087183
     30          1           0        6.863752   -1.800210    0.100519
     31          1           0        5.451402   -2.407108    0.971933
     32          1           0        5.474384   -2.424225   -0.795456
 ---------------------------------------------------------------------
                    Distance matrix (angstroms):
                    1          2          3          4          5
     1  C    0.000000
     2  C    1.394533   0.000000
     3  C    2.425143   1.405451   0.000000
     4  C    2.794826   2.420890   1.394070   0.000000
     5  C    2.422916   2.797085   2.422758   1.399578   0.000000
     6  C    1.399772   2.426346   2.808935   2.432783   1.408106
     7  H    1.088292   2.157149   3.412940   3.883115   3.407661
     8  H    2.154919   1.088415   2.166007   3.407415   3.885495
     9  H    3.882577   3.407339   2.153123   1.087751   2.158189
    10  H    3.414338   3.879023   3.391311   2.138936   1.082231
    11  C    3.766356   2.477766   1.486105   2.523944   3.801542
    12  C    4.925414   3.583049   2.697011   3.633839   4.967269
    13  C    6.371287   5.003272   4.182475   5.061801   6.422220
    14  C    6.957589   5.570757   5.031499   6.093564   7.387694
    15  C    7.362458   6.046805   5.029926   5.636780   7.034369
    16  C    8.352692   6.964066   6.396176   7.401598   8.725752
    17  H    6.485572   5.129329   4.844777   6.046165   7.237184
    18  C    8.692867   7.350438   6.395393   7.031174   8.429450
    19  H    7.236383   6.011419   4.842614   5.200982   6.583171
    20  C    9.123043   7.739295   6.972302   7.799847   9.179397
    21  H    8.955043   7.582228   7.162793   8.249355   9.531404
    22  H    9.511568   8.203257   7.161261   7.652871   9.045878
    23  O    2.393211   3.692080   4.236748   3.779797   2.522127
    24  C    3.731985   4.914563   5.173202   4.368548   2.970515
    25  H    4.085455   5.137467   5.221411   4.301454   2.959891
    26  H    4.104147   5.159047   5.249862   4.310045   2.961792
    27  H    4.436024   5.724385   6.135012   5.415619   4.024248
    28  O   10.534612   9.147615   8.395741   9.209025  10.592929
    29  C   11.107493   9.719502   9.046797   9.908424  11.278386
    30  H   12.171962  10.781863  10.103571  10.950263  12.326563
    31  H   10.795514   9.411218   8.882941   9.859539  11.193811
    32  H   10.974402   9.607830   8.868604   9.647170  11.014100
                    6          7          8          9         10
     6  C    0.000000
     7  H    2.153169   0.000000
     8  H    3.410719   2.483970   0.000000
     9  H    3.417704   4.970865   4.306805   0.000000
    10  H    2.177676   4.316062   4.967415   2.457324   0.000000
    11  C    4.294031   4.633595   2.671961   2.748779   4.660152
    12  C    5.504877   5.728229   3.531245   3.623671   5.765445
    13  C    6.990078   7.118948   4.792077   4.901603   7.171427
    14  C    7.768070   7.553979   5.110285   6.080719   8.221808
    15  C    7.801257   8.197411   5.981317   5.222410   7.636899
    16  C    9.153348   8.937184   6.479880   7.292892   9.522206
    17  H    7.431895   6.962045   4.517837   6.216529   8.150290
    18  C    9.181904   9.487073   7.186472   6.595534   9.022964
    19  H    7.493978   8.153147   6.129563   4.628965   7.068725
    20  C    9.779616   9.809223   7.393326   7.507135   9.872074
    21  H    9.852330   9.444429   6.982762   8.219624  10.372644
    22  H    9.899033  10.351697   8.116593   7.098076   9.548151
    23  O    1.431351   2.570145   4.548016   4.673091   2.809946
    24  C    2.492533   4.015329   5.860178   5.030774   2.692483
    25  H    2.798473   4.493128   6.122597   4.839911   2.503486
    26  H    2.808308   4.513431   6.146338   4.844403   2.489934
    27  H    3.363299   4.485423   6.590883   6.107487   3.768452
    28  O   11.202968  11.200381   8.764984   8.880118  11.267043
    29  C   11.832970  11.724864   9.272068   9.623258  11.981279
    30  H   12.895990  12.784588  10.324781  10.637353  13.014734
    31  H   11.626062  11.329425   8.860890   9.691467  11.968460
    32  H   11.628307  11.635068   9.233607   9.308751  11.671031
                   11         12         13         14         15
    11  C    0.000000
    12  C    1.210971   0.000000
    13  C    2.696411   1.485465   0.000000
    14  C    3.604396   2.501130   1.402411   0.000000
    15  C    3.608695   2.498653   1.401264   2.429493   0.000000
    16  C    4.942966   3.783125   2.423006   1.397613   2.801352
    17  H    3.570604   2.711079   2.162562   1.087930   3.414833
    18  C    4.946598   3.782051   2.423045   2.802289   1.397897
    19  H    3.579150   2.707971   2.162179   3.415674   1.088534
    20  C    5.486261   4.275342   2.789927   2.418011   2.417525
    21  H    5.759360   4.661591   3.412814   2.162580   3.889874
    22  H    5.764611   4.659790   3.412661   3.890720   2.163113
    23  O    5.719847   6.929986   8.414356   9.156667   9.231103
    24  C    6.642887   7.843278   9.320556  10.181363   9.996302
    25  H    6.637604   7.808356   9.259893  10.135387   9.897964
    26  H    6.677628   7.853506   9.310566  10.272935   9.869320
    27  H    7.616825   8.824482  10.307463  11.117350  11.026437
    28  O    6.909704   5.698788   4.213368   3.718131   3.717741
    29  C    7.578741   6.389049   4.943919   4.445450   4.452075
    30  H    8.629745   7.432694   5.972063   5.431223   5.432216
    31  H    7.442920   6.288329   4.907113   4.205089   4.699177
    32  H    7.430985   6.274475   4.894426   4.677170   4.205658
                   16         17         18         19         20
    16  C    0.000000
    17  H    2.159520   0.000000
    18  C    2.427042   3.890215   0.000000
    19  H    3.889883   4.313536   2.159439   0.000000
    20  C    1.397399   3.405505   1.397214   3.405183   0.000000
    21  H    1.088558   2.494162   3.410380   4.978407   2.156674
    22  H    3.410415   4.978649   1.088466   2.493959   2.156574
[...]
 0005269,0.00000518,0.00005169,0.00018544,0.00002105,-0.00009070,0.0026
 6228,-0.00018790,-0.00243336,0.00000234,0.00000141,-0.00004621,-0.0000
 9374,0.00000520,-0.00001511,-0.00003824,0.00000575,0.00001286,0.000146
 95,-0.00005348,-0.00014277,0.00003226,-0.00000442,0.00001051,-0.000054
 35,0.00000457,-0.00000923,0.00006575,-0.00000551,0.00000631,-0.0000104
 6,0.00000077,0.00001919,-0.00000648,0.00000060,-0.00001662,-0.00002907
 ,0.00000241,0.00002959,0.00000784,-0.00000061,0.00000467,-0.00003157,0
 .00000266,-0.00003643,0.00000791,-0.00000063,-0.00000461,0.00010664,-0
 .00000909,0.00002247,-0.00000610,0.00000058,-0.00000538,-0.00000753,0.
 00000066,0.00000646,-0.02248772,0.00198956,-0.00236110,-0.30010784,0.0
 2107311,0.07869208,-0.00671313,0.00210105,0.00331127,-0.00229551,-0.00
 115066,0.00181670,0.32969735,0.00010576,0.00023974,-0.00001702,-0.0000
 0098,-0.00001165,0.00002438,-0.00000272,-0.00003065,0.00000417,0.00000
 548,0.00011336,-0.00000480,0.00002035,0.00042808,0.00000976,-0.0001892
 8,0.00044713,0.00021464,0.00000132,0.00001805,0.00000403,0.00000535,-0
 .00003361,0.00000125,0.00000585,0.00002860,-0.00000105,-0.00005399,-0.
 00047458,0.00001064,-0.00000441,-0.00001866,-0.00000099,0.00000455,-0.
 00000161,0.00000079,-0.00000551,0.00000206,-0.00000054,0.00000080,-0.0
 0000123,-0.00000165,0.00000058,0.00000024,0.00000143,0.00000246,-0.000
 00060,-0.00000254,-0.00000061,0.00000082,-0.00000040,0.00000262,-0.000
 00128,0.00000313,-0.00000064,0.00000050,0.00000039,-0.00000909,0.00000
 141,-0.00000193,0.00000057,0.00000050,0.00000046,0.00000067,0.00000024
 ,-0.00000055,0.00203493,0.00053538,0.00020483,0.02105909,-0.05490717,-
 0.00672129,-0.02675829,0.00323763,0.00848847,0.02767806,-0.00116401,-0
 .00891893,-0.02391305,0.05159250,-0.00163632,0.00013977,0.00049848,0.0
 0017269,-0.00001425,-0.00050973,0.00011086,-0.00000966,0.00012681,-0.0
 0018876,0.00001579,0.00042011,0.00040909,-0.00003307,-0.00129777,-0.00
 187632,0.00016731,-0.00497343,0.00003574,-0.00000297,-0.00004358,-0.00
 014050,0.00001199,0.00000240,-0.00006969,0.00000601,-0.00000983,0.0003
 1006,-0.00002807,0.00085654,0.00001628,-0.00000148,0.00005192,-0.00000
 303,0.00000026,0.00000107,0.00000868,-0.00000074,-0.00000217,-0.000001
 28,0.00000011,0.00000288,0.00000039,-0.00000003,-0.00000532,-0.0000036
 4,0.00000030,0.00000595,0.00000097,-0.00000008,0.00000037,-0.00000495,
 0.00000043,-0.00000608,0.00000020,-0.00000002,0.00000071,0.00001221,-0
 .00000105,0.00000368,-0.00000089,0.00000008,-0.00000063,-0.00000129,0.
 00000011,0.00000069,-0.04153243,0.00356043,-0.00149183,0.09105608,-0.0
 0778039,-0.07157655,0.01583923,-0.00292098,-0.00288804,0.01616828,0.00
 018751,-0.00290435,-0.07866533,0.00670129,0.08374107,-0.00049982,0.000
 04436,-0.00070300,-0.00017176,0.00001579,-0.00039003,0.00138510,-0.000
 11799,0.00000097,-0.00014811,0.00001348,0.00035933,-0.00070109,0.00005
 960,0.00072120,0.00212185,-0.00018189,-0.00027841,-0.00012400,0.000010
 15,0.00009395,0.00013551,-0.00001252,-0.00005360,0.00012466,-0.0000115
 9,0.00006466,-0.00014316,0.00001199,-0.00014017,-0.00148305,0.00012956
 ,0.00001720,0.00143717,-0.00016568,-0.00006565,-0.00412388,0.00026798,
 -0.00301734,0.00783650,-0.00029358,0.00278270,0.00306255,0.00028748,-0
 .00028576,-0.05243834,0.00492055,0.00836215,-0.00101508,0.00010726,0.0
 0020147,-0.03461228,0.00366076,-0.00858260,-0.00110011,0.00009086,-0.0
 0018066,-0.25787868,0.01873386,-0.04533336,0.00111109,-0.00036467,-0.0
 0088735,0.00031546,-0.00027829,0.00019385,-0.00310254,0.00026676,-0.00
 037812,0.00074679,-0.00006586,0.00108109,0.00004000,0.00003723,-0.0002
 1055,0.00003306,-0.00004271,-0.00021040,-0.00015460,0.00001319,-0.0000
 2048,0.48166159,0.00004354,0.00000580,0.00006010,0.00001527,0.00000540
 ,0.00003337,-0.00011786,0.00001700,-0.00000006,0.00001393,0.00001360,-
 0.00003066,0.00006026,-0.00000100,-0.00006166,-0.00018187,0.00000967,0
 .00002380,0.00001025,-0.00000498,-0.00000804,-0.00001257,-0.00001054,0
 .00000455,-0.00001148,-0.00000866,-0.00000554,0.00001180,-0.00000607,0
 .00001197,0.00012956,0.00001950,-0.00000138,-0.00016606,-0.00048743,0.
 00000439,0.00026539,-0.00105642,0.00025237,-0.00028819,0.00447688,-0.0
 0022177,0.00028144,0.00639496,0.00004248,0.00487477,0.00481445,-0.0007
 2131,0.00010530,0.00023203,-0.00001707,0.00370312,0.00774406,0.0007452
 1,0.00009248,-0.00004951,0.00001529,0.01866780,-0.04115552,0.00396640,
 -0.00036537,-0.00313595,0.00006986,-0.00028055,-0.00291055,-0.00002244
 ,0.00026586,-0.00001520,0.00003231,-0.00006449,-0.00000209,-0.00009241
 ,-0.00000279,-0.00000147,0.00001642,-0.00000316,0.00000544,0.00001956,
 0.00001314,-0.00000203,0.00000175,-0.03558569,0.06726266,0.00001467,-0
 .00000127,0.00002200,0.00000265,-0.00000021,-0.00000985,-0.00001781,0.
 00000155,-0.00001179,0.00000337,-0.00000023,-0.00004051,0.00002833,-0.
 00000242,-0.00000170,-0.00006829,0.00000584,0.00000177,-0.00000019,0.0
 0000001,-0.00000244,-0.00001046,0.00000087,0.00001441,-0.00000448,0.00
 000037,0.00000327,0.00000926,-0.00000080,0.00000529,-0.00003899,0.0000
 0344,-0.00004215,0.00008077,-0.00000814,0.00042168,-0.00075745,0.00005
 861,0.00361458,-0.00133657,0.00013061,-0.00783216,0.00468578,-0.000382
 58,-0.00724060,0.04317555,-0.00369826,0.00932222,0.00154088,-0.0001317
 1,0.00010633,-0.04043678,0.00346969,-0.00015829,-0.00148123,0.00012654
 ,0.00007964,0.00036686,0.00005852,-0.10488962,-0.00043041,0.00003082,0
 .00134005,0.00187284,-0.00016607,0.00145019,0.00008631,-0.00000741,0.0
 0002385,-0.00002401,0.00000209,-0.00003894,-0.00000131,-0.00000252,0.0
 0000673,-0.00000086,0.00000269,0.00000674,0.00000441,-0.00000038,0.000
 00023,-0.07819735,0.00633866,0.31458249,0.00012875,-0.00001170,0.00018
 494,0.00005373,-0.00000520,0.00008830,-0.00040908,0.00003701,-0.000004
 61,0.00004669,-0.00000457,-0.00008213,0.00018175,-0.00001614,-0.000188
 66,-0.00057473,0.00004970,0.00007230,0.00003159,-0.00000237,-0.0000255
 0,-0.00003645,0.00000368,0.00001713,-0.00003445,0.00000388,-0.00001913
 ,0.00003835,-0.00000293,0.00003836,0.00045889,-0.00004030,-0.00000685,
 -0.00055150,0.00002190,0.00004501,0.00112018,-0.00007842,0.00030827,-0
 .00131658,0.00024476,0.00148028,-0.00052949,0.00008549,0.00179234,-0.0
 0015216,0.00025002,-0.00594947,-0.00019790,-0.00000615,-0.00017763,0.0
 0320128,-0.00040015,0.00073480,0.00045547,-0.00003967,0.00010549,-0.04
 794159,0.00366244,0.03623015,0.00009273,-0.00006530,0.00038206,-0.0023
 7644,0.00021202,0.00076951,0.00083740,-0.00007249,0.00010579,-0.000203
 72,0.00001846,-0.00029389,-0.00001116,-0.00001015,0.00005714,-0.000009
 21,0.00001146,0.00005690,0.00004234,-0.00000356,0.00000499,-0.10967330
 ,0.00451538,0.02889287,0.56506849,-0.00001127,-0.00000462,-0.00001551,
 -0.00000501,-0.00000521,-0.00000739,0.00003639,0.00002016,0.00000043,-
 0.00000461,-0.00000756,0.00000683,-0.00001601,-0.00000781,0.00001581,0
 .00004878,0.00000246,-0.00000606,-0.00000235,0.00000370,0.00000214,0.0
 0000364,0.00000656,-0.00000143,0.00000379,0.00001021,0.00000162,-0.000
 00282,0.00000484,-0.00000321,-0.00003971,-0.00000857,0.00000059,0.0000
 2143,-0.00029679,-0.00000416,-0.00007674,0.00021430,-0.00002708,0.0002
 4687,0.00154580,-0.00012439,0.00008586,0.00049127,-0.00015052,0.000249
 65,0.00265985,0.00051064,-0.00000593,-0.00027245,0.00001463,-0.0003855
 4,-0.00143052,-0.00006826,-0.00003878,-0.00000297,-0.00000878,0.003701
 22,-0.00483449,-0.00310678,-0.00006462,-0.00065883,-0.00003401,0.00021
 461,0.00009601,-0.00006481,-0.00007090,-0.00000164,-0.00000888,0.00001
 777,0.00000639,0.00002466,0.00000023,-0.00000094,-0.00000320,0.0000011
 7,-0.00000284,-0.00000637,-0.00000348,0.00000113,-0.00000042,0.0044620
 0,-0.05676486,-0.00232877,0.00035551,0.57068581,-0.00016336,0.00001423
 ,-0.00023002,-0.00004916,0.00000436,-0.00011801,0.00042441,-0.00003630
 ,-0.00000222,-0.00004511,0.00000368,0.00013546,-0.00023116,0.00001954,
 0.00022494,0.00068588,-0.00005863,-0.00008596,-0.00003737,0.00000317,0
 .00002985,0.00004454,-0.00000378,-0.00002209,0.00004176,-0.00000359,0.
 00001762,-0.00004984,0.00000433,-0.00004586,-0.00039056,0.00003346,-0.
 00002152,0.00033760,-0.00002920,-0.00005674,-0.00091262,0.00007736,0.0
 0066983,-0.00009026,0.00001001,-0.00010158,0.00144513,-0.00012095,-0.0
 0142722,-0.00496008,0.00042644,0.00121709,-0.00034440,0.00002891,0.000
 14191,-0.00952780,0.00080924,0.00255849,-0.00049667,0.00004272,-0.0001
 7338,0.00810457,-0.00070201,0.00191175,-0.00011210,0.00000820,0.000347
 92,-0.00131045,0.00011282,-0.00058771,-0.00099936,0.00008572,-0.000129
 99,0.00024191,-0.00002112,0.00035487,0.00001284,0.00001347,-0.00006834
 ,0.00001037,-0.00001530,-0.00006838,-0.00004927,0.00000423,-0.00000658
 ,0.06677194,-0.00556801,-0.15761671,0.09440488,-0.00794430,0.48295043,
 -0.00002639,0.00000226,-0.00003261,-0.00000869,0.00000067,-0.00002027,
 0.00006655,-0.00000556,0.00000010,-0.00000797,0.00000069,0.00001637,-0
 .00003516,0.00000288,0.00003372,0.00010896,-0.00000926,-0.00001265,-0.
 00000663,0.00000061,0.00000482,0.00000830,-0.00000064,-0.00000393,0.00
 000745,-0.00000061,0.00000524,-0.00000699,0.00000063,-0.00000718,-0.00
 005500,0.00000460,0.00000400,0.00003489,-0.00000459,-0.00001206,0.0000
 0586,-0.00000322,0.00003997,-0.00001701,0.00000006,0.00032344,0.000043
 22,0.00000615,-0.00008674,-0.00108366,0.00011436,-0.00034316,-0.000107
 24,0.00000634,0.00000488,0.00020202,0.00001916,0.00022985,-0.00004324,
 0.00000621,-0.00001600,0.00220058,-0.00015585,0.00310016,0.00000099,0.
 00000139,0.00005034,0.00016840,-0.00005543,0.00007919,-0.00015477,0.00
 001320,-0.00001888,0.00003785,-0.00000323,0.00005341,0.00000210,0.0000
 0141,-0.00001051,0.00000184,-0.00000176,-0.00001054,-0.00000813,0.0000
 0071,-0.00000083,-0.02634845,0.00231308,0.00003962,-0.28252153,0.01973
 953,-0.09838173,0.31310477,0.00000222,-0.00000058,0.00000278,0.0000006
 4,-0.00000122,0.00000173,-0.00000555,0.00000206,0.,0.00000071,0.000000
 23,-0.00000139,0.00000291,-0.00000130,-0.00000288,-0.00000926,0.000001
 42,0.00000108,0.00000061,0.00000049,-0.00000041,-0.00000064,0.00000082
 ,0.00000034,-0.00000060,0.00000050,-0.00000045,0.00000062,0.00000024,0
 .00000061,0.00000460,-0.00000161,-0.00000035,-0.00000459,-0.00001865,0
 .00000094,-0.00000298,-0.00003062,-0.00000366,0.00000067,-0.00001172,-
 0.00002696,0.00000579,0.00011331,0.00000700,0.00011181,0.00023922,0.00
 002885,0.00000615,-0.00003368,-0.00000048,0.00001994,0.00042819,-0.000
 01730,0.00000609,0.00002858,0.00000141,-0.00015448,0.00044471,-0.00025
 825,0.00000151,0.00001804,-0.00000422,-0.00005482,-0.00047451,-0.00000
 855,0.00001314,-0.00000203,0.00000161,-0.00000316,0.00000110,-0.000004
 56,-0.00000031,-0.00000031,0.00000109,-0.00000006,-0.00000006,0.000000
 70,0.00000071,0.00000010,0.00000007,0.00225881,0.00051659,-0.00000561,
 0.01975614,-0.05480962,0.00845650,-0.02266037,0.05149998,0.00000063,-0
 .00000006,0.00000325,0.00000020,-0.00000002,0.00000111,-0.00000227,0.0
 0000020,-0.00000297,-0.00000064,0.00000006,-0.00000383,0.00000223,-0.0
 0000019,-0.00000247,-0.00000239,0.00000020,0.00000136,0.00000033,-0.00
 000003,-0.00000010,-0.00000023,0.00000002,-0.00000009,0.00000042,-0.00
 000004,0.00000118,0.00000057,-0.00000005,0.00000014,-0.00000221,0.0000
 0018,0.00000172,-0.00001784,0.00000144,0.00004929,-0.00012208,0.000010
 26,0.00012020,-0.00012695,0.00001146,-0.00049567,0.00015372,-0.0000136
 1,0.00042967,0.00148878,-0.00012781,0.00061924,0.00013028,-0.00001122,
 0.00001597,-0.00026984,0.00002534,-0.00131452,0.00006656,-0.00000565,-
 0.00000482,0.00254330,-0.00021038,-0.00450882,-0.00003160,0.00000281,-
 0.00004221,-0.00037369,0.00003023,0.00083503,0.00000602,-0.00000052,0.
 00000038,-0.00000084,0.00000008,-0.00000206,0.00000004,-0.00000026,0.0
 0000038,0.00000008,0.00000025,0.00000038,0.00000004,0.,0.00000025,0.03
 921204,-0.00335393,0.00238998,-0.11074627,0.00951355,-0.08925537,0.100
 08291,-0.00862271,0.10042092,0.00000498,-0.00000111,0.00000450,-0.0000
 0155,0.00000174,0.00000475,-0.00000075,-0.00000798,0.00000181,-0.00000
 091,-0.00000147,-0.00000363,0.00000556,0.00000219,-0.00000459,-0.00001
 546,0.00000081,0.00000104,0.00000082,-0.00000042,-0.00000062,-0.000001
 05,0.00000007,0.00000052,-0.00000126,-0.00000087,-0.00000102,0.0000008
 2,-0.00000009,0.00000094,-0.00001675,-0.00000414,0.00000553,0.00004542
 ,0.00011732,-0.00001625,-0.00000662,-0.00004183,-0.00091872,0.00086911
 ,-0.00032780,0.00049096,-0.00086302,-0.00045181,0.00031358,-0.00132770
 ,-0.00040545,0.00060841,-0.00000183,0.00004860,0.00000140,0.00024627,-
 0.00003249,-0.00100849,-0.00000871,0.00003676,0.00000700,0.00523312,0.
 00155869,0.00134193,0.00007578,0.00013569,-0.00014130,-0.00149010,0.00
 157427,-0.00030440,0.00002021,-0.00000125,0.00000256,-0.00000520,-0.00
 000010,-0.00000698,-0.00000018,-0.00000002,0.00000124,-0.00000037,0.00
 000034,0.00000152,0.00000112,-0.00000021,0.00000003,-0.00135461,0.0188
 1486,0.02098170,-0.06892016,-0.05232383,-0.03673748,-0.00491858,-0.025
 94449,-0.01588760,0.07040416,0.00000449,0.00000033,0.00001183,0.000000
 84,0.00000166,0.00000142,-0.00001491,-0.00000016,-0.00000230,-0.000000
 20,0.00000140,-0.00000875,0.00000899,0.00000149,-0.00000983,-0.0000237
 4,0.00000061,0.00000392,0.00000037,-0.00000089,-0.00000094,-0.00000044
 ,-0.00000147,0.00000054,-0.00000046,-0.00000230,0.00000171,0.00000220,
 -0.00000121,0.00000159,0.00001502,0.00000362,0.00000135,-0.00004832,0.
 00001562,0.00006001,0.00004037,-0.00006814,0.00010374,-0.00025660,0.00
 005320,-0.00001122,-0.00003055,-0.00002358,0.00047021,0.00059648,-0.00
 023332,-0.00007091,0.00001647,0.00000373,0.00000551,0.00042062,-0.0000
 2061,-0.00106735,0.00004667,0.00000358,-0.00000289,-0.00168337,0.00032
 769,-0.00033831,-0.00005375,-0.00001776,0.00008444,0.00029462,-0.00040
 733,0.00084284,0.00003799,-0.00000154,0.00000610,-0.00000915,-0.000000
 99,-0.00001475,-0.00000023,-0.00000072,0.00000224,-0.00000029,0.000001
 59,0.00000297,0.00000144,-0.00000031,0.00000040,0.00370803,0.00528492,
 -0.00226463,-0.04941513,-0.22170603,-0.10893145,0.00180324,0.00319589,
 0.00306078,0.05293785,0.23524767,0.00003352,-0.00000277,0.00004714,0.0
 0001353,0.00000148,0.00002343,-0.00009879,0.00000792,-0.00000158,0.000
 01161,-0.00000035,-0.00002344,0.00004767,-0.00000135,-0.00004745,-0.00
 014494,0.00001104,0.00001848,0.00000814,-0.00000166,-0.00000646,-0.000
 00983,-0.00000063,0.00000434,-0.00000905,-0.00000147,-0.00000428,0.000
 00993,-0.00000169,0.00000974,0.00011175,-0.00000457,0.00000181,-0.0001
 0663,-0.00000150,0.00001481,0.00028189,-0.00007990,0.00025543,-0.00044
 806,0.00030614,-0.00008828,-0.00001613,-0.00004447,0.00005142,0.001272
 43,0.00025595,-0.00049962,0.00005026,-0.00004919,-0.00002664,0.0009134
 1,0.00037268,0.00066322,0.00007290,0.00000908,0.00004064,-0.00637424,-
 0.00023492,-0.00020368,-0.00014165,-0.00020210,0.00018630,-0.00029874,
 0.00007257,0.00025872,0.00021162,-0.00001653,0.00002659,-0.00005123,0.
 00000283,-0.00007424,-0.00000257,-0.00000217,0.00001408,-0.00000239,0.
 00000334,0.00001481,0.00001057,-0.00000111,0.00000136,0.00776726,-0.02
 151030,-0.02778243,-0.03349929,-0.10702174,-0.12057444,-0.00351027,-0.
 01096912,-0.00464169,0.03111679,0.12375377,0.14102130,0.00000428,0.000
 00042,0.00000242,-0.00000189,-0.00000113,0.00000444,0.00000311,0.00000
 741,0.00000219,-0.00000057,0.00000181,-0.00000208,0.00000356,-0.000002
 54,-0.00000285,-0.00001113,0.00000122,0.00000036,0.00000078,0.00000013
 ,-0.00000045,-0.00000100,-0.00000015,0.00000042,-0.00000107,0.00000066
 ,-0.00000130,0.00000040,-0.00000019,0.00000066,-0.00001799,0.00000785,
 0.00000524,0.00003301,-0.00012026,-0.00002652,-0.00000798,0.00003393,-
 0.00092309,0.00094349,0.00017313,0.00048645,-0.00075830,0.00057780,0.0
 0023065,-0.00132844,0.00059261,0.00061312,-0.00001256,-0.00004580,0.00
 000032,0.00017385,0.00000149,-0.00081284,-0.00002233,-0.00003232,0.000
 00729,0.00511422,-0.00238718,0.00137444,0.00005941,-0.00014864,-0.0001
 5400,-0.00177173,-0.00133834,-0.00044700,0.00001339,-0.00000133,0.0000
 0148,-0.00000352,0.00000055,-0.00000436,-0.00000032,-0.00000001,0.0000
 0099,-0.00000016,-0.00000008,0.00000084,0.00000087,0.,-0.00000004,-0.0
 0493846,-0.01711718,0.02102032,-0.05629820,0.02386314,-0.01763707,-0.0
 0064431,0.02664822,-0.01610370,0.00202746,-0.00839855,0.00278054,0.057
 44214,-0.00000526,0.00000106,-0.00001255,-0.00000027,0.00000202,-0.000
 00227,0.00001462,-0.00000404,0.00000195,0.00000050,0.00000103,0.000009
 31,-0.00000948,0.00000347,0.00001060,0.00002616,-0.00000372,-0.0000040
 9,-0.00000068,-0.00000085,0.00000104,0.00000039,-0.00000152,-0.0000006
 4,0.00000027,-0.00000250,-0.00000151,-0.00000251,-0.00000079,-0.000001
 76,-0.00001161,0.00000491,-0.00000226,0.00004564,0.00002810,-0.0000563
 3,-0.00005156,-0.00006684,0.00005281,0.00010467,-0.00002026,-0.0000720
 6,0.00015722,-0.00012715,-0.00051702,-0.00041133,-0.00023148,-0.000032
 69,-0.00001382,0.00001437,-0.00000556,-0.00045674,0.00005030,0.0012211
 1,-0.00004239,0.00001725,0.00000158,0.00087634,0.00044427,0.00010757,0
 .00004077,-0.00000182,-0.00005974,-0.00005858,-0.00012393,-0.00078004,
 -0.00004115,0.00000531,-0.00000652,0.00000972,-0.00000272,0.00001591,0
 .00000063,0.00000155,-0.00000322,0.00000014,-0.00000075,-0.00000246,-0
 .00000167,-0.00000006,-0.00000040,-0.00197923,0.00880931,-0.00122933,0
 .02094639,-0.23493275,0.11327627,-0.00113665,-0.00110558,-0.00031039,0
 .00431615,-0.02165663,0.01535076,-0.02231668,0.24890043,0.00003348,-0.
 00000307,0.00004711,0.00001308,-0.00000382,0.00002342,-0.00009866,0.00
 000898,-0.00000158,0.00001150,-0.00000157,-0.00002342,0.00004719,-0.00
 000666,-0.00004742,-0.00014464,0.00001372,0.00001847,0.00000831,0.0000
 0027,-0.00000646,-0.00000958,0.00000228,0.00000435,-0.00000866,0.00000
 299,-0.00000428,0.00001006,-0.00000005,0.00000974,0.00011086,-0.000014
 49,0.00000179,-0.00010470,0.00001961,0.00001468,0.00029120,0.00003004,
 0.00025551,-0.00049305,-0.00022534,-0.00008904,-0.00000811,0.00004616,
 0.00005015,0.00120904,-0.00046750,-0.00050061,0.00005784,0.00004004,-0
 .00002654,0.00083547,-0.00052397,0.00066520,0.00007016,-0.00002139,0.0
 0004060,-0.00623854,0.00131462,-0.00020057,-0.00010518,0.00022269,0.00
 018666,-0.00030716,-0.00002210,0.00025630,0.00021123,-0.00001973,0.000
 02656,-0.00005092,0.00000608,-0.00007419,-0.00000293,-0.00000291,0.000
 01480,-0.00000216,0.00000254,0.00001407,0.00001060,-0.00000070,0.00000
 136,0.01130503,0.01997608,-0.02772428,-0.01477809,0.11084514,-0.119968
 04,-0.00160067,0.01142219,-0.00461586,0.00014488,-0.01569206,0.0113206
 2,0.00958310,-0.12694807,0.14033091||0.00000294,0.00000059,0.00000524,
 -0.00000212,0.00000505,0.00000411,-0.00000389,-0.00000751,-0.00001001,
 0.00000618,0.00000240,0.00000479,-0.00000751,0.00000070,0.00000136,-0.
 00000110,-0.00000233,-0.00000732,0.00000104,-0.00000083,0.00000007,0.0
 0000050,-0.00000041,-0.00000010,0.00000013,0.00000030,0.00000011,0.000
 00113,-0.00000002,-0.00000085,0.00000534,0.00000319,0.00000386,-0.0000
 0565,-0.00000128,0.00000296,0.00000503,-0.00000074,-0.00001611,0.00000
 290,-0.00000051,0.00000813,-0.00000863,0.,0.00000725,-0.00000886,0.000
 00243,0.00000295,-0.00000110,0.00000067,-0.00000058,0.00000227,0.00000
 117,0.00000309,0.00000189,0.00000001,-0.00000124,0.00000876,-0.0000043
 7,-0.00000514,0.00000040,-0.00000076,-0.00000048,0.00000026,0.00000009
 ,-0.00000143,0.00000173,0.00000089,0.00000117,-0.00000166,-0.00000065,
 -0.00000042,0.00000069,0.00000041,-0.00000032,-0.00000068,-0.00000031,
 -0.00000070,0.00000056,0.00000008,0.00000017,0.00000545,0.00000099,-0.
 00001043,-0.00000949,-0.00000187,0.00001933,0.00000248,0.00000190,-0.0
 0000346,-0.00000052,-0.00000163,-0.00000342,0.00000154,0.00000233,-0.0
 0000259|||@


 LAW OF COMPENSATION:
      NO CALCULATION IS EVER A COMPLETE FAILURE; IT 
      CAN ALWAYS SERVE AS A BAD EXAMPLE.

                                           -- ANON
 Job cpu time:       0 days  0 hours  5 minutes 41.0 seconds.
 File lengths (MBytes):  RWF=    170 Int=      0 D2E=      0 Chk=      4 Scr=      1
 Normal termination of Gaussian 09 at Mon Sep 11 23:08:37 2023.
