 Entering Gaussian System, Link 0=C:\G09W\g09.exe
 Input=D:\machine learning\molecule_13.gjf
 Output=D:\machine learning\molecule_13.log
 Initial command:
 C:/G09W\l1.exe ".\Gau-4472.inp" "D:\machine learning\molecule_13.log" /scrdir=".\"
 Entering Link 1 = C:/G09W\l1.exe PID=      1660.
  
 Copyright (c) 1988,1990,1992,1993,1995,1998,2003,2009,2013,
            Gaussian, Inc.  All Rights Reserved.
  
 This is part of the Gaussian(R) 09 program.  It is based on
 the Gaussian(R) 03 system (copyright 2003, Gaussian, Inc.),
 the Gaussian(R) 98 system (copyright 1998, Gaussian, Inc.),
 the Gaussian(R) 94 system (copyright 1995, Gaussian, Inc.),
 the Gaussian 92(TM) system (copyright 1992, Gaussian, Inc.),
 the Gaussian 90(TM) system (copyright 1990, Gaussian, Inc.),
 the Gaussian 88(TM) system (copyright 1988, Gaussian, Inc.),
 the Gaussian 86(TM) system (copyright 1986, Carnegie Mellon
 University), and the Gaussian 82(TM) system (copyright 1983,
 Carnegie Mellon University). Gaussian is a federally registered
 trademark of Gaussian, Inc.
  
 This software contains proprietary and confidential information,
 including trade secrets, belonging to Gaussian, Inc.
  
 This software is provided under written license and may be
 used, copied, transmitted, or stored only in accord with that
 written license.
  
 The following legend is applicable only to US Government
 contracts under FAR:
  
                    RESTRICTED RIGHTS LEGEND
  
 Use, reproduction and disclosure by the US Government is
 subject to restrictions as set forth in subparagraphs (a)
 and (c) of the Commercial Computer Software - Restricted
 Rights clause in FAR 52.227-19.
  
 Gaussian, Inc.
 340 Quinnipiac St., Bldg. 40, Wallingford CT 06492
  
  
 ---------------------------------------------------------------
 Warning -- This program may not be used in any manner that
 competes with the business of Gaussian, Inc. or will provide
 assistance to any competitor of Gaussian, Inc.  The licensee
 of this program is prohibited from giving any competitor of
 Gaussian, Inc. access to this program.  By using this program,
 the user acknowledges that Gaussian, Inc. is engaged in the
 business of creating and licensing software in the field of
 computational chemistry and represents and warrants to the
 licensee that it is not a competitor of Gaussian, Inc. and that
 it will not use this program in any manner prohibited above.
 ---------------------------------------------------------------
  

 Cite this work as:
 Gaussian 09, Revision D.01,
 M. J. Frisch, G. W. Trucks, H. B. Schlegel, G. E. Scuseria, 
 M. A. Robb, J. R. Cheeseman, G. Scalmani, V. Barone, B. Mennucci, 
 G. A. Petersson, H. Nakatsuji, M. Caricato, X. Li, H. P. Hratchian, 
 A. F. Izmaylov, J. Bloino, G. Zheng, J. L. Sonnenberg, M. Hada, 
 M. Ehara, K. Toyota, R. Fukuda, J. Hasegawa, M. Ishida, T. Nakajima, 
 Y. Honda, O. Kitao, H. Nakai, T. Vreven, J. A. Montgomery, Jr., 
 J. E. Peralta, F. Ogliaro, M. Bearpark, J. J. Heyd, E. Brothers, 
 K. N. Kudin, V. N. Staroverov, T. Keith, R. Kobayashi, J. Normand, 
 K. Raghavachari, A. Rendell, J. C. Burant, S. S. Iyengar, J. Tomasi, 
 M. Cossi, N. Rega, J. M. Millam, M. Klene, J. E. Knox, J. B. Cross, 
 V. Bakken, C. Adamo, J. Jaramillo, R. Gomperts, R. E. Stratmann, 
 O. Yazyev, A. J. Austin, R. Cammi, C. Pomelli, J. W. Ochterski, 
 R. L. Martin, K. Morokuma, V. G. Zakrzewski, G. A. Voth, 
 P. Salvador, J. J. Dannenberg, S. Dapprich, A. D. Daniels, 
 O. Farkas, J. B. Foresman, J. V. Ortiz, J. Cioslowski, 
 and D. J. Fox, Gaussian, Inc., Wallingford CT, 2013.
 
 ******************************************
 Gaussian 09:  EM64W-G09RevD.01 13-Apr-2013
                24-Aug-2023 
 ******************************************
 %nprocshared=6
 Will use up to    6 processors via shared memory.
 %mem=8GB
 %chk=D:\machine learning\molecule_13.chk
 --------------------------------------------------
 # opt freq b3lyp/6-31+g(d) empiricaldispersion=gd3
 --------------------------------------------------
 1/14=-1,18=20,19=15,26=3,38=1/1,3;
 2/9=110,12=2,17=6,18=5,40=1/2;
 3/5=1,6=6,7=11,11=2,16=1,25=1,30=1,71=1,74=-5,124=31/1,2,3;
 4//1;
 5/5=2,38=5/2;
 6/7=2,8=2,9=2,10=2,28=1/1;
 7//1,2,3,16;
 1/14=-1,18=20,19=15,26=3/3(2);
 2/9=110/2;
 99//99;
 2/9=110/2;
 3/5=1,6=6,7=11,11=2,16=1,25=1,30=1,71=1,74=-5,124=31/1,2,3;
 4/5=5,16=3,69=1/1;
 5/5=2,38=5/2;
 7//1,2,3,16;
 1/14=-1,18=20,19=15,26=3/3(-5);
 2/9=110/2;
 6/7=2,8=2,9=2,10=2,19=2,28=1/1;
 99/9=1/99;
 -------------------
 Title Card Required
 -------------------
 Symbolic Z-matrix:
 Charge =  0 Multiplicity = 1
 C                    -1.90256  -1.12801   0.77489 
 C                    -1.23584  -0.64732  -0.3627 
 C                    -1.96158  -0.21483  -1.46767 
 C                    -3.35953  -0.18381  -1.41582 
 C                    -4.0276   -0.625    -0.26926 
 H                    -1.33162  -1.49996   1.63189 
 H                    -1.43981   0.13179  -2.36242 
 H                    -3.9299    0.18691  -2.27217 
 C                     0.30537  -0.66013  -0.31415 
 C                     1.50453  -0.6646   -0.3118 
 C                     3.04583  -0.67033  -0.3088 
 C                     3.74094  -0.64815   0.90391 
 C                     3.74301  -0.64953  -1.51823 
 C                     5.13893  -0.65108   0.90431 
 H                     3.19319  -0.65075   1.84979 
 C                     5.14129  -0.65299  -1.51765 
 H                     3.19713  -0.65265  -2.46661 
 C                     5.83663  -0.65189  -0.30607 
 H                     5.68512  -0.65063   1.85176 
 H                     5.68889  -0.65374  -2.46414 
 H                     6.90601  -0.65232  -0.30508 
 C                    -3.29873  -1.09919   0.82567 
 H                    -3.80921  -1.4399    1.70216 
 N                    -5.49619  -0.59024  -0.21516 
 H                    -5.81338   0.34547  -0.36956 
 H                    -5.8701   -1.18997  -0.92263 
 

 GradGradGradGradGradGradGradGradGradGradGradGradGradGradGradGradGradGrad
 Berny optimization.
 Initialization pass.
                           ----------------------------
                           !    Initial Parameters    !
                           ! (Angstroms and Degrees)  !
 --------------------------                            --------------------------
 ! Name  Definition              Value          Derivative Info.                !
 --------------------------------------------------------------------------------
 ! R1    R(1,2)                  1.4035         estimate D2E/DX2                !
 ! R2    R(1,6)                  1.0949         estimate D2E/DX2                !
 ! R3    R(1,22)                 1.3974         estimate D2E/DX2                !
 ! R4    R(2,3)                  1.3909         estimate D2E/DX2                !
 ! R5    R(2,9)                  1.542          estimate D2E/DX2                !
 ! R6    R(3,4)                  1.3993         estimate D2E/DX2                !
 ! R7    R(3,7)                  1.0922         estimate D2E/DX2                !
 ! R8    R(4,5)                  1.3984         estimate D2E/DX2                !
 ! R9    R(4,8)                  1.0937         estimate D2E/DX2                !
 ! R10   R(5,22)                 1.3982         estimate D2E/DX2                !
 ! R11   R(5,24)                 1.47           estimate D2E/DX2                !
 ! R12   R(9,10)                 1.1992         estimate D2E/DX2                !
 ! R13   R(10,11)                1.5413         estimate D2E/DX2                !
 ! R14   R(11,12)                1.398          estimate D2E/DX2                !
 ! R15   R(11,13)                1.3961         estimate D2E/DX2                !
 ! R16   R(12,14)                1.398          estimate D2E/DX2                !
 ! R17   R(12,15)                1.093          estimate D2E/DX2                !
 ! R18   R(13,16)                1.3983         estimate D2E/DX2                !
 ! R19   R(13,17)                1.0943         estimate D2E/DX2                !
 ! R20   R(14,18)                1.3971         estimate D2E/DX2                !
 ! R21   R(14,19)                1.0936         estimate D2E/DX2                !
 ! R22   R(16,18)                1.3969         estimate D2E/DX2                !
 ! R23   R(16,20)                1.0935         estimate D2E/DX2                !
 ! R24   R(18,21)                1.0694         estimate D2E/DX2                !
 ! R25   R(22,23)                1.07           estimate D2E/DX2                !
 ! R26   R(24,25)                1.0            estimate D2E/DX2                !
 ! R27   R(24,26)                1.0            estimate D2E/DX2                !
 ! A1    A(2,1,6)              120.204          estimate D2E/DX2                !
 ! A2    A(2,1,22)             119.8047         estimate D2E/DX2                !
 ! A3    A(6,1,22)             119.971          estimate D2E/DX2                !
 ! A4    A(1,2,3)              120.1683         estimate D2E/DX2                !
 ! A5    A(1,2,9)              116.5157         estimate D2E/DX2                !
 ! A6    A(3,2,9)              123.304          estimate D2E/DX2                !
 ! A7    A(2,3,4)              119.9162         estimate D2E/DX2                !
 ! A8    A(2,3,7)              120.0131         estimate D2E/DX2                !
 ! A9    A(4,3,7)              120.0388         estimate D2E/DX2                !
 ! A10   A(3,4,5)              120.0444         estimate D2E/DX2                !
 ! A11   A(3,4,8)              119.9699         estimate D2E/DX2                !
 ! A12   A(5,4,8)              119.9857         estimate D2E/DX2                !
 ! A13   A(4,5,22)             120.0015         estimate D2E/DX2                !
 ! A14   A(4,5,24)             119.9992         estimate D2E/DX2                !
 ! A15   A(22,5,24)            119.9992         estimate D2E/DX2                !
 ! A16   A(10,11,12)           119.9238         estimate D2E/DX2                !
 ! A17   A(10,11,13)           119.8422         estimate D2E/DX2                !
 ! A18   A(12,11,13)           120.1945         estimate D2E/DX2                !
 ! A19   A(11,12,14)           119.8308         estimate D2E/DX2                !
 ! A20   A(11,12,15)           120.098          estimate D2E/DX2                !
 ! A21   A(14,12,15)           120.0575         estimate D2E/DX2                !
 ! A22   A(11,13,16)           119.9314         estimate D2E/DX2                !
 ! A23   A(11,13,17)           120.108          estimate D2E/DX2                !
 ! A24   A(16,13,17)           119.947          estimate D2E/DX2                !
 ! A25   A(12,14,18)           119.944          estimate D2E/DX2                !
 ! A26   A(12,14,19)           119.9792         estimate D2E/DX2                !
 ! A27   A(18,14,19)           120.0767         estimate D2E/DX2                !
 ! A28   A(13,16,18)           119.8756         estimate D2E/DX2                !
 ! A29   A(13,16,20)           120.0284         estimate D2E/DX2                !
 ! A30   A(18,16,20)           120.0958         estimate D2E/DX2                !
 ! A31   A(14,18,16)           120.1873         estimate D2E/DX2                !
 ! A32   A(14,18,21)           119.9076         estimate D2E/DX2                !
 ! A33   A(16,18,21)           119.9051         estimate D2E/DX2                !
 ! A34   A(1,22,5)             119.958          estimate D2E/DX2                !
 ! A35   A(1,22,23)            119.9918         estimate D2E/DX2                !
 ! A36   A(5,22,23)            120.0502         estimate D2E/DX2                !
 ! A37   A(5,24,25)            109.4712         estimate D2E/DX2                !
 ! A38   A(5,24,26)            109.4712         estimate D2E/DX2                !
 ! A39   A(25,24,26)           109.4713         estimate D2E/DX2                !
 ! A40   L(2,9,10,6,-1)        181.6583         estimate D2E/DX2                !
 ! A41   L(9,10,11,17,-1)      179.9996         estimate D2E/DX2                !
 ! A42   L(2,9,10,6,-2)        179.4663         estimate D2E/DX2                !
 ! A43   L(9,10,11,17,-2)      179.9998         estimate D2E/DX2                !
 ! D1    D(6,1,2,3)            177.9414         estimate D2E/DX2                !
 ! D2    D(6,1,2,9)             -0.8433         estimate D2E/DX2                !
 ! D3    D(22,1,2,3)            -3.6992         estimate D2E/DX2                !
 ! D4    D(22,1,2,9)           177.5162         estimate D2E/DX2                !
 ! D5    D(2,1,22,5)             1.6809         estimate D2E/DX2                !
 ! D6    D(2,1,22,23)         -178.3191         estimate D2E/DX2                !
 ! D7    D(6,1,22,5)          -179.9557         estimate D2E/DX2                !
 ! D8    D(6,1,22,23)            0.0443         estimate D2E/DX2                !
 ! D9    D(1,2,3,4)              3.816          estimate D2E/DX2                !
 ! D10   D(1,2,3,7)           -178.2399         estimate D2E/DX2                !
 ! D11   D(9,2,3,4)           -177.4853         estimate D2E/DX2                !
 ! D12   D(9,2,3,7)              0.4589         estimate D2E/DX2                !
 ! D13   D(1,2,11,12)          -24.1431         estimate D2E/DX2                !
 ! D14   D(1,2,11,13)          158.2445         estimate D2E/DX2                !
 ! D15   D(3,2,11,12)          157.4038         estimate D2E/DX2                !
 ! D16   D(3,2,11,13)          -20.2086         estimate D2E/DX2                !
 ! D17   D(2,3,4,5)             -1.9249         estimate D2E/DX2                !
 ! D18   D(2,3,4,8)            178.0            estimate D2E/DX2                !
 ! D19   D(7,3,4,5)           -179.8685         estimate D2E/DX2                !
 ! D20   D(7,3,4,8)              0.0564         estimate D2E/DX2                !
 ! D21   D(3,4,5,22)            -0.0841         estimate D2E/DX2                !
 ! D22   D(3,4,5,24)           179.9159         estimate D2E/DX2                !
 ! D23   D(8,4,5,22)           179.991          estimate D2E/DX2                !
 ! D24   D(8,4,5,24)            -0.009          estimate D2E/DX2                !
 ! D25   D(4,5,22,1)             0.1967         estimate D2E/DX2                !
 ! D26   D(4,5,22,23)         -179.8033         estimate D2E/DX2                !
 ! D27   D(24,5,22,1)         -179.8033         estimate D2E/DX2                !
 ! D28   D(24,5,22,23)           0.1967         estimate D2E/DX2                !
 ! D29   D(4,5,24,25)          -57.6474         estimate D2E/DX2                !
 ! D30   D(4,5,24,26)           62.3526         estimate D2E/DX2                !
 ! D31   D(22,5,24,25)         122.3526         estimate D2E/DX2                !
 ! D32   D(22,5,24,26)        -117.6474         estimate D2E/DX2                !
 ! D33   D(10,11,12,14)       -179.8905         estimate D2E/DX2                !
 ! D34   D(10,11,12,15)          1.4544         estimate D2E/DX2                !
 ! D35   D(13,11,12,14)         -2.1768         estimate D2E/DX2                !
 ! D36   D(13,11,12,15)        179.1681         estimate D2E/DX2                !
 ! D37   D(10,11,13,16)        179.9195         estimate D2E/DX2                !
 ! D38   D(10,11,13,17)         -1.4191         estimate D2E/DX2                !
 ! D39   D(12,11,13,16)          2.2039         estimate D2E/DX2                !
 ! D40   D(12,11,13,17)       -179.1347         estimate D2E/DX2                !
 ! D41   D(11,12,14,18)          1.1475         estimate D2E/DX2                !
 ! D42   D(11,12,14,19)       -178.9793         estimate D2E/DX2                !
 ! D43   D(15,12,14,18)        179.8032         estimate D2E/DX2                !
 ! D44   D(15,12,14,19)         -0.3236         estimate D2E/DX2                !
 ! D45   D(11,13,16,18)         -1.1998         estimate D2E/DX2                !
 ! D46   D(11,13,16,20)        178.9699         estimate D2E/DX2                !
 ! D47   D(17,13,16,18)       -179.8633         estimate D2E/DX2                !
 ! D48   D(17,13,16,20)          0.3064         estimate D2E/DX2                !
 ! D49   D(12,14,18,16)         -0.1518         estimate D2E/DX2                !
 ! D50   D(12,14,18,21)        179.8876         estimate D2E/DX2                !
 ! D51   D(19,14,18,16)        179.9751         estimate D2E/DX2                !
 ! D52   D(19,14,18,21)          0.0145         estimate D2E/DX2                !
 ! D53   D(13,16,18,14)          0.1766         estimate D2E/DX2                !
 ! D54   D(13,16,18,21)       -179.8628         estimate D2E/DX2                !
 ! D55   D(20,16,18,14)       -179.9932         estimate D2E/DX2                !
 ! D56   D(20,16,18,21)         -0.0326         estimate D2E/DX2                !
 --------------------------------------------------------------------------------
 Trust Radius=3.00D-01 FncErr=1.00D-07 GrdErr=1.00D-06
 Number of steps in this run=    136 maximum allowed number of steps=    156.
 GradGradGradGradGradGradGradGradGradGradGradGradGradGradGradGradGradGrad

                          Input orientation:                          
 ---------------------------------------------------------------------
 Center     Atomic      Atomic             Coordinates (Angstroms)
 Number     Number       Type             X           Y           Z
 ---------------------------------------------------------------------
      1          6           0       -1.902563   -1.128006    0.774886
      2          6           0       -1.235836   -0.647325   -0.362698
      3          6           0       -1.961577   -0.214830   -1.467672
      4          6           0       -3.359529   -0.183806   -1.415822
      5          6           0       -4.027596   -0.625001   -0.269257
      6          1           0       -1.331625   -1.499960    1.631886
      7          1           0       -1.439805    0.131794   -2.362418
      8          1           0       -3.929902    0.186908   -2.272165
      9          6           0        0.305369   -0.660132   -0.314145
     10          6           0        1.504530   -0.664596   -0.311803
     11          6           0        3.045831   -0.670330   -0.308802
     12          6           0        3.740935   -0.648145    0.903907
     13          6           0        3.743007   -0.649532   -1.518233
     14          6           0        5.138930   -0.651076    0.904311
     15          1           0        3.193188   -0.650751    1.849788
     16          6           0        5.141288   -0.652990   -1.517655
     17          1           0        3.197135   -0.652649   -2.466612
     18          6           0        5.836634   -0.651893   -0.306072
     19          1           0        5.685118   -0.650629    1.851758
     20          1           0        5.688891   -0.653741   -2.464145
     21          1           0        6.906012   -0.652317   -0.305084
     22          6           0       -3.298726   -1.099189    0.825675
     23          1           0       -3.809209   -1.439901    1.702158
     24          7           0       -5.496189   -0.590242   -0.215155
     25          1           0       -5.813383    0.345465   -0.369555
     26          1           0       -5.870099   -1.189969   -0.922629
 ---------------------------------------------------------------------
                    Distance matrix (angstroms):
                    1          2          3          4          5
     1  C    0.000000
     2  C    1.403451   0.000000
     3  C    2.422073   1.390941   0.000000
     4  C    2.795257   2.415365   1.399257   0.000000
     5  C    2.420541   2.793413   2.423402   1.398420   0.000000
     6  H    1.094883   2.171296   3.414038   3.890139   3.412940
     7  H    3.412318   2.155808   1.092229   2.163558   3.413316
     8  H    3.888910   3.405877   2.164002   1.093653   2.163419
     9  C    2.505965   1.542023   2.582240   3.856430   4.333341
    10  C    3.606095   2.740893   3.681334   5.010897   5.532432
    11  C    5.086300   4.282068   5.159902   6.518499   7.073683
    12  C    5.665332   5.135421   6.191187   7.484206   7.856649
    13  C    6.112265   5.111179   5.721346   7.118525   7.870376
    14  C    7.058812   6.499459   7.498920   8.821857   9.241382
    15  H    5.229709   4.950895   6.145499   7.336235   7.525340
    16  C    7.422750   6.480869   7.116542   8.514363   9.253525
    17  H    6.061368   4.906905   5.272748   6.656861   7.551548
    18  C    7.828813   7.072698   7.896355   9.274699   9.864335
    19  H    7.678571   7.266598   8.347484   9.628117   9.941639
    20  H    8.267189   7.236571   7.727564   9.121058   9.961349
    21  H    8.887272   8.142054   8.954168  10.336081  10.933701
    22  C    1.397384   2.423205   2.798124   2.421968   1.398207
    23  H    2.142991   3.393236   3.868121   3.391428   2.144349
    24  N    3.766102   4.263289   3.768716   2.484373   1.470000
    25  H    4.333057   4.683974   4.044281   2.719597   2.034920
    26  H    4.315871   4.699401   4.065036   2.749285   2.034920
                    6          7          8          9         10
     6  H    0.000000
     7  H    4.316107   0.000000
     8  H    4.983792   2.492341   0.000000
     9  C    2.678077   2.805031   4.742240   0.000000
    10  C    3.538295   3.675373   5.839617   1.199171   0.000000
    11  C    4.859699   4.998166   7.297294   2.740486   1.541315
    12  C    5.194844   6.173917   8.344249   3.645121   2.545531
    13  C    6.033106   5.308923   7.755100   3.642429   2.542927
    14  C    6.566433   7.386755   9.645513   4.984779   3.832490
    15  H    4.608966   6.310283   8.272277   3.608627   2.743033
    16  C    7.248142   6.681339   9.141181   4.983432   3.831478
    17  H    6.166464   4.703979   7.178949   3.604924   2.740120
    18  C    7.473876   7.601926   9.997716   5.531276   4.332126
    19  H    7.071378   8.314806  10.495562   5.799390   4.707283
    20  H    8.171976   7.172567   9.657366   5.796968   4.705483
    21  H    8.504646   8.631345  11.044941   6.600654   5.401500
    22  C    2.163349   3.890352   3.413069   3.805452   4.955199
    23  H    2.479308   4.960350   4.296082   4.647932   5.735238
    24  N    4.645723   4.646108   2.699724   5.802824   7.001781
    25  H    5.243808   4.810961   2.681897   6.201083   7.387518
    26  H    5.217220   4.842267   2.735215   6.227952   7.418509
                   11         12         13         14         15
    11  C    0.000000
    12  C    1.397972   0.000000
    13  C    1.396141   2.422141   0.000000
    14  C    2.419314   1.397998   2.795948   0.000000
    15  H    2.163703   1.093035   3.412604   2.163294   0.000000
    16  C    2.419207   2.797315   1.398285   2.421968   3.890343
    17  H    2.163180   3.414109   1.094262   3.890205   4.316402
    18  C    2.790865   2.419920   2.419217   1.397075   3.411091
    19  H    3.410902   2.162932   3.889555   1.093608   2.491931
    20  H    3.410504   3.890801   2.163615   3.413057   4.983830
    21  H    3.860225   3.388124   3.387674   2.141312   4.292848
    22  C    6.459440   7.054530   7.435193   8.449913   6.587476
    23  H    7.185247   7.633397   8.248125   9.018203   7.048270
    24  N    8.542909   9.304844   9.330824  10.694048   8.931569
    25  H    8.917467   9.689890   9.676470  11.071088   9.329322
    26  H    8.952129   9.798050   9.646690  11.172593   9.493167
                   16         17         18         19         20
    16  C    0.000000
    17  H    2.163389   0.000000
    18  C    1.396940   3.410995   0.000000
    19  H    3.413020   4.983813   2.163144   0.000000
    20  H    1.093486   2.491757   2.163125   4.315906   0.000000
    21  H    2.141163   4.292782   1.069379   2.478418   2.478493
    22  C    8.770639   7.296215   9.216058   9.053370   9.581158
    23  H    9.544517   8.190681   9.884140   9.528251  10.401443
    24  N   10.717106   8.980358  11.333355  11.370902  11.409119
    25  H   11.059831   9.305016  11.692803  11.753382  11.734054
    26  H   11.040518   9.213431  11.735299  11.895846  11.673647
                   21         22         23         24         25
    21  H    0.000000
    22  C   10.276915   0.000000
    23  H   10.930017   1.070000   0.000000
    24  N   12.402683   2.484190   2.691452   0.000000
    25  H   12.758634   3.136734   3.390611   1.000000   0.000000
    26  H   12.802322   3.110750   3.346527   1.000000   1.632993
                   26
    26  H    0.000000
 Stoichiometry    C14H11N
 Framework group  C1[X(C14H11N)]
 Deg. of freedom    72
 Full point group                 C1      NOp   1
 Largest Abelian subgroup         C1      NOp   1
 Largest concise Abelian subgroup C1      NOp   1
                         Standard orientation:                         
 ---------------------------------------------------------------------
 Center     Atomic      Atomic             Coordinates (Angstroms)
 Number     Number       Type             X           Y           Z
 ---------------------------------------------------------------------
      1          6           0       -2.291173   -1.165260   -0.277652
      2          6           0       -1.628295    0.044517   -0.019375
      3          6           0       -2.357593    1.209975    0.191690
      4          6           0       -3.755603    1.161834    0.225877
      5          6           0       -4.419998   -0.049247    0.008067
      6          1           0       -1.717303   -2.076104   -0.477165
      7          1           0       -1.838698    2.155512    0.363950
      8          1           0       -4.328902    2.071798    0.424299
      9          6           0       -0.086980   -0.002119   -0.015937
     10          6           0        1.112190   -0.002571   -0.014607
     11          6           0        2.653504   -0.003140   -0.012896
     12          6           0        3.350159   -1.187889    0.242774
     13          6           0        3.348913    1.189703   -0.219631
     14          6           0        4.748151   -1.185699    0.246114
     15          1           0        2.803728   -2.118204    0.417858
     16          6           0        4.747193    1.191623   -0.216775
     17          1           0        2.801760    2.118921   -0.405611
     18          6           0        5.444189    0.003967    0.017980
     19          1           0        5.295631   -2.114509    0.429297
     20          1           0        5.293494    2.121896   -0.395271
     21          1           0        6.513557    0.005322    0.022448
     22          6           0       -3.687386   -1.212776   -0.245826
     23          1           0       -4.195045   -2.139233   -0.415709
     24          7           0       -5.888664   -0.099047    0.046038
     25          1           0       -6.210501    0.229919    0.933845
     26          1           0       -6.260697    0.480497   -0.679027
 ---------------------------------------------------------------------
 Rotational constants (GHZ):      2.8055939      0.1855413      0.1750052
 Standard basis: 6-31+G(d) (6D, 7F)
 There are   307 symmetry adapted cartesian basis functions of A   symmetry.
 There are   307 symmetry adapted basis functions of A   symmetry.
   307 basis functions,   524 primitive gaussians,   307 cartesian basis functions
    51 alpha electrons       51 beta electrons
       nuclear repulsion energy       775.7097309152 Hartrees.
 NAtoms=   26 NActive=   26 NUniq=   26 SFac= 1.00D+00 NAtFMM=   60 NAOKFM=F Big=F
 Integral buffers will be    131072 words long.
 Raffenetti 2 integral format.
 Two-electron integral symmetry is turned on.
 Nuclear repulsion after empirical dispersion term =      775.6934094908 Hartrees.
 One-electron integrals computed using PRISM.
 NBasis=   307 RedAO= T EigKep=  1.28D-06  NBF=   307
 NBsUse=   305 1.00D-06 EigRej=  6.28D-08 NBFU=   305
 ExpMin= 4.38D-02 ExpMax= 4.17D+03 ExpMxC= 6.27D+02 IAcc=2 IRadAn=         4 AccDes= 0.00D+00
 Harris functional with IExCor=  402 and IRadAn=       4 diagonalized for initial guess.
 HarFok:  IExCor=  402 AccDes= 0.00D+00 IRadAn=         4 IDoV= 1 UseB2=F ITyADJ=14
 ICtDFT=  3500011 ScaDFX=  1.000000  1.000000  1.000000  1.000000
 FoFCou: FMM=F IPFlag=           0 FMFlag=      100000 FMFlg1=           0
         NFxFlg=           0 DoJE=T BraDBF=F KetDBF=T FulRan=T
         wScrn=  0.000000 ICntrl=     500 IOpCl=  0 I1Cent=   200000004 NGrid=           0
         NMat0=    1 NMatS0=      1 NMatT0=    0 NMatD0=    1 NMtDS0=    0 NMtDT0=    0
 Petite list used in FoFCou.
 Requested convergence on RMS density matrix=1.00D-08 within 128 cycles.
 Requested convergence on MAX density matrix=1.00D-06.
 Requested convergence on             energy=1.00D-06.
 No special actions if energy rises.
 SCF Done:  E(RB3LYP) =  -594.830001596     A.U. after   16 cycles
            NFock= 16  Conv=0.21D-08     -V/T= 2.0104

 **********************************************************************

            Population analysis using the SCF density.

 **********************************************************************

 Orbital symmetries:
       Occupied  (A) (A) (A) (A) (A) (A) (A) (A) (A) (A) (A) (A)
                 (A) (A) (A) (A) (A) (A) (A) (A) (A) (A) (A) (A)
                 (A) (A) (A) (A) (A) (A) (A) (A) (A) (A) (A) (A)
                 (A) (A) (A) (A) (A) (A) (A) (A) (A) (A) (A) (A)
                 (A) (A) (A)
       Virtual   (A) (A) (A) (A) (A) (A) (A) (A) (A) (A) (A) (A)
                 (A) (A) (A) (A) (A) (A) (A) (A) (A) (A) (A) (A)
                 (A) (A) (A) (A) (A) (A) (A) (A) (A) (A) (A) (A)
                 (A) (A) (A) (A) (A) (A) (A) (A) (A) (A) (A) (A)
                 (A) (A) (A) (A) (A) (A) (A) (A) (A) (A) (A) (A)
                 (A) (A) (A) (A) (A) (A) (A) (A) (A) (A) (A) (A)
                 (A) (A) (A) (A) (A) (A) (A) (A) (A) (A) (A) (A)
                 (A) (A) (A) (A) (A) (A) (A) (A) (A) (A) (A) (A)
                 (A) (A) (A) (A) (A) (A) (A) (A) (A) (A) (A) (A)
                 (A) (A) (A) (A) (A) (A) (A) (A) (A) (A) (A) (A)
                 (A) (A) (A) (A) (A) (A) (A) (A) (A) (A) (A) (A)
                 (A) (A) (A) (A) (A) (A) (A) (A) (A) (A) (A) (A)
                 (A) (A) (A) (A) (A) (A) (A) (A) (A) (A) (A) (A)
                 (A) (A) (A) (A) (A) (A) (A) (A) (A) (A) (A) (A)
                 (A) (A) (A) (A) (A) (A) (A) (A) (A) (A) (A) (A)
                 (A) (A) (A) (A) (A) (A) (A) (A) (A) (A) (A) (A)
                 (A) (A) (A) (A) (A) (A) (A) (A) (A) (A) (A) (A)
                 (A) (A) (A) (A) (A) (A) (A) (A) (A) (A) (A) (A)
                 (A) (A) (A) (A) (A) (A) (A) (A) (A) (A) (A) (A)
                 (A) (A) (A) (A) (A) (A) (A) (A) (A) (A) (A) (A)
                 (A) (A) (A) (A) (A) (A) (A) (A) (A) (A) (A) (A)
                 (A) (A)
 The electronic state is 1-A.
 Alpha  occ. eigenvalues --  -14.33418 -10.23520 -10.23435 -10.23385 -10.20908
 Alpha  occ. eigenvalues --  -10.20678 -10.20676 -10.20672 -10.20547 -10.20537
 Alpha  occ. eigenvalues --  -10.20529 -10.20246 -10.20032 -10.19923 -10.19777
 Alpha  occ. eigenvalues --   -0.91045  -0.86974  -0.85604  -0.78281  -0.76000
 Alpha  occ. eigenvalues --   -0.75785  -0.75767  -0.72085  -0.62461  -0.62220
 Alpha  occ. eigenvalues --   -0.61676  -0.60570  -0.54732  -0.53162  -0.50449
 Alpha  occ. eigenvalues --   -0.49099  -0.47840  -0.47089  -0.46289  -0.44849
 Alpha  occ. eigenvalues --   -0.43965  -0.43439  -0.43296  -0.38732  -0.38129
 Alpha  occ. eigenvalues --   -0.37923  -0.36592  -0.36416  -0.35952  -0.31554
 Alpha  occ. eigenvalues --   -0.28676  -0.26787  -0.26557  -0.26434  -0.26265
 Alpha  occ. eigenvalues --   -0.23048
 Alpha virt. eigenvalues --   -0.04649  -0.02376  -0.02075  -0.01222  -0.00373
 Alpha virt. eigenvalues --    0.00181   0.01528   0.02116   0.02817   0.03340
 Alpha virt. eigenvalues --    0.04521   0.04853   0.04977   0.05211   0.05454
 Alpha virt. eigenvalues --    0.06466   0.06804   0.07235   0.07642   0.07791
 Alpha virt. eigenvalues --    0.08834   0.09063   0.09162   0.09443   0.09732
 Alpha virt. eigenvalues --    0.10502   0.11732   0.12229   0.12780   0.13056
 Alpha virt. eigenvalues --    0.13246   0.14230   0.14364   0.14879   0.14998
 Alpha virt. eigenvalues --    0.15256   0.15623   0.15809   0.15934   0.16375
 Alpha virt. eigenvalues --    0.16858   0.17116   0.17720   0.18126   0.18844
 Alpha virt. eigenvalues --    0.19662   0.19901   0.20314   0.20480   0.20750
 Alpha virt. eigenvalues --    0.21265   0.21620   0.21769   0.22202   0.22838
 Alpha virt. eigenvalues --    0.22957   0.23587   0.23801   0.23814   0.24129
 Alpha virt. eigenvalues --    0.25201   0.25383   0.26210   0.26720   0.27020
 Alpha virt. eigenvalues --    0.27752   0.27952   0.28347   0.28799   0.28864
 Alpha virt. eigenvalues --    0.29730   0.30977   0.31118   0.31864   0.32507
 Alpha virt. eigenvalues --    0.33266   0.33996   0.34419   0.34973   0.36264
 Alpha virt. eigenvalues --    0.36970   0.38110   0.39106   0.39867   0.40589
 Alpha virt. eigenvalues --    0.43515   0.44480   0.50751   0.56547   0.57955
 Alpha virt. eigenvalues --    0.59815   0.60990   0.64553   0.65957   0.66936
 Alpha virt. eigenvalues --    0.67319   0.69044   0.69487   0.69878   0.71210
 Alpha virt. eigenvalues --    0.71522   0.71590   0.72042   0.72554   0.73214
 Alpha virt. eigenvalues --    0.74316   0.74370   0.74750   0.75528   0.75751
 Alpha virt. eigenvalues --    0.76637   0.77271   0.78375   0.79436   0.80038
 Alpha virt. eigenvalues --    0.81035   0.82859   0.83442   0.83878   0.85488
 Alpha virt. eigenvalues --    0.87756   0.89631   0.89812   0.91990   0.92410
 Alpha virt. eigenvalues --    0.92808   0.93644   0.93865   0.95278   0.95762
 Alpha virt. eigenvalues --    0.96473   0.97376   1.00348   1.00479   1.01149
 Alpha virt. eigenvalues --    1.01544   1.03513   1.08060   1.08877   1.09267
 Alpha virt. eigenvalues --    1.09748   1.12586   1.14445   1.14540   1.16773
 Alpha virt. eigenvalues --    1.17909   1.18874   1.19651   1.21438   1.22623
 Alpha virt. eigenvalues --    1.24060   1.24718   1.26457   1.27270   1.27577
 Alpha virt. eigenvalues --    1.29040   1.31971   1.35474   1.36347   1.40113
 Alpha virt. eigenvalues --    1.41091   1.42521   1.43506   1.44276   1.45591
 Alpha virt. eigenvalues --    1.46105   1.46456   1.47835   1.48106   1.49619
 Alpha virt. eigenvalues --    1.49713   1.54157   1.55802   1.56772   1.59079
 Alpha virt. eigenvalues --    1.70766   1.78400   1.80537   1.81119   1.83995
 Alpha virt. eigenvalues --    1.84785   1.86644   1.88710   1.90316   1.91660
 Alpha virt. eigenvalues --    1.92869   1.93964   1.94702   1.95990   1.97583
 Alpha virt. eigenvalues --    1.98330   1.99011   2.07841   2.08175   2.10130
 Alpha virt. eigenvalues --    2.10749   2.11757   2.13588   2.13872   2.14460
 Alpha virt. eigenvalues --    2.15239   2.18463   2.19242   2.20220   2.21694
 Alpha virt. eigenvalues --    2.26812   2.29377   2.29513   2.29900   2.31309
 Alpha virt. eigenvalues --    2.31451   2.36687   2.45999   2.48007   2.50169
 Alpha virt. eigenvalues --    2.51864   2.52963   2.59798   2.60764   2.61370
 Alpha virt. eigenvalues --    2.63737   2.64181   2.65715   2.67513   2.72553
 Alpha virt. eigenvalues --    2.74253   2.75135   2.75416   2.79707   2.81937
 Alpha virt. eigenvalues --    2.83408   2.91378   2.92010   2.96291   3.06095
 Alpha virt. eigenvalues --    3.16987   3.30940   3.39573   3.56222   3.98995
 Alpha virt. eigenvalues --    4.18959   4.21634   4.23289   4.24604   4.24871
 Alpha virt. eigenvalues --    4.29603   4.33287   4.38383   4.39105   4.40390
 Alpha virt. eigenvalues --    4.54636   4.63584   4.74829   4.89758
          Condensed to atoms (all electrons):
               1          2          3          4          5          6
     1  C   24.157944  -1.829444 -14.510696   4.380088  -0.605524   0.323646
     2  C   -1.829444  18.349165  -4.307392   1.208368  -0.529578  -0.079509
     3  C  -14.510696  -4.307392  29.187023  -8.588524   2.933318   0.006279
     4  C    4.380088   1.208368  -8.588524  10.411630  -1.258145  -0.000226
     5  C   -0.605524  -0.529578   2.933318  -1.258145  10.796954  -0.042505
     6  H    0.323646  -0.079509   0.006279  -0.000226  -0.042505   0.519468
     7  H    0.011524  -0.053760   0.337257  -0.060529  -0.011569  -0.000150
     8  H   -0.004107   0.017411  -0.051518   0.345030  -0.023537   0.000015
     9  C    1.306867  -6.290352  -0.246486   0.471222  -1.719982   0.095353
    10  C   -0.411268   2.148888  -0.981553   0.291388  -0.414325   0.020826
    11  C   -0.056272  -4.720461  -0.160250   0.207377  -0.249767   0.019451
    12  C   -0.122206   0.186558   0.187355  -0.036169   0.003929   0.000222
    13  C    0.097082   0.267398  -0.208581   0.032878   0.001361   0.000257
    14  C    0.026870  -0.108979  -0.033638  -0.004983  -0.001674  -0.000137
    15  H    0.000648   0.007999   0.000041  -0.000001   0.000032   0.000001
    16  C   -0.046321  -0.089891   0.070704   0.007584   0.000549   0.000049
    17  H   -0.000120   0.008474   0.001174  -0.000019   0.000032   0.000000
    18  C    0.002663  -0.012701   0.000221   0.000538  -0.000045   0.000026
    19  H    0.000027  -0.000178  -0.000009  -0.000001   0.000000   0.000000
    20  H   -0.000009  -0.000170   0.000019   0.000002   0.000000   0.000000
    21  H   -0.000001   0.000042   0.000000   0.000000   0.000000   0.000000
    22  C   -6.242044   1.195103   3.573451  -1.695596  -2.501907  -0.058021
    23  H   -0.157669   0.017850  -0.002955   0.048669   0.061372  -0.004442
    24  N    0.338960   0.107777  -0.788596   0.118724   0.207374  -0.000345
    25  H   -0.009505   0.009242  -0.002277  -0.008568  -0.072330   0.000003
    26  H   -0.024734   0.006289   0.007107  -0.048414  -0.051483   0.000002
               7          8          9         10         11         12
     1  C    0.011524  -0.004107   1.306867  -0.411268  -0.056272  -0.122206
     2  C   -0.053760   0.017411  -6.290352   2.148888  -4.720461   0.186558
     3  C    0.337257  -0.051518  -0.246486  -0.981553  -0.160250   0.187355
     4  C   -0.060529   0.345030   0.471222   0.291388   0.207377  -0.036169
     5  C   -0.011569  -0.023537  -1.719982  -0.414325  -0.249767   0.003929
     6  H   -0.000150   0.000015   0.095353   0.020826   0.019451   0.000222
     7  H    0.522059  -0.004016   0.058801   0.004365   0.007125  -0.000117
     8  H   -0.004016   0.533321  -0.000430   0.000484   0.000022  -0.000010
     9  C    0.058801  -0.000430  11.196261  -0.670139   2.692742  -0.436495
    10  C    0.004365   0.000484  -0.670139  11.882082  -7.640033   1.288795
    11  C    0.007125   0.000022   2.692742  -7.640033  19.865661  -3.537840
    12  C   -0.000117  -0.000010  -0.436495   1.288795  -3.537840  27.353809
    13  C    0.001071   0.000028  -0.619072   2.544095  -4.620393 -16.054357
    14  C    0.000025  -0.000001   0.013983  -0.734931   1.587573  -7.323094
    15  H    0.000000   0.000000   0.008210   0.055078  -0.058986   0.315244
    16  C   -0.000022   0.000002   0.097890  -1.055832   1.871996   5.023277
    17  H    0.000000   0.000000   0.006354   0.062694  -0.069028   0.022038
    18  C    0.000016   0.000000   0.006750  -0.243911   0.293577  -0.491211
    19  H    0.000000   0.000000  -0.000858  -0.009392   0.007779  -0.033915
    20  H    0.000000   0.000000  -0.001038  -0.008753   0.004889  -0.004066
    21  H    0.000000   0.000000   0.000406   0.003038  -0.003100   0.014123
    22  C   -0.006744   0.012961   0.064321   0.176914   0.002885   0.044676
    23  H    0.000016  -0.000151  -0.005305   0.000313  -0.000068   0.000036
    24  N   -0.000910  -0.015044   0.076685   0.019126   0.004385  -0.000015
    25  H    0.000001   0.000806   0.002112   0.000207   0.000013  -0.000001
    26  H   -0.000001   0.000654   0.001550   0.000136   0.000010   0.000001
              13         14         15         16         17         18
     1  C    0.097082   0.026870   0.000648  -0.046321  -0.000120   0.002663
     2  C    0.267398  -0.108979   0.007999  -0.089891   0.008474  -0.012701
     3  C   -0.208581  -0.033638   0.000041   0.070704   0.001174   0.000221
     4  C    0.032878  -0.004983  -0.000001   0.007584  -0.000019   0.000538
     5  C    0.001361  -0.001674   0.000032   0.000549   0.000032  -0.000045
     6  H    0.000257  -0.000137   0.000001   0.000049   0.000000   0.000026
     7  H    0.001071   0.000025   0.000000  -0.000022   0.000000   0.000016
     8  H    0.000028  -0.000001   0.000000   0.000002   0.000000   0.000000
     9  C   -0.619072   0.013983   0.008210   0.097890   0.006354   0.006750
    10  C    2.544095  -0.734931   0.055078  -1.055832   0.062694  -0.243911
    11  C   -4.620393   1.587573  -0.058986   1.871996  -0.069028   0.293577
    12  C  -16.054357  -7.323094   0.315244   5.023277   0.022038  -0.491211
    13  C   28.087866   4.822918   0.024035  -7.795209   0.325817  -0.499597
    14  C    4.822918   8.700297  -0.066360  -1.839016  -0.007979   0.729289
    15  H    0.024035  -0.066360   0.524190  -0.007303  -0.000142   0.006227
    16  C   -7.795209  -1.839016  -0.007303   8.915820  -0.072136   0.733981
    17  H    0.325817  -0.007979  -0.000142  -0.072136   0.524930   0.007024
    18  C   -0.499597   0.729289   0.006227   0.733981   0.007024   5.337905
    19  H   -0.003097   0.304180  -0.004479   0.007780   0.000015   0.020947
    20  H   -0.026798   0.007933   0.000015   0.299344  -0.004490   0.021929
    21  H    0.010511  -0.010779  -0.000149  -0.009846  -0.000149   0.286579
    22  C   -0.028829   0.015540  -0.000281  -0.005583  -0.000005   0.000327
    23  H   -0.000017   0.000002   0.000000  -0.000001   0.000000   0.000000
    24  N   -0.000053   0.000008   0.000000  -0.000002   0.000000   0.000001
    25  H    0.000000   0.000000   0.000000   0.000000   0.000000   0.000000
    26  H   -0.000001   0.000000   0.000000   0.000000   0.000000   0.000000
              19         20         21         22         23         24
     1  C    0.000027  -0.000009  -0.000001  -6.242044  -0.157669   0.338960
     2  C   -0.000178  -0.000170   0.000042   1.195103   0.017850   0.107777
     3  C   -0.000009   0.000019   0.000000   3.573451  -0.002955  -0.788596
     4  C   -0.000001   0.000002   0.000000  -1.695596   0.048669   0.118724
     5  C    0.000000   0.000000   0.000000  -2.501907   0.061372   0.207374
     6  H    0.000000   0.000000   0.000000  -0.058021  -0.004442  -0.000345
     7  H    0.000000   0.000000   0.000000  -0.006744   0.000016  -0.000910
     8  H    0.000000   0.000000   0.000000   0.012961  -0.000151  -0.015044
     9  C   -0.000858  -0.001038   0.000406   0.064321  -0.005305   0.076685
    10  C   -0.009392  -0.008753   0.003038   0.176914   0.000313   0.019126
    11  C    0.007779   0.004889  -0.003100   0.002885  -0.000068   0.004385
    12  C   -0.033915  -0.004066   0.014123   0.044676   0.000036  -0.000015
    13  C   -0.003097  -0.026798   0.010511  -0.028829  -0.000017  -0.000053
    14  C    0.304180   0.007933  -0.010779   0.015540   0.000002   0.000008
    15  H   -0.004479   0.000015  -0.000149  -0.000281   0.000000   0.000000
    16  C    0.007780   0.299344  -0.009846  -0.005583  -0.000001  -0.000002
    17  H    0.000015  -0.004490  -0.000149  -0.000005   0.000000   0.000000
    18  C    0.020947   0.021929   0.286579   0.000327   0.000000   0.000001
    19  H    0.531934  -0.000155  -0.004983   0.000002   0.000000   0.000000
    20  H   -0.000155   0.532051  -0.004975  -0.000001   0.000000   0.000000
    21  H   -0.004983  -0.004975   0.539567   0.000000   0.000000   0.000000
    22  C    0.000002  -0.000001   0.000000  10.820905   0.333428  -0.099976
    23  H    0.000000   0.000000   0.000000   0.333428   0.515679  -0.003103
    24  N    0.000000   0.000000   0.000000  -0.099976  -0.003103   7.271827
    25  H    0.000000   0.000000   0.000000   0.042948  -0.000008   0.314781
    26  H    0.000000   0.000000   0.000000   0.072298   0.000038   0.312577
              25         26
     1  C   -0.009505  -0.024734
     2  C    0.009242   0.006289
     3  C   -0.002277   0.007107
     4  C   -0.008568  -0.048414
     5  C   -0.072330  -0.051483
     6  H    0.000003   0.000002
     7  H    0.000001  -0.000001
     8  H    0.000806   0.000654
     9  C    0.002112   0.001550
    10  C    0.000207   0.000136
    11  C    0.000013   0.000010
    12  C   -0.000001   0.000001
    13  C    0.000000  -0.000001
    14  C    0.000000   0.000000
    15  H    0.000000   0.000000
    16  C    0.000000   0.000000
    17  H    0.000000   0.000000
    18  C    0.000000   0.000000
    19  H    0.000000   0.000000
    20  H    0.000000   0.000000
    21  H    0.000000   0.000000
    22  C    0.042948   0.072298
    23  H   -0.000008   0.000038
    24  N    0.314781   0.312577
    25  H    0.370545  -0.042596
    26  H   -0.042596   0.366728
 Mulliken charges:
               1
     1  C   -0.626398
     2  C    0.491850
     3  C   -0.421475
     4  C    0.177678
     5  C   -0.522547
     6  H    0.199736
     7  H    0.195555
     8  H    0.188082
     9  C   -0.109350
    10  C   -0.328293
    11  C    0.550713
    12  C   -0.400569
    13  C   -0.359314
    14  C   -0.077045
    15  H    0.195982
    16  C   -0.107814
    17  H    0.195517
    18  C   -0.200532
    19  H    0.184405
    20  H    0.184272
    21  H    0.179716
    22  C    0.283228
    23  H    0.196318
    24  N   -0.864180
    25  H    0.394627
    26  H    0.399839
 Sum of Mulliken charges =   0.00000
 Mulliken charges with hydrogens summed into heavy atoms:
               1
     1  C   -0.426663
     2  C    0.491850
     3  C   -0.225920
     4  C    0.365760
     5  C   -0.522547
     9  C   -0.109350
    10  C   -0.328293
    11  C    0.550713
    12  C   -0.204586
    13  C   -0.163798
    14  C    0.107359
    16  C    0.076458
    18  C   -0.020816
    22  C    0.479545
    24  N   -0.069715
 Electronic spatial extent (au):  <R**2>=           5836.6697
 Charge=              0.0000 electrons
 Dipole moment (field-independent basis, Debye):
    X=              0.1682    Y=              1.3189    Z=              0.2146  Tot=              1.3468
 Quadrupole moment (field-independent basis, Debye-Ang):
   XX=            -72.0666   YY=            -79.5505   ZZ=            -92.8785
   XY=             -9.2672   XZ=             -1.4578   YZ=             -0.3130
 Traceless Quadrupole moment (field-independent basis, Debye-Ang):
   XX=              9.4320   YY=              1.9480   ZZ=            -11.3800
   XY=             -9.2672   XZ=             -1.4578   YZ=             -0.3130
 Octapole moment (field-independent basis, Debye-Ang**2):
  XXX=             31.3576  YYY=              0.3285  ZZZ=              1.1065  XYY=              4.9881
  XXY=             61.8562  XXZ=             10.1646  XZZ=            -22.0799  YZZ=              0.6136
  YYZ=             -0.3857  XYZ=             -9.5157
 Hexadecapole moment (field-independent basis, Debye-Ang**3):
 XXXX=          -6810.4609 YYYY=           -557.3116 ZZZZ=           -141.5470 XXXY=           -409.2895
 XXXZ=            -59.9929 YYYX=             -4.8996 YYYZ=             -0.0960 ZZZX=             -7.1923
 ZZZY=             -0.3544 XXYY=          -1259.0836 XXZZ=          -1300.4863 YYZZ=           -132.9893
 XXYZ=            -25.6126 YYXZ=              1.6192 ZZXY=             -5.7394
 N-N= 7.756934094908D+02 E-N=-2.928177704139D+03  KE= 5.887038027964D+02
 Calling FoFJK, ICntrl=      2127 FMM=F ISym2X=0 I1Cent= 0 IOpClX= 0 NMat=1 NMatS=1 NMatT=0.
 ***** Axes restored to original set *****
 -------------------------------------------------------------------
 Center     Atomic                   Forces (Hartrees/Bohr)
 Number     Number              X              Y              Z
 -------------------------------------------------------------------
      1        6          -0.003528315    0.001795807    0.005268963
      2        6           0.063312457   -0.010448192    0.015717076
      3        6          -0.000451487    0.009047456   -0.011153685
      4        6           0.006994536   -0.000970256   -0.001675084
      5        6          -0.019473148    0.002473718   -0.003250934
      6        1          -0.002551839    0.002722988   -0.005346184
      7        1          -0.001366754   -0.001133050    0.003681621
      8        1           0.002104749   -0.002128857    0.003302067
      9        6          -0.088644799    0.002301246   -0.010745822
     10        6           0.088836808   -0.000668113    0.000527912
     11        6          -0.061898845    0.004452747    0.001575835
     12        6           0.001697726   -0.002978353    0.009828746
     13        6           0.001770959   -0.002733932   -0.011985268
     14        6          -0.000919385    0.000715259    0.003136646
     15        1           0.001555320    0.000246490   -0.004741786
     16        6          -0.000968928    0.000845171   -0.002638337
     17        1           0.001842247    0.000135217    0.005439244
     18        6          -0.008379782   -0.000351115   -0.000101215
     19        1          -0.002653026    0.000259188   -0.003748746
     20        1          -0.002686091    0.000235460    0.003674058
     21        1           0.012734577   -0.000129161    0.000031683
     22        6           0.007598732    0.001855228   -0.009104992
     23        1          -0.007583470   -0.003447470    0.008030501
     24        7           0.028359548   -0.007980484    0.019619736
     25        1          -0.007436217    0.013222053   -0.004116714
     26        1          -0.008265573   -0.007339047   -0.011225320
 -------------------------------------------------------------------
 Cartesian Forces:  Max     0.088836808 RMS     0.018779529

 GradGradGradGradGradGradGradGradGradGradGradGradGradGradGradGradGradGrad
 Berny optimization.
 FormGI is forming the generalized inverse of G from B-inverse, IUseBI=4.
 GSVD:  received Info=                   1 from GESDD.
 Internal  Forces:  Max     0.058008008 RMS     0.008616224
 Search for a local minimum.
 Step number   1 out of a maximum of  136
 All quantities printed in internal units (Hartrees-Bohrs-Radians)
 Mixed Optimization -- RFO/linear search
 Second derivative matrix not updated -- first step.
 ITU=  0
     Eigenvalues ---    0.00230   0.00230   0.00230   0.00766   0.01523
     Eigenvalues ---    0.01650   0.01709   0.02079   0.02091   0.02104
     Eigenvalues ---    0.02111   0.02116   0.02117   0.02118   0.02119
     Eigenvalues ---    0.02122   0.02124   0.02126   0.02128   0.02132
     Eigenvalues ---    0.02148   0.02165   0.03984   0.04701   0.05453
     Eigenvalues ---    0.15990   0.15994   0.15995   0.15996   0.16000
     Eigenvalues ---    0.16000   0.16000   0.16000   0.16000   0.16000
     Eigenvalues ---    0.16000   0.21985   0.21994   0.22000   0.22975
     Eigenvalues ---    0.23476   0.23987   0.24980   0.24994   0.25000
     Eigenvalues ---    0.28340   0.28403   0.34254   0.34325   0.34394
     Eigenvalues ---    0.34399   0.34413   0.34464   0.34556   0.35740
     Eigenvalues ---    0.37230   0.37309   0.41551   0.41750   0.42025
     Eigenvalues ---    0.42154   0.45390   0.45833   0.45928   0.45974
     Eigenvalues ---    0.45996   0.46091   0.46204   0.46785   0.47688
     Eigenvalues ---    0.47688   1.05241
 RFO step:  Lambda=-2.75206726D-02 EMin= 2.30000000D-03
 Linear search not attempted -- first point.
 Iteration  1 RMS(Cart)=  0.09022220 RMS(Int)=  0.00106340
 Iteration  2 RMS(Cart)=  0.00244264 RMS(Int)=  0.00006475
 Iteration  3 RMS(Cart)=  0.00000568 RMS(Int)=  0.00006473
 Iteration  4 RMS(Cart)=  0.00000000 RMS(Int)=  0.00006473
 Variable       Old X    -DE/DX   Delta X   Delta X   Delta X     New X
                                 (Linear)    (Quad)   (Total)
    R1        2.65214   0.00134   0.00000   0.00303   0.00300   2.65514
    R2        2.06903  -0.00644   0.00000  -0.01741  -0.01741   2.05162
    R3        2.64067  -0.00052   0.00000  -0.00129  -0.00129   2.63938
    R4        2.62850   0.00605   0.00000   0.01256   0.01253   2.64103
    R5        2.91400  -0.05801   0.00000  -0.18657  -0.18657   2.72744
    R6        2.64421  -0.00181   0.00000  -0.00351  -0.00351   2.64071
    R7        2.06401  -0.00403   0.00000  -0.01080  -0.01080   2.05322
    R8        2.64263   0.00358   0.00000   0.00713   0.00715   2.64979
    R9        2.06671  -0.00440   0.00000  -0.01186  -0.01186   2.05485
   R10        2.64223  -0.00084   0.00000  -0.00217  -0.00214   2.64009
   R11        2.77790  -0.01254   0.00000  -0.03257  -0.03257   2.74533
   R12        2.26611   0.03093   0.00000   0.02864   0.02864   2.29475
   R13        2.91266  -0.05791   0.00000  -0.18587  -0.18587   2.72680
   R14        2.64178   0.00369   0.00000   0.00778   0.00777   2.64955
   R15        2.63832   0.00481   0.00000   0.01005   0.01005   2.64837
   R16        2.64183  -0.00142   0.00000  -0.00295  -0.00295   2.63888
   R17        2.06554  -0.00488   0.00000  -0.01312  -0.01312   2.05242
   R18        2.64238  -0.00146   0.00000  -0.00296  -0.00296   2.63942
   R19        2.06786  -0.00563   0.00000  -0.01519  -0.01519   2.05266
   R20        2.64009   0.00215   0.00000   0.00416   0.00417   2.64426
   R21        2.06662  -0.00457   0.00000  -0.01231  -0.01231   2.05431
   R22        2.63983   0.00211   0.00000   0.00411   0.00412   2.64395
   R23        2.06639  -0.00453   0.00000  -0.01218  -0.01218   2.05421
   R24        2.02083   0.01273   0.00000   0.03179   0.03179   2.05262
   R25        2.02201   0.01129   0.00000   0.02825   0.02825   2.05025
   R26        1.88973   0.01537   0.00000   0.03046   0.03046   1.92019
   R27        1.88973   0.01543   0.00000   0.03060   0.03060   1.92032
    A1        2.09796  -0.00155   0.00000  -0.00737  -0.00737   2.09059
    A2        2.09099   0.00117   0.00000   0.00474   0.00461   2.09560
    A3        2.09389   0.00040   0.00000   0.00307   0.00306   2.09695
    A4        2.09733  -0.00146   0.00000  -0.00408  -0.00421   2.09312
    A5        2.03358   0.01079   0.00000   0.03836   0.03841   2.07199
    A6        2.15206  -0.00932   0.00000  -0.03410  -0.03406   2.11800
    A7        2.09293  -0.00164   0.00000  -0.00522  -0.00539   2.08755
    A8        2.09462   0.00018   0.00000  -0.00056  -0.00059   2.09404
    A9        2.09507   0.00150   0.00000   0.00647   0.00645   2.10152
   A10        2.09517   0.00293   0.00000   0.01175   0.01171   2.10688
   A11        2.09387  -0.00126   0.00000  -0.00478  -0.00476   2.08911
   A12        2.09414  -0.00167   0.00000  -0.00697  -0.00695   2.08719
   A13        2.09442  -0.00244   0.00000  -0.01006  -0.01007   2.08435
   A14        2.09438   0.00975   0.00000   0.03578   0.03578   2.13016
   A15        2.09438  -0.00731   0.00000  -0.02572  -0.02571   2.06867
   A16        2.09307   0.00012   0.00000   0.00019   0.00015   2.09322
   A17        2.09164  -0.00015   0.00000  -0.00078  -0.00082   2.09083
   A18        2.09779   0.00005   0.00000   0.00121   0.00114   2.09893
   A19        2.09144  -0.00080   0.00000  -0.00277  -0.00282   2.08863
   A20        2.09611  -0.00066   0.00000  -0.00415  -0.00416   2.09194
   A21        2.09540   0.00147   0.00000   0.00718   0.00717   2.10257
   A22        2.09320  -0.00117   0.00000  -0.00408  -0.00412   2.08908
   A23        2.09628  -0.00056   0.00000  -0.00399  -0.00401   2.09228
   A24        2.09347   0.00175   0.00000   0.00831   0.00830   2.10178
   A25        2.09342   0.00143   0.00000   0.00531   0.00530   2.09872
   A26        2.09403  -0.00116   0.00000  -0.00501  -0.00500   2.08903
   A27        2.09573  -0.00028   0.00000  -0.00030  -0.00030   2.09544
   A28        2.09222   0.00159   0.00000   0.00614   0.00613   2.09835
   A29        2.09489  -0.00129   0.00000  -0.00574  -0.00574   2.08915
   A30        2.09607  -0.00029   0.00000  -0.00039  -0.00039   2.09568
   A31        2.09766  -0.00107   0.00000  -0.00514  -0.00515   2.09252
   A32        2.09278   0.00051   0.00000   0.00246   0.00246   2.09525
   A33        2.09274   0.00056   0.00000   0.00268   0.00268   2.09542
   A34        2.09366   0.00153   0.00000   0.00479   0.00476   2.09842
   A35        2.09425   0.00175   0.00000   0.01100   0.01102   2.10527
   A36        2.09527  -0.00328   0.00000  -0.01579  -0.01578   2.07949
   A37        1.91063   0.00317   0.00000   0.01617   0.01612   1.92675
   A38        1.91063   0.00329   0.00000   0.01679   0.01674   1.92738
   A39        1.91063  -0.00355   0.00000  -0.02042  -0.02052   1.89011
   A40        3.17054  -0.00313   0.00000  -0.04237  -0.04242   3.12812
   A41        3.14159   0.00129   0.00000   0.04487   0.04483   3.18642
   A42        3.13228   0.00087   0.00000   0.01262   0.01239   3.14466
   A43        3.14159  -0.00004   0.00000   0.00178   0.00200   3.14359
    D1        3.10566   0.00063   0.00000   0.01463   0.01467   3.12033
    D2       -0.01472   0.00041   0.00000   0.00552   0.00547  -0.00924
    D3       -0.06456   0.00150   0.00000   0.03251   0.03250  -0.03206
    D4        3.09824   0.00128   0.00000   0.02339   0.02330   3.12154
    D5        0.02934  -0.00062   0.00000  -0.01425  -0.01430   0.01503
    D6       -3.11226  -0.00070   0.00000  -0.01533  -0.01540  -3.12766
    D7       -3.14082   0.00022   0.00000   0.00341   0.00342  -3.13740
    D8        0.00077   0.00014   0.00000   0.00233   0.00232   0.00309
    D9        0.06660  -0.00171   0.00000  -0.03526  -0.03510   0.03151
   D10       -3.11087  -0.00063   0.00000  -0.01296  -0.01285  -3.12372
   D11       -3.09770  -0.00121   0.00000  -0.02456  -0.02472  -3.12242
   D12        0.00801  -0.00012   0.00000  -0.00226  -0.00247   0.00554
   D13       -0.42138   0.00104   0.00000   0.02461   0.02462  -0.39676
   D14        2.76189   0.00005   0.00000   0.00209   0.00235   2.76423
   D15        2.74721   0.00007   0.00000   0.00208   0.00183   2.74905
   D16       -0.35271  -0.00092   0.00000  -0.02044  -0.02044  -0.37314
   D17       -0.03360   0.00092   0.00000   0.01938   0.01938  -0.01422
   D18        3.10669   0.00097   0.00000   0.02030   0.02029   3.12697
   D19       -3.13930  -0.00013   0.00000  -0.00278  -0.00282   3.14106
   D20        0.00098  -0.00008   0.00000  -0.00186  -0.00191  -0.00093
   D21       -0.00147  -0.00007   0.00000  -0.00126  -0.00129  -0.00275
   D22        3.14013  -0.00011   0.00000  -0.00250  -0.00255   3.13758
   D23        3.14144  -0.00012   0.00000  -0.00217  -0.00220   3.13924
   D24       -0.00016  -0.00016   0.00000  -0.00342  -0.00346  -0.00362
   D25        0.00343  -0.00002   0.00000  -0.00108  -0.00111   0.00233
   D26       -3.13816   0.00005   0.00000   0.00000  -0.00003  -3.13819
   D27       -3.13816   0.00001   0.00000   0.00016   0.00011  -3.13805
   D28        0.00343   0.00009   0.00000   0.00125   0.00119   0.00463
   D29       -1.00614   0.00037   0.00000   0.00741   0.00737  -0.99876
   D30        1.08826  -0.00003   0.00000   0.00259   0.00263   1.09089
   D31        2.13545   0.00033   0.00000   0.00617   0.00612   2.14158
   D32       -2.05334  -0.00006   0.00000   0.00135   0.00138  -2.05195
   D33       -3.13968   0.00017   0.00000   0.00174   0.00166  -3.13803
   D34        0.02538  -0.00045   0.00000  -0.01090  -0.01094   0.01444
   D35       -0.03799   0.00089   0.00000   0.01956   0.01961  -0.01838
   D36        3.12707   0.00027   0.00000   0.00692   0.00701   3.13409
   D37        3.14019  -0.00018   0.00000  -0.00209  -0.00200   3.13818
   D38       -0.02477   0.00040   0.00000   0.00975   0.00979  -0.01497
   D39        0.03847  -0.00091   0.00000  -0.01992  -0.01996   0.01851
   D40       -3.12649  -0.00033   0.00000  -0.00808  -0.00816  -3.13465
   D41        0.02003  -0.00047   0.00000  -0.01015  -0.01016   0.00986
   D42       -3.12378  -0.00046   0.00000  -0.00998  -0.01000  -3.13378
   D43        3.13816   0.00012   0.00000   0.00233   0.00236   3.14052
   D44       -0.00565   0.00012   0.00000   0.00250   0.00252  -0.00313
   D45       -0.02094   0.00050   0.00000   0.01081   0.01082  -0.01012
   D46        3.12361   0.00045   0.00000   0.00969   0.00970   3.13332
   D47       -3.13921  -0.00005   0.00000  -0.00085  -0.00087  -3.14008
   D48        0.00535  -0.00010   0.00000  -0.00197  -0.00199   0.00335
   D49       -0.00265   0.00007   0.00000   0.00111   0.00110  -0.00155
   D50        3.13963   0.00006   0.00000   0.00129   0.00128   3.14091
   D51        3.14116   0.00007   0.00000   0.00095   0.00095  -3.14108
   D52        0.00025   0.00006   0.00000   0.00113   0.00112   0.00138
   D53        0.00308  -0.00008   0.00000  -0.00141  -0.00141   0.00167
   D54       -3.13920  -0.00007   0.00000  -0.00159  -0.00159  -3.14079
   D55       -3.14147  -0.00003   0.00000  -0.00029  -0.00030   3.14141
   D56       -0.00057  -0.00003   0.00000  -0.00047  -0.00047  -0.00104
         Item               Value     Threshold  Converged?
 Maximum Force            0.058008     0.000450     NO 
 RMS     Force            0.008616     0.000300     NO 
 Maximum Displacement     0.343799     0.001800     NO 
 RMS     Displacement     0.091466     0.001200     NO 
 Predicted change in Energy=-1.507001D-02
 GradGradGradGradGradGradGradGradGradGradGradGradGradGradGradGradGradGrad

                          Input orientation:                          
 ---------------------------------------------------------------------
 Center     Atomic      Atomic             Coordinates (Angstroms)
 Number     Number       Type             X           Y           Z
 ---------------------------------------------------------------------
      1          6           0       -1.803368   -1.102084    0.762013
      2          6           0       -1.147796   -0.634411   -0.389354
      3          6           0       -1.893765   -0.189382   -1.484199
      4          6           0       -3.289151   -0.177871   -1.410071
      5          6           0       -3.948758   -0.623782   -0.255833
      6          1           0       -1.221743   -1.465760    1.603520
      7          1           0       -1.387821    0.156829   -2.381236
      8          1           0       -3.870612    0.180929   -2.255977
      9          6           0        0.295237   -0.640201   -0.416319
     10          6           0        1.509521   -0.648556   -0.422736
     11          6           0        2.951298   -0.661042   -0.365709
     12          6           0        3.602429   -0.654249    0.875992
     13          6           0        3.695301   -0.653363   -1.553346
     14          6           0        4.997992   -0.662074    0.924732
     15          1           0        3.019375   -0.653196    1.792311
     16          6           0        5.090808   -0.661342   -1.495660
     17          1           0        3.184414   -0.652154   -2.511923
     18          6           0        5.744618   -0.664700   -0.258706
     19          1           0        5.503188   -0.664190    1.887305
     20          1           0        5.667923   -0.663201   -2.416853
     21          1           0        6.830005   -0.670152   -0.217028
     22          6           0       -3.198428   -1.086716    0.827916
     23          1           0       -3.713532   -1.433663    1.717526
     24          7           0       -5.397330   -0.619911   -0.145622
     25          1           0       -5.761261    0.317092   -0.294227
     26          1           0       -5.807713   -1.235695   -0.842071
 ---------------------------------------------------------------------
                    Distance matrix (angstroms):
                    1          2          3          4          5
     1  C    0.000000
     2  C    1.405041   0.000000
     3  C    2.426245   1.397571   0.000000
     4  C    2.789206   2.415717   1.397401   0.000000
     5  C    2.422289   2.804163   2.433225   1.402206   0.000000
     6  H    1.085672   2.160592   3.408044   3.874863   3.406279
     7  H    3.411386   2.156679   1.086515   2.161074   3.418346
     8  H    3.876581   3.400410   2.154228   1.087378   2.157369
     9  C    2.450704   1.443298   2.476961   3.748217   4.247061
    10  C    3.547471   2.657565   3.594426   4.921751   5.460887
    11  C    4.906437   4.099249   4.994809   6.345656   6.901031
    12  C    5.425513   4.915906   5.999563   7.276462   7.635600
    13  C    5.983110   4.981047   5.608718   7.002085   7.753454
    14  C    6.817520   6.284767   7.315921   8.623369   9.024385
    15  H    4.951956   4.703757   5.923646   7.090746   7.262963
    16  C    7.267806   6.335994   7.000509   8.394330   9.124272
    17  H    5.983233   4.824279   5.201757   6.583774   7.481504
    18  C    7.629238   6.893720   7.750655   9.119848   9.693463
    19  H    7.405660   7.029912   8.142935   9.402894   9.691953
    20  H    8.131298   7.110951   7.633707   9.026535   9.856578
    21  H    8.699439   7.979743   8.828422  10.201128  10.778933
    22  C    1.396700   2.427224   2.802362   2.417192   1.397074
    23  H    2.161406   3.414784   3.887266   3.396907   2.146016
    24  N    3.738028   4.256542   3.775197   2.497728   1.452763
    25  H    4.335276   4.711524   4.077999   2.757068   2.042519
    26  H    4.315752   4.720309   4.101962   2.790120   2.042994
                    6          7          8          9         10
     6  H    0.000000
     7  H    4.305654   0.000000
     8  H    4.962239   2.486066   0.000000
     9  C    2.657542   2.707183   4.627408   0.000000
    10  C    3.497619   3.588726   5.744097   1.214329   0.000000
    11  C    4.683983   4.853783   7.128849   2.656624   1.442958
    12  C    4.945754   6.014148   8.145741   3.550744   2.463126
    13  C    5.899416   5.213439   7.644134   3.585169   2.460881
    14  C    6.308071   7.237308   9.459371   4.890275   3.739690
    15  H    4.322381   6.123562   8.034695   3.507013   2.680693
    16  C    7.078157   6.589862   9.032970   4.915579   3.738575
    17  H    6.083835   4.645091   7.108652   3.569180   2.677683
    18  C    7.255327   7.486770   9.856817   5.451715   4.238304
    19  H    6.778476   8.147424  10.283440   5.694735   4.613665
    20  H    8.017169   7.103327   9.577166   5.733099   4.611836
    21  H    8.293253   8.538171  10.926338   6.537875   5.324503
    22  C    2.156970   3.888876   3.401346   3.735397   4.890899
    23  H    2.494603   4.973776   4.291889   4.610110   5.698895
    24  N    4.605485   4.655905   2.725034   5.699036   6.912467
    25  H    5.233281   4.848532   2.727922   6.132902   7.335752
    26  H    5.202400   4.882990   2.785375   6.146697   7.352720
                   11         12         13         14         15
    11  C    0.000000
    12  C    1.402084   0.000000
    13  C    1.401457   2.431112   0.000000
    14  C    2.419544   1.396435   2.799633   0.000000
    15  H    2.159108   1.086091   3.413253   2.160485   0.000000
    16  C    2.419565   2.800010   1.396721   2.422172   3.886085
    17  H    2.158855   3.413606   1.086222   3.885841   4.307398
    18  C    2.795372   2.424175   2.424030   1.399280   3.410830
    19  H    3.404149   2.153076   3.886728   1.087095   2.485653
    20  H    3.404005   3.887052   2.153365   3.408079   4.973125
    21  H    3.881567   3.407667   3.407697   2.158693   4.307974
    22  C    6.278938   6.814763   7.306278   8.207983   6.307065
    23  H    7.025437   7.405333   8.136233   8.781487   6.778404
    24  N    8.351629   9.057623   9.201019  10.450366   8.636991
    25  H    8.767584   9.486390   9.589251  10.872265   9.077151
    26  H    8.790757   9.583350   9.547371  10.964209   9.230209
                   16         17         18         19         20
    16  C    0.000000
    17  H    2.160372   0.000000
    18  C    1.399119   3.410541   0.000000
    19  H    3.408009   4.972933   2.159550   0.000000
    20  H    1.087043   2.485353   2.159509   4.307310   0.000000
    21  H    2.158654   4.307807   1.086201   2.487710   2.487913
    22  C    8.619245   7.216928   9.018698   8.776044   9.450930
    23  H    9.404119   8.129002   9.692957   9.250343  10.280974
    24  N   10.574751   8.902065  11.142612  11.088555  11.296026
    25  H   10.962124   9.267293  11.547746  11.515633  11.665881
    26  H   10.933198   9.164457  11.581136  11.649575  11.597324
                   21         22         23         24         25
    21  H    0.000000
    22  C   10.091328   0.000000
    23  H   10.746704   1.084948   0.000000
    24  N   12.227647   2.449664   2.639828   0.000000
    25  H   12.630146   3.130175   3.362363   1.016121   0.000000
    26  H   12.665798   3.101519   3.313053   1.016192   1.647252
                   26
    26  H    0.000000
 Stoichiometry    C14H11N
 Framework group  C1[X(C14H11N)]
 Deg. of freedom    72
 Full point group                 C1      NOp   1
 Largest Abelian subgroup         C1      NOp   1
 Largest concise Abelian subgroup C1      NOp   1
                         Standard orientation:                         
 ---------------------------------------------------------------------
 Center     Atomic      Atomic             Coordinates (Angstroms)
 Number     Number       Type             X           Y           Z
 ---------------------------------------------------------------------
      1          6           0       -2.197967   -1.150138   -0.259473
      2          6           0       -1.542743    0.068347   -0.014289
      3          6           0       -2.289019    1.228292    0.211107
      4          6           0       -3.684593    1.158923    0.228225
      5          6           0       -4.343980   -0.058258    0.004930
      6          1           0       -1.615984   -2.045782   -0.453897
      7          1           0       -1.783245    2.174188    0.384275
      8          1           0       -4.266376    2.057963    0.417030
      9          6           0       -0.099648    0.092445   -0.016583
     10          6           0        1.114673    0.096084   -0.018854
     11          6           0        2.556381    0.036442   -0.011836
     12          6           0        3.204995   -1.182112    0.233652
     13          6           0        3.302688    1.203407   -0.224669
     14          6           0        4.600480   -1.232694    0.243406
     15          1           0        2.620124   -2.081154    0.404661
     16          6           0        4.698101    1.144013   -0.213374
     17          1           0        2.793709    2.145345   -0.407894
     18          6           0        5.349460   -0.071804    0.021264
     19          1           0        5.103766   -2.178722    0.426463
     20          1           0        5.277047    2.047693   -0.386132
     21          1           0        6.434776   -0.114726    0.030186
     22          6           0       -3.593219   -1.210701   -0.240122
     23          1           0       -4.108136   -2.149437   -0.415472
     24          7           0       -5.792767   -0.164456    0.021061
     25          1           0       -6.161654    0.159116    0.910850
     26          1           0       -6.198303    0.403233   -0.717800
 ---------------------------------------------------------------------
 Rotational constants (GHZ):      2.7986281      0.1936051      0.1821131
 Standard basis: 6-31+G(d) (6D, 7F)
 There are   307 symmetry adapted cartesian basis functions of A   symmetry.
 There are   307 symmetry adapted basis functions of A   symmetry.
   307 basis functions,   524 primitive gaussians,   307 cartesian basis functions
    51 alpha electrons       51 beta electrons
       nuclear repulsion energy       783.9581617270 Hartrees.
 NAtoms=   26 NActive=   26 NUniq=   26 SFac= 1.00D+00 NAtFMM=   60 NAOKFM=F Big=F
 Integral buffers will be    131072 words long.
 Raffenetti 2 integral format.
 Two-electron integral symmetry is turned on.
 Nuclear repulsion after empirical dispersion term =      783.9415855211 Hartrees.
 One-electron integrals computed using PRISM.
 NBasis=   307 RedAO= T EigKep=  1.39D-06  NBF=   307
 NBsUse=   304 1.00D-06 EigRej=  7.07D-07 NBFU=   304
 Initial guess from the checkpoint file:  "D:\machine learning\molecule_13.chk"
 B after Tr=     0.000000    0.000000    0.000000
         Rot=    0.999999   -0.000853    0.000399    0.001070 Ang=  -0.16 deg.
 ExpMin= 4.38D-02 ExpMax= 4.17D+03 ExpMxC= 6.27D+02 IAcc=2 IRadAn=         4 AccDes= 0.00D+00
 Harris functional with IExCor=  402 and IRadAn=       4 diagonalized for initial guess.
 HarFok:  IExCor=  402 AccDes= 0.00D+00 IRadAn=         4 IDoV= 1 UseB2=F ITyADJ=14
 ICtDFT=  3500011 ScaDFX=  1.000000  1.000000  1.000000  1.000000
 FoFCou: FMM=F IPFlag=           0 FMFlag=      100000 FMFlg1=           0
         NFxFlg=           0 DoJE=T BraDBF=F KetDBF=T FulRan=T
         wScrn=  0.000000 ICntrl=     500 IOpCl=  0 I1Cent=   200000004 NGrid=           0
         NMat0=    1 NMatS0=      1 NMatT0=    0 NMatD0=    1 NMtDS0=    0 NMtDT0=    0
 Petite list used in FoFCou.
 Requested convergence on RMS density matrix=1.00D-08 within 128 cycles.
 Requested convergence on MAX density matrix=1.00D-06.
 Requested convergence on             energy=1.00D-06.
 No special actions if energy rises.
 SCF Done:  E(RB3LYP) =  -594.846841095     A.U. after   15 cycles
            NFock= 15  Conv=0.60D-08     -V/T= 2.0100
 Calling FoFJK, ICntrl=      2127 FMM=F ISym2X=0 I1Cent= 0 IOpClX= 0 NMat=1 NMatS=1 NMatT=0.
 ***** Axes restored to original set *****
 -------------------------------------------------------------------
 Center     Atomic                   Forces (Hartrees/Bohr)
 Number     Number              X              Y              Z
 -------------------------------------------------------------------
      1        6          -0.007436690    0.001126051    0.001963337
      2        6           0.021756697   -0.004849391    0.004995790
      3        6          -0.008392168    0.003499152   -0.003787302
      4        6           0.004207582   -0.000349599   -0.000667682
      5        6          -0.008658983    0.001256475   -0.001620020
      6        1           0.000562055    0.000415560   -0.000234852
      7        1           0.000122968    0.000017110    0.000598559
      8        1          -0.000556407   -0.000221640   -0.000122088
      9        6          -0.013960107    0.000600026   -0.002399611
     10        6           0.013308716   -0.000654582    0.002779827
     11        6          -0.021321872    0.002665123   -0.002384185
     12        6           0.006919235   -0.001680597    0.003267592
     13        6           0.008044820   -0.001250998   -0.002861525
     14        6          -0.001091362    0.000349971    0.000352106
     15        1          -0.000393441    0.000156669   -0.000556962
     16        6          -0.001058888    0.000425819   -0.000449993
     17        1          -0.000404880    0.000076214    0.000603789
     18        6          -0.000139524   -0.000224408   -0.000064066
     19        1           0.000019582    0.000104016   -0.000050454
     20        1           0.000070332    0.000082032    0.000034502
     21        1           0.000493994   -0.000031847    0.000019798
     22        6           0.004464137   -0.001034416    0.000042576
     23        1          -0.001085312   -0.000100164    0.000049516
     24        7           0.008494321   -0.001318113    0.003472193
     25        1          -0.001955946    0.000686403   -0.001610988
     26        1          -0.002008858    0.000255134   -0.001369859
 -------------------------------------------------------------------
 Cartesian Forces:  Max     0.021756697 RMS     0.004926218

 GradGradGradGradGradGradGradGradGradGradGradGradGradGradGradGradGradGrad
 Berny optimization.
 Using GEDIIS/GDIIS optimizer.
 FormGI is forming the generalized inverse of G from B-inverse, IUseBI=4.
 GSVD:  received Info=                   1 from GESDD.
 Internal  Forces:  Max     0.009482052 RMS     0.002030840
 Search for a local minimum.
 Step number   2 out of a maximum of  136
 All quantities printed in internal units (Hartrees-Bohrs-Radians)
 Mixed Optimization -- RFO/linear search
 Update second derivatives using D2CorX and points    1    2
 DE= -1.68D-02 DEPred=-1.51D-02 R= 1.12D+00
 TightC=F SS=  1.41D+00  RLast= 3.09D-01 DXNew= 5.0454D-01 9.2555D-01
 Trust test= 1.12D+00 RLast= 3.09D-01 DXMaxT set to 5.05D-01
 ITU=  1  0
 Use linear search instead of GDIIS.
     Eigenvalues ---    0.00230   0.00230   0.00233   0.00766   0.01504
     Eigenvalues ---    0.01651   0.01704   0.02078   0.02091   0.02104
     Eigenvalues ---    0.02112   0.02116   0.02117   0.02118   0.02119
     Eigenvalues ---    0.02122   0.02124   0.02126   0.02128   0.02132
     Eigenvalues ---    0.02148   0.02164   0.03936   0.04746   0.05282
     Eigenvalues ---    0.15781   0.15999   0.15999   0.15999   0.15999
     Eigenvalues ---    0.16000   0.16000   0.16000   0.16000   0.16000
     Eigenvalues ---    0.16004   0.21609   0.21999   0.22009   0.22101
     Eigenvalues ---    0.23023   0.23754   0.24825   0.24997   0.25034
     Eigenvalues ---    0.27863   0.28398   0.34272   0.34328   0.34396
     Eigenvalues ---    0.34407   0.34447   0.34496   0.34556   0.35600
     Eigenvalues ---    0.37249   0.37395   0.41560   0.41762   0.42148
     Eigenvalues ---    0.42444   0.45395   0.45785   0.45918   0.45964
     Eigenvalues ---    0.46030   0.46086   0.46158   0.46684   0.47688
     Eigenvalues ---    0.48217   1.04722
 RFO step:  Lambda=-4.04613914D-03 EMin= 2.29967011D-03
 Quartic linear search produced a step of  0.15983.
 Maximum step size (   0.505) exceeded in Quadratic search.
    -- Step size scaled by   0.756
 Iteration  1 RMS(Cart)=  0.19738233 RMS(Int)=  0.02878341
 Iteration  2 RMS(Cart)=  0.19359178 RMS(Int)=  0.01171716
 Iteration  3 RMS(Cart)=  0.10856940 RMS(Int)=  0.00191763
 Iteration  4 RMS(Cart)=  0.00500394 RMS(Int)=  0.00070222
 Iteration  5 RMS(Cart)=  0.00000083 RMS(Int)=  0.00070222
 Variable       Old X    -DE/DX   Delta X   Delta X   Delta X     New X
                                 (Linear)    (Quad)   (Total)
    R1        2.65514   0.00327   0.00048   0.00661   0.00711   2.66225
    R2        2.05162  -0.00002  -0.00278   0.00032  -0.00246   2.04916
    R3        2.63938  -0.00114  -0.00021  -0.00219  -0.00240   2.63698
    R4        2.64103   0.00793   0.00200   0.01486   0.01687   2.65790
    R5        2.72744  -0.00948  -0.02982  -0.02388  -0.05373   2.67371
    R6        2.64071  -0.00186  -0.00056  -0.00344  -0.00401   2.63670
    R7        2.05322  -0.00043  -0.00173  -0.00086  -0.00259   2.05063
    R8        2.64979   0.00043   0.00114   0.00042   0.00154   2.65133
    R9        2.05485   0.00032  -0.00190   0.00105  -0.00084   2.05401
   R10        2.64009   0.00196  -0.00034   0.00338   0.00303   2.64312
   R11        2.74533  -0.00448  -0.00521  -0.01025  -0.01546   2.72987
   R12        2.29475   0.00444   0.00458   0.00369   0.00824   2.30298
   R13        2.72680  -0.00894  -0.02971  -0.02220  -0.05185   2.67495
   R14        2.64955   0.00537   0.00124   0.01047   0.01171   2.66127
   R15        2.64837   0.00598   0.00161   0.01152   0.01312   2.66149
   R16        2.63888  -0.00084  -0.00047  -0.00156  -0.00203   2.63685
   R17        2.05242  -0.00026  -0.00210  -0.00038  -0.00248   2.04994
   R18        2.63942  -0.00088  -0.00047  -0.00162  -0.00209   2.63733
   R19        2.05266  -0.00034  -0.00243  -0.00055  -0.00298   2.04968
   R20        2.64426   0.00005   0.00067  -0.00036   0.00030   2.64456
   R21        2.05431  -0.00004  -0.00197   0.00017  -0.00180   2.05251
   R22        2.64395  -0.00006   0.00066  -0.00054   0.00012   2.64407
   R23        2.05421   0.00001  -0.00195   0.00028  -0.00167   2.05254
   R24        2.05262   0.00049   0.00508   0.00056   0.00564   2.05826
   R25        2.05025   0.00059   0.00451   0.00085   0.00536   2.05562
[...]
    22  C    6.301936   6.902277   7.315582   8.293985   6.425865
    23  H    7.075505   7.518533   8.181148   8.901651   6.915084
    24  N    8.320629   9.113628   9.125529  10.495040   8.750043
    25  H    8.765934   9.663585   9.453040  11.028206   9.385017
    26  H    8.762815   9.521589   9.580030  10.895783   9.134174
                   16         17         18         19         20
    16  C    0.000000
    17  H    2.155963   0.000000
    18  C    1.399337   3.407744   0.000000
    19  H    3.405749   4.968593   2.158303   0.000000
    20  H    1.086899   2.480911   2.158256   4.304549   0.000000
    21  H    2.160703   4.305790   1.087278   2.487994   2.488031
    22  C    8.639923   7.191635   9.077249   8.885350   9.453850
    23  H    9.466241   8.140878   9.792148   9.393954  10.329500
    24  N   10.505362   8.772525  11.132484  11.172049  11.189636
    25  H   10.844780   8.997072  11.570501  11.763790  11.456700
    26  H   10.946779   9.242865  11.551662  11.550424  11.636528
                   21         22         23         24         25
    21  H    0.000000
    22  C   10.155257   0.000000
    23  H   10.855075   1.086847   0.000000
    24  N   12.219168   2.433469   2.624750   0.000000
    25  H   12.655216   3.274463   3.587478   1.018254   0.000000
    26  H   12.632205   2.853527   2.886873   1.018781   1.645836
                   26
    26  H    0.000000
 Stoichiometry    C14H11N
 Framework group  C1[X(C14H11N)]
 Deg. of freedom    72
 Full point group                 C1      NOp   1
 Largest Abelian subgroup         C1      NOp   1
 Largest concise Abelian subgroup C1      NOp   1
                         Standard orientation:                         
 ---------------------------------------------------------------------
 Center     Atomic      Atomic             Coordinates (Angstroms)
 Number     Number       Type             X           Y           Z
 ---------------------------------------------------------------------
      1          6           0       -2.253785   -1.221089   -0.001495
      2          6           0       -1.525543   -0.013128    0.030346
      3          6           0       -2.243318    1.199769    0.042774
      4          6           0       -3.634126    1.203080    0.005901
      5          6           0       -4.353653   -0.003034   -0.014760
      6          1           0       -1.715953   -2.164432    0.006701
      7          1           0       -1.698496    2.139179    0.063906
      8          1           0       -4.173225    2.148077   -0.007127
      9          6           0       -0.103346   -0.019145    0.075466
     10          6           0        1.116737    0.002145    0.099742
     11          6           0        2.539099    0.004154    0.041157
     12          6           0        3.258052   -1.209674    0.035163
     13          6           0        3.256088    1.217623   -0.010621
     14          6           0        4.649888   -1.205733   -0.019426
     15          1           0        2.712770   -2.148262    0.071563
     16          6           0        4.647947    1.213908   -0.064684
     17          1           0        2.709753    2.156263   -0.005076
     18          6           0        5.351065    0.004056   -0.069868
     19          1           0        5.191874   -2.147880   -0.023990
     20          1           0        5.188825    2.155986   -0.100605
     21          1           0        6.437510    0.004023   -0.112410
     22          6           0       -3.644087   -1.212464   -0.008424
     23          1           0       -4.202025   -2.145021    0.008289
     24          7           0       -5.781166   -0.048588   -0.016154
     25          1           0       -6.183865    0.830894    0.301941
     26          1           0       -6.165114   -0.251519   -0.937738
 ---------------------------------------------------------------------
 Rotational constants (GHZ):      2.8057262      0.1942079      0.1818162
 Standard basis: 6-31+G(d) (6D, 7F)
 There are   307 symmetry adapted cartesian basis functions of A   symmetry.
 There are   307 symmetry adapted basis functions of A   symmetry.
   307 basis functions,   524 primitive gaussians,   307 cartesian basis functions
    51 alpha electrons       51 beta electrons
       nuclear repulsion energy       784.4723351345 Hartrees.
 NAtoms=   26 NActive=   26 NUniq=   26 SFac= 1.00D+00 NAtFMM=   60 NAOKFM=F Big=F
 Integral buffers will be    131072 words long.
 Raffenetti 2 integral format.
 Two-electron integral symmetry is turned on.
 Nuclear repulsion after empirical dispersion term =      784.4558119911 Hartrees.
 One-electron integrals computed using PRISM.
 NBasis=   307 RedAO= T EigKep=  1.48D-06  NBF=   307
 NBsUse=   304 1.00D-06 EigRej=  6.46D-07 NBFU=   304
 Lowest energy guess from the checkpoint file:  "D:\machine learning\molecule_13.chk"
 B after Tr=     0.000000    0.000000    0.000000
         Rot=    1.000000    0.000149   -0.000002    0.000098 Ang=   0.02 deg.
 B after Tr=     0.000000    0.000000    0.000000
         Rot=    0.999998   -0.000843    0.000019   -0.001521 Ang=  -0.20 deg.
 Operation on file out of range.
 FileIO: IOper= 1 IFilNo(1)=  -526 Len=       93328 IPos=           0 Q=       6774224248


 dumping /fiocom/, unit = 1 NFiles =    77 SizExt =    524288 WInBlk =       512
                   defal = T LstWrd =     8132096 FType=2 FMxFil=10000

 Number              0             0             0             0             0             0
 Base          1761966        958976        283648       1710080        962560       2137600
 End           1762304        962048        284672       1714688        963072       4219184
 End1          1762304        962048        284672       1714688        963072       4219184
 Wr Pntr       1761966        958464        283648       1712640        962560       2230928
 Rd Pntr       1761966        958464        283648       1712640        962560       2153257
 Length            338          3072          1024          4608           512       2081584

 Number              0             0           501           502           503           508
 Base          1524224       4315364         43520         72192        180224        284672
 End           1616896       8132096         44520         76757        180407        284702
 End1          1616896       8132096         44544         76800        180736        285184
 Wr Pntr       1539728       4315364         43520         72192        180224        284672
 Rd Pntr       1539728       4315364         43520         72192        180224        284672
 Length          92672       3816732          1000          4565           183            30

 Number            511           514           515           516           517           518
 Base           226816        616960        427520        285184        901120        758784
 End            234946        664238        616632        427018        909102        900618
 End1           235008        664576        616960        427520        909312        901120
 Wr Pntr        226816        616960        427520        285184        901120        758784
 Rd Pntr        226816        664238        427520        285184        901120        758784
 Length           8130         47278        189112        141834          7982        141834

 Number            520           521           522           523           524           526
 Base           283136        269824        182272        909312        664576       1616896
 End            283146        269859        182576        909922        757904       1709917
 End1           283648        270336        182784        910336        758272       1710080
 Wr Pntr        283136        269824        182575        909312        757904       1616896
 Rd Pntr        283136        269824        182272        909312        757904       1616896
 Length             10            35           304           610         93328         93021

 Number            528           530           532           534           536           538
 Base          1098752        910848       1146368       1287680       1335296       1382912
 End           1146030        958126       1193646       1334958       1382574       1430190
 End1          1146368        958464       1193984       1335296       1382912       1430528
 Wr Pntr       1098752        910848       1146368       1287680       1382574       1430190
 Rd Pntr       1098752        910848       1146368       1287680       1335296       1382912
 Length          47278         47278         47278         47278         47278         47278

 Number            551           552           559           561           562           563
 Base           267776        266752        274432        268288        260096        962048
 End            267814        266780        274434        268289        266430        962355
 End1           268288        267264        274944        268800        266752        962560
 Wr Pntr        267776        266752        274432        268288        260096        962048
 Rd Pntr        267814        266752        274432        268288        266430        962048
 Length             38            28             2             1          6334           307

 Number            565           571           575           577           579           580
 Base           276992       1714688        184320        276480        267264        272384
 End            277089       1761966        226697        276532        267290        272998
 End1           277504       1761966        226816        276992        267776        273408
 Wr Pntr        276992       1714688        184320        276480        267264        272384
 Rd Pntr        276992       1714688        184320        276532        267264        272384
 Length             97         47278         42377            52            26           614

 Number            581           582           583           584           598           603
 Base           273408        275456        274944        277504         76800        910336
 End            274094        276377        274971        277660         76802        910337
 End1           274432        276480        275456        278016         77312        910848
 Wr Pntr        273408        275456        274944        277504         76800        910336
 Rd Pntr        273408        275456        274944        277504         76800        910336
 Length            686           921            27           156             2             1

 Number            605           606           619           634           665           670
 Base          1762304        958464        278016       4219184        180736        270336
 End           1762305        958768        281813       4315364        181874        272331
 End1          1762816        958976        282112       4315364        182272        272384
 Wr Pntr       1762304        958768        278016       4219184        180736        270336
 Rd Pntr       1762304        958464        278016       4219184        180736        272331
 Length              1           304          3797         96180          1138          1995

 Number            672           674           685           695           698           701
 Base            41984        182784       1005056        282112        269312        235008
 End             42347        183050       1098384        282946        269468        259665
 End1            42496        183296       1098752        283136        269824        260096
 Wr Pntr         41984        182784       1005056        282112        269312        235008
 Rd Pntr         41984        182784       1098384        282112        269312        235008
 Length            363           266         93328           834           156         24657

 Number            729           742           761           783           989           991
 Base          1762816        758272        268800        963072         44544         65536
 End           2043414        758304        268801       1004983         64544         72098
 End1          2043904        758784        269312       1005056         65024         72192
 Wr Pntr       1762816        758272        268800        963072         44544         65536
 Rd Pntr       1762816        758272        268800        963072         44544         72098
 Length         280598            32             1         41911         20000          6562

 Number            992           993           994           995           996           997
 Base            65024         43008         40448         42496         41472        183296
 End             65033         43208         40478         42516         41672        183838
 End1            65536         43520         40960         43008         41984        184320
 Wr Pntr         65024         43008         40448         42496         41472        183296
 Rd Pntr         65033         43208         40478         42516         41672        183838
 Length              9           200            30            20           200           542

 Number            998           999          2551          2556          9999
 Base            40960         77312       1193984       2043904       1430528
 End             41160        179816       1287312       2137232       1523856
 End1            41472        180224       1287680       2137600       1524224
 Wr Pntr         40960         77312       1287312       2137232       1523856
 Rd Pntr         41160         79816       1287312       2137232       1523856
 Length            200        102504         93328         93328         93328


 dumping /fiocom/, unit = 2 NFiles =    52 SizExt =         0 WInBlk =       512
                   defal = F LstWrd =     1063424 FType=2 FMxFil=10000

 Number              0             0             0             0             0             0
 Base           137777        511750        136858        506119        775865       1061862
 End            138086        558450        137775        507347        965373       1063424
 End1           138086        558450        137775        507347        965373       1063424
 Wr Pntr        137777        511750        136858        506119        775865       1061862
 Rd Pntr        137777        511750        136858        506119        775865       1061862
 Length            309         46700           917          1228        189508          1562

 Number            501           502           503           508           511           520
 Base           232642        233642        559079         40448        240202        277589
 End            233642        238207        559262         40478        248332        277599
 End1           233642        238207        559262         40478        248332        277599
 Wr Pntr        232642        233642        559079         40448        240202        277589
 Rd Pntr        232642        233642        559079         40448        240202        277589
 Length           1000          4565           183            30          8130            10

 Number            521           522           524           526           528           530
 Base           320042        511144        320077        413098        584715        631993
 End            320077        511750        413098        506119        631993        679271
 End1           320077        511750        413098        506119        631993        679271
 Wr Pntr        320042        511144        320077        413098        584715        631993
 Rd Pntr        320042        511750        320077        413098        584715        631993
 Length             35           606         93021         93021         47278         47278

 Number            532           534           536           538           551           552
 Base           679271        726549        138086        185364        277627        277599
 End            726549        773827        185364        232642        277665        277627
 End1           726549        773827        185364        232642        277665        277627
 Wr Pntr        679271        726549        138086        185364        277627        277599
 Rd Pntr        679271        726549        185364        232642        277627        277599
 Length          47278         47278         47278         47278            38            28

 Number            561           562           563           565           575           577
 Base           271202        271203        773827        774134        277665        277537
 End            271203        277537        774134        774231        320042        277589
 End1           271203        277537        774134        774231        320042        277589
 Wr Pntr        271202        271203        773827        774134        277665        277537
 Rd Pntr        271202        271203        773827        774134        277665        277537
 Length              1          6334           307            97         42377            52

 Number            579           580           581           582           583           584
 Base           584075        584101        774231        774917        775838        249470
 End            584101        584715        774917        775838        775865        249626
 End1           584101        584715        774917        775838        775865        249626
 Wr Pntr        584075        584101        774231        774917        775838        249470
 Rd Pntr        584075        584101        774231        774917        775838        249470
 Length             26           614           686           921            27           156

 Number            603           605           619           634           665           670
 Base           137776        137775        507347         40678        248332        238207
 End            137777        137776        511144        136858        249470        240202
 End1           137777        137776        511144        136858        249470        240202
 Wr Pntr        137776        137775        507347         40678        248332        238207
 Rd Pntr        137776        137775        507347        136858        248332        240202
 Length              1             1          3797         96180          1138          1995

 Number            672           674           695           698           701           780
 Base           558450        558813        249626        559262        559418        965373
 End            558813        559079        250460        559418        584075       1061862
 End1           558813        559079        250460        559418        584075       1061862
 Wr Pntr        558450        558813        249626        559262        559418        965373
 Rd Pntr        558450        558813        249626        559262        559418       1061862
 Length            363           266           834           156         24657         96489

 Number            989           993           997           998
 Base           250460        270460        270660         40478
 End            270460        270660        271202         40678
 End1           270460        270660        271202         40678
 Wr Pntr        250460        270460        270660         40478
 Rd Pntr        250460        270460        270660         40678
 Length          20000           200           542           200


 dumping /fiocom/, unit = 3 NFiles =     1 SizExt =    524288 WInBlk =       512
                   defal = T LstWrd =       67072 FType=2 FMxFil=10000

 Number              0
 Base            40448
 End             67072
 End1            67072
 Wr Pntr         40448
 Rd Pntr         40448
 Length          26624
 Error termination in NtrErr:
 NtrErr Called from FileIO.
