 Entering Gaussian System, Link 0=C:\G09W\g09.exe
 Input=C:\Users\vivek\Downloads\14_09_23\molecule_36.gjf
 Output=C:\Users\vivek\Downloads\14_09_23\molecule_36.log
 Initial command:
 C:/G09W\l1.exe ".\Gau-7036.inp" "C:\Users\vivek\Downloads\14_09_23\molecule_36.log" /scrdir=".\"
 Entering Link 1 = C:/G09W\l1.exe PID=     12576.
  
 Copyright (c) 1988,1990,1992,1993,1995,1998,2003,2009,2013,
            Gaussian, Inc.  All Rights Reserved.
  
 This is part of the Gaussian(R) 09 program.  It is based on
 the Gaussian(R) 03 system (copyright 2003, Gaussian, Inc.),
 the Gaussian(R) 98 system (copyright 1998, Gaussian, Inc.),
 the Gaussian(R) 94 system (copyright 1995, Gaussian, Inc.),
 the Gaussian 92(TM) system (copyright 1992, Gaussian, Inc.),
 the Gaussian 90(TM) system (copyright 1990, Gaussian, Inc.),
 the Gaussian 88(TM) system (copyright 1988, Gaussian, Inc.),
 the Gaussian 86(TM) system (copyright 1986, Carnegie Mellon
 University), and the Gaussian 82(TM) system (copyright 1983,
 Carnegie Mellon University). Gaussian is a federally registered
 trademark of Gaussian, Inc.
  
 This software contains proprietary and confidential information,
 including trade secrets, belonging to Gaussian, Inc.
  
 This software is provided under written license and may be
 used, copied, transmitted, or stored only in accord with that
 written license.
  
 The following legend is applicable only to US Government
 contracts under FAR:
  
                    RESTRICTED RIGHTS LEGEND
  
 Use, reproduction and disclosure by the US Government is
 subject to restrictions as set forth in subparagraphs (a)
 and (c) of the Commercial Computer Software - Restricted
 Rights clause in FAR 52.227-19.
  
 Gaussian, Inc.
 340 Quinnipiac St., Bldg. 40, Wallingford CT 06492
  
  
 ---------------------------------------------------------------
 Warning -- This program may not be used in any manner that
 competes with the business of Gaussian, Inc. or will provide
 assistance to any competitor of Gaussian, Inc.  The licensee
 of this program is prohibited from giving any competitor of
 Gaussian, Inc. access to this program.  By using this program,
 the user acknowledges that Gaussian, Inc. is engaged in the
 business of creating and licensing software in the field of
 computational chemistry and represents and warrants to the
 licensee that it is not a competitor of Gaussian, Inc. and that
 it will not use this program in any manner prohibited above.
 ---------------------------------------------------------------
  

 Cite this work as:
 Gaussian 09, Revision D.01,
 M. J. Frisch, G. W. Trucks, H. B. Schlegel, G. E. Scuseria, 
 M. A. Robb, J. R. Cheeseman, G. Scalmani, V. Barone, B. Mennucci, 
 G. A. Petersson, H. Nakatsuji, M. Caricato, X. Li, H. P. Hratchian, 
 A. F. Izmaylov, J. Bloino, G. Zheng, J. L. Sonnenberg, M. Hada, 
 M. Ehara, K. Toyota, R. Fukuda, J. Hasegawa, M. Ishida, T. Nakajima, 
 Y. Honda, O. Kitao, H. Nakai, T. Vreven, J. A. Montgomery, Jr., 
 J. E. Peralta, F. Ogliaro, M. Bearpark, J. J. Heyd, E. Brothers, 
 K. N. Kudin, V. N. Staroverov, T. Keith, R. Kobayashi, J. Normand, 
 K. Raghavachari, A. Rendell, J. C. Burant, S. S. Iyengar, J. Tomasi, 
 M. Cossi, N. Rega, J. M. Millam, M. Klene, J. E. Knox, J. B. Cross, 
 V. Bakken, C. Adamo, J. Jaramillo, R. Gomperts, R. E. Stratmann, 
 O. Yazyev, A. J. Austin, R. Cammi, C. Pomelli, J. W. Ochterski, 
 R. L. Martin, K. Morokuma, V. G. Zakrzewski, G. A. Voth, 
 P. Salvador, J. J. Dannenberg, S. Dapprich, A. D. Daniels, 
 O. Farkas, J. B. Foresman, J. V. Ortiz, J. Cioslowski, 
 and D. J. Fox, Gaussian, Inc., Wallingford CT, 2013.
 
 ******************************************
 Gaussian 09:  EM64W-G09RevD.01 13-Apr-2013
                14-Sep-2023 
 ******************************************
 %nprocshared=6
 Will use up to    6 processors via shared memory.
 %mem=8GB
 %chk=C:\Users\vivek\Downloads\molecule_36.chk
 ---------------------------------------------------------------------
 # opt freq rb3lyp/6-31+g(d) geom=connectivity empiricaldispersion=gd3
 ---------------------------------------------------------------------
 1/14=-1,18=20,19=15,26=3,38=1,57=2/1,3;
 2/9=110,12=2,17=6,18=5,40=1/2;
 3/5=1,6=6,7=11,11=2,16=1,25=1,30=1,71=1,74=-5,116=1,124=31/1,2,3;
 4//1;
 5/5=2,38=5/2;
 6/7=2,8=2,9=2,10=2,28=1/1;
 7//1,2,3,16;
 1/14=-1,18=20,19=15,26=3/3(2);
 2/9=110/2;
 99//99;
 2/9=110/2;
 3/5=1,6=6,7=11,11=2,16=1,25=1,30=1,71=1,74=-5,116=1,124=31/1,2,3;
 4/5=5,16=3,69=1/1;
 5/5=2,38=5/2;
 7//1,2,3,16;
 1/14=-1,18=20,19=15,26=3/3(-5);
 2/9=110/2;
 6/7=2,8=2,9=2,10=2,19=2,28=1/1;
 99/9=1/99;
 -------------------
 Title Card Required
 -------------------
 Symbolic Z-matrix:
 Charge =  0 Multiplicity = 1
 C                    -2.0585   -0.27529  -0.03481 
 C                    -2.7837    0.92317   0.00643 
 C                    -0.65786  -0.24588  -0.07015 
 C                    -2.10826   2.15104   0.01234 
 C                    -0.70762   2.18045  -0.023 
 C                     0.01759   0.98199  -0.06424 
 H                    -0.1919    3.11796  -0.01849 
 H                     1.08701   1.00445  -0.09123 
 O                     0.08215  -1.46879  -0.11224 
 H                     0.92976  -1.345     0.32116 
 H                    -2.57422  -1.2128   -0.03932 
 H                    -3.85313   0.90071   0.03341 
 Cl                   -3.01903   3.65617   0.06413 
 

 GradGradGradGradGradGradGradGradGradGradGradGradGradGradGradGradGradGrad
 Berny optimization.
 Initialization pass.
                           ----------------------------
                           !    Initial Parameters    !
                           ! (Angstroms and Degrees)  !
 --------------------------                            --------------------------
 ! Name  Definition              Value          Derivative Info.                !
 --------------------------------------------------------------------------------
 ! R1    R(1,2)                  1.4014         estimate D2E/DX2                !
 ! R2    R(1,3)                  1.4014         estimate D2E/DX2                !
 ! R3    R(1,11)                 1.07           estimate D2E/DX2                !
 ! R4    R(2,4)                  1.4014         estimate D2E/DX2                !
 ! R5    R(2,12)                 1.07           estimate D2E/DX2                !
 ! R6    R(3,6)                  1.4014         estimate D2E/DX2                !
 ! R7    R(3,9)                  1.43           estimate D2E/DX2                !
 ! R8    R(4,5)                  1.4014         estimate D2E/DX2                !
 ! R9    R(4,13)                 1.76           estimate D2E/DX2                !
 ! R10   R(5,6)                  1.4014         estimate D2E/DX2                !
 ! R11   R(5,7)                  1.07           estimate D2E/DX2                !
 ! R12   R(6,8)                  1.07           estimate D2E/DX2                !
 ! R13   R(9,10)                 0.96           estimate D2E/DX2                !
 ! A1    A(2,1,3)              120.0            estimate D2E/DX2                !
 ! A2    A(2,1,11)             120.0            estimate D2E/DX2                !
 ! A3    A(3,1,11)             120.0            estimate D2E/DX2                !
 ! A4    A(1,2,4)              120.0            estimate D2E/DX2                !
 ! A5    A(1,2,12)             120.0            estimate D2E/DX2                !
 ! A6    A(4,2,12)             120.0            estimate D2E/DX2                !
 ! A7    A(1,3,6)              120.0            estimate D2E/DX2                !
 ! A8    A(1,3,9)              120.0            estimate D2E/DX2                !
 ! A9    A(6,3,9)              120.0            estimate D2E/DX2                !
 ! A10   A(2,4,5)              120.0            estimate D2E/DX2                !
 ! A11   A(2,4,13)             120.0            estimate D2E/DX2                !
 ! A12   A(5,4,13)             120.0            estimate D2E/DX2                !
 ! A13   A(4,5,6)              120.0            estimate D2E/DX2                !
 ! A14   A(4,5,7)              120.0            estimate D2E/DX2                !
 ! A15   A(6,5,7)              120.0            estimate D2E/DX2                !
 ! A16   A(3,6,5)              120.0            estimate D2E/DX2                !
 ! A17   A(3,6,8)              120.0            estimate D2E/DX2                !
 ! A18   A(5,6,8)              120.0            estimate D2E/DX2                !
 ! A19   A(3,9,10)             109.4712         estimate D2E/DX2                !
 ! D1    D(3,1,2,4)              0.0001         estimate D2E/DX2                !
 ! D2    D(3,1,2,12)           179.9999         estimate D2E/DX2                !
 ! D3    D(11,1,2,4)          -179.9999         estimate D2E/DX2                !
 ! D4    D(11,1,2,12)           -0.0001         estimate D2E/DX2                !
 ! D5    D(2,1,3,6)              0.0            estimate D2E/DX2                !
 ! D6    D(2,1,3,9)            180.0            estimate D2E/DX2                !
 ! D7    D(11,1,3,6)          -180.0            estimate D2E/DX2                !
 ! D8    D(11,1,3,9)             0.0            estimate D2E/DX2                !
 ! D9    D(1,2,4,5)             -0.0001         estimate D2E/DX2                !
 ! D10   D(1,2,4,13)           179.9999         estimate D2E/DX2                !
 ! D11   D(12,2,4,5)          -179.9999         estimate D2E/DX2                !
 ! D12   D(12,2,4,13)            0.0001         estimate D2E/DX2                !
 ! D13   D(1,3,6,5)             -0.0001         estimate D2E/DX2                !
 ! D14   D(1,3,6,8)           -179.9999         estimate D2E/DX2                !
 ! D15   D(9,3,6,5)            179.9999         estimate D2E/DX2                !
 ! D16   D(9,3,6,8)              0.0001         estimate D2E/DX2                !
 ! D17   D(1,3,9,10)          -150.0            estimate D2E/DX2                !
 ! D18   D(6,3,9,10)            30.0            estimate D2E/DX2                !
 ! D19   D(2,4,5,6)              0.0            estimate D2E/DX2                !
 ! D20   D(2,4,5,7)            180.0            estimate D2E/DX2                !
 ! D21   D(13,4,5,6)           180.0            estimate D2E/DX2                !
 ! D22   D(13,4,5,7)             0.0            estimate D2E/DX2                !
 ! D23   D(4,5,6,3)              0.0001         estimate D2E/DX2                !
 ! D24   D(4,5,6,8)            179.9999         estimate D2E/DX2                !
 ! D25   D(7,5,6,3)           -179.9999         estimate D2E/DX2                !
 ! D26   D(7,5,6,8)             -0.0001         estimate D2E/DX2                !
 --------------------------------------------------------------------------------
 Trust Radius=3.00D-01 FncErr=1.00D-07 GrdErr=1.00D-06
 Number of steps in this run=     68 maximum allowed number of steps=    100.
 GradGradGradGradGradGradGradGradGradGradGradGradGradGradGradGradGradGrad

                          Input orientation:                          
 ---------------------------------------------------------------------
 Center     Atomic      Atomic             Coordinates (Angstroms)
 Number     Number       Type             X           Y           Z
 ---------------------------------------------------------------------
      1          6           0       -2.058501   -0.275290   -0.034811
      2          6           0       -2.783704    0.923168    0.006434
      3          6           0       -0.657855   -0.245877   -0.070150
      4          6           0       -2.108261    2.151038    0.012338
      5          6           0       -0.707616    2.180450   -0.023002
      6          6           0        0.017587    0.981992   -0.064245
      7          1           0       -0.191901    3.117956   -0.018495
      8          1           0        1.087011    1.004449   -0.091228
      9          8           0        0.082148   -1.468794   -0.112236
     10          1           0        0.929758   -1.344996    0.321160
     11          1           0       -2.574216   -1.212795   -0.039320
     12          1           0       -3.853128    0.900712    0.033415
     13         17           0       -3.019035    3.656166    0.064134
 ---------------------------------------------------------------------
                    Distance matrix (angstroms):
                    1          2          3          4          5
     1  C    0.000000
     2  C    1.401400   0.000000
     3  C    1.401400   2.427296   0.000000
     4  C    2.427296   1.401400   2.802800   0.000000
     5  C    2.802800   2.427296   2.427296   1.401400   0.000000
     6  C    2.427296   2.802800   1.401400   2.427296   1.401400
     7  H    3.872800   3.396345   3.396345   2.146700   1.070000
     8  H    3.396345   3.872800   2.146700   3.396345   2.146700
     9  O    2.452106   3.734792   1.430000   4.232800   3.734792
    10  H    3.193850   4.362731   1.970203   4.641895   3.902334
    11  H    1.070000   2.146700   2.146700   3.396345   3.872800
    12  H    2.146700   1.070000   3.396345   2.146700   3.396345
    13  Cl   4.048303   2.743718   4.562800   1.760000   2.743718
                    6          7          8          9         10
     6  C    0.000000
     7  H    2.146700   0.000000
     8  H    1.070000   2.471400   0.000000
     9  O    2.452106   4.595886   2.669667   0.000000
    10  H    2.528926   4.614264   2.390541   0.960000   0.000000
    11  H    3.396345   4.942800   4.280590   2.669667   3.524947
    12  H    3.872800   4.280590   4.942800   4.595886   5.291691
    13  Cl   4.048303   2.879094   4.890332   5.992800   6.377354
                   11         12         13
    11  H    0.000000
    12  H    2.471400   0.000000
    13  Cl   4.890332   2.879094   0.000000
 Stoichiometry    C6H5ClO
 Framework group  C1[X(C6H5ClO)]
 Deg. of freedom    33
 Full point group                 C1      NOp   1
 Largest Abelian subgroup         C1      NOp   1
 Largest concise Abelian subgroup C1      NOp   1
                         Standard orientation:                         
 ---------------------------------------------------------------------
 Center     Atomic      Atomic             Coordinates (Angstroms)
 Number     Number       Type             X           Y           Z
 ---------------------------------------------------------------------
      1          6           0       -1.108235    1.239850   -0.005893
      2          6           0        0.293025    1.221888    0.002311
      3          6           0       -1.824378    0.035305   -0.017465
      4          6           0        0.978144   -0.000619   -0.001058
      5          6           0        0.262001   -1.205164   -0.012630
      6          6           0       -1.139260   -1.187202   -0.020833
      7          1           0        0.785104   -2.138575   -0.015203
      8          1           0       -1.686050   -2.106898   -0.029669
      9          8           0       -3.254236    0.053634   -0.025836
     10          1           0       -3.586907   -0.728773    0.419998
     11          1           0       -1.631338    2.173261   -0.003322
     12          1           0        0.839816    2.141584    0.011146
     13         17           0        2.737969   -0.023178    0.009244
 ---------------------------------------------------------------------
 Rotational constants (GHZ):      5.6176057      0.9451701      0.8095608
 Standard basis: 6-31+G(d) (6D, 7F)
 There are   166 symmetry adapted cartesian basis functions of A   symmetry.
 There are   166 symmetry adapted basis functions of A   symmetry.
   166 basis functions,   300 primitive gaussians,   166 cartesian basis functions
    33 alpha electrons       33 beta electrons
       nuclear repulsion energy       390.4297328890 Hartrees.
 NAtoms=   13 NActive=   13 NUniq=   13 SFac= 1.00D+00 NAtFMM=   60 NAOKFM=F Big=F
 Integral buffers will be    131072 words long.
 Raffenetti 2 integral format.
 Two-electron integral symmetry is turned on.
 Nuclear repulsion after empirical dispersion term =      390.4211381488 Hartrees.
 One-electron integrals computed using PRISM.
 NBasis=   166 RedAO= T EigKep=  4.26D-06  NBF=   166
 NBsUse=   166 1.00D-06 EigRej= -1.00D+00 NBFU=   166
 ExpMin= 4.38D-02 ExpMax= 2.52D+04 ExpMxC= 3.78D+03 IAcc=2 IRadAn=         4 AccDes= 0.00D+00
 Harris functional with IExCor=  402 and IRadAn=       4 diagonalized for initial guess.
 HarFok:  IExCor=  402 AccDes= 0.00D+00 IRadAn=         4 IDoV= 1 UseB2=F ITyADJ=14
 ICtDFT=  3500011 ScaDFX=  1.000000  1.000000  1.000000  1.000000
 FoFCou: FMM=F IPFlag=           0 FMFlag=      100000 FMFlg1=           0
         NFxFlg=           0 DoJE=T BraDBF=F KetDBF=T FulRan=T
         wScrn=  0.000000 ICntrl=     500 IOpCl=  0 I1Cent=   200000004 NGrid=           0
         NMat0=    1 NMatS0=      1 NMatT0=    0 NMatD0=    1 NMtDS0=    0 NMtDT0=    0
 Petite list used in FoFCou.
 Keep R1 ints in memory in canonical form, NReq=98502692.
 Requested convergence on RMS density matrix=1.00D-08 within 128 cycles.
 Requested convergence on MAX density matrix=1.00D-06.
 Requested convergence on             energy=1.00D-06.
 No special actions if energy rises.
 SCF Done:  E(RB3LYP) =  -767.079179361     A.U. after   14 cycles
            NFock= 14  Conv=0.44D-08     -V/T= 2.0059

 **********************************************************************

            Population analysis using the SCF density.

 **********************************************************************

 Orbital symmetries:
       Occupied  (A) (A) (A) (A) (A) (A) (A) (A) (A) (A) (A) (A)
                 (A) (A) (A) (A) (A) (A) (A) (A) (A) (A) (A) (A)
                 (A) (A) (A) (A) (A) (A) (A) (A) (A)
       Virtual   (A) (A) (A) (A) (A) (A) (A) (A) (A) (A) (A) (A)
                 (A) (A) (A) (A) (A) (A) (A) (A) (A) (A) (A) (A)
                 (A) (A) (A) (A) (A) (A) (A) (A) (A) (A) (A) (A)
                 (A) (A) (A) (A) (A) (A) (A) (A) (A) (A) (A) (A)
                 (A) (A) (A) (A) (A) (A) (A) (A) (A) (A) (A) (A)
                 (A) (A) (A) (A) (A) (A) (A) (A) (A) (A) (A) (A)
                 (A) (A) (A) (A) (A) (A) (A) (A) (A) (A) (A) (A)
                 (A) (A) (A) (A) (A) (A) (A) (A) (A) (A) (A) (A)
                 (A) (A) (A) (A) (A) (A) (A) (A) (A) (A) (A) (A)
                 (A) (A) (A) (A) (A) (A) (A) (A) (A) (A) (A) (A)
                 (A) (A) (A) (A) (A) (A) (A) (A) (A) (A) (A) (A)
                 (A)
 The electronic state is 1-A.
 Alpha  occ. eigenvalues -- -101.55873 -19.19535 -10.27402 -10.26298 -10.22002
 Alpha  occ. eigenvalues --  -10.21905 -10.21661 -10.21378  -9.47379  -7.23790
 Alpha  occ. eigenvalues --   -7.22808  -7.22789  -1.05770  -0.89809  -0.84390
 Alpha  occ. eigenvalues --   -0.77427  -0.74068  -0.64401  -0.61741  -0.56204
 Alpha  occ. eigenvalues --   -0.50857  -0.48992  -0.46813  -0.44995  -0.42804
 Alpha  occ. eigenvalues --   -0.40804  -0.39212  -0.38339  -0.35831  -0.32197
 Alpha  occ. eigenvalues --   -0.32082  -0.27679  -0.24181
 Alpha virt. eigenvalues --   -0.03554  -0.02314  -0.00858   0.00679   0.01234
 Alpha virt. eigenvalues --    0.02257   0.04217   0.05104   0.05995   0.06286
 Alpha virt. eigenvalues --    0.07640   0.07863   0.08536   0.08809   0.12076
 Alpha virt. eigenvalues --    0.12313   0.12799   0.13123   0.13178   0.13494
 Alpha virt. eigenvalues --    0.14540   0.15104   0.15436   0.16430   0.16983
 Alpha virt. eigenvalues --    0.18415   0.19293   0.20139   0.20926   0.21277
 Alpha virt. eigenvalues --    0.22118   0.23314   0.23575   0.24280   0.25218
 Alpha virt. eigenvalues --    0.25546   0.27352   0.28091   0.29225   0.30198
 Alpha virt. eigenvalues --    0.30974   0.31816   0.34359   0.35173   0.36052
 Alpha virt. eigenvalues --    0.37627   0.51875   0.52888   0.60040   0.61634
 Alpha virt. eigenvalues --    0.61747   0.64554   0.64672   0.66692   0.68736
 Alpha virt. eigenvalues --    0.69629   0.70060   0.70369   0.72149   0.72992
 Alpha virt. eigenvalues --    0.76436   0.78159   0.78373   0.81824   0.86557
 Alpha virt. eigenvalues --    0.87058   0.90326   0.92015   0.93041   0.94274
 Alpha virt. eigenvalues --    0.94717   0.98949   0.99647   1.02174   1.05696
 Alpha virt. eigenvalues --    1.06812   1.07760   1.10715   1.15340   1.16417
 Alpha virt. eigenvalues --    1.17990   1.20240   1.22728   1.26423   1.27808
 Alpha virt. eigenvalues --    1.35499   1.37066   1.39792   1.41371   1.43411
 Alpha virt. eigenvalues --    1.44164   1.46991   1.48371   1.54143   1.64045
 Alpha virt. eigenvalues --    1.76675   1.79133   1.79198   1.84617   1.90838
 Alpha virt. eigenvalues --    1.92685   1.95083   1.99395   2.00863   2.07737
 Alpha virt. eigenvalues --    2.11436   2.12151   2.13714   2.20931   2.23749
 Alpha virt. eigenvalues --    2.26518   2.27776   2.41578   2.48007   2.50289
 Alpha virt. eigenvalues --    2.60698   2.61310   2.63574   2.70827   2.71848
 Alpha virt. eigenvalues --    2.78044   2.81052   2.99915   3.05332   3.37065
 Alpha virt. eigenvalues --    4.13706   4.21576   4.22271   4.24283   4.35757
 Alpha virt. eigenvalues --    4.36397   4.43995   4.72167
          Condensed to atoms (all electrons):
               1          2          3          4          5          6
     1  C    8.888873  -1.017466  -1.915441   0.593815  -0.006961  -0.972767
     2  C   -1.017466   7.693317   1.103027  -0.419097  -0.993167   0.098474
     3  C   -1.915441   1.103027   8.080214  -1.374219   0.251188  -0.188511
     4  C    0.593815  -0.419097  -1.374219   6.938081   0.005555  -0.100701
     5  C   -0.006961  -0.993167   0.251188   0.005555   7.446410  -0.250343
     6  C   -0.972767   0.098474  -0.188511  -0.100701  -0.250343   7.048976
     7  H   -0.013731   0.040693   0.003806   0.020899   0.265274  -0.023720
     8  H    0.025302  -0.019295  -0.070250   0.033984  -0.025741   0.346262
     9  O   -0.258628   0.087288   0.266879  -0.019609   0.052307  -0.112688
    10  H    0.143198  -0.018879  -0.026994   0.011123  -0.009334  -0.093380
    11  H    0.318429  -0.066940   0.010605   0.014043  -0.019967   0.039519
    12  H   -0.037224   0.253500  -0.018708   0.056895   0.051878  -0.014336
    13  Cl   0.122481  -0.147911  -0.074554  -0.015260  -0.128271   0.070794
               7          8          9         10         11         12
     1  C   -0.013731   0.025302  -0.258628   0.143198   0.318429  -0.037224
     2  C    0.040693  -0.019295   0.087288  -0.018879  -0.066940   0.253500
     3  C    0.003806  -0.070250   0.266879  -0.026994   0.010605  -0.018708
     4  C    0.020899   0.033984  -0.019609   0.011123   0.014043   0.056895
     5  C    0.265274  -0.025741   0.052307  -0.009334  -0.019967   0.051878
     6  C   -0.023720   0.346262  -0.112688  -0.093380   0.039519  -0.014336
     7  H    0.508183  -0.005398  -0.000474  -0.000008   0.000013  -0.000178
     8  H   -0.005398   0.538557  -0.009274   0.004552  -0.000161   0.000013
     9  O   -0.000474  -0.009274   8.508818   0.163041  -0.003775  -0.000501
    10  H   -0.000008   0.004552   0.163041   0.363682  -0.000065   0.000003
    11  H    0.000013  -0.000161  -0.003775  -0.000065   0.512453  -0.005371
    12  H   -0.000178   0.000013  -0.000501   0.000003  -0.005371   0.506583
    13  Cl   0.003800   0.001547   0.000136   0.000145   0.001017   0.005008
              13
     1  C    0.122481
     2  C   -0.147911
     3  C   -0.074554
     4  C   -0.015260
     5  C   -0.128271
     6  C    0.070794
     7  H    0.003800
     8  H    0.001547
     9  O    0.000136
    10  H    0.000145
    11  H    0.001017
    12  H    0.005008
    13  Cl  16.991460
 Mulliken charges:
               1
     1  C    0.130120
     2  C   -0.593545
     3  C   -0.047041
     4  C    0.254491
     5  C   -0.638829
     6  C    0.152420
     7  H    0.200840
     8  H    0.179904
     9  O   -0.673521
    10  H    0.462917
    11  H    0.200200
    12  H    0.202435
    13  Cl   0.169607
 Sum of Mulliken charges =   0.00000
 Mulliken charges with hydrogens summed into heavy atoms:
               1
     1  C    0.330321
     2  C   -0.391109
     3  C   -0.047041
     4  C    0.254491
     5  C   -0.437988
     6  C    0.332324
     9  O   -0.210605
    13  Cl   0.169607
 Electronic spatial extent (au):  <R**2>=           1290.2281
 Charge=              0.0000 electrons
 Dipole moment (field-independent basis, Debye):
    X=             -1.2994    Y=             -1.2037    Z=              0.7354  Tot=              1.9179
 Quadrupole moment (field-independent basis, Debye-Ang):
   XX=            -56.4269   YY=            -46.4700   ZZ=            -56.6596
   XY=              5.3366   XZ=             -3.0415   YZ=             -0.7413
 Traceless Quadrupole moment (field-independent basis, Debye-Ang):
   XX=             -3.2414   YY=              6.7155   ZZ=             -3.4741
   XY=              5.3366   XZ=             -3.0415   YZ=             -0.7413
 Octapole moment (field-independent basis, Debye-Ang**2):
  XXX=             -7.8294  YYY=             -0.0898  ZZZ=              0.5275  XYY=             -6.7419
  XXY=            -20.5210  XXZ=             11.7237  XZZ=             -0.2631  YZZ=             -0.4365
  YYZ=              0.3646  XYZ=              2.9200
 Hexadecapole moment (field-independent basis, Debye-Ang**3):
 XXXX=          -1263.4236 YYYY=           -284.6594 ZZZZ=            -67.2336 XXXY=             79.5891
 XXXZ=            -44.9919 YYYX=              3.6139 YYYZ=             -0.3732 ZZZX=             -2.1185
 ZZZY=             -0.6613 XXYY=           -244.8583 XXZZ=           -230.3052 YYZZ=            -70.7717
 XXYZ=            -10.5610 YYXZ=             -1.7609 ZZXY=              1.7357
 N-N= 3.904211381488D+02 E-N=-2.587440905797D+03  KE= 7.626006905335D+02
 Calling FoFJK, ICntrl=      2127 FMM=F ISym2X=0 I1Cent= 0 IOpClX= 0 NMat=1 NMatS=1 NMatT=0.
 ***** Axes restored to original set *****
 -------------------------------------------------------------------
 Center     Atomic                   Forces (Hartrees/Bohr)
 Number     Number              X              Y              Z
 -------------------------------------------------------------------
      1        6           0.009123064    0.008179180   -0.001567630
      2        6           0.014528319    0.001483110   -0.001530044
      3        6           0.018797573   -0.016908875    0.002928991
      4        6           0.004588048   -0.007075557   -0.000329121
      5        6          -0.006875890   -0.010232836    0.000509634
      6        6          -0.018065977    0.000532286    0.000736718
      7        1           0.005245171    0.009898751    0.000029914
      8        1           0.012195646    0.000984346   -0.000886188
      9        8          -0.033661872    0.021432051   -0.003607241
     10        1           0.008590825    0.003637077    0.002976919
     11        1          -0.004311632   -0.010331205    0.000349403
     12        1          -0.011004121   -0.000365246    0.000392690
     13       17           0.000850847   -0.001233080   -0.000004044
 -------------------------------------------------------------------
 Cartesian Forces:  Max     0.033661872 RMS     0.009862032

 GradGradGradGradGradGradGradGradGradGradGradGradGradGradGradGradGradGrad
 Berny optimization.
 FormGI is forming the generalized inverse of G from B-inverse, IUseBI=4.
 Internal  Forces:  Max     0.034393925 RMS     0.006208263
 Search for a local minimum.
 Step number   1 out of a maximum of   68
 All quantities printed in internal units (Hartrees-Bohrs-Radians)
 Mixed Optimization -- RFO/linear search
 Second derivative matrix not updated -- first step.
 ITU=  0
     Eigenvalues ---    0.01295   0.01929   0.02070   0.02070   0.02070
     Eigenvalues ---    0.02070   0.02070   0.02070   0.02070   0.02070
     Eigenvalues ---    0.16000   0.16000   0.16000   0.16000   0.16000
     Eigenvalues ---    0.22000   0.22981   0.24000   0.25000   0.25000
     Eigenvalues ---    0.29539   0.37230   0.37230   0.37230   0.37230
     Eigenvalues ---    0.40989   0.41268   0.41640   0.45389   0.45389
     Eigenvalues ---    0.45389   0.45389   0.55473
 RFO step:  Lambda=-6.24317513D-03 EMin= 1.29493781D-02
 Linear search not attempted -- first point.
 Iteration  1 RMS(Cart)=  0.03005888 RMS(Int)=  0.00103911
 Iteration  2 RMS(Cart)=  0.00084259 RMS(Int)=  0.00020948
 Iteration  3 RMS(Cart)=  0.00000218 RMS(Int)=  0.00020947
 Iteration  4 RMS(Cart)=  0.00000000 RMS(Int)=  0.00020947
 Variable       Old X    -DE/DX   Delta X   Delta X   Delta X     New X
                                 (Linear)    (Quad)   (Total)
    R1        2.64826  -0.00516   0.00000  -0.01137  -0.01137   2.63689
    R2        2.64826  -0.00829   0.00000  -0.01818  -0.01816   2.63011
    R3        2.02201   0.01113   0.00000   0.02940   0.02940   2.05141
    R4        2.64826  -0.00433   0.00000  -0.00941  -0.00944   2.63882
    R5        2.02201   0.01102   0.00000   0.02910   0.02910   2.05111
    R6        2.64826  -0.00290   0.00000  -0.00631  -0.00628   2.64198
    R7        2.70231  -0.03439   0.00000  -0.08265  -0.08265   2.61966
    R8        2.64826  -0.00535   0.00000  -0.01146  -0.01149   2.63678
    R9        3.32592  -0.00149   0.00000  -0.00496  -0.00496   3.32096
   R10        2.64826  -0.00510   0.00000  -0.01092  -0.01092   2.63734
   R11        2.02201   0.01120   0.00000   0.02959   0.02959   2.05160
   R12        2.02201   0.01223   0.00000   0.03231   0.03231   2.05432
   R13        1.81414   0.00940   0.00000   0.01675   0.01675   1.83089
    A1        2.09440  -0.00194   0.00000  -0.00864  -0.00859   2.08581
    A2        2.09440   0.00217   0.00000   0.01154   0.01152   2.10591
    A3        2.09440  -0.00023   0.00000  -0.00290  -0.00293   2.09147
    A4        2.09440  -0.00095   0.00000  -0.00393  -0.00395   2.09045
    A5        2.09440   0.00034   0.00000   0.00117   0.00116   2.09556
    A6        2.09440   0.00061   0.00000   0.00276   0.00275   2.09715
    A7        2.09440   0.00344   0.00000   0.01367   0.01350   2.10790
    A8        2.09440  -0.01129   0.00000  -0.04416  -0.04441   2.04998
    A9        2.09440   0.00784   0.00000   0.03050   0.03019   2.12458
   A10        2.09440   0.00332   0.00000   0.01381   0.01377   2.10817
   A11        2.09440  -0.00151   0.00000  -0.00631  -0.00630   2.08810
   A12        2.09440  -0.00181   0.00000  -0.00749  -0.00747   2.08692
   A13        2.09440  -0.00281   0.00000  -0.01113  -0.01116   2.08323
   A14        2.09440   0.00123   0.00000   0.00451   0.00449   2.09889
   A15        2.09440   0.00158   0.00000   0.00662   0.00661   2.10100
   A16        2.09440  -0.00106   0.00000  -0.00377  -0.00372   2.09067
   A17        2.09440   0.00126   0.00000   0.00624   0.00621   2.10060
   A18        2.09440  -0.00019   0.00000  -0.00247  -0.00250   2.09189
   A19        1.91063  -0.00363   0.00000  -0.02181  -0.02181   1.88882
    D1        0.00000  -0.00023   0.00000  -0.00798  -0.00812  -0.00811
    D2        3.14159   0.00003   0.00000   0.00133   0.00133  -3.14026
    D3       -3.14159  -0.00016   0.00000  -0.00579  -0.00605   3.13555
    D4        0.00000   0.00009   0.00000   0.00352   0.00340   0.00340
    D5        0.00000  -0.00012   0.00000  -0.00533  -0.00526  -0.00526
    D6        3.14159   0.00093   0.00000   0.03565   0.03493  -3.10666
    D7        3.14159  -0.00018   0.00000  -0.00752  -0.00731   3.13428
    D8        0.00000   0.00087   0.00000   0.03346   0.03288   0.03288
    D9        0.00000   0.00025   0.00000   0.00949   0.00958   0.00958
   D10        3.14159   0.00017   0.00000   0.00636   0.00647  -3.13513
   D11       -3.14159   0.00000   0.00000   0.00019   0.00012  -3.14147
   D12        0.00000  -0.00008   0.00000  -0.00294  -0.00299  -0.00299
   D13        0.00000   0.00043   0.00000   0.01713   0.01728   0.01728
   D14       -3.14159   0.00061   0.00000   0.02354   0.02386  -3.11773
   D15        3.14159  -0.00061   0.00000  -0.02386  -0.02465   3.11694
   D16        0.00000  -0.00044   0.00000  -0.01744  -0.01807  -0.01807
   D17       -2.61799  -0.00214   0.00000  -0.10464  -0.10445  -2.72244
   D18        0.52360  -0.00109   0.00000  -0.06366  -0.06385   0.45975
   D19        0.00000   0.00007   0.00000   0.00230   0.00241   0.00241
   D20        3.14159  -0.00024   0.00000  -0.00941  -0.00943   3.13217
   D21        3.14159   0.00014   0.00000   0.00543   0.00552  -3.13607
   D22        0.00000  -0.00017   0.00000  -0.00629  -0.00632  -0.00632
   D23        0.00000  -0.00041   0.00000  -0.01561  -0.01570  -0.01570
   D24        3.14159  -0.00059   0.00000  -0.02203  -0.02225   3.11934
   D25       -3.14159  -0.00010   0.00000  -0.00389  -0.00385   3.13774
   D26        0.00000  -0.00027   0.00000  -0.01031  -0.01040  -0.01040
         Item               Value     Threshold  Converged?
 Maximum Force            0.034394     0.000450     NO 
 RMS     Force            0.006208     0.000300     NO 
 Maximum Displacement     0.123617     0.001800     NO 
 RMS     Displacement     0.030474     0.001200     NO 
 Predicted change in Energy=-3.234999D-03
 GradGradGradGradGradGradGradGradGradGradGradGradGradGradGradGradGradGrad

                          Input orientation:                          
 ---------------------------------------------------------------------
 Center     Atomic      Atomic             Coordinates (Angstroms)
 Number     Number       Type             X           Y           Z
 ---------------------------------------------------------------------
      1          6           0       -2.049168   -0.278985   -0.020958
      2          6           0       -2.772360    0.914187   -0.000213
      3          6           0       -0.658153   -0.237218   -0.041429
      4          6           0       -2.095209    2.135381    0.009643
      5          6           0       -0.700746    2.179038   -0.012480
      6          6           0        0.020777    0.984922   -0.047748
      7          1           0       -0.183254    3.133426   -0.013426
      8          1           0        1.106914    1.009817   -0.086140
      9          8           0        0.016733   -1.446462   -0.104550
     10          1           0        0.904364   -1.317493    0.261752
     11          1           0       -2.560777   -1.236421   -0.023196
     12          1           0       -3.857398    0.892184    0.017090
     13         17           0       -3.009434    3.635804    0.045646
 ---------------------------------------------------------------------
                    Distance matrix (angstroms):
                    1          2          3          4          5
     1  C    0.000000
     2  C    1.395384   0.000000
     3  C    1.391792   2.407759   0.000000
     4  C    2.414998   1.396404   2.774340   0.000000
     5  C    2.803603   2.427259   2.416805   1.395321   0.000000
     6  C    2.425459   2.794437   1.398075   2.409200   1.395619
     7  H    3.889246   3.410083   3.404049   2.156895   1.085659
     8  H    3.409708   3.881403   2.161609   3.395535   2.154098
     9  O    2.374434   3.655488   1.386263   4.159679   3.696958
    10  H    3.143529   4.308982   1.923635   4.580756   3.857111
    11  H    1.085557   2.161114   2.149120   3.403951   3.889112
    12  H    2.154712   1.085399   3.393250   2.156596   3.409006
    13  Cl   4.031392   2.732308   4.531711   1.757377   2.730492
                    6          7          8          9         10
     6  C    0.000000
     7  H    2.158443   0.000000
     8  H    1.087100   2.485867   0.000000
     9  O    2.432051   4.585157   2.687403   0.000000
    10  H    2.485484   4.590132   2.361869   0.968865   0.000000
    11  H    3.405788   4.974764   4.301337   2.587333   3.477782
    12  H    3.879826   4.303886   4.966778   4.526914   5.255179
    13  Cl   4.027168   2.871092   4.884414   5.916897   6.316618
                   11         12         13
    11  H    0.000000
    12  H    2.492752   0.000000
    13  Cl   4.893323   2.871813   0.000000
 Stoichiometry    C6H5ClO
 Framework group  C1[X(C6H5ClO)]
 Deg. of freedom    33
 Full point group                 C1      NOp   1
 Largest Abelian subgroup         C1      NOp   1
 Largest concise Abelian subgroup C1      NOp   1
                         Standard orientation:                         
 ---------------------------------------------------------------------
 Center     Atomic      Atomic             Coordinates (Angstroms)
 Number     Number       Type             X           Y           Z
 ---------------------------------------------------------------------
      1          6           0       -1.119812    1.224890    0.004068
      2          6           0        0.275529    1.215231   -0.001122
      3          6           0       -1.813713    0.018416    0.001098
      4          6           0        0.960555   -0.001602    0.000612
      5          6           0        0.266425   -1.212008   -0.003991
      6          6           0       -1.129115   -1.200489   -0.013331
      7          1           0        0.807766   -2.153045   -0.011436
      8          1           0       -1.677918   -2.138570   -0.037947
      9          8           0       -3.198207    0.077475   -0.036486
     10          1           0       -3.546822   -0.744598    0.339497
     11          1           0       -1.666891    2.162503    0.008448
     12          1           0        0.825826    2.150781    0.002384
     13         17           0        2.717911   -0.009618    0.003938
 ---------------------------------------------------------------------
 Rotational constants (GHZ):      5.6101026      0.9646248      0.8234698
 Standard basis: 6-31+G(d) (6D, 7F)
 There are   166 symmetry adapted cartesian basis functions of A   symmetry.
 There are   166 symmetry adapted basis functions of A   symmetry.
   166 basis functions,   300 primitive gaussians,   166 cartesian basis functions
    33 alpha electrons       33 beta electrons
       nuclear repulsion energy       392.8583218821 Hartrees.
 NAtoms=   13 NActive=   13 NUniq=   13 SFac= 1.00D+00 NAtFMM=   60 NAOKFM=F Big=F
 Integral buffers will be    131072 words long.
 Raffenetti 2 integral format.
 Two-electron integral symmetry is turned on.
 Nuclear repulsion after empirical dispersion term =      392.8497469559 Hartrees.
 One-electron integrals computed using PRISM.
 NBasis=   166 RedAO= T EigKep=  4.20D-06  NBF=   166
 NBsUse=   166 1.00D-06 EigRej= -1.00D+00 NBFU=   166
 Initial guess from the checkpoint file:  "C:\Users\vivek\Downloads\molecule_36.chk"
 B after Tr=     0.000000    0.000000    0.000000
         Rot=    0.999999   -0.000120    0.000013   -0.001488 Ang=  -0.17 deg.
 ExpMin= 4.38D-02 ExpMax= 2.52D+04 ExpMxC= 3.78D+03 IAcc=2 IRadAn=         4 AccDes= 0.00D+00
 Harris functional with IExCor=  402 and IRadAn=       4 diagonalized for initial guess.
 HarFok:  IExCor=  402 AccDes= 0.00D+00 IRadAn=         4 IDoV= 1 UseB2=F ITyADJ=14
 ICtDFT=  3500011 ScaDFX=  1.000000  1.000000  1.000000  1.000000
 FoFCou: FMM=F IPFlag=           0 FMFlag=      100000 FMFlg1=           0
         NFxFlg=           0 DoJE=T BraDBF=F KetDBF=T FulRan=T
         wScrn=  0.000000 ICntrl=     500 IOpCl=  0 I1Cent=   200000004 NGrid=           0
         NMat0=    1 NMatS0=      1 NMatT0=    0 NMatD0=    1 NMtDS0=    0 NMtDT0=    0
 Petite list used in FoFCou.
 Keep R1 ints in memory in canonical form, NReq=98502692.
 Requested convergence on RMS density matrix=1.00D-08 within 128 cycles.
 Requested convergence on MAX density matrix=1.00D-06.
 Requested convergence on             energy=1.00D-06.
 No special actions if energy rises.
 SCF Done:  E(RB3LYP) =  -767.082643688     A.U. after   13 cycles
            NFock= 13  Conv=0.32D-08     -V/T= 2.0058
 Calling FoFJK, ICntrl=      2127 FMM=F ISym2X=0 I1Cent= 0 IOpClX= 0 NMat=1 NMatS=1 NMatT=0.
 ***** Axes restored to original set *****
 -------------------------------------------------------------------
 Center     Atomic                   Forces (Hartrees/Bohr)
 Number     Number              X              Y              Z
 -------------------------------------------------------------------
      1        6          -0.003938381    0.002243720   -0.000906256
      2        6          -0.000822793   -0.000281740    0.000316494
      3        6           0.007839090   -0.008954708   -0.002451549
      4        6           0.000354470   -0.000809194   -0.000222287
      5        6          -0.000082944    0.000547752    0.000018195
      6        6          -0.001638085    0.001081077    0.001156135
      7        1          -0.000317740   -0.000118949    0.000071454
      8        1           0.000418564   -0.000163567   -0.000025973
      9        8          -0.004458342    0.007005384    0.003953233
     10        1           0.002487452   -0.002126050   -0.002055907
     11        1           0.000909374   -0.000203674    0.000110829
     12        1           0.000025152    0.000550112   -0.000020621
     13       17          -0.000775817    0.001229836    0.000056254
 -------------------------------------------------------------------
 Cartesian Forces:  Max     0.008954708 RMS     0.002676279

 GradGradGradGradGradGradGradGradGradGradGradGradGradGradGradGradGradGrad
 Berny optimization.
 Using GEDIIS/GDIIS optimizer.
 FormGI is forming the generalized inverse of G from B-inverse, IUseBI=4.
 Internal  Forces:  Max     0.005355359 RMS     0.001371615
 Search for a local minimum.
 Step number   2 out of a maximum of   68
 All quantities printed in internal units (Hartrees-Bohrs-Radians)
 Mixed Optimization -- RFO/linear search
 Update second derivatives using D2CorX and points    1    2
 DE= -3.46D-03 DEPred=-3.23D-03 R= 1.07D+00
 TightC=F SS=  1.41D+00  RLast= 1.91D-01 DXNew= 5.0454D-01 5.7219D-01
 Trust test= 1.07D+00 RLast= 1.91D-01 DXMaxT set to 5.05D-01
 ITU=  1  0
 Use linear search instead of GDIIS.
     Eigenvalues ---    0.01190   0.01967   0.02069   0.02070   0.02070
     Eigenvalues ---    0.02070   0.02070   0.02070   0.02071   0.02084
     Eigenvalues ---    0.15819   0.15999   0.15999   0.16000   0.16347
     Eigenvalues ---    0.22014   0.22734   0.23886   0.24999   0.25407
     Eigenvalues ---    0.29563   0.36390   0.37230   0.37230   0.37335
     Eigenvalues ---    0.38475   0.41296   0.42086   0.45366   0.45389
     Eigenvalues ---    0.45389   0.48564   0.55326
 RFO step:  Lambda=-9.80989277D-04 EMin= 1.19037503D-02
 Quartic linear search produced a step of  0.08977.
 Iteration  1 RMS(Cart)=  0.02798451 RMS(Int)=  0.00242216
 Iteration  2 RMS(Cart)=  0.00242111 RMS(Int)=  0.00001759
 Iteration  3 RMS(Cart)=  0.00001317 RMS(Int)=  0.00001548
 Iteration  4 RMS(Cart)=  0.00000000 RMS(Int)=  0.00001548
 Variable       Old X    -DE/DX   Delta X   Delta X   Delta X     New X
                                 (Linear)    (Quad)   (Total)
    R1        2.63689   0.00062  -0.00102   0.00099  -0.00003   2.63686
    R2        2.63011   0.00401  -0.00163   0.00890   0.00728   2.63738
    R3        2.05141  -0.00025   0.00264   0.00070   0.00334   2.05474
    R4        2.63882  -0.00028  -0.00085  -0.00131  -0.00217   2.63666
    R5        2.05111  -0.00004   0.00261   0.00130   0.00391   2.05502
    R6        2.64198   0.00083  -0.00056   0.00184   0.00129   2.64327
    R7        2.61966  -0.00530  -0.00742  -0.01805  -0.02547   2.59419
    R8        2.63678   0.00015  -0.00103  -0.00045  -0.00149   2.63529
    R9        3.32096   0.00145  -0.00044   0.00510   0.00465   3.32561
   R10        2.63734   0.00118  -0.00098   0.00221   0.00123   2.63857
   R11        2.05160  -0.00026   0.00266   0.00069   0.00334   2.05494
   R12        2.05432   0.00042   0.00290   0.00277   0.00567   2.05999
   R13        1.83089   0.00122   0.00150   0.00322   0.00472   1.83561
    A1        2.08581   0.00149  -0.00077   0.00723   0.00646   2.09227
    A2        2.10591   0.00017   0.00103   0.00289   0.00392   2.10983
    A3        2.09147  -0.00166  -0.00026  -0.01011  -0.01038   2.08109
    A4        2.09045  -0.00025  -0.00035  -0.00193  -0.00230   2.08815
    A5        2.09556   0.00069   0.00010   0.00475   0.00485   2.10041
    A6        2.09715  -0.00044   0.00025  -0.00280  -0.00255   2.09460
    A7        2.10790  -0.00268   0.00121  -0.01037  -0.00918   2.09872
    A8        2.04998   0.00000  -0.00399  -0.00214  -0.00617   2.04381
    A9        2.12458   0.00269   0.00271   0.01296   0.01562   2.14021
   A10        2.10817  -0.00013   0.00124  -0.00091   0.00031   2.10847
   A11        2.08810   0.00003  -0.00057   0.00033  -0.00023   2.08787
   A12        2.08692   0.00010  -0.00067   0.00059  -0.00008   2.08684
   A13        2.08323   0.00076  -0.00100   0.00233   0.00132   2.08455
   A14        2.09889  -0.00061   0.00040  -0.00274  -0.00234   2.09655
   A15        2.10100  -0.00015   0.00059   0.00044   0.00103   2.10203
   A16        2.09067   0.00082  -0.00033   0.00375   0.00343   2.09410
   A17        2.10060  -0.00059   0.00056  -0.00289  -0.00234   2.09826
   A18        2.09189  -0.00023  -0.00022  -0.00085  -0.00108   2.09081
   A19        1.88882   0.00536  -0.00196   0.03519   0.03323   1.92205
    D1       -0.00811   0.00004  -0.00073   0.00244   0.00171  -0.00640
    D2       -3.14026   0.00002   0.00012   0.00062   0.00075  -3.13952
    D3        3.13555  -0.00007  -0.00054  -0.00286  -0.00343   3.13212
    D4        0.00340  -0.00009   0.00031  -0.00468  -0.00439  -0.00099
    D5       -0.00526   0.00005  -0.00047   0.00247   0.00200  -0.00326
    D6       -3.10666  -0.00022   0.00314  -0.01008  -0.00694  -3.11361
    D7        3.13428   0.00016  -0.00066   0.00775   0.00707   3.14135
    D8        0.03288  -0.00010   0.00295  -0.00480  -0.00187   0.03101
    D9        0.00958  -0.00009   0.00086  -0.00506  -0.00420   0.00537
   D10       -3.13513   0.00000   0.00058  -0.00013   0.00046  -3.13466
   D11       -3.14147  -0.00006   0.00001  -0.00320  -0.00320   3.13851
   D12       -0.00299   0.00003  -0.00027   0.00173   0.00146  -0.00152
   D13        0.01728  -0.00009   0.00155  -0.00479  -0.00323   0.01406
   D14       -3.11773  -0.00010   0.00214  -0.00523  -0.00306  -3.12079
   D15        3.11694   0.00012  -0.00221   0.00792   0.00568   3.12262
   D16       -0.01807   0.00011  -0.00162   0.00748   0.00584  -0.01223
   D17       -2.72244  -0.00186  -0.00938  -0.13804  -0.14737  -2.86981
   D18        0.45975  -0.00199  -0.00573  -0.15014  -0.15592   0.30383
   D19        0.00241   0.00005   0.00022   0.00272   0.00295   0.00536
   D20        3.13217   0.00009  -0.00085   0.00524   0.00440   3.13657
   D21       -3.13607  -0.00004   0.00050  -0.00222  -0.00172  -3.13779
   D22       -0.00632   0.00000  -0.00057   0.00030  -0.00026  -0.00658
   D23       -0.01570   0.00002  -0.00141   0.00209   0.00069  -0.01502
   D24        3.11934   0.00002  -0.00200   0.00251   0.00052   3.11986
   D25        3.13774  -0.00002  -0.00035  -0.00041  -0.00075   3.13699
   D26       -0.01040  -0.00002  -0.00093   0.00001  -0.00092  -0.01132
         Item               Value     Threshold  Converged?
 Maximum Force            0.005355     0.000450     NO 
 RMS     Force            0.001372     0.000300     NO 
 Maximum Displacement     0.167276     0.001800     NO 
 RMS     Displacement     0.028287     0.001200     NO 
 Predicted change in Energy=-5.649087D-04
 GradGradGradGradGradGradGradGradGradGradGradGradGradGradGradGradGradGrad

                          Input orientation:                          
 ---------------------------------------------------------------------
 Center     Atomic      Atomic             Coordinates (Angstroms)
 Number     Number       Type             X           Y           Z
 ---------------------------------------------------------------------
      1          6           0       -2.050310   -0.275860   -0.012746
      2          6           0       -2.775070    0.916485   -0.003606
      3          6           0       -0.655141   -0.241358   -0.024188
      4          6           0       -2.097247    2.136023    0.001778
      5          6           0       -0.703394    2.178465   -0.008298
      6          6           0        0.019354    0.984014   -0.030472
      7          1           0       -0.186517    3.135198   -0.008689
      8          1           0        1.108760    1.010545   -0.058998
      9          8           0       -0.000057   -1.447002   -0.066985
     10          1           0        0.933675   -1.328748    0.173234
     11          1           0       -2.557752   -1.237500   -0.008225
     12          1           0       -3.862336    0.898447    0.007283
     13         17           0       -3.011678    3.639471    0.023904
 ---------------------------------------------------------------------
                    Distance matrix (angstroms):
                    1          2          3          4          5
     1  C    0.000000
     2  C    1.395366   0.000000
     3  C    1.395643   2.415600   0.000000
     4  C    2.412383   1.395258   2.780698   0.000000
     5  C    2.799627   2.425790   2.420356   1.394536   0.000000
     6  C    2.423037   2.795369   1.398756   2.410013   1.396269
     7  H    3.887037   3.409299   3.408955   2.156235   1.087428
     8  H    3.411261   3.885363   2.163289   3.398363   2.156504
     9  O    2.361790   3.645653   1.372787   4.152229   3.693527
    10  H    3.169752   4.339025   1.935389   4.606574   3.874725
    11  H    1.087323   2.164925   2.147670   3.404823   3.886832
    12  H    2.159360   1.087471   3.403858   2.155728   3.408461
    13  Cl   4.031797   2.733385   4.540530   1.759838   2.731987
                    6          7          8          9         10
     6  C    0.000000
     7  H    2.161122   0.000000
     8  H    1.090102   2.488860   0.000000
     9  O    2.431368   4.586363   2.696123   0.000000
    10  H    2.495266   4.605947   2.357304   0.971362   0.000000
    11  H    3.402514   4.974259   4.301116   2.566934   3.497330
    12  H    3.882817   4.302901   4.972802   4.519275   5.290526
    13  Cl   4.030082   2.869998   4.888367   5.911881   6.345968
                   11         12         13
    11  H    0.000000
    12  H    2.502888   0.000000
    13  Cl   4.898156   2.870036   0.000000
 Stoichiometry    C6H5ClO
 Framework group  C1[X(C6H5ClO)]
 Deg. of freedom    33
 Full point group                 C1      NOp   1
 Largest Abelian subgroup         C1      NOp   1
 Largest concise Abelian subgroup C1      NOp   1
                         Standard orientation:                         
 ---------------------------------------------------------------------
 Center     Atomic      Atomic             Coordinates (Angstroms)
 Number     Number       Type             X           Y           Z
 ---------------------------------------------------------------------
      1          6           0       -1.119982    1.221103    0.003947
      2          6           0        0.275358    1.214634   -0.001738
      3          6           0       -1.820847    0.014204    0.002571
      4          6           0        0.959806   -0.001209   -0.001001
      5          6           0        0.266410   -1.211140   -0.001083
      6          6           0       -1.129810   -1.201882   -0.008429
      7          1           0        0.811101   -2.152306   -0.005230
      8          1           0       -1.677631   -2.144106   -0.029091
      9          8           0       -3.191413    0.086932   -0.025809
     10          1           0       -3.576753   -0.770068    0.220377
     11          1           0       -1.673747    2.156808    0.012331
     12          1           0        0.829108    2.150552    0.001236
     13         17           0        2.719624   -0.008859    0.002426
 ---------------------------------------------------------------------
 Rotational constants (GHZ):      5.6186694      0.9644161      0.8232923
 Standard basis: 6-31+G(d) (6D, 7F)
 There are   166 symmetry adapted cartesian basis functions of A   symmetry.
 There are   166 symmetry adapted basis functions of A   symmetry.
   166 basis functions,   300 primitive gaussians,   166 cartesian basis functions
    33 alpha electrons       33 beta electrons
       nuclear repulsion energy       392.9063493716 Hartrees.
 NAtoms=   13 NActive=   13 NUniq=   13 SFac= 1.00D+00 NAtFMM=   60 NAOKFM=F Big=F
 Integral buffers will be    131072 words long.
 Raffenetti 2 integral format.
 Two-electron integral symmetry is turned on.
 Nuclear repulsion after empirical dispersion term =      392.8977799580 Hartrees.
 One-electron integrals computed using PRISM.
 NBasis=   166 RedAO= T EigKep=  4.22D-06  NBF=   166
 NBsUse=   166 1.00D-06 EigRej= -1.00D+00 NBFU=   166
 Initial guess from the checkpoint file:  "C:\Users\vivek\Downloads\molecule_36.chk"
 B after Tr=     0.000000    0.000000    0.000000
         Rot=    1.000000   -0.000172    0.000038    0.000041 Ang=  -0.02 deg.
 ExpMin= 4.38D-02 ExpMax= 2.52D+04 ExpMxC= 3.78D+03 IAcc=2 IRadAn=         4 AccDes= 0.00D+00
 Harris functional with IExCor=  402 and IRadAn=       4 diagonalized for initial guess.
 HarFok:  IExCor=  402 AccDes= 0.00D+00 IRadAn=         4 IDoV= 1 UseB2=F ITyADJ=14
 ICtDFT=  3500011 ScaDFX=  1.000000  1.000000  1.000000  1.000000
 FoFCou: FMM=F IPFlag=           0 FMFlag=      100000 FMFlg1=           0
         NFxFlg=           0 DoJE=T BraDBF=F KetDBF=T FulRan=T
         wScrn=  0.000000 ICntrl=     500 IOpCl=  0 I1Cent=   200000004 NGrid=           0
         NMat0=    1 NMatS0=      1 NMatT0=    0 NMatD0=    1 NMtDS0=    0 NMtDT0=    0
 Petite list used in FoFCou.
 Keep R1 ints in memory in canonical form, NReq=98502692.
 Requested convergence on RMS density matrix=1.00D-08 within 128 cycles.
 Requested convergence on MAX density matrix=1.00D-06.
 Requested convergence on             energy=1.00D-06.
 No special actions if energy rises.
 SCF Done:  E(RB3LYP) =  -767.083406563     A.U. after   12 cycles
            NFock= 12  Conv=0.56D-08     -V/T= 2.0058
 Calling FoFJK, ICntrl=      2127 FMM=F ISym2X=0 I1Cent= 0 IOpClX= 0 NMat=1 NMatS=1 NMatT=0.
 ***** Axes restored to original set *****
 -------------------------------------------------------------------
 Center     Atomic                   Forces (Hartrees/Bohr)
 Number     Number              X              Y              Z
 -------------------------------------------------------------------
      1        6          -0.003199891    0.000294193   -0.000291756
      2        6          -0.001603562   -0.001574382    0.000271609
      3        6           0.002383433   -0.001360550   -0.001458119
      4        6           0.000399756    0.000880318    0.000154246
      5        6           0.000596427    0.001402882   -0.000258919
      6        6           0.001217418    0.000513149    0.000738185
      7        1          -0.000617883   -0.001356213    0.000011827
      8        1          -0.001343646    0.000011259    0.000239263
      9        8           0.001355967   -0.000302471    0.002829265
     10        1          -0.001072378   -0.000129589   -0.002006189
     11        1           0.000717755    0.001089858   -0.000133193
     12        1           0.001500836   -0.000016805   -0.000068196
     13       17          -0.000334231    0.000548351   -0.000028022
 -------------------------------------------------------------------
 Cartesian Forces:  Max     0.003199891 RMS     0.001181419

 GradGradGradGradGradGradGradGradGradGradGradGradGradGradGradGradGradGrad
 Berny optimization.
 Using GEDIIS/GDIIS optimizer.
 FormGI is forming the generalized inverse of G from B-inverse, IUseBI=4.
 Internal  Forces:  Max     0.002274132 RMS     0.000663034
 Search for a local minimum.
 Step number   3 out of a maximum of   68
 All quantities printed in internal units (Hartrees-Bohrs-Radians)
 Mixed Optimization -- En-DIIS/RFO-DIIS
 Update second derivatives using D2CorX and points    1    2    3
 DE= -7.63D-04 DEPred=-5.65D-04 R= 1.35D+00
 TightC=F SS=  1.41D+00  RLast= 2.21D-01 DXNew= 8.4853D-01 6.6300D-01
 Trust test= 1.35D+00 RLast= 2.21D-01 DXMaxT set to 6.63D-01
 ITU=  1  1  0
 Use linear search instead of GDIIS.
     Eigenvalues ---    0.00613   0.01958   0.02070   0.02070   0.02070
     Eigenvalues ---    0.02070   0.02070   0.02071   0.02075   0.02095
     Eigenvalues ---    0.15951   0.15999   0.16000   0.16010   0.17817
     Eigenvalues ---    0.22079   0.22939   0.23834   0.25000   0.25351
     Eigenvalues ---    0.29520   0.37173   0.37230   0.37243   0.37693
     Eigenvalues ---    0.40853   0.41287   0.42474   0.45358   0.45389
     Eigenvalues ---    0.46074   0.49584   0.58093
 RFO step:  Lambda=-3.05673481D-04 EMin= 6.13397967D-03
 Quartic linear search produced a step of  0.63866.
 Iteration  1 RMS(Cart)=  0.03461801 RMS(Int)=  0.00372838
 Iteration  2 RMS(Cart)=  0.00369925 RMS(Int)=  0.00004073
 Iteration  3 RMS(Cart)=  0.00003167 RMS(Int)=  0.00003368
 Iteration  4 RMS(Cart)=  0.00000000 RMS(Int)=  0.00003368
 Variable       Old X    -DE/DX   Delta X   Delta X   Delta X     New X
                                 (Linear)    (Quad)   (Total)
    R1        2.63686  -0.00053  -0.00002  -0.00314  -0.00316   2.63370
    R2        2.63738   0.00227   0.00465   0.00299   0.00764   2.64502
    R3        2.05474  -0.00130   0.00213  -0.00306  -0.00093   2.05381
    R4        2.63666   0.00108  -0.00138   0.00324   0.00185   2.63850
    R5        2.05502  -0.00150   0.00250  -0.00414  -0.00164   2.05338
    R6        2.64327   0.00063   0.00082   0.00098   0.00181   2.64508
    R7        2.59419   0.00049  -0.01626   0.00119  -0.01508   2.57911
    R8        2.63529   0.00021  -0.00095  -0.00023  -0.00119   2.63410
    R9        3.32561   0.00064   0.00297   0.00105   0.00402   3.32963
   R10        2.63857   0.00046   0.00079  -0.00021   0.00057   2.63914
   R11        2.05494  -0.00149   0.00214  -0.00381  -0.00168   2.05326
   R12        2.05999  -0.00135   0.00362  -0.00377  -0.00014   2.05985
   R13        1.83561  -0.00154   0.00301  -0.00398  -0.00097   1.83464
    A1        2.09227   0.00047   0.00413  -0.00003   0.00411   2.09638
    A2        2.10983  -0.00011   0.00250  -0.00052   0.00197   2.11180
    A3        2.08109  -0.00037  -0.00663   0.00056  -0.00607   2.07501
    A4        2.08815   0.00017  -0.00147   0.00122  -0.00026   2.08789
    A5        2.10041  -0.00013   0.00310  -0.00248   0.00062   2.10103
    A6        2.09460  -0.00004  -0.00163   0.00129  -0.00034   2.09426
    A7        2.09872  -0.00104  -0.00586  -0.00112  -0.00701   2.09171
    A8        2.04381   0.00052  -0.00394   0.00026  -0.00374   2.04007
    A9        2.14021   0.00053   0.00998   0.00119   0.01111   2.15132
   A10        2.10847  -0.00034   0.00020  -0.00110  -0.00092   2.10755
   A11        2.08787   0.00017  -0.00015   0.00065   0.00051   2.08838
   A12        2.08684   0.00017  -0.00005   0.00046   0.00041   2.08726
   A13        2.08455   0.00036   0.00084   0.00021   0.00104   2.08559
   A14        2.09655  -0.00007  -0.00149   0.00143  -0.00007   2.09648
   A15        2.10203  -0.00028   0.00066  -0.00158  -0.00093   2.10110
   A16        2.09410   0.00039   0.00219   0.00094   0.00314   2.09723
   A17        2.09826  -0.00015  -0.00150   0.00074  -0.00077   2.09749
   A18        2.09081  -0.00024  -0.00069  -0.00166  -0.00236   2.08846
   A19        1.92205   0.00038   0.02123  -0.01127   0.00996   1.93201
    D1       -0.00640   0.00004   0.00109   0.00120   0.00231  -0.00410
    D2       -3.13952  -0.00003   0.00048  -0.00284  -0.00237   3.14130
    D3        3.13212   0.00006  -0.00219   0.00501   0.00284   3.13496
    D4       -0.00099  -0.00002  -0.00281   0.00096  -0.00183  -0.00283
    D5       -0.00326   0.00005   0.00128   0.00277   0.00401   0.00075
    D6       -3.11361  -0.00021  -0.00443  -0.00881  -0.01312  -3.12673
    D7        3.14135   0.00004   0.00452  -0.00098   0.00348  -3.13836
    D8        0.03101  -0.00022  -0.00119  -0.01256  -0.01366   0.01735
    D9        0.00537  -0.00004  -0.00268  -0.00044  -0.00313   0.00224
   D10       -3.13466  -0.00007   0.00030  -0.00419  -0.00389  -3.13856
   D11        3.13851   0.00003  -0.00205   0.00358   0.00153   3.14004
   D12       -0.00152   0.00001   0.00093  -0.00017   0.00077  -0.00076
   D13        0.01406  -0.00014  -0.00206  -0.00751  -0.00956   0.00450
   D14       -3.12079  -0.00019  -0.00196  -0.01017  -0.01212  -3.13292
   D15        3.12262   0.00013   0.00362   0.00471   0.00842   3.13104
   D16       -0.01223   0.00008   0.00373   0.00205   0.00585  -0.00638
   D17       -2.86981  -0.00132  -0.09412  -0.09341  -0.18747  -3.05729
   D18        0.30383  -0.00155  -0.09958  -0.10525  -0.20488   0.09895
   D19        0.00536  -0.00005   0.00188  -0.00428  -0.00239   0.00297
   D20        3.13657   0.00005   0.00281   0.00142   0.00426   3.14082
   D21       -3.13779  -0.00003  -0.00110  -0.00052  -0.00163  -3.13942
   D22       -0.00658   0.00008  -0.00017   0.00517   0.00502  -0.00156
   D23       -0.01502   0.00013   0.00044   0.00821   0.00868  -0.00633
   D24        3.11986   0.00018   0.00033   0.01087   0.01124   3.13111
   D25        3.13699   0.00003  -0.00048   0.00248   0.00202   3.13901
   D26       -0.01132   0.00008  -0.00059   0.00514   0.00458  -0.00674
         Item               Value     Threshold  Converged?
 Maximum Force            0.002274     0.000450     NO 
 RMS     Force            0.000663     0.000300     NO 
 Maximum Displacement     0.218095     0.001800     NO 
 RMS     Displacement     0.035093     0.001200     NO 
 Predicted change in Energy=-3.611766D-04
 GradGradGradGradGradGradGradGradGradGradGradGradGradGradGradGradGradGrad

                          Input orientation:                          
 ---------------------------------------------------------------------
 Center     Atomic      Atomic             Coordinates (Angstroms)
 Number     Number       Type             X           Y           Z
 ---------------------------------------------------------------------
      1          6           0       -2.052259   -0.274256   -0.001108
      2          6           0       -2.776251    0.916630   -0.004457
      3          6           0       -0.652873   -0.245350   -0.003553
      4          6           0       -2.097737    2.136913   -0.005285
      5          6           0       -0.704428    2.177739   -0.005489
      6          6           0        0.018493    0.982837   -0.008463
      7          1           0       -0.186955    3.133139   -0.006859
      8          1           0        1.108092    1.011641   -0.018562
      9          8           0       -0.010671   -1.449537   -0.018112
     10          1           0        0.949455   -1.327290    0.057823
     11          1           0       -2.557554   -1.236459    0.005779
     12          1           0       -3.862714    0.899248   -0.002850
     13         17           0       -3.012309    3.642925   -0.004869
 ---------------------------------------------------------------------
                    Distance matrix (angstroms):
                    1          2          3          4          5
     1  C    0.000000
     2  C    1.393695   0.000000
     3  C    1.399687   2.420523   0.000000
     4  C    2.411602   1.396235   2.786182   0.000000
     5  C    2.798026   2.425458   2.423638   1.393907   0.000000
     6  C    2.422468   2.795531   1.399714   2.410463   1.396573
     7  H    3.884551   3.408427   3.410466   2.154891   1.086540
     8  H    3.411987   3.885530   2.163620   3.397610   2.155269
     9  O    2.355771   3.639693   1.364809   4.149534   3.693046
    10  H    3.181610   4.349706   1.934378   4.614116   3.876153
    11  H    1.086832   2.164192   2.147136   3.404584   3.884707
    12  H    2.157513   1.086603   3.407812   2.155682   3.407245
    13  Cl   4.033116   2.736496   4.548145   1.761963   2.733695
                    6          7          8          9         10
     6  C    0.000000
     7  H    2.160095   0.000000
     8  H    1.090027   2.485566   0.000000
     9  O    2.432568   4.586080   2.703521   0.000000
    10  H    2.491540   4.603373   2.345548   0.970851   0.000000
    11  H    3.400219   4.971246   4.300175   2.555892   3.508571
    12  H    3.882111   4.301336   4.972101   4.511680   5.302652
    13  Cl   4.032598   2.870978   4.888921   5.911276   6.356300
                   11         12         13
    11  H    0.000000
    12  H    2.502950   0.000000
    13  Cl   4.900541   2.872448   0.000000
 Stoichiometry    C6H5ClO
 Framework group  C1[X(C6H5ClO)]
 Deg. of freedom    33
 Full point group                 C1      NOp   1
 Largest Abelian subgroup         C1      NOp   1
 Largest concise Abelian subgroup C1      NOp   1
                         Standard orientation:                         
 ---------------------------------------------------------------------
 Center     Atomic      Atomic             Coordinates (Angstroms)
 Number     Number       Type             X           Y           Z
 ---------------------------------------------------------------------
      1          6           0       -1.120074    1.219502    0.003397
      2          6           0        0.273608    1.214750   -0.000465
      3          6           0       -1.826445    0.011131    0.002607
      4          6           0        0.959708   -0.001285   -0.000149
      5          6           0        0.266675   -1.210698    0.001298
      6          6           0       -1.129874   -1.202942   -0.001166
      7          1           0        0.811032   -2.151041    0.000807
      8          1           0       -1.674507   -2.147111   -0.009975
      9          8           0       -3.188750    0.092554   -0.011538
     10          1           0       -3.586036   -0.789927    0.065560
     11          1           0       -1.676591    2.153020    0.009417
     12          1           0        0.826339    2.150268   -0.000141
     13         17           0        2.721658   -0.008140   -0.000382
 ---------------------------------------------------------------------
 Rotational constants (GHZ):      5.6214798      0.9637576      0.8227286
 Standard basis: 6-31+G(d) (6D, 7F)
 There are   166 symmetry adapted cartesian basis functions of A   symmetry.
 There are   166 symmetry adapted basis functions of A   symmetry.
   166 basis functions,   300 primitive gaussians,   166 cartesian basis functions
    33 alpha electrons       33 beta electrons
       nuclear repulsion energy       392.8863643789 Hartrees.
 NAtoms=   13 NActive=   13 NUniq=   13 SFac= 1.00D+00 NAtFMM=   60 NAOKFM=F Big=F
 Integral buffers will be    131072 words long.
 Raffenetti 2 integral format.
 Two-electron integral symmetry is turned on.
 Nuclear repulsion after empirical dispersion term =      392.8778017106 Hartrees.
 One-electron integrals computed using PRISM.
 NBasis=   166 RedAO= T EigKep=  4.22D-06  NBF=   166
 NBsUse=   166 1.00D-06 EigRej= -1.00D+00 NBFU=   166
 Initial guess from the checkpoint file:  "C:\Users\vivek\Downloads\molecule_36.chk"
 B after Tr=     0.000000    0.000000    0.000000
         Rot=    1.000000   -0.000068    0.000007   -0.000078 Ang=  -0.01 deg.
 ExpMin= 4.38D-02 ExpMax= 2.52D+04 ExpMxC= 3.78D+03 IAcc=2 IRadAn=         4 AccDes= 0.00D+00
 Harris functional with IExCor=  402 and IRadAn=       4 diagonalized for initial guess.
 HarFok:  IExCor=  402 AccDes= 0.00D+00 IRadAn=         4 IDoV= 1 UseB2=F ITyADJ=14
 ICtDFT=  3500011 ScaDFX=  1.000000  1.000000  1.000000  1.000000
 FoFCou: FMM=F IPFlag=           0 FMFlag=      100000 FMFlg1=           0
         NFxFlg=           0 DoJE=T BraDBF=F KetDBF=T FulRan=T
         wScrn=  0.000000 ICntrl=     500 IOpCl=  0 I1Cent=   200000004 NGrid=           0
         NMat0=    1 NMatS0=      1 NMatT0=    0 NMatD0=    1 NMtDS0=    0 NMtDT0=    0
 Petite list used in FoFCou.
 Keep R1 ints in memory in canonical form, NReq=98502692.
 Requested convergence on RMS density matrix=1.00D-08 within 128 cycles.
 Requested convergence on MAX density matrix=1.00D-06.
 Requested convergence on             energy=1.00D-06.
 No special actions if energy rises.
 SCF Done:  E(RB3LYP) =  -767.083785832     A.U. after   12 cycles
            NFock= 12  Conv=0.63D-08     -V/T= 2.0058
 Calling FoFJK, ICntrl=      2127 FMM=F ISym2X=0 I1Cent= 0 IOpClX= 0 NMat=1 NMatS=1 NMatT=0.
 ***** Axes restored to original set *****
 -------------------------------------------------------------------
 Center     Atomic                   Forces (Hartrees/Bohr)
 Number     Number              X              Y              Z
 -------------------------------------------------------------------
      1        6          -0.000469672   -0.000738577    0.000046451
      2        6          -0.000925924   -0.000583627    0.000239452
      3        6          -0.002694766    0.003975947   -0.000809359
      4        6           0.000007705    0.001113523    0.000046539
      5        6          -0.000001230    0.000926874   -0.000071511
      6        6           0.001800457   -0.000847180    0.000204986
      7        1          -0.000287586   -0.000861006   -0.000034420
      8        1          -0.001077761    0.000035469    0.000155239
      9        8           0.003597196   -0.003888745    0.001062297
     10        1          -0.001102235    0.000318788   -0.000613169
     11        1           0.000157787    0.000878995   -0.000210645
     12        1           0.000915154   -0.000095264   -0.000001807
     13       17           0.000080876   -0.000235198   -0.000014053
 -------------------------------------------------------------------
 Cartesian Forces:  Max     0.003975947 RMS     0.001305826

 GradGradGradGradGradGradGradGradGradGradGradGradGradGradGradGradGradGrad
 Berny optimization.
 Using GEDIIS/GDIIS optimizer.
 FormGI is forming the generalized inverse of G from B-inverse, IUseBI=4.
 Internal  Forces:  Max     0.004319095 RMS     0.000699150
 Search for a local minimum.
 Step number   4 out of a maximum of   68
 All quantities printed in internal units (Hartrees-Bohrs-Radians)
 Mixed Optimization -- En-DIIS/RFO-DIIS
 Swapping is turned off.
 Update second derivatives using D2CorX and points    2    3    4
 DE= -3.79D-04 DEPred=-3.61D-04 R= 1.05D+00
 TightC=F SS=  1.41D+00  RLast= 2.81D-01 DXNew= 1.1150D+00 8.4253D-01
 Trust test= 1.05D+00 RLast= 2.81D-01 DXMaxT set to 8.43D-01
 ITU=  1  1  1  0
     Eigenvalues ---    0.00556   0.01951   0.02070   0.02070   0.02070
     Eigenvalues ---    0.02070   0.02070   0.02072   0.02075   0.02094
     Eigenvalues ---    0.15976   0.16000   0.16002   0.16019   0.18188
     Eigenvalues ---    0.22081   0.23186   0.24598   0.25002   0.25485
     Eigenvalues ---    0.29664   0.37226   0.37230   0.37244   0.38477
     Eigenvalues ---    0.41280   0.41805   0.44265   0.45362   0.45503
     Eigenvalues ---    0.46594   0.49902   0.58719
 En-DIIS/RFO-DIIS IScMMF=        0 using points:     4    3
 RFO step:  Lambda=-4.42970557D-05.
 DidBck=F Rises=F RFO-DIIS coefs:    1.21911   -0.21911
 Iteration  1 RMS(Cart)=  0.01152589 RMS(Int)=  0.00045807
 Iteration  2 RMS(Cart)=  0.00047291 RMS(Int)=  0.00000776
 Iteration  3 RMS(Cart)=  0.00000055 RMS(Int)=  0.00000775
 Variable       Old X    -DE/DX   Delta X   Delta X   Delta X     New X
                                 (Linear)    (Quad)   (Total)
    R1        2.63370  -0.00008  -0.00069   0.00012  -0.00057   2.63313
    R2        2.64502   0.00018   0.00167  -0.00054   0.00113   2.64616
    R3        2.05381  -0.00085  -0.00020  -0.00107  -0.00128   2.05254
    R4        2.63850   0.00065   0.00040   0.00068   0.00108   2.63958
    R5        2.05338  -0.00091  -0.00036  -0.00103  -0.00139   2.05199
    R6        2.64508  -0.00028   0.00040  -0.00109  -0.00069   2.64438
    R7        2.57911   0.00432  -0.00330   0.00886   0.00556   2.58467
    R8        2.63410   0.00005  -0.00026  -0.00015  -0.00042   2.63368
    R9        3.32963  -0.00024   0.00088  -0.00119  -0.00031   3.32932
   R10        2.63914   0.00042   0.00013   0.00082   0.00095   2.64009
   R11        2.05326  -0.00089  -0.00037  -0.00104  -0.00140   2.05186
   R12        2.05985  -0.00108  -0.00003  -0.00148  -0.00151   2.05834
   R13        1.83464  -0.00110  -0.00021  -0.00086  -0.00107   1.83357
    A1        2.09638  -0.00012   0.00090  -0.00080   0.00010   2.09648
    A2        2.11180  -0.00022   0.00043  -0.00108  -0.00065   2.11115
    A3        2.07501   0.00034  -0.00133   0.00188   0.00055   2.07556
    A4        2.08789   0.00017  -0.00006   0.00053   0.00047   2.08836
    A5        2.10103  -0.00020   0.00014  -0.00062  -0.00048   2.10055
    A6        2.09426   0.00003  -0.00007   0.00009   0.00002   2.09427
    A7        2.09171   0.00020  -0.00154   0.00123  -0.00032   2.09138
    A8        2.04007   0.00098  -0.00082   0.00312   0.00227   2.04234
    A9        2.15132  -0.00118   0.00243  -0.00426  -0.00186   2.14946
   A10        2.10755  -0.00031  -0.00020  -0.00066  -0.00087   2.10668
   A11        2.08838   0.00007   0.00011  -0.00008   0.00004   2.08841
   A12        2.08726   0.00024   0.00009   0.00074   0.00083   2.08809
   A13        2.08559   0.00013   0.00023   0.00038   0.00060   2.08619
   A14        2.09648   0.00010  -0.00002   0.00059   0.00057   2.09705
   A15        2.10110  -0.00023  -0.00020  -0.00096  -0.00116   2.09994
   A16        2.09723  -0.00007   0.00069  -0.00066   0.00003   2.09727
   A17        2.09749   0.00010  -0.00017   0.00067   0.00050   2.09799
   A18        2.08846  -0.00003  -0.00052   0.00000  -0.00052   2.08793
   A19        1.93201  -0.00079   0.00218  -0.00326  -0.00108   1.93093
    D1       -0.00410   0.00006   0.00051   0.00265   0.00316  -0.00094
    D2        3.14130   0.00000  -0.00052   0.00081   0.00029  -3.14159
    D3        3.13496   0.00009   0.00062   0.00302   0.00364   3.13860
    D4       -0.00283   0.00002  -0.00040   0.00118   0.00078  -0.00205
    D5        0.00075  -0.00001   0.00088  -0.00096  -0.00009   0.00066
    D6       -3.12673  -0.00021  -0.00288  -0.00852  -0.01138  -3.13811
    D7       -3.13836  -0.00003   0.00076  -0.00132  -0.00056  -3.13892
    D8        0.01735  -0.00023  -0.00299  -0.00887  -0.01186   0.00549
    D9        0.00224  -0.00004  -0.00069  -0.00183  -0.00252  -0.00027
   D10       -3.13856  -0.00005  -0.00085  -0.00136  -0.00221  -3.14077
   D11        3.14004   0.00002   0.00034   0.00000   0.00034   3.14038
   D12       -0.00076   0.00001   0.00017   0.00047   0.00064  -0.00011
   D13        0.00450  -0.00007  -0.00209  -0.00158  -0.00367   0.00083
   D14       -3.13292  -0.00013  -0.00266  -0.00372  -0.00637  -3.13929
   D15        3.13104   0.00016   0.00184   0.00654   0.00838   3.13942
   D16       -0.00638   0.00010   0.00128   0.00440   0.00568  -0.00070
   D17       -3.05729  -0.00036  -0.04108  -0.02251  -0.06358  -3.12087
   D18        0.09895  -0.00058  -0.04489  -0.03040  -0.07530   0.02365
   D19        0.00297  -0.00003  -0.00052  -0.00070  -0.00122   0.00175
   D20        3.14082   0.00003   0.00093   0.00069   0.00162  -3.14074
   D21       -3.13942  -0.00003  -0.00036  -0.00116  -0.00152  -3.14094
   D22       -0.00156   0.00003   0.00110   0.00022   0.00132  -0.00024
   D23       -0.00633   0.00009   0.00190   0.00240   0.00431  -0.00202
   D24        3.13111   0.00015   0.00246   0.00453   0.00700   3.13810
   D25        3.13901   0.00003   0.00044   0.00101   0.00146   3.14047
   D26       -0.00674   0.00009   0.00100   0.00314   0.00415  -0.00259
         Item               Value     Threshold  Converged?
 Maximum Force            0.004319     0.000450     NO 
 RMS     Force            0.000699     0.000300     NO 
 Maximum Displacement     0.069527     0.001800     NO 
 RMS     Displacement     0.011487     0.001200     NO 
 Predicted change in Energy=-5.803217D-05
 GradGradGradGradGradGradGradGradGradGradGradGradGradGradGradGradGradGrad

                          Input orientation:                          
 ---------------------------------------------------------------------
 Center     Atomic      Atomic             Coordinates (Angstroms)
 Number     Number       Type             X           Y           Z
 ---------------------------------------------------------------------
      1          6           0       -2.053635   -0.273971    0.001138
      2          6           0       -2.776860    0.917020   -0.003816
      3          6           0       -0.653630   -0.245905    0.001362
      4          6           0       -2.098015    2.137766   -0.007411
      5          6           0       -0.704892    2.177321   -0.005771
      6          6           0        0.017920    0.981766   -0.002600
      7          1           0       -0.186360    3.131301   -0.007794
      8          1           0        1.106759    1.010781   -0.004619
      9          8           0       -0.008014   -1.451691    0.002114
     10          1           0        0.953725   -1.324595    0.021030
     11          1           0       -2.559741   -1.234993    0.006783
     12          1           0       -3.862590    0.899676   -0.004007
     13         17           0       -3.012377    3.643705   -0.012415
 ---------------------------------------------------------------------
                    Distance matrix (angstroms):
                    1          2          3          4          5
     1  C    0.000000
     2  C    1.393392   0.000000
     3  C    1.400287   2.420854   0.000000
     4  C    2.412161   1.396805   2.787152   0.000000
     5  C    2.797855   2.425163   2.423779   1.393685   0.000000
     6  C    2.422443   2.795530   1.399347   2.411128   1.397075
     7  H    3.883642   3.407894   3.409391   2.154422   1.085797
     8  H    3.411556   3.884751   2.162930   3.397158   2.154738
     9  O    2.360423   3.643809   1.367750   4.153601   3.695326
    10  H    3.185659   4.352324   1.935858   4.615395   3.874938
    11  H    1.086157   2.162964   2.147460   3.404247   3.883878
    12  H    2.156338   1.085869   3.407318   2.155599   3.406382
    13  Cl   4.033306   2.736850   4.548950   1.761799   2.734011
                    6          7          8          9         10
     6  C    0.000000
     7  H    2.159226   0.000000
     8  H    1.089228   2.483701   0.000000
     9  O    2.433600   4.586472   2.703060   0.000000
    10  H    2.489095   4.599526   2.340526   0.970285   0.000000
    11  H    3.399771   4.969675   4.299634   2.560916   3.514637
    12  H    3.881379   4.300561   4.970591   4.515167   5.305177
    13  Cl   4.033449   2.872099   4.888725   5.915190   6.357287
                   11         12         13
    11  H    0.000000
    12  H    2.500869   0.000000
    13  Cl   4.899688   2.872738   0.000000
 Stoichiometry    C6H5ClO
 Framework group  C1[X(C6H5ClO)]
 Deg. of freedom    33
 Full point group                 C1      NOp   1
 Largest Abelian subgroup         C1      NOp   1
 Largest concise Abelian subgroup C1      NOp   1
                         Standard orientation:                         
 ---------------------------------------------------------------------
 Center     Atomic      Atomic             Coordinates (Angstroms)
 Number     Number       Type             X           Y           Z
 ---------------------------------------------------------------------
      1          6           0       -1.118926    1.220588    0.000852
      2          6           0        0.274453    1.214954   -0.000051
      3          6           0       -1.826487    0.012216    0.000372
      4          6           0        0.960630   -0.001691   -0.000298
      5          6           0        0.266457   -1.210195    0.000676
      6          6           0       -1.130592   -1.201828   -0.000217
      7          1           0        0.808936   -2.150765    0.001276
[...]
   A18        2.08787  -0.00001   0.00000  -0.00007  -0.00007   2.08781
   A19        1.92439  -0.00001   0.00000  -0.00023  -0.00023   1.92416
    D1        0.00001   0.00000   0.00000  -0.00001  -0.00001   0.00000
    D2       -3.14155   0.00000   0.00000  -0.00004  -0.00004  -3.14159
    D3        3.14146   0.00000   0.00000   0.00014   0.00014   3.14159
    D4       -0.00010   0.00000   0.00000   0.00010   0.00010   0.00000
    D5       -0.00046   0.00001   0.00000   0.00045   0.00045   0.00000
    D6       -3.14096  -0.00002   0.00000  -0.00063  -0.00063  -3.14159
    D7        3.14128   0.00001   0.00000   0.00031   0.00031  -3.14159
    D8        0.00078  -0.00002   0.00000  -0.00078  -0.00078   0.00000
    D9        0.00038  -0.00001   0.00000  -0.00038  -0.00038   0.00000
   D10        3.14147   0.00000   0.00000   0.00013   0.00013  -3.14159
   D11       -3.14125  -0.00001   0.00000  -0.00035  -0.00035   3.14159
   D12       -0.00016   0.00001   0.00000   0.00016   0.00016   0.00000
   D13        0.00052  -0.00001   0.00000  -0.00052  -0.00052   0.00000
   D14       -3.14080  -0.00002   0.00000  -0.00080  -0.00080  -3.14159
   D15        3.14095   0.00002   0.00000   0.00064   0.00064   3.14159
   D16       -0.00036   0.00001   0.00000   0.00036   0.00036   0.00000
   D17       -3.14121   0.00001   0.00000  -0.00038  -0.00038  -3.14159
   D18        0.00151  -0.00002   0.00000  -0.00151  -0.00151   0.00000
   D19       -0.00032   0.00001   0.00000   0.00032   0.00032   0.00000
   D20        3.14127   0.00001   0.00000   0.00033   0.00033   3.14159
   D21       -3.14141  -0.00001   0.00000  -0.00019  -0.00019   3.14159
   D22        0.00018  -0.00001   0.00000  -0.00018  -0.00018   0.00000
   D23       -0.00013   0.00000   0.00000   0.00013   0.00013   0.00000
   D24        3.14118   0.00001   0.00000   0.00041   0.00041   3.14159
   D25        3.14147   0.00000   0.00000   0.00012   0.00012  -3.14159
   D26       -0.00040   0.00001   0.00000   0.00040   0.00040   0.00000
         Item               Value     Threshold  Converged?
 Maximum Force            0.000212     0.000450     YES
 RMS     Force            0.000042     0.000300     YES
 Maximum Displacement     0.000824     0.001800     YES
 RMS     Displacement     0.000272     0.001200     YES
 Predicted change in Energy=-2.612555D-07
 Optimization completed.
    -- Stationary point found.
                           ----------------------------
                           !   Optimized Parameters   !
                           ! (Angstroms and Degrees)  !
 --------------------------                            --------------------------
 ! Name  Definition              Value          Derivative Info.                !
 --------------------------------------------------------------------------------
 ! R1    R(1,2)                  1.3936         -DE/DX =    0.0                 !
 ! R2    R(1,3)                  1.3995         -DE/DX =   -0.0001              !
 ! R3    R(1,11)                 1.0855         -DE/DX =    0.0                 !
 ! R4    R(2,4)                  1.3973         -DE/DX =   -0.0001              !
 ! R5    R(2,12)                 1.0852         -DE/DX =    0.0                 !
 ! R6    R(3,6)                  1.399          -DE/DX =    0.0                 !
 ! R7    R(3,9)                  1.3706         -DE/DX =    0.0002              !
 ! R8    R(4,5)                  1.3938         -DE/DX =    0.0                 !
 ! R9    R(4,13)                 1.7612         -DE/DX =   -0.0001              !
 ! R10   R(5,6)                  1.3973         -DE/DX =    0.0                 !
 ! R11   R(5,7)                  1.0852         -DE/DX =    0.0                 !
 ! R12   R(6,8)                  1.0883         -DE/DX =    0.0                 !
 ! R13   R(9,10)                 0.9697         -DE/DX =    0.0                 !
 ! A1    A(2,1,3)              120.0309         -DE/DX =    0.0                 !
 ! A2    A(2,1,11)             120.9103         -DE/DX =    0.0                 !
 ! A3    A(3,1,11)             119.0589         -DE/DX =    0.0001              !
 ! A4    A(1,2,4)              119.6959         -DE/DX =    0.0                 !
 ! A5    A(1,2,12)             120.3027         -DE/DX =    0.0                 !
 ! A6    A(4,2,12)             120.0014         -DE/DX =    0.0                 !
 ! A7    A(1,3,6)              119.9556         -DE/DX =    0.0001              !
 ! A8    A(1,3,9)              117.082          -DE/DX =    0.0                 !
 ! A9    A(6,3,9)              122.9624         -DE/DX =   -0.0001              !
 ! A10   A(2,4,5)              120.6775         -DE/DX =    0.0                 !
 ! A11   A(2,4,13)             119.6546         -DE/DX =    0.0                 !
 ! A12   A(5,4,13)             119.6679         -DE/DX =    0.0                 !
 ! A13   A(4,5,6)              119.5296         -DE/DX =    0.0                 !
 ! A14   A(4,5,7)              120.1887         -DE/DX =    0.0                 !
 ! A15   A(6,5,7)              120.2817         -DE/DX =    0.0                 !
 ! A16   A(3,6,5)              120.1106         -DE/DX =    0.0                 !
 ! A17   A(3,6,8)              120.2631         -DE/DX =    0.0                 !
 ! A18   A(5,6,8)              119.6263         -DE/DX =    0.0                 !
 ! A19   A(3,9,10)             110.2594         -DE/DX =    0.0                 !
 ! D1    D(3,1,2,4)              0.0006         -DE/DX =    0.0                 !
 ! D2    D(3,1,2,12)          -179.9974         -DE/DX =    0.0                 !
 ! D3    D(11,1,2,4)           179.9922         -DE/DX =    0.0                 !
 ! D4    D(11,1,2,12)           -0.0059         -DE/DX =    0.0                 !
 ! D5    D(2,1,3,6)             -0.0261         -DE/DX =    0.0                 !
 ! D6    D(2,1,3,9)           -179.9637         -DE/DX =    0.0                 !
 ! D7    D(11,1,3,6)          -180.0178         -DE/DX =    0.0                 !
 ! D8    D(11,1,3,9)             0.0446         -DE/DX =    0.0                 !
 ! D9    D(1,2,4,5)              0.0217         -DE/DX =    0.0                 !
 ! D10   D(1,2,4,13)          -180.0072         -DE/DX =    0.0                 !
 ! D11   D(12,2,4,5)           180.0198         -DE/DX =    0.0                 !
 ! D12   D(12,2,4,13)           -0.0092         -DE/DX =    0.0                 !
 ! D13   D(1,3,6,5)              0.0295         -DE/DX =    0.0                 !
 ! D14   D(1,3,6,8)           -179.9544         -DE/DX =    0.0                 !
 ! D15   D(9,3,6,5)            179.9633         -DE/DX =    0.0                 !
 ! D16   D(9,3,6,8)             -0.0206         -DE/DX =    0.0                 !
 ! D17   D(1,3,9,10)          -179.9779         -DE/DX =    0.0                 !
 ! D18   D(6,3,9,10)             0.0866         -DE/DX =    0.0                 !
 ! D19   D(2,4,5,6)             -0.0183         -DE/DX =    0.0                 !
 ! D20   D(2,4,5,7)            179.9812         -DE/DX =    0.0                 !
 ! D21   D(13,4,5,6)           180.0107         -DE/DX =    0.0                 !
 ! D22   D(13,4,5,7)             0.0102         -DE/DX =    0.0                 !
 ! D23   D(4,5,6,3)             -0.0074         -DE/DX =    0.0                 !
 ! D24   D(4,5,6,8)            179.9766         -DE/DX =    0.0                 !
 ! D25   D(7,5,6,3)           -180.007          -DE/DX =    0.0                 !
 ! D26   D(7,5,6,8)             -0.0229         -DE/DX =    0.0                 !
 --------------------------------------------------------------------------------
 GradGradGradGradGradGradGradGradGradGradGradGradGradGradGradGradGradGrad

 1|1|UNPC-ASUS|Freq|RB3LYP|6-31+G(d)|C6H5Cl1O1|VIVEK|14-Sep-2023|0||#N 
 Geom=AllCheck Guess=TCheck SCRF=Check GenChk RB3LYP/6-31+G(d) Freq||Ti
 tle Card Required||0,1|C,-2.054490971,-0.2748521772,0.0022365138|C,-2.
 7768563871,0.9168569403,-0.0032826425|C,-0.6553362026,-0.2457470898,0.
 0038450795|C,-2.0977038646,2.1379593388,-0.0072040541|C,-0.7044195372,
 2.1767757327,-0.006107566|C,0.0178721539,0.9806237714,-0.0006433509|H,
 -0.1850552207,3.1296276083,-0.0094839456|H,1.1058092605,1.0090950626,-
 0.0001660593|O,-0.0061028047,-1.4528355966,0.0085601026|H,0.9541079515
 ,-1.317641968,0.009640769|H,-2.5618903987,-1.2344756179,0.005477961|H,
 -3.8619457751,0.8994345185,-0.0045082937|Cl,-3.0116992042,3.6433598369
 ,-0.0143713839||Version=EM64W-G09RevD.01|State=1-A|HF=-767.0838789|RMS
 D=1.199e-009|RMSF=9.097e-005|ZeroPoint=0.0949283|Thermal=0.1016623|Dip
 ole=0.8594988,-0.3426737,0.0024808|DipoleDeriv=-0.124845,0.304823,-0.0
 010656,0.0311487,-0.0714803,-0.0002434,-0.0000729,0.0000592,-0.1519313
 ,0.0422643,0.0471186,0.0000194,0.1282585,-0.0089968,-0.0001661,-0.0003
 925,-0.0002998,-0.0932525,0.4966575,-0.7120403,0.0030112,-0.6867487,1.
 1849646,-0.0048354,0.0024267,-0.0043815,0.095614,0.2009714,-0.5651425,
 0.0025181,-0.5432739,0.7596195,-0.0038597,0.002642,-0.0040976,-0.05913
 83,0.0587717,0.1374343,-0.0003995,0.0097265,-0.0638271,-0.0001664,0.00
 01234,0.0000552,-0.0924656,0.0495583,-0.0724055,0.0003196,0.2352465,-0
 .2693084,0.0005487,-0.0007754,0.0003056,-0.1729024,0.0585525,-0.049591
 7,0.0001367,-0.0502839,-0.022926,0.0006095,0.0000685,0.0006131,0.14006
 35,-0.1225197,0.0375507,-0.0003572,0.042222,0.0428977,0.0004849,-0.000
 2667,0.0004636,0.151764,-0.5850422,0.6923445,-0.0026525,0.6895761,-1.2
 512117,0.0042121,-0.0021612,0.0034265,-0.3839003,0.2202664,-0.1018062,
 0.0001641,-0.1483571,0.2863064,-0.0000753,0.0002408,0.0001379,0.345612
 9,0.0489043,-0.0432616,0.0000516,-0.0423858,-0.0408134,0.0006984,0.000
 0516,0.0007523,0.1503606,-0.0454848,0.0032516,-0.0002274,0.0075506,0.0
 850278,0.000213,-0.0002279,0.00023,0.1385167,-0.2980547,0.3217252,-0.0
 015185,0.3273205,-0.6302522,0.0025797,-0.0016564,0.0027355,-0.0683412|
 Polar=96.0575294,-14.9208274,108.7226185,0.1107203,-0.2587891,47.76739
 77|PG=C01 [X(C6H5Cl1O1)]|NImag=0||0.68329757,0.01525491,0.74858693,0.0
 0058132,-0.00244841,0.12206756,-0.18903580,0.13143511,-0.00067616,0.75
 217376,0.06799454,-0.29155437,0.00100847,-0.00816287,0.66415338,-0.000
 43026,0.00108389,-0.05416773,0.00076863,-0.00210944,0.12782574,-0.3160
 6761,-0.05846207,-0.00009247,-0.02437283,0.08052102,-0.00034272,0.7088
 9120,0.01282516,-0.12532132,0.00024515,0.03063034,0.03789372,-0.000105
 87,0.00687550,0.68153061,-0.00035434,0.00016201,-0.06496599,-0.0001359
 7,-0.00006091,0.00016039,0.00052922,-0.00205472,0.14788233,0.06320240,
 -0.02267204,0.00015829,-0.17298939,-0.06411926,0.00010761,-0.05947830,
 -0.03454594,0.00008353,0.61435518,0.03079880,-0.05771995,0.00028284,-0
 .12852196,-0.26156455,0.00063079,-0.03516376,-0.02067343,0.00003569,0.
 06224883,0.54189921,-0.00006074,0.00022666,0.00540840,0.00036647,0.000
 70318,-0.05890700,0.00008065,0.00004250,-0.00290005,0.00027272,-0.0016
 2254,0.11098557,-0.05128761,0.02610840,-0.00016435,-0.02481987,-0.0747
 5879,0.00026798,0.07152897,0.02862234,-0.00005840,-0.32932845,0.013000
 77,-0.00030268,0.68148683,0.02289183,-0.01379275,0.00008172,-0.0265324
 5,0.02769937,-0.00011136,-0.02185999,-0.05728526,0.00019795,-0.0510141
 8,-0.11260590,0.00017385,0.03566532,0.73217396,-0.00013790,0.00007874,
 0.00001460,0.00006983,-0.00016473,0.00547577,0.00014886,0.00025725,-0.
 00078045,-0.00003528,0.00023634,-0.05838511,0.00035833,-0.00241560,0.1
 2475216,-0.02002389,-0.02688659,0.00008837,-0.00206591,0.00176711,-0.0
 0000890,-0.18686754,-0.12416899,0.00040743,-0.03004795,0.02384861,-0.0
 0013340,-0.18178793,0.12766333,-0.00062141,0.73285186,-0.06860409,0.02
 869309,-0.00016107,-0.00332320,-0.06307376,0.00023721,-0.04890487,-0.2
 6046198,0.00076715,0.07838722,0.03323381,-0.00003992,0.06411584,-0.285
 00636,0.00100190,-0.00966219,0.67303706,0.00024920,-0.00011970,0.00554
 509,0.00000723,0.00026031,-0.00074144,0.00011158,0.00072830,-0.0608781
 0,-0.00035378,-0.00010115,0.00530448,-0.00034917,0.00105082,-0.0522581
 8,0.00045276,-0.00225307,0.11577859,-0.00052562,0.00096149,-0.00000354
 ,-0.00589061,0.00152211,-0.00001617,-0.00157203,0.00301484,-0.00001814
 ,-0.01043162,-0.02894643,0.00010381,-0.12471669,-0.12017425,0.00040728
 ,0.01182432,0.01573834,-0.00005785,0.13014920,0.00065711,0.00019491,-0
 .00000364,0.00042080,0.00127802,0.00001727,0.00392423,-0.00141092,0.00
 003550,0.00236841,0.00151240,0.00000863,-0.12285035,-0.27821212,0.0008
 7160,-0.01370722,-0.01791240,0.00007431,0.12897629,0.29365776,0.000001
 09,-0.00000588,-0.00087431,-0.00001052,0.00001991,0.00527945,-0.000028
 50,0.00003368,0.00706265,-0.00002592,-0.00001994,0.00304296,0.00042075
 ,0.00086841,-0.03496038,0.00006311,0.00010741,0.00310007,-0.00042578,-
 0.00097236,0.02430308,0.00072702,-0.00333437,0.00001257,0.00062729,-0.
 00009428,0.00000150,-0.01390391,0.00525616,-0.00003396,0.00142150,0.00
 239607,-0.00001124,-0.01280996,-0.00211116,-0.00000202,-0.33351582,-0.
 00982327,-0.00012798,0.00084322,0.00026162,0.00000127,0.35523780,-0.00
 210766,-0.00494480,0.00003718,0.00034140,-0.00139651,0.00000384,-0.027
 35657,0.00297268,-0.00001396,0.00165098,-0.00328917,0.00004198,0.02871
 338,0.00477406,0.00000805,-0.00998066,-0.05983868,0.00011235,-0.000168
 38,0.00071683,-0.00002017,0.00900158,0.05942023,0.00000209,0.00003678,
 0.00472532,-0.00000105,0.00000214,-0.00053250,0.00010083,0.00000844,0.
 00409035,-0.00001031,0.00004322,0.00660161,-0.00013206,-0.00000862,0.0
 0220112,-0.00012022,0.00010316,-0.03148763,0.00000454,-0.00001875,-0.0
 0411110,0.00015211,-0.00015005,0.02195587,-0.03591689,0.05395264,-0.00
 023184,-0.00380188,-0.01005751,0.00002937,-0.14745029,0.10550061,-0.00
 049926,0.00570093,0.00340622,-0.00000423,-0.00778228,0.00018433,-0.000
 01600,0.01240085,-0.01105533,0.00005288,0.00043275,-0.00052255,0.00000
 350,0.00292989,-0.00101625,0.00001044,0.65561244,0.01619751,-0.0021554
 6,0.00004183,-0.00423973,-0.00167348,0.00001993,0.05192717,-0.25961040
 ,0.00082489,0.00207008,0.00094607,-0.00001121,-0.00718030,0.00121967,0
 .00001601,0.02747050,-0.05110369,0.00022483,0.00104000,-0.00149955,0.0
 0000852,-0.00022442,0.00330187,-0.00002461,-0.04128725,0.37001960,-0.0
 0010155,0.00008961,0.00614711,-0.00000060,0.00001699,0.00447424,-0.000
 31921,0.00087546,-0.03845724,-0.00000604,-0.00000974,-0.00140097,0.000
 02462,0.00002556,0.00727238,-0.00010238,0.00022572,0.00795229,-0.00000
 410,0.00000645,0.00006913,0.00000432,-0.00002985,-0.00382029,0.0011043
 8,-0.00120175,0.02429329,0.00161365,0.00402768,-0.00001761,-0.00108152
 ,-0.00090216,0.00000232,-0.02448497,-0.00513295,-0.00001049,0.00032215
 ,0.00007437,-0.00000063,-0.00108142,-0.00005374,0.00000256,0.00536105,
 -0.00401309,0.00001946,0.00012384,-0.00023497,0.00000096,-0.00006287,0
 .00096665,-0.00000594,-0.48191721,-0.04792369,-0.00059644,0.50053081,0
 .00237907,-0.00665813,0.00003631,0.00124755,0.00158801,0.00000007,0.04
 565099,0.00219934,0.00004960,-0.00058111,-0.00048939,0.00000243,0.0003
 2288,-0.00035584,-0.00000196,0.00223292,0.00182501,-0.00000736,-0.0000
 5964,0.00014128,-0.00000103,-0.00179576,-0.00137959,0.00000779,-0.1027
 7503,-0.05728181,0.00000617,0.05328871,0.06059254,-0.00001511,0.000036
 24,0.00244013,-0.00000461,-0.00000452,0.00173669,-0.00015539,-0.000037
 41,-0.00360338,0.00000551,0.00000527,0.00014635,-0.00000493,-0.0000009
 3,-0.00073374,-0.00000305,-0.00001648,-0.00056865,0.00000048,-0.000001
 11,-0.00000625,0.00000719,0.00001063,0.00058059,-0.00043617,0.00010128
 ,-0.00296472,0.00060475,-0.00008959,0.00393163,-0.12373730,-0.11842261
 ,0.00036112,0.01218708,0.01622647,-0.00005135,-0.00950386,-0.03052474,
 0.00010529,-0.00080961,0.00269300,-0.00002065,-0.00082608,0.00105751,-
 0.00000392,-0.00576862,0.00143917,-0.00001751,0.00009902,-0.00007772,0
 .00000113,-0.00068816,-0.00147843,0.00000539,0.00178856,-0.00006592,0.
 00000535,0.00046438,0.00019450,0.00000044,0.12600425,-0.12032030,-0.27
 933253,0.00083745,-0.01371993,-0.01826763,0.00006507,0.00147257,0.0016
 2905,0.00001759,0.00332331,-0.00121469,0.00003663,0.00061258,0.0002439
 8,-0.00000288,0.00034852,0.00104486,0.00001390,-0.00008063,-0.00002293
 ,-0.00000213,0.00013287,0.00024482,-0.00000087,0.00001864,0.00088578,-
 0.00001644,-0.00006861,0.00003277,-0.00000272,0.12811741,0.29521864,0.
 00037857,0.00084595,-0.03402476,0.00006477,0.00009766,0.00241678,-0.00
 002710,-0.00002923,0.00525562,-0.00002061,0.00003568,0.00703744,-0.000
 00300,-0.00000127,-0.00064243,-0.00001479,0.00001828,0.00465969,0.0000
 0095,-0.00000239,-0.00056117,-0.00000167,-0.00000342,0.00004670,0.0000
 0475,-0.00001432,-0.00328067,0.00000087,-0.00000224,-0.00065824,-0.000
 38806,-0.00093123,0.02386635,-0.01078443,-0.00178287,-0.00000997,-0.34
 506354,-0.00735036,-0.00034025,0.00138521,0.00215446,-0.00001556,-0.01
 194617,0.00312455,-0.00002935,0.00055519,-0.00290473,0.00000530,0.0007
 0874,0.00008659,0.00000114,-0.00048849,0.00006732,-0.00000097,-0.00007
 838,0.00000908,0.00000072,-0.00086987,0.00000438,-0.00000162,-0.000049
 31,0.00013420,-0.00000002,0.00080376,0.00024343,0.00000529,0.36462403,
 0.02773169,0.00480336,0.00002902,-0.00477414,-0.05807881,0.00007878,0.
 00147210,-0.00421045,0.00004579,-0.02818496,0.00280612,-0.00003137,-0.
 00190180,-0.00511414,0.00003729,0.00037445,-0.00106878,0.00000226,-0.0
 0150243,0.00024994,-0.00000073,0.00000861,0.00013373,-0.00000290,0.001
 55481,0.00028367,0.00000235,0.00028958,-0.00037893,0.00000015,-0.00026
 774,0.00075821,-0.00002014,0.00607469,0.05955910,-0.00012850,-0.000004
 80,0.00352548,-0.00034908,0.00007594,-0.03593170,-0.00000863,0.0000509
 6,0.00754427,0.00009072,0.00000562,0.00302252,0.00000268,0.00003428,0.
 00506322,0.00000157,-0.00000014,-0.00068871,0.00000449,0.00000036,0.00
 029760,0.00000015,-0.00000285,-0.00059490,-0.00000835,-0.00000067,0.00
 017330,-0.00000131,0.00000101,-0.00023140,0.00000755,-0.00002037,-0.00
 441305,0.00038109,-0.00012839,0.02474559,-0.00146149,-0.00017968,-0.00
 000573,0.00413321,-0.00258601,0.00001225,0.00189594,-0.00050680,0.0000
 0066,-0.06997067,0.05104092,-0.00026073,-0.01913072,0.03718819,-0.0001
 7564,-0.00306915,-0.00438110,0.00001205,0.00015272,0.00071703,-0.00000
 012,-0.00072763,0.00142488,-0.00000655,-0.00112701,0.00221167,-0.00000
 672,0.00026141,-0.00023928,0.00000091,-0.00001343,-0.00007987,0.000000
 03,0.00120326,-0.00087486,0.00000762,0.08785357,-0.00569857,-0.0007989
 8,0.00001314,0.02519907,-0.03700340,0.00018980,-0.00009631,0.00274835,
 -0.00000659,0.05106867,-0.12284052,0.00046918,0.00952974,-0.01373867,0
 .00007799,0.00070020,0.00063184,0.00001419,-0.00032130,0.00130678,-0.0
 0001570,0.00032636,-0.00071547,0.00000427,0.00209666,-0.00333228,0.000
 00946,-0.00031777,0.00016476,-0.00000082,0.00110909,-0.00122032,0.0000
 0668,0.00013925,0.00025698,-0.00001094,-0.08373509,0.17454093,0.000016
 12,0.00001891,0.00415909,-0.00009895,0.00015500,0.00291131,0.00000288,
 -0.00001453,-0.00041039,-0.00026644,0.00047792,-0.01995621,-0.00005977
 ,0.00010519,0.00298105,-0.00000908,0.00000984,0.00428250,0.00000403,-0
 .00001588,-0.00264175,-0.00000224,0.00000626,0.00034485,-0.00000946,0.
 00001528,-0.00045785,0.00000150,-0.00000121,-0.00006902,-0.00000477,0.
 00000600,0.00029773,0.00000421,-0.00001210,-0.00251222,0.00042196,-0.0
 0075067,0.01107091||-0.00018375,0.00011203,-0.00003779,-0.00007650,-0.
 00008915,-0.00002026,0.00032370,-0.00026721,0.00010582,0.00008362,-0.0
 0002053,0.00003592,-0.00000293,0.00007458,-0.00002151,-0.00002996,0.00
 001635,-0.00001239,-0.00001560,-0.00003627,0.00000302,-0.00002498,-0.0
 0002508,-0.00001214,-0.00007948,0.00018594,-0.00004059,-0.00004463,-0.
 00001265,0.00000139,0.00004969,-0.00000708,0.00000736,0.00003918,0.000
 00581,-0.00000120,-0.00003835,0.00006326,-0.00000761|||@


 The hours that make us happy make us wise.
                         -- John Masefield
 Job cpu time:       0 days  0 hours  1 minutes 42.0 seconds.
 File lengths (MBytes):  RWF=     47 Int=      0 D2E=      0 Chk=      3 Scr=      1
 Normal termination of Gaussian 09 at Thu Sep 14 13:47:52 2023.
