 Entering Link 1 = C:\G09W\l1.exe PID=     14524.
  
 Copyright (c) 1988,1990,1992,1993,1995,1998,2003,2009,2013,
            Gaussian, Inc.  All Rights Reserved.
  
 This is part of the Gaussian(R) 09 program.  It is based on
 the Gaussian(R) 03 system (copyright 2003, Gaussian, Inc.),
 the Gaussian(R) 98 system (copyright 1998, Gaussian, Inc.),
 the Gaussian(R) 94 system (copyright 1995, Gaussian, Inc.),
 the Gaussian 92(TM) system (copyright 1992, Gaussian, Inc.),
 the Gaussian 90(TM) system (copyright 1990, Gaussian, Inc.),
 the Gaussian 88(TM) system (copyright 1988, Gaussian, Inc.),
 the Gaussian 86(TM) system (copyright 1986, Carnegie Mellon
 University), and the Gaussian 82(TM) system (copyright 1983,
 Carnegie Mellon University). Gaussian is a federally registered
 trademark of Gaussian, Inc.
  
 This software contains proprietary and confidential information,
 including trade secrets, belonging to Gaussian, Inc.
  
 This software is provided under written license and may be
 used, copied, transmitted, or stored only in accord with that
 written license.
  
 The following legend is applicable only to US Government
 contracts under FAR:
  
                    RESTRICTED RIGHTS LEGEND
  
 Use, reproduction and disclosure by the US Government is
 subject to restrictions as set forth in subparagraphs (a)
 and (c) of the Commercial Computer Software - Restricted
 Rights clause in FAR 52.227-19.
  
 Gaussian, Inc.
 340 Quinnipiac St., Bldg. 40, Wallingford CT 06492
  
  
 ---------------------------------------------------------------
 Warning -- This program may not be used in any manner that
 competes with the business of Gaussian, Inc. or will provide
 assistance to any competitor of Gaussian, Inc.  The licensee
 of this program is prohibited from giving any competitor of
 Gaussian, Inc. access to this program.  By using this program,
 the user acknowledges that Gaussian, Inc. is engaged in the
 business of creating and licensing software in the field of
 computational chemistry and represents and warrants to the
 licensee that it is not a competitor of Gaussian, Inc. and that
 it will not use this program in any manner prohibited above.
 ---------------------------------------------------------------
  

 Cite this work as:
 Gaussian 09, Revision D.01,
 M. J. Frisch, G. W. Trucks, H. B. Schlegel, G. E. Scuseria, 
 M. A. Robb, J. R. Cheeseman, G. Scalmani, V. Barone, B. Mennucci, 
 G. A. Petersson, H. Nakatsuji, M. Caricato, X. Li, H. P. Hratchian, 
 A. F. Izmaylov, J. Bloino, G. Zheng, J. L. Sonnenberg, M. Hada, 
 M. Ehara, K. Toyota, R. Fukuda, J. Hasegawa, M. Ishida, T. Nakajima, 
 Y. Honda, O. Kitao, H. Nakai, T. Vreven, J. A. Montgomery, Jr., 
 J. E. Peralta, F. Ogliaro, M. Bearpark, J. J. Heyd, E. Brothers, 
 K. N. Kudin, V. N. Staroverov, T. Keith, R. Kobayashi, J. Normand, 
 K. Raghavachari, A. Rendell, J. C. Burant, S. S. Iyengar, J. Tomasi, 
 M. Cossi, N. Rega, J. M. Millam, M. Klene, J. E. Knox, J. B. Cross, 
 V. Bakken, C. Adamo, J. Jaramillo, R. Gomperts, R. E. Stratmann, 
 O. Yazyev, A. J. Austin, R. Cammi, C. Pomelli, J. W. Ochterski, 
 R. L. Martin, K. Morokuma, V. G. Zakrzewski, G. A. Voth, 
 P. Salvador, J. J. Dannenberg, S. Dapprich, A. D. Daniels, 
 O. Farkas, J. B. Foresman, J. V. Ortiz, J. Cioslowski, 
 and D. J. Fox, Gaussian, Inc., Wallingford CT, 2013.
 
 ******************************************
 Gaussian 09:  EM64W-G09RevD.01 13-Apr-2013
                13-Sep-2023 
 ******************************************
 %nprocshared=2
 Will use up to    2 processors via shared memory.
 %mem=2GB
 %chk=E:\PROJECT- VIT group\ML\Substrates\molecule_13.chk
 ----------------------------------------------------------------
 # opt freq b3lyp/6-31g geom=connectivity empiricaldispersion=gd3
 ----------------------------------------------------------------
 1/14=-1,18=20,19=15,26=3,38=1,57=2/1,3;
 2/9=110,12=2,17=6,18=5,40=1/2;
 3/5=1,6=6,11=2,16=1,25=1,30=1,71=1,74=-5,124=31/1,2,3;
 4//1;
 5/5=2,38=5/2;
 6/7=2,8=2,9=2,10=2,28=1/1;
 7//1,2,3,16;
 1/14=-1,18=20,19=15,26=3/3(2);
 2/9=110/2;
 99//99;
 2/9=110/2;
 3/5=1,6=6,11=2,16=1,25=1,30=1,71=1,74=-5,124=31/1,2,3;
 4/5=5,16=3,69=1/1;
 5/5=2,38=5/2;
 7//1,2,3,16;
 1/14=-1,18=20,19=15,26=3/3(-5);
 2/9=110/2;
 6/7=2,8=2,9=2,10=2,19=2,28=1/1;
 99/9=1/99;
 -----------
 molecule_13
 -----------
 Symbolic Z-matrix:
 Charge =  0 Multiplicity = 1
 C                    -2.44984  -0.45061   0. 
 C                    -1.05468  -0.45061   0. 
 C                    -0.35714   0.75714   0. 
 C                    -1.0548    1.96565  -0.0012 
 C                    -2.44962   1.96557  -0.00168 
 C                    -3.14722   0.75737  -0.00068 
 H                    -0.50517  -1.40312   0.00132 
 H                     0.74254   0.75722   0.00063 
 H                    -0.5046    2.91779  -0.00126 
 H                    -2.99974   2.91785  -0.00263 
 O                    -4.57722   0.75761  -0.00092 
 O                    -3.16478  -1.68906   0.00059 
 B                    -4.91094  -1.0937    0.03146 
 C                    -6.33248  -1.93029   0.0744 
 C                    -7.44632  -1.08307  -0.56839 
 H                    -7.63362  -0.22128   0.03752 
 H                    -7.13943  -0.77242  -1.54523 
 C                    -6.7021   -2.2396    1.53704 
 H                    -5.94057  -2.84978   1.97597 
 C                    -8.7323   -1.92331  -0.67733 
 H                    -9.2746   -1.86639   0.24331 
 H                    -9.33943  -1.54467  -1.47289 
 H                    -8.47638  -2.94267  -0.87809 
 C                    -8.04737  -2.98798   1.5793 
 H                    -8.84909  -2.27964   1.59933 
 H                    -8.13913  -3.60604   0.71069 
 C                    -8.1067   -3.86629   2.84288 
 H                    -7.91414  -3.26344   3.70566 
 H                    -9.07812  -4.30723   2.92546 
 H                    -7.36907  -4.63847   2.77547 
 

 GradGradGradGradGradGradGradGradGradGradGradGradGradGradGradGradGradGrad
 Berny optimization.
 Initialization pass.
                           ----------------------------
                           !    Initial Parameters    !
                           ! (Angstroms and Degrees)  !
 --------------------------                            --------------------------
 ! Name  Definition              Value          Derivative Info.                !
 --------------------------------------------------------------------------------
 ! R1    R(1,2)                  1.3952         estimate D2E/DX2                !
 ! R2    R(1,6)                  1.3948         estimate D2E/DX2                !
 ! R3    R(1,12)                 1.43           estimate D2E/DX2                !
 ! R4    R(2,3)                  1.3947         estimate D2E/DX2                !
 ! R5    R(2,7)                  1.0997         estimate D2E/DX2                !
 ! R6    R(3,4)                  1.3954         estimate D2E/DX2                !
 ! R7    R(3,8)                  1.0997         estimate D2E/DX2                !
 ! R8    R(4,5)                  1.3948         estimate D2E/DX2                !
 ! R9    R(4,9)                  1.0997         estimate D2E/DX2                !
 ! R10   R(5,6)                  1.3951         estimate D2E/DX2                !
 ! R11   R(5,10)                 1.0998         estimate D2E/DX2                !
 ! R12   R(6,11)                 1.43           estimate D2E/DX2                !
 ! R13   R(11,13)                1.8814         estimate D2E/DX2                !
 ! R14   R(12,13)                1.8451         estimate D2E/DX2                !
 ! R15   R(13,14)                1.65           estimate D2E/DX2                !
 ! R16   R(14,15)                1.54           estimate D2E/DX2                !
 ! R17   R(14,18)                1.54           estimate D2E/DX2                !
 ! R18   R(15,16)                1.07           estimate D2E/DX2                !
 ! R19   R(15,17)                1.07           estimate D2E/DX2                !
 ! R20   R(15,20)                1.54           estimate D2E/DX2                !
 ! R21   R(18,19)                1.07           estimate D2E/DX2                !
 ! R22   R(18,24)                1.54           estimate D2E/DX2                !
 ! R23   R(20,21)                1.07           estimate D2E/DX2                !
 ! R24   R(20,22)                1.07           estimate D2E/DX2                !
 ! R25   R(20,23)                1.07           estimate D2E/DX2                !
 ! R26   R(24,25)                1.07           estimate D2E/DX2                !
 ! R27   R(24,26)                1.07           estimate D2E/DX2                !
 ! R28   R(24,27)                1.54           estimate D2E/DX2                !
 ! R29   R(27,28)                1.07           estimate D2E/DX2                !
 ! R30   R(27,29)                1.07           estimate D2E/DX2                !
 ! R31   R(27,30)                1.07           estimate D2E/DX2                !
 ! A1    A(2,1,6)              119.9985         estimate D2E/DX2                !
 ! A2    A(2,1,12)             119.9972         estimate D2E/DX2                !
 ! A3    A(6,1,12)             120.0043         estimate D2E/DX2                !
 ! A4    A(1,2,3)              120.0086         estimate D2E/DX2                !
 ! A5    A(1,2,7)              119.9808         estimate D2E/DX2                !
 ! A6    A(3,2,7)              120.0106         estimate D2E/DX2                !
 ! A7    A(2,3,4)              119.9942         estimate D2E/DX2                !
 ! A8    A(2,3,8)              120.0128         estimate D2E/DX2                !
 ! A9    A(4,3,8)              119.993          estimate D2E/DX2                !
 ! A10   A(3,4,5)              119.994          estimate D2E/DX2                !
 ! A11   A(3,4,9)              119.9811         estimate D2E/DX2                !
 ! A12   A(5,4,9)              120.0249         estimate D2E/DX2                !
 ! A13   A(4,5,6)              120.0047         estimate D2E/DX2                !
 ! A14   A(4,5,10)             120.0113         estimate D2E/DX2                !
 ! A15   A(6,5,10)             119.984          estimate D2E/DX2                !
 ! A16   A(1,6,5)              120.0            estimate D2E/DX2                !
 ! A17   A(1,6,11)             120.008          estimate D2E/DX2                !
 ! A18   A(5,6,11)             119.992          estimate D2E/DX2                !
 ! A19   A(6,11,13)            100.2072         estimate D2E/DX2                !
 ! A20   A(1,12,13)            101.1692         estimate D2E/DX2                !
 ! A21   A(11,13,12)            98.5892         estimate D2E/DX2                !
 ! A22   A(11,13,14)           130.7054         estimate D2E/DX2                !
 ! A23   A(12,13,14)           130.7054         estimate D2E/DX2                !
 ! A24   A(13,14,15)           109.4712         estimate D2E/DX2                !
 ! A25   A(13,14,18)           109.4712         estimate D2E/DX2                !
 ! A26   A(15,14,18)           109.4712         estimate D2E/DX2                !
 ! A27   A(14,15,16)           109.4712         estimate D2E/DX2                !
 ! A28   A(14,15,17)           109.4712         estimate D2E/DX2                !
 ! A29   A(14,15,20)           109.4712         estimate D2E/DX2                !
 ! A30   A(16,15,17)           109.4712         estimate D2E/DX2                !
 ! A31   A(16,15,20)           109.4713         estimate D2E/DX2                !
 ! A32   A(17,15,20)           109.4712         estimate D2E/DX2                !
 ! A33   A(14,18,19)           109.4712         estimate D2E/DX2                !
 ! A34   A(14,18,24)           109.4712         estimate D2E/DX2                !
 ! A35   A(19,18,24)           109.4713         estimate D2E/DX2                !
 ! A36   A(15,20,21)           109.4712         estimate D2E/DX2                !
 ! A37   A(15,20,22)           109.4712         estimate D2E/DX2                !
 ! A38   A(15,20,23)           109.4712         estimate D2E/DX2                !
 ! A39   A(21,20,22)           109.4713         estimate D2E/DX2                !
 ! A40   A(21,20,23)           109.4712         estimate D2E/DX2                !
 ! A41   A(22,20,23)           109.4712         estimate D2E/DX2                !
 ! A42   A(18,24,25)           109.4712         estimate D2E/DX2                !
 ! A43   A(18,24,26)           109.4712         estimate D2E/DX2                !
 ! A44   A(18,24,27)           109.4712         estimate D2E/DX2                !
 ! A45   A(25,24,26)           109.4713         estimate D2E/DX2                !
 ! A46   A(25,24,27)           109.4712         estimate D2E/DX2                !
 ! A47   A(26,24,27)           109.4712         estimate D2E/DX2                !
 ! A48   A(24,27,28)           109.4712         estimate D2E/DX2                !
 ! A49   A(24,27,29)           109.4712         estimate D2E/DX2                !
 ! A50   A(24,27,30)           109.4712         estimate D2E/DX2                !
 ! A51   A(28,27,29)           109.4713         estimate D2E/DX2                !
 ! A52   A(28,27,30)           109.4712         estimate D2E/DX2                !
 ! A53   A(29,27,30)           109.4712         estimate D2E/DX2                !
 ! D1    D(6,1,2,3)              0.0323         estimate D2E/DX2                !
 ! D2    D(6,1,2,7)            179.9532         estimate D2E/DX2                !
 ! D3    D(12,1,2,3)          -179.9729         estimate D2E/DX2                !
 ! D4    D(12,1,2,7)            -0.052          estimate D2E/DX2                !
 ! D5    D(2,1,6,5)              0.0149         estimate D2E/DX2                !
 ! D6    D(2,1,6,11)           179.9892         estimate D2E/DX2                !
 ! D7    D(12,1,6,5)          -179.9798         estimate D2E/DX2                !
 ! D8    D(12,1,6,11)           -0.0056         estimate D2E/DX2                !
 ! D9    D(2,1,12,13)          179.0137         estimate D2E/DX2                !
 ! D10   D(6,1,12,13)           -0.9916         estimate D2E/DX2                !
 ! D11   D(1,2,3,4)             -0.0568         estimate D2E/DX2                !
 ! D12   D(1,2,3,8)            179.9619         estimate D2E/DX2                !
 ! D13   D(7,2,3,4)           -179.9777         estimate D2E/DX2                !
 ! D14   D(7,2,3,8)              0.041          estimate D2E/DX2                !
 ! D15   D(2,3,4,5)              0.0341         estimate D2E/DX2                !
 ! D16   D(2,3,4,9)           -179.9964         estimate D2E/DX2                !
 ! D17   D(8,3,4,5)           -179.9846         estimate D2E/DX2                !
 ! D18   D(8,3,4,9)             -0.0151         estimate D2E/DX2                !
 ! D19   D(3,4,5,6)              0.0131         estimate D2E/DX2                !
 ! D20   D(3,4,5,10)          -179.9995         estimate D2E/DX2                !
 ! D21   D(9,4,5,6)           -179.9563         estimate D2E/DX2                !
 ! D22   D(9,4,5,10)             0.0311         estimate D2E/DX2                !
 ! D23   D(4,5,6,1)             -0.0376         estimate D2E/DX2                !
 ! D24   D(4,5,6,11)           179.9881         estimate D2E/DX2                !
 ! D25   D(10,5,6,1)           179.975          estimate D2E/DX2                !
 ! D26   D(10,5,6,11)            0.0007         estimate D2E/DX2                !
 ! D27   D(1,6,11,13)            0.9767         estimate D2E/DX2                !
 ! D28   D(5,6,11,13)         -179.049          estimate D2E/DX2                !
 ! D29   D(6,11,13,12)          -1.306          estimate D2E/DX2                !
 ! D30   D(6,11,13,14)         178.694          estimate D2E/DX2                !
 ! D31   D(1,12,13,11)           1.3077         estimate D2E/DX2                !
 ! D32   D(1,12,13,14)        -178.6923         estimate D2E/DX2                !
 ! D33   D(11,13,14,15)         26.8587         estimate D2E/DX2                !
 ! D34   D(11,13,14,18)        -93.1413         estimate D2E/DX2                !
 ! D35   D(12,13,14,15)       -153.1413         estimate D2E/DX2                !
 ! D36   D(12,13,14,18)         86.8587         estimate D2E/DX2                !
 ! D37   D(13,14,15,16)        -66.5358         estimate D2E/DX2                !
 ! D38   D(13,14,15,17)         53.4642         estimate D2E/DX2                !
 ! D39   D(13,14,15,20)        173.4642         estimate D2E/DX2                !
 ! D40   D(18,14,15,16)         53.4642         estimate D2E/DX2                !
 ! D41   D(18,14,15,17)        173.4642         estimate D2E/DX2                !
 ! D42   D(18,14,15,20)        -66.5358         estimate D2E/DX2                !
 ! D43   D(13,14,18,19)        -61.4761         estimate D2E/DX2                !
 ! D44   D(13,14,18,24)        178.5239         estimate D2E/DX2                !
 ! D45   D(15,14,18,19)        178.5239         estimate D2E/DX2                !
 ! D46   D(15,14,18,24)         58.5239         estimate D2E/DX2                !
 ! D47   D(14,15,20,21)         85.1981         estimate D2E/DX2                !
 ! D48   D(14,15,20,22)       -154.8019         estimate D2E/DX2                !
 ! D49   D(14,15,20,23)        -34.8019         estimate D2E/DX2                !
 ! D50   D(16,15,20,21)        -34.8019         estimate D2E/DX2                !
 ! D51   D(16,15,20,22)         85.1981         estimate D2E/DX2                !
 ! D52   D(16,15,20,23)       -154.8019         estimate D2E/DX2                !
 ! D53   D(17,15,20,21)       -154.8019         estimate D2E/DX2                !
 ! D54   D(17,15,20,22)        -34.8019         estimate D2E/DX2                !
 ! D55   D(17,15,20,23)         85.1981         estimate D2E/DX2                !
 ! D56   D(14,18,24,25)        -87.0037         estimate D2E/DX2                !
 ! D57   D(14,18,24,26)         32.9963         estimate D2E/DX2                !
 ! D58   D(14,18,24,27)        152.9963         estimate D2E/DX2                !
 ! D59   D(19,18,24,25)        152.9963         estimate D2E/DX2                !
 ! D60   D(19,18,24,26)        -87.0037         estimate D2E/DX2                !
 ! D61   D(19,18,24,27)         32.9963         estimate D2E/DX2                !
 ! D62   D(18,24,27,28)         54.198          estimate D2E/DX2                !
 ! D63   D(18,24,27,29)        174.1981         estimate D2E/DX2                !
 ! D64   D(18,24,27,30)        -65.802          estimate D2E/DX2                !
 ! D65   D(25,24,27,28)        -65.8019         estimate D2E/DX2                !
 ! D66   D(25,24,27,29)         54.1981         estimate D2E/DX2                !
 ! D67   D(25,24,27,30)        174.1981         estimate D2E/DX2                !
 ! D68   D(26,24,27,28)        174.198          estimate D2E/DX2                !
 ! D69   D(26,24,27,29)        -65.802          estimate D2E/DX2                !
 ! D70   D(26,24,27,30)         54.198          estimate D2E/DX2                !
 --------------------------------------------------------------------------------
 Trust Radius=3.00D-01 FncErr=1.00D-07 GrdErr=1.00D-06
 Number of steps in this run=    164 maximum allowed number of steps=    180.
 GradGradGradGradGradGradGradGradGradGradGradGradGradGradGradGradGradGrad

                          Input orientation:                          
 ---------------------------------------------------------------------
 Center     Atomic      Atomic             Coordinates (Angstroms)
 Number     Number       Type             X           Y           Z
 ---------------------------------------------------------------------
      1          6           0       -2.449841   -0.450608    0.000000
      2          6           0       -1.054681   -0.450608    0.000000
      3          6           0       -0.357143    0.757143    0.000000
      4          6           0       -1.054797    1.965652   -0.001199
      5          6           0       -2.449622    1.965574   -0.001678
      6          6           0       -3.147223    0.757368   -0.000682
      7          1           0       -0.505173   -1.403121    0.001315
      8          1           0        0.742537    0.757223    0.000634
      9          1           0       -0.504597    2.917795   -0.001258
     10          1           0       -2.999744    2.917855   -0.002631
     11          8           0       -4.577223    0.757606   -0.000916
     12          8           0       -3.164781   -1.689059    0.000585
     13          5           0       -4.910942   -1.093703    0.031463
     14          6           0       -6.332483   -1.930288    0.074402
     15          6           0       -7.446324   -1.083071   -0.568390
     16          1           0       -7.633616   -0.221275    0.037522
     17          1           0       -7.139432   -0.772415   -1.545227
     18          6           0       -6.702100   -2.239603    1.537039
     19          1           0       -5.940574   -2.849778    1.975975
     20          6           0       -8.732300   -1.923309   -0.677328
     21          1           0       -9.274598   -1.866393    0.243310
     22          1           0       -9.339426   -1.544665   -1.472894
     23          1           0       -8.476377   -2.942671   -0.878089
     24          6           0       -8.047370   -2.987977    1.579302
     25          1           0       -8.849087   -2.279635    1.599334
     26          1           0       -8.139126   -3.606036    0.710691
     27          6           0       -8.106705   -3.866293    2.842885
     28          1           0       -7.914144   -3.263437    3.705662
     29          1           0       -9.078124   -4.307232    2.925462
     30          1           0       -7.369074   -4.638470    2.775473
 ---------------------------------------------------------------------
                    Distance matrix (angstroms):
                    1          2          3          4          5
     1  C    0.000000
     2  C    1.395160   0.000000
     3  C    2.416205   1.394712   0.000000
     4  C    2.790065   2.416260   1.395427   0.000000
     5  C    2.416183   2.789946   2.416356   1.394825   0.000000
     6  C    1.394829   2.416183   2.790080   2.416236   1.395138
     7  H    2.165414   1.099655   2.165330   3.413316   3.889601
     8  H    3.413229   2.165375   1.099680   2.165806   3.413209
     9  H    3.889745   3.413024   2.165678   1.099680   2.165606
    10  H    3.413055   3.889707   3.413506   2.165528   1.099761
    11  O    2.446535   3.723988   4.220080   3.723823   2.446604
    12  O    1.430000   2.446688   3.723806   4.220065   3.723949
    13  B    2.543930   3.909643   4.915659   4.922456   3.926623
    14  C    4.155707   5.481805   6.552291   6.560338   5.500922
    15  C    5.068325   6.447959   7.346152   7.104086   5.880683
    16  H    5.188981   6.583038   7.342055   6.932894   5.626512
    17  H    4.948085   6.286134   7.122269   6.848636   5.645657
    18  C    4.862582   6.120159   7.183416   7.207106   6.175333
    19  H    4.673940   5.790721   6.934628   7.139216   6.267812
    20  C    6.488213   7.846875   8.819685   8.632799   7.419700
    21  H    6.974306   8.344500   9.298556   9.072457   7.830982
    22  H    7.129710   8.485481   9.388778   9.117198   7.871192
    23  H    6.580316   7.878007   8.965580   8.940941   7.821812
    24  C    6.345452   7.604613   8.698259   8.713926   7.640154
    25  H    6.844966   8.164311   9.159312   9.018598   7.844628
    26  H    6.544446   7.787886   8.949954   9.040919   7.995046
    27  C    7.193678   8.335463   9.461177   9.582787   8.608415
    28  H    7.176527   8.288315   9.327661   9.388015   8.423059
    29  H    8.207680   9.370566  10.500558  10.596612   9.584011
    30  H    7.031379   8.069262   9.272705   9.549577   8.690625
                    6          7          8          9         10
     6  C    0.000000
     7  H    3.412938   0.000000
     8  H    3.889760   2.494768   0.000000
     9  H    3.413344   4.320917   2.494678   0.000000
    10  H    2.165516   4.989362   4.321228   2.495147   0.000000
    11  O    1.430000   4.609809   5.319760   4.610065   2.674905
    12  O    2.446490   2.674935   4.609927   5.319745   4.609870
    13  B    2.556990   4.416724   5.948840   5.958948   4.443696
    14  C    4.168335   5.851563   7.568624   7.581154   5.883671
    15  C    4.710815   6.971842   8.412367   8.032194   6.008292
    16  H    4.592050   7.225841   8.433194   7.789620   5.597189
    17  H    4.545722   6.841270   8.176485   7.747421   5.756276
    18  C    4.897303   6.438949   8.170932   8.208176   6.532794
    19  H    4.972070   5.961182   7.847063   8.168488   6.769708
    20  C    6.231931   8.271443   9.870026   9.570186   7.533544
    21  H    6.669960   8.784987  10.357859   9.993056   7.894511
    22  H    6.768319   8.957531  10.445859  10.006671   7.890965
    23  H    6.546756   8.166007   9.972450   9.932934   8.068811
    24  C    6.366742   7.866800   9.684068   9.709260   7.928423
    25  H    6.655425   8.540658  10.187129   9.960205   7.987177
    26  H    6.668166   7.977047   9.920995  10.067436   8.335660
    27  C    7.352590   8.480862  10.380962  10.578518   8.955595
    28  H    7.254474   8.489747  10.238704  10.336840   8.724169
    29  H    8.329950   9.512097  11.430166  11.587582   9.885459
    30  H    7.392302   8.079392  10.129732  10.579623   9.160073
                   11         12         13         14         15
    11  O    0.000000
    12  O    2.825095   0.000000
    13  B    1.881425   1.845123   0.000000
    14  C    3.211135   3.177732   1.650000   0.000000
    15  C    3.455700   4.361487   2.605398   1.540000   0.000000
    16  H    3.209552   4.703854   2.859042   2.148263   1.070000
    17  H    3.360175   4.362066   2.748699   2.148263   1.070000
    18  C    3.982922   3.895693   2.605398   1.540000   2.514809
    19  H    4.333595   3.599231   2.815150   2.148263   3.444173
    20  C    4.990942   5.613529   3.974092   2.514809   1.540000
    21  H    5.386125   6.117207   4.436600   2.947651   2.148263
    22  H    5.490515   6.349664   4.698716   3.403607   2.148263
    23  H    5.446548   5.527809   4.118046   2.555081   2.148263
    24  C    5.344942   5.293317   3.977595   2.514809   2.933003
    25  H    5.480370   5.934316   4.401550   2.963233   2.845792
    26  H    5.677579   5.378026   4.146606   2.544985   2.912280
    27  C    6.474943   6.102592   5.079789   3.815819   4.451878
    28  H    6.406446   6.225970   5.217922   4.179112   4.820826
    29  H    7.380676   7.097701   6.005615   4.617028   5.026428
    30  H    6.679850   5.837389   5.112473   3.962897   4.881418
                   16         17         18         19         20
    16  H    0.000000
    17  H    1.747303   0.000000
    18  C    2.681402   3.441549   0.000000
    19  H    3.678725   4.260464   1.070000   0.000000
    20  C    2.148263   2.148263   3.020790   3.961324   0.000000
    21  H    2.332719   2.992421   2.903578   3.883927   1.070000
    22  H    2.634864   2.332719   4.061789   5.014999   1.070000
    23  H    2.992421   2.634864   3.078183   3.818980   1.070000
    24  C    3.194201   3.936464   1.540000   2.148263   2.587475
    25  H    2.855428   3.883670   2.148263   2.987702   2.307335
    26  H    3.487879   3.757387   2.148263   2.646979   2.260535
    27  C    4.623854   5.455568   2.514810   2.544987   4.069208
    28  H    4.773750   5.863207   2.687045   2.656672   4.655740
    29  H    5.207863   6.020009   3.442135   3.587466   4.333910
    30  H    5.203649   5.802375   2.780851   2.424712   4.599164
                   21         22         23         24         25
    21  H    0.000000
    22  H    1.747303   0.000000
    23  H    1.747303   1.747303   0.000000
    24  C    2.132819   3.615033   2.494969   0.000000
    25  H    1.480078   3.196748   2.591554   1.070000   0.000000
    26  H    2.129342   3.233885   1.754427   1.070000   1.747303
    27  C    3.481575   5.053267   3.851673   1.540000   2.148263
    28  H    3.973720   5.639419   4.629230   2.148263   2.505714
    29  H    3.631837   5.200538   4.085478   2.148263   2.433562
    30  H    4.210378   5.612712   4.177364   2.148263   3.022886
                   26         27         28         29         30
    26  H    0.000000
    27  C    2.148263   0.000000
    28  H    3.022886   1.070000   0.000000
    29  H    2.505714   1.070000   1.747303   0.000000
    30  H    2.433562   1.070000   1.747303   1.747303   0.000000
 Stoichiometry    C12H15BO2
 Framework group  C1[X(C12H15BO2)]
 Deg. of freedom    84
 Full point group                 C1      NOp   1
 Largest Abelian subgroup         C1      NOp   1
 Largest concise Abelian subgroup C1      NOp   1
                         Standard orientation:                         
 ---------------------------------------------------------------------
 Center     Atomic      Atomic             Coordinates (Angstroms)
 Number     Number       Type             X           Y           Z
 ---------------------------------------------------------------------
      1          6           0        2.251988   -0.596907   -0.460459
      2          6           0        3.461509   -1.248572   -0.703074
      3          6           0        4.641299   -0.761509   -0.140858
      4          6           0        4.612077    0.378432    0.663442
      5          6           0        3.402880    1.030163    0.905568
      6          6           0        2.222672    0.542251    0.343908
      7          1           0        3.484171   -2.147084   -1.336639
      8          1           0        5.594601   -1.275468   -0.331533
      9          1           0        5.542436    0.762312    1.106573
     10          1           0        3.379521    1.928597    1.539401
     11          8           0        0.983094    1.210484    0.592528
     12          8           0        1.042407   -1.096840   -1.036551
     13          5           0       -0.192483    0.101772   -0.371078
     14          6           0       -1.829538    0.178072   -0.562728
     15          6           0       -2.297088    1.637157   -0.407583
     16          1           0       -2.138371    1.957217    0.601016
     17          1           0       -1.739221    2.263053   -1.072367
     18          6           0       -2.512705   -0.696199    0.505228
     19          1           0       -2.207696   -1.714281    0.381214
     20          6           0       -3.795981    1.734770   -0.747273
     21          1           0       -4.374635    1.498451    0.121182
     22          1           0       -4.024845    2.729408   -1.068549
     23          1           0       -4.029904    1.044275   -1.530469
     24          6           0       -4.041535   -0.595766    0.349691
     25          1           0       -4.402253    0.243970    0.906131
     26          1           0       -4.287418   -0.470797   -0.684149
     27          6           0       -4.697312   -1.883788    0.881251
     28          1           0       -4.370415   -2.062729    1.884255
     29          1           0       -5.761590   -1.774175    0.867182
     30          1           0       -4.415568   -2.709384    0.261645
 ---------------------------------------------------------------------
 Rotational constants (GHZ):      1.4317629      0.2391141      0.2214516
 Standard basis: 6-31G (6D, 7F)
 There are   165 symmetry adapted cartesian basis functions of A   symmetry.
 There are   165 symmetry adapted basis functions of A   symmetry.
   165 basis functions,   390 primitive gaussians,   165 cartesian basis functions
    54 alpha electrons       54 beta electrons
       nuclear repulsion energy       876.6090511698 Hartrees.
 NAtoms=   30 NActive=   30 NUniq=   30 SFac= 1.00D+00 NAtFMM=   60 NAOKFM=F Big=F
 Integral buffers will be    131072 words long.
 Raffenetti 2 integral format.
 Two-electron integral symmetry is turned on.
 Nuclear repulsion after empirical dispersion term =      876.5860117033 Hartrees.
 One-electron integrals computed using PRISM.
 NBasis=   165 RedAO= T EigKep=  6.08D-04  NBF=   165
 NBsUse=   165 1.00D-06 EigRej= -1.00D+00 NBFU=   165
 ExpMin= 1.27D-01 ExpMax= 5.48D+03 ExpMxC= 8.25D+02 IAcc=1 IRadAn=         1 AccDes= 0.00D+00
 Harris functional with IExCor=  402 and IRadAn=       1 diagonalized for initial guess.
 HarFok:  IExCor=  402 AccDes= 0.00D+00 IRadAn=         1 IDoV= 1 UseB2=F ITyADJ=14
 ICtDFT=  3500011 ScaDFX=  1.000000  1.000000  1.000000  1.000000
 FoFCou: FMM=F IPFlag=           0 FMFlag=      100000 FMFlg1=           0
         NFxFlg=           0 DoJE=T BraDBF=F KetDBF=T FulRan=T
         wScrn=  0.000000 ICntrl=     500 IOpCl=  0 I1Cent=   200000004 NGrid=           0
         NMat0=    1 NMatS0=      1 NMatT0=    0 NMatD0=    1 NMtDS0=    0 NMtDT0=    0
 Petite list used in FoFCou.
 Keep R1 ints in memory in canonical form, NReq=96172930.
 Requested convergence on RMS density matrix=1.00D-08 within 128 cycles.
 Requested convergence on MAX density matrix=1.00D-06.
 Requested convergence on             energy=1.00D-06.
 No special actions if energy rises.
 Integral accuracy reduced to 1.0D-05 until final iterations.
 Initial convergence to 1.0D-05 achieved.  Increase integral accuracy.
 SCF Done:  E(RB3LYP) =  -641.296470780     A.U. after   20 cycles
            NFock= 20  Conv=0.37D-08     -V/T= 2.0066

 **********************************************************************

            Population analysis using the SCF density.

 **********************************************************************

 Orbital symmetries:
       Occupied  (A) (A) (A) (A) (A) (A) (A) (A) (A) (A) (A) (A)
                 (A) (A) (A) (A) (A) (A) (A) (A) (A) (A) (A) (A)
                 (A) (A) (A) (A) (A) (A) (A) (A) (A) (A) (A) (A)
                 (A) (A) (A) (A) (A) (A) (A) (A) (A) (A) (A) (A)
                 (A) (A) (A) (A) (A) (A)
       Virtual   (A) (A) (A) (A) (A) (A) (A) (A) (A) (A) (A) (A)
                 (A) (A) (A) (A) (A) (A) (A) (A) (A) (A) (A) (A)
                 (A) (A) (A) (A) (A) (A) (A) (A) (A) (A) (A) (A)
                 (A) (A) (A) (A) (A) (A) (A) (A) (A) (A) (A) (A)
                 (A) (A) (A) (A) (A) (A) (A) (A) (A) (A) (A) (A)
                 (A) (A) (A) (A) (A) (A) (A) (A) (A) (A) (A) (A)
                 (A) (A) (A) (A) (A) (A) (A) (A) (A) (A) (A) (A)
                 (A) (A) (A) (A) (A) (A) (A) (A) (A) (A) (A) (A)
                 (A) (A) (A) (A) (A) (A) (A) (A) (A) (A) (A) (A)
                 (A) (A) (A)
 The electronic state is 1-A.
 Alpha  occ. eigenvalues --  -19.18139 -19.18054 -10.24265 -10.24148 -10.23510
 Alpha  occ. eigenvalues --  -10.23462 -10.19839 -10.19635 -10.18048 -10.18036
 Alpha  occ. eigenvalues --  -10.17818 -10.17765 -10.17494 -10.17254  -6.89776
 Alpha  occ. eigenvalues --   -1.01306  -0.97622  -0.84400  -0.84116  -0.78751
 Alpha  occ. eigenvalues --   -0.73500  -0.73095  -0.72027  -0.67838  -0.61030
 Alpha  occ. eigenvalues --   -0.60516  -0.58097  -0.57345  -0.51392  -0.49984
 Alpha  occ. eigenvalues --   -0.49137  -0.47493  -0.46506  -0.45270  -0.43608
 Alpha  occ. eigenvalues --   -0.42327  -0.42053  -0.41856  -0.40909  -0.39419
 Alpha  occ. eigenvalues --   -0.39052  -0.38301  -0.37874  -0.36060  -0.35869
 Alpha  occ. eigenvalues --   -0.33992  -0.33281  -0.32744  -0.32182  -0.31904
 Alpha  occ. eigenvalues --   -0.31622  -0.27052  -0.22990  -0.20962
 Alpha virt. eigenvalues --   -0.11005  -0.05228  -0.01149   0.01395   0.02627
 Alpha virt. eigenvalues --    0.04548   0.08024   0.09580   0.10232   0.11165
 Alpha virt. eigenvalues --    0.12133   0.14700   0.15290   0.15855   0.16603
 Alpha virt. eigenvalues --    0.17558   0.18003   0.18428   0.18861   0.19089
 Alpha virt. eigenvalues --    0.19532   0.20108   0.21930   0.22673   0.24044
 Alpha virt. eigenvalues --    0.24371   0.24974   0.26137   0.27412   0.30765
 Alpha virt. eigenvalues --    0.32088   0.33372   0.35809   0.37380   0.43740
 Alpha virt. eigenvalues --    0.47015   0.48523   0.50981   0.53086   0.53139
 Alpha virt. eigenvalues --    0.53647   0.55011   0.55924   0.56132   0.56696
 Alpha virt. eigenvalues --    0.58004   0.59322   0.59586   0.59741   0.60734
 Alpha virt. eigenvalues --    0.61640   0.63105   0.64219   0.64844   0.65142
 Alpha virt. eigenvalues --    0.65895   0.66186   0.66622   0.67053   0.68455
 Alpha virt. eigenvalues --    0.69097   0.72294   0.73265   0.74107   0.77906
 Alpha virt. eigenvalues --    0.78477   0.83217   0.83631   0.85432   0.85912
 Alpha virt. eigenvalues --    0.87713   0.88915   0.89825   0.92491   0.93196
 Alpha virt. eigenvalues --    0.93377   0.95250   0.96017   0.96443   0.97284
 Alpha virt. eigenvalues --    0.98563   0.99757   1.00011   1.01344   1.01951
 Alpha virt. eigenvalues --    1.02719   1.04247   1.04848   1.05631   1.07703
 Alpha virt. eigenvalues --    1.08670   1.09346   1.12009   1.13525   1.17746
 Alpha virt. eigenvalues --    1.18553   1.20450   1.21731   1.27904   1.32423
 Alpha virt. eigenvalues --    1.34977   1.37175   1.41040   1.44852   1.48408
 Alpha virt. eigenvalues --    1.54020   1.63667   1.78581   1.85900   1.88323
 Alpha virt. eigenvalues --    2.15468
          Condensed to atoms (all electrons):
               1          2          3          4          5          6
     1  C    5.062355   0.459306  -0.031749  -0.033740  -0.054021   0.251613
     2  C    0.459306   5.031608   0.513680  -0.053456  -0.029174  -0.054337
     3  C   -0.031749   0.513680   4.919639   0.530589  -0.053744  -0.033426
     4  C   -0.033740  -0.053456   0.530589   4.919223   0.513805  -0.032087
     5  C   -0.054021  -0.029174  -0.053744   0.513805   5.029714   0.461496
     6  C    0.251613  -0.054337  -0.033426  -0.032087   0.461496   5.052176
     7  H   -0.027372   0.344067  -0.035469   0.004532   0.000281   0.005640
     8  H    0.004235  -0.030545   0.351186  -0.034461   0.004325   0.000765
     9  H    0.000758   0.004327  -0.034417   0.351163  -0.030611   0.004227
    10  H    0.005743   0.000247   0.004574  -0.035682   0.344138  -0.027804
    11  O   -0.084365   0.003980  -0.000096   0.003637  -0.057232   0.227535
    12  O    0.223636  -0.057417   0.003616  -0.000083   0.003881  -0.083917
    13  B   -0.035184   0.005497  -0.000071  -0.000034   0.005392  -0.034015
    14  C    0.000636  -0.000023   0.000001   0.000001  -0.000027   0.000458
    15  C   -0.000029   0.000000   0.000000   0.000000   0.000000  -0.000031
    16  H    0.000008   0.000000   0.000000   0.000000  -0.000001   0.000008
    17  H   -0.000007   0.000000   0.000000   0.000000   0.000000  -0.000012
    18  C    0.000018   0.000000   0.000000   0.000000  -0.000001   0.000007
    19  H   -0.000010   0.000000   0.000000   0.000000   0.000000  -0.000010
    20  C    0.000000   0.000000   0.000000   0.000000   0.000000  -0.000001
    21  H    0.000000   0.000000   0.000000   0.000000   0.000000   0.000000
    22  H    0.000000   0.000000   0.000000   0.000000   0.000000   0.000000
    23  H    0.000000   0.000000   0.000000   0.000000   0.000000   0.000000
    24  C    0.000000   0.000000   0.000000   0.000000   0.000000   0.000000
    25  H    0.000000   0.000000   0.000000   0.000000   0.000000   0.000000
    26  H    0.000000   0.000000   0.000000   0.000000   0.000000   0.000000
    27  C    0.000000   0.000000   0.000000   0.000000   0.000000   0.000000
    28  H    0.000000   0.000000   0.000000   0.000000   0.000000   0.000000
    29  H    0.000000   0.000000   0.000000   0.000000   0.000000   0.000000
    30  H    0.000000   0.000000   0.000000   0.000000   0.000000   0.000000
               7          8          9         10         11         12
     1  C   -0.027372   0.004235   0.000758   0.005743  -0.084365   0.223636
     2  C    0.344067  -0.030545   0.004327   0.000247   0.003980  -0.057417
     3  C   -0.035469   0.351186  -0.034417   0.004574  -0.000096   0.003616
     4  C    0.004532  -0.034461   0.351163  -0.035682   0.003637  -0.000083
     5  C    0.000281   0.004325  -0.030611   0.344138  -0.057232   0.003881
     6  C    0.005640   0.000765   0.004227  -0.027804   0.227535  -0.083917
     7  H    0.577133  -0.004653  -0.000166   0.000010  -0.000036  -0.002041
     8  H   -0.004653   0.589483  -0.004160  -0.000166   0.000001  -0.000043
     9  H   -0.000166  -0.004160   0.589456  -0.004659  -0.000043   0.000001
    10  H    0.000010  -0.000166  -0.004659   0.578549  -0.002093  -0.000037
    11  O   -0.000036   0.000001  -0.000043  -0.002093   8.292928  -0.018529
    12  O   -0.002041  -0.000043   0.000001  -0.000037  -0.018529   8.285459
    13  B   -0.000099   0.000001   0.000001  -0.000132   0.227426   0.238405
    14  C    0.000000   0.000000   0.000000  -0.000001  -0.012876  -0.010969
    15  C    0.000000   0.000000   0.000000   0.000000   0.001243   0.000172
    16  H    0.000000   0.000000   0.000000   0.000000   0.000960  -0.000005
    17  H    0.000000   0.000000   0.000000   0.000000   0.000170   0.000022
    18  C    0.000000   0.000000   0.000000   0.000000  -0.000990  -0.000494
    19  H    0.000000   0.000000   0.000000   0.000000   0.000023   0.000496
    20  C    0.000000   0.000000   0.000000   0.000000   0.000022  -0.000005
    21  H    0.000000   0.000000   0.000000   0.000000   0.000000   0.000000
    22  H    0.000000   0.000000   0.000000   0.000000   0.000000   0.000000
    23  H    0.000000   0.000000   0.000000   0.000000   0.000000   0.000000
    24  C    0.000000   0.000000   0.000000   0.000000  -0.000005  -0.000004
    25  H    0.000000   0.000000   0.000000   0.000000   0.000001   0.000000
    26  H    0.000000   0.000000   0.000000   0.000000  -0.000001   0.000000
    27  C    0.000000   0.000000   0.000000   0.000000   0.000000   0.000000
    28  H    0.000000   0.000000   0.000000   0.000000   0.000000   0.000000
    29  H    0.000000   0.000000   0.000000   0.000000   0.000000   0.000000
    30  H    0.000000   0.000000   0.000000   0.000000   0.000000   0.000000
              13         14         15         16         17         18
     1  C   -0.035184   0.000636  -0.000029   0.000008  -0.000007   0.000018
     2  C    0.005497  -0.000023   0.000000   0.000000   0.000000   0.000000
     3  C   -0.000071   0.000001   0.000000   0.000000   0.000000   0.000000
     4  C   -0.000034   0.000001   0.000000   0.000000   0.000000   0.000000
     5  C    0.005392  -0.000027   0.000000  -0.000001   0.000000  -0.000001
     6  C   -0.034015   0.000458  -0.000031   0.000008  -0.000012   0.000007
     7  H   -0.000099   0.000000   0.000000   0.000000   0.000000   0.000000
     8  H    0.000001   0.000000   0.000000   0.000000   0.000000   0.000000
     9  H    0.000001   0.000000   0.000000   0.000000   0.000000   0.000000
    10  H   -0.000132  -0.000001   0.000000   0.000000   0.000000   0.000000
    11  O    0.227426  -0.012876   0.001243   0.000960   0.000170  -0.000990
    12  O    0.238405  -0.010969   0.000172  -0.000005   0.000022  -0.000494
    13  B    3.605804   0.355080  -0.042172  -0.000007  -0.003040  -0.015940
    14  C    0.355080   5.339111   0.304431  -0.043922  -0.041058   0.466719
    15  C   -0.042172   0.304431   5.158264   0.395174   0.379370  -0.066530
    16  H   -0.000007  -0.043922   0.395174   0.549469  -0.035063  -0.011851
    17  H   -0.003040  -0.041058   0.379370  -0.035063   0.578487   0.005712
    18  C   -0.015940   0.466719  -0.066530  -0.011851   0.005712   5.191887
    19  H   -0.003675  -0.047560   0.005539   0.000357  -0.000261   0.363371
    20  C    0.004508  -0.051605   0.297308  -0.037918  -0.036740  -0.011544
    21  H   -0.000322  -0.002333  -0.040247  -0.009450   0.005201   0.002481
    22  H   -0.000152   0.004790  -0.031443   0.000803  -0.008690   0.000131
    23  H    0.000557  -0.001150  -0.043551   0.005432  -0.001284   0.001044
    24  C    0.004378  -0.057551  -0.011178  -0.001094   0.000063   0.309013
    25  H   -0.000434  -0.002481   0.005027   0.002730  -0.000227  -0.040993
    26  H    0.000446  -0.013119  -0.004662  -0.000370  -0.000027  -0.045430
    27  C   -0.000214   0.004754   0.000320  -0.000036   0.000006  -0.045206
    28  H    0.000011   0.000270  -0.000034  -0.000014   0.000000  -0.003357
    29  H    0.000005  -0.000258   0.000000   0.000001   0.000000   0.005255
    30  H   -0.000034   0.000185   0.000014   0.000003   0.000000  -0.005629
              19         20         21         22         23         24
     1  C   -0.000010   0.000000   0.000000   0.000000   0.000000   0.000000
     2  C    0.000000   0.000000   0.000000   0.000000   0.000000   0.000000
     3  C    0.000000   0.000000   0.000000   0.000000   0.000000   0.000000
     4  C    0.000000   0.000000   0.000000   0.000000   0.000000   0.000000
     5  C    0.000000   0.000000   0.000000   0.000000   0.000000   0.000000
     6  C   -0.000010  -0.000001   0.000000   0.000000   0.000000   0.000000
     7  H    0.000000   0.000000   0.000000   0.000000   0.000000   0.000000
     8  H    0.000000   0.000000   0.000000   0.000000   0.000000   0.000000
     9  H    0.000000   0.000000   0.000000   0.000000   0.000000   0.000000
    10  H    0.000000   0.000000   0.000000   0.000000   0.000000   0.000000
    11  O    0.000023   0.000022   0.000000   0.000000   0.000000  -0.000005
    12  O    0.000496  -0.000005   0.000000   0.000000   0.000000  -0.000004
    13  B   -0.003675   0.004508  -0.000322  -0.000152   0.000557   0.004378
    14  C   -0.047560  -0.051605  -0.002333   0.004790  -0.001150  -0.057551
    15  C    0.005539   0.297308  -0.040247  -0.031443  -0.043551  -0.011178
    16  H    0.000357  -0.037918  -0.009450   0.000803   0.005432  -0.001094
    17  H   -0.000261  -0.036740   0.005201  -0.008690  -0.001284   0.000063
    18  C    0.363371  -0.011544   0.002481   0.000131   0.001044   0.309013
    19  H    0.580544  -0.000431  -0.000120   0.000017  -0.000011  -0.066854
    20  C   -0.000431   5.142340   0.390924   0.361252   0.390568  -0.020937
    21  H   -0.000120   0.390924   0.604316  -0.029205  -0.038184  -0.014652
    22  H    0.000017   0.361252  -0.029205   0.592913  -0.029093   0.001717
    23  H   -0.000011   0.390568  -0.038184  -0.029093   0.583530  -0.014296
    24  C   -0.066854  -0.020937  -0.014652   0.001717  -0.014296   5.195729
    25  H    0.005150  -0.031236  -0.001115   0.001537   0.000729   0.375494
    26  H    0.002156   0.002074  -0.008055   0.000793  -0.003135   0.409841
    27  C   -0.005323   0.002304   0.002216  -0.000082   0.000228   0.302786
    28  H    0.000404  -0.000002  -0.000085   0.000001  -0.000025  -0.037113
    29  H    0.000154   0.000072  -0.000014  -0.000001   0.000016  -0.034360
    30  H    0.005659  -0.000098  -0.000014   0.000002   0.000027  -0.038293
              25         26         27         28         29         30
     1  C    0.000000   0.000000   0.000000   0.000000   0.000000   0.000000
     2  C    0.000000   0.000000   0.000000   0.000000   0.000000   0.000000
     3  C    0.000000   0.000000   0.000000   0.000000   0.000000   0.000000
     4  C    0.000000   0.000000   0.000000   0.000000   0.000000   0.000000
     5  C    0.000000   0.000000   0.000000   0.000000   0.000000   0.000000
     6  C    0.000000   0.000000   0.000000   0.000000   0.000000   0.000000
     7  H    0.000000   0.000000   0.000000   0.000000   0.000000   0.000000
     8  H    0.000000   0.000000   0.000000   0.000000   0.000000   0.000000
     9  H    0.000000   0.000000   0.000000   0.000000   0.000000   0.000000
    10  H    0.000000   0.000000   0.000000   0.000000   0.000000   0.000000
    11  O    0.000001  -0.000001   0.000000   0.000000   0.000000   0.000000
    12  O    0.000000   0.000000   0.000000   0.000000   0.000000   0.000000
    13  B   -0.000434   0.000446  -0.000214   0.000011   0.000005  -0.000034
    14  C   -0.002481  -0.013119   0.004754   0.000270  -0.000258   0.000185
    15  C    0.005027  -0.004662   0.000320  -0.000034   0.000000   0.000014
    16  H    0.002730  -0.000370  -0.000036  -0.000014   0.000001   0.000003
    17  H   -0.000227  -0.000027   0.000006   0.000000   0.000000   0.000000
    18  C   -0.040993  -0.045430  -0.045206  -0.003357   0.005255  -0.005629
    19  H    0.005150   0.002156  -0.005323   0.000404   0.000154   0.005659
    20  C   -0.031236   0.002074   0.002304  -0.000002   0.000072  -0.000098
    21  H   -0.001115  -0.008055   0.002216  -0.000085  -0.000014  -0.000014
    22  H    0.001537   0.000793  -0.000082   0.000001  -0.000001   0.000002
    23  H    0.000729  -0.003135   0.000228  -0.000025   0.000016   0.000027
    24  C    0.375494   0.409841   0.302786  -0.037113  -0.034360  -0.038293
    25  H    0.601531  -0.040972  -0.036003  -0.003979  -0.004524   0.005354
    26  H   -0.040972   0.569592  -0.044969   0.004990  -0.001064  -0.005661
    27  C   -0.036003  -0.044969   5.104059   0.379323   0.375692   0.380263
    28  H   -0.003979   0.004990   0.379323   0.575112  -0.029744  -0.032012
    29  H   -0.004524  -0.001064   0.375692  -0.029744   0.579584  -0.031299
    30  H    0.005354  -0.005661   0.380263  -0.032012  -0.031299   0.579003
 Mulliken charges:
               1
     1  C    0.258166
     2  C   -0.137759
     3  C   -0.134311
     4  C   -0.133406
     5  C   -0.138220
     6  C    0.261715
     7  H    0.138174
     8  H    0.124033
     9  H    0.124124
    10  H    0.137314
    11  O   -0.581659
    12  O   -0.582144
    13  B    0.688015
    14  C   -0.191503
    15  C   -0.306984
    16  H    0.184785
    17  H    0.157380
    18  C   -0.097670
    19  H    0.160386
    20  C   -0.400856
    21  H    0.138657
    22  H    0.134711
    23  H    0.148600
    24  C   -0.302684
    25  H    0.164412
    26  H    0.177571
    27  C   -0.420119
    28  H    0.146251
    29  H    0.140488
    30  H    0.142531
 Sum of Mulliken charges =   0.00000
 Mulliken charges with hydrogens summed into heavy atoms:
               1
     1  C    0.258166
     2  C    0.000415
     3  C   -0.010278
     4  C   -0.009282
     5  C   -0.000906
     6  C    0.261715
    11  O   -0.581659
    12  O   -0.582144
    13  B    0.688015
    14  C   -0.191503
    15  C    0.035182
    18  C    0.062717
    20  C    0.021112
    24  C    0.039300
    27  C    0.009151
 Electronic spatial extent (au):  <R**2>=           5008.2635
 Charge=              0.0000 electrons
 Dipole moment (field-independent basis, Debye):
    X=             -3.7960    Y=              0.1728    Z=              0.2903  Tot=              3.8110
 Quadrupole moment (field-independent basis, Debye-Ang):
   XX=            -74.2100   YY=            -90.1512   ZZ=            -92.2101
   XY=             -0.7481   XZ=              0.7006   YZ=             -0.8885
 Traceless Quadrupole moment (field-independent basis, Debye-Ang):
   XX=             11.3138   YY=             -4.6274   ZZ=             -6.6864
   XY=             -0.7481   XZ=              0.7006   YZ=             -0.8885
 Octapole moment (field-independent basis, Debye-Ang**2):
  XXX=             -5.6199  YYY=              0.3797  ZZZ=              1.7946  XYY=             -3.4215
  XXY=             -5.3963  XXZ=              8.0590  XZZ=             -6.5574  YZZ=              4.3814
  YYZ=             -0.5592  XYZ=              8.7062
 Hexadecapole moment (field-independent basis, Debye-Ang**3):
 XXXX=          -5333.9855 YYYY=           -816.0404 ZZZZ=           -352.4953 XXXY=            -17.9316
 XXXZ=             24.1569 YYYX=            -10.4448 YYYZ=             12.6388 ZZZX=             -2.5677
 ZZZY=              5.9301 XXYY=          -1066.3981 XXZZ=          -1019.2923 YYZZ=           -189.4337
 XXYZ=             56.5414 YYXZ=             -1.1959 ZZXY=              4.9560
 N-N= 8.765860117033D+02 E-N=-3.244867160929D+03  KE= 6.371050250034D+02
 Calling FoFJK, ICntrl=      2127 FMM=F ISym2X=0 I1Cent= 0 IOpClX= 0 NMat=1 NMatS=1 NMatT=0.
 ***** Axes restored to original set *****
 -------------------------------------------------------------------
 Center     Atomic                   Forces (Hartrees/Bohr)
 Number     Number              X              Y              Z
 -------------------------------------------------------------------
      1        6           0.001563547   -0.024087732    0.000105791
      2        6           0.009749599   -0.013463308    0.000088906
      3        6           0.013018179   -0.001333795   -0.000068560
      4        6           0.005215510    0.011764953    0.000024306
      5        6          -0.006579422    0.015600115    0.000095896
      6        6          -0.021946770    0.011908830   -0.000359993
      7        1          -0.007897682    0.007475375   -0.000037777
      8        1          -0.009793745   -0.000923861   -0.000000322
      9        1          -0.005739956   -0.007980965   -0.000038400
     10        1           0.002579018   -0.010644680    0.000022943
     11        8           0.005380362   -0.098949251    0.000212316
     12        8          -0.086879344    0.056133707    0.002980266
     13        5           0.066472046    0.014999877   -0.004356515
     14        6           0.023279423    0.086079728    0.111808432
     15        6          -0.003696681   -0.035333464   -0.014019693
     16        1           0.001125954    0.016336308    0.005634336
     17        1           0.003605877    0.008354604   -0.015072810
     18        6           0.019482826   -0.055584515   -0.137894626
     19        1           0.019240879    0.008075713    0.026320926
     20        6          -0.000412734    0.024408350   -0.021536289
     21        1          -0.014165420    0.003394831   -0.009813063
     22        1          -0.011110524    0.004873270   -0.013764353
     23        1          -0.003229821   -0.012528895   -0.010089417
     24        6           0.015490116    0.001638897    0.064845042
     25        1          -0.010524009    0.000796627    0.011370559
     26        1          -0.001342489   -0.006658202   -0.002354124
     27        6          -0.002107742    0.012596438   -0.017447729
     28        1           0.002350504    0.006878156    0.016771883
     29        1          -0.014703406   -0.009527885    0.004306291
     30        1           0.011575907   -0.014299223    0.002265779
 -------------------------------------------------------------------
 Cartesian Forces:  Max     0.137894626 RMS     0.030193183

 GradGradGradGradGradGradGradGradGradGradGradGradGradGradGradGradGradGrad
 Berny optimization.
 FormGI is forming the generalized inverse of G from B-inverse, IUseBI=4.
 GSVD:  received Info=                   1 from GESDD.
 Internal  Forces:  Max     0.197722222 RMS     0.030325664
 Search for a local minimum.
 Step number   1 out of a maximum of  164
 All quantities printed in internal units (Hartrees-Bohrs-Radians)
 Mixed Optimization -- RFO/linear search
 Second derivative matrix not updated -- first step.
 ITU=  0
     Eigenvalues ---    0.00230   0.00230   0.00237   0.00237   0.00237
     Eigenvalues ---    0.00237   0.00237   0.00677   0.01813   0.01923
     Eigenvalues ---    0.02038   0.02152   0.02153   0.02154   0.02155
     Eigenvalues ---    0.02156   0.02156   0.02957   0.03323   0.04356
     Eigenvalues ---    0.04356   0.05410   0.05410   0.05720   0.05720
     Eigenvalues ---    0.05720   0.05720   0.08669   0.08669   0.11123
     Eigenvalues ---    0.12376   0.12376   0.12402   0.13585   0.16000
     Eigenvalues ---    0.16000   0.16000   0.16000   0.16000   0.16000
     Eigenvalues ---    0.16000   0.16000   0.16000   0.16000   0.16959
     Eigenvalues ---    0.18245   0.20635   0.21983   0.21983   0.22000
     Eigenvalues ---    0.22592   0.23462   0.24502   0.24998   0.25000
     Eigenvalues ---    0.25000   0.28519   0.28519   0.28519   0.28519
     Eigenvalues ---    0.28519   0.33709   0.33718   0.33718   0.33720
     Eigenvalues ---    0.37230   0.37230   0.37230   0.37230   0.37230
     Eigenvalues ---    0.37230   0.37230   0.37230   0.37230   0.37230
     Eigenvalues ---    0.37230   0.39346   0.39676   0.41610   0.42214
     Eigenvalues ---    0.45631   0.46417   0.46464   0.46481
 RFO step:  Lambda=-2.93929376D-01 EMin= 2.30000000D-03
 Linear search not attempted -- first point.
 Maximum step size (   0.300) exceeded in Quadratic search.
    -- Step size scaled by   0.427
 Iteration  1 RMS(Cart)=  0.20859049 RMS(Int)=  0.00822608
 Iteration  2 RMS(Cart)=  0.03527687 RMS(Int)=  0.00038484
 Iteration  3 RMS(Cart)=  0.00052532 RMS(Int)=  0.00033477
 Iteration  4 RMS(Cart)=  0.00000015 RMS(Int)=  0.00033477
 Variable       Old X    -DE/DX   Delta X   Delta X   Delta X     New X
                                 (Linear)    (Quad)   (Total)
    R1        2.63647  -0.00023   0.00000  -0.00040  -0.00040   2.63607
    R2        2.63584  -0.00404   0.00000  -0.00506  -0.00514   2.63070
    R3        2.70231  -0.02186   0.00000  -0.01451  -0.01454   2.68776
    R4        2.63562   0.00486   0.00000   0.00299   0.00300   2.63862
    R5        2.07805  -0.01042   0.00000  -0.00705  -0.00705   2.07100
    R6        2.63697   0.01051   0.00000   0.00645   0.00646   2.64343
    R7        2.07809  -0.00979   0.00000  -0.00663  -0.00663   2.07147
    R8        2.63584   0.00479   0.00000   0.00296   0.00296   2.63880
    R9        2.07809  -0.00978   0.00000  -0.00662  -0.00662   2.07147
   R10        2.63643   0.00010   0.00000  -0.00020  -0.00021   2.63622
   R11        2.07825  -0.01051   0.00000  -0.00711  -0.00711   2.07114
   R12        2.70231  -0.02283   0.00000  -0.01504  -0.01508   2.68723
   R13        3.55538  -0.08543   0.00000  -0.08598  -0.08592   3.46946
   R14        3.48678  -0.08885   0.00000  -0.08748  -0.08743   3.39935
   R15        3.11805  -0.05003   0.00000  -0.04270  -0.04270   3.07534
   R16        2.91018   0.05823   0.00000   0.04294   0.04294   2.95311
   R17        2.91018  -0.02841   0.00000  -0.02095  -0.02095   2.88923
   R18        2.02201   0.01615   0.00000   0.01035   0.01035   2.03236
   R19        2.02201   0.01722   0.00000   0.01104   0.01104   2.03304
   R20        2.91018   0.01706   0.00000   0.01258   0.01258   2.92276
   R21        2.02201   0.01989   0.00000   0.01275   0.01275   2.03475
   R22        2.91018   0.00570   0.00000   0.00421   0.00421   2.91438
   R23        2.02201  -0.00108   0.00000  -0.00069  -0.00069   2.02131
   R24        2.02201   0.01826   0.00000   0.01171   0.01171   2.03371
   R25        2.02201   0.01306   0.00000   0.00837   0.00837   2.03038
   R26        2.02201   0.00863   0.00000   0.00553   0.00553   2.02754
   R27        2.02201   0.00587   0.00000   0.00376   0.00376   2.02577
   R28        2.91018   0.00744   0.00000   0.00548   0.00548   2.91566
   R29        2.02201   0.01783   0.00000   0.01143   0.01143   2.03343
   R30        2.02201   0.01761   0.00000   0.01129   0.01129   2.03329
   R31        2.02201   0.01816   0.00000   0.01164   0.01164   2.03364
    A1        2.09437   0.00517   0.00000   0.00449   0.00451   2.09888
    A2        2.09435   0.01269   0.00000   0.01305   0.01312   2.10747
    A3        2.09447  -0.01786   0.00000  -0.01755  -0.01764   2.07683
    A4        2.09455  -0.00572   0.00000  -0.00545  -0.00547   2.08908
    A5        2.09406  -0.00037   0.00000  -0.00031  -0.00030   2.09376
    A6        2.09458   0.00609   0.00000   0.00576   0.00577   2.10035
    A7        2.09429   0.00065   0.00000   0.00103   0.00102   2.09532
    A8        2.09462  -0.00129   0.00000  -0.00142  -0.00142   2.09320
    A9        2.09427   0.00064   0.00000   0.00039   0.00039   2.09466
   A10        2.09429   0.00079   0.00000   0.00116   0.00115   2.09544
   A11        2.09407   0.00062   0.00000   0.00037   0.00038   2.09444
   A12        2.09483  -0.00141   0.00000  -0.00153  -0.00153   2.09330
   A13        2.09448  -0.00569   0.00000  -0.00541  -0.00542   2.08905
   A14        2.09459   0.00606   0.00000   0.00572   0.00573   2.10033
   A15        2.09411  -0.00037   0.00000  -0.00032  -0.00031   2.09380
   A16        2.09440   0.00479   0.00000   0.00417   0.00420   2.09859
   A17        2.09453  -0.01715   0.00000  -0.01693  -0.01702   2.07752
   A18        2.09426   0.01236   0.00000   0.01275   0.01282   2.10708
   A19        1.74895   0.01177   0.00000   0.01015   0.01017   1.75912
   A20        1.76573   0.01289   0.00000   0.01083   0.01086   1.77660
   A21        1.72071   0.01035   0.00000   0.01349   0.01362   1.73433
   A22        2.28124  -0.00957   0.00000  -0.01019  -0.01026   2.27098
   A23        2.28124  -0.00078   0.00000  -0.00330  -0.00336   2.27788
   A24        1.91063  -0.04942   0.00000  -0.04055  -0.03888   1.87175
   A25        1.91063  -0.06643   0.00000  -0.05834  -0.05720   1.85343
   A26        1.91063   0.14545   0.00000   0.13414   0.13416   2.04479
   A27        1.91063  -0.03622   0.00000  -0.02669  -0.02827   1.88236
   A28        1.91063  -0.03623   0.00000  -0.03168  -0.03064   1.88000
   A29        1.91063   0.12174   0.00000   0.10314   0.10319   2.01382
   A30        1.91063   0.01326   0.00000   0.00458   0.00368   1.91431
   A31        1.91063  -0.01053   0.00000  -0.00132  -0.00200   1.90864
   A32        1.91063  -0.05202   0.00000  -0.04804  -0.04730   1.86333
   A33        1.91063  -0.04809   0.00000  -0.03246  -0.03312   1.87752
   A34        1.91063   0.19772   0.00000   0.16193   0.16146   2.07210
   A35        1.91063  -0.05011   0.00000  -0.03583  -0.03661   1.87403
   A36        1.91063   0.01685   0.00000   0.01637   0.01630   1.92694
   A37        1.91063  -0.00487   0.00000  -0.00555  -0.00553   1.90511
   A38        1.91063   0.00779   0.00000   0.00778   0.00770   1.91834
   A39        1.91063  -0.01006   0.00000  -0.01036  -0.01033   1.90031
   A40        1.91063  -0.00356   0.00000  -0.00142  -0.00157   1.90906
   A41        1.91063  -0.00615   0.00000  -0.00682  -0.00680   1.90383
   A42        1.91063   0.00655   0.00000   0.00710   0.00709   1.91772
   A43        1.91063   0.00181   0.00000   0.00226   0.00225   1.91288
   A44        1.91063  -0.00065   0.00000  -0.00081  -0.00080   1.90983
   A45        1.91063   0.00308   0.00000   0.00353   0.00349   1.91412
   A46        1.91063  -0.00815   0.00000  -0.00885  -0.00885   1.90178
   A47        1.91063  -0.00265   0.00000  -0.00323  -0.00323   1.90740
   A48        1.91063   0.00425   0.00000   0.00402   0.00402   1.91465
   A49        1.91063   0.00390   0.00000   0.00366   0.00365   1.91428
   A50        1.91063   0.00363   0.00000   0.00341   0.00340   1.91403
   A51        1.91063  -0.00396   0.00000  -0.00370  -0.00371   1.90692
   A52        1.91063  -0.00386   0.00000  -0.00361  -0.00362   1.90702
   A53        1.91063  -0.00397   0.00000  -0.00377  -0.00378   1.90685
    D1        0.00056  -0.00002   0.00000  -0.00002  -0.00002   0.00055
    D2        3.14078   0.00003   0.00000   0.00004   0.00004   3.14082
    D3       -3.14112  -0.00003   0.00000  -0.00005  -0.00005  -3.14117
    D4       -0.00091   0.00002   0.00000   0.00001   0.00001  -0.00090
    D5        0.00026  -0.00005   0.00000  -0.00006  -0.00006   0.00020
    D6        3.14140   0.00003   0.00000   0.00003   0.00003   3.14144
    D7       -3.14124  -0.00004   0.00000  -0.00003  -0.00003  -3.14127
    D8       -0.00010   0.00004   0.00000   0.00006   0.00006  -0.00003
    D9        3.12438   0.00013   0.00000   0.00015   0.00015   3.12453
   D10       -0.01731   0.00012   0.00000   0.00012   0.00012  -0.01719
   D11       -0.00099   0.00005   0.00000   0.00006   0.00006  -0.00093
   D12        3.14093   0.00003   0.00000   0.00004   0.00004   3.14096
   D13       -3.14120   0.00001   0.00000   0.00001   0.00001  -3.14119
   D14        0.00072  -0.00001   0.00000  -0.00002  -0.00002   0.00070
   D15        0.00060  -0.00002   0.00000  -0.00003  -0.00003   0.00057
   D16       -3.14153  -0.00001   0.00000  -0.00001  -0.00001  -3.14154
   D17       -3.14132   0.00000   0.00000   0.00000   0.00000  -3.14132
   D18       -0.00026   0.00001   0.00000   0.00002   0.00002  -0.00024
   D19        0.00023  -0.00004   0.00000  -0.00006  -0.00006   0.00017
   D20       -3.14158   0.00000   0.00000   0.00000   0.00000  -3.14159
   D21       -3.14083  -0.00006   0.00000  -0.00007  -0.00007  -3.14090
   D22        0.00054  -0.00002   0.00000  -0.00002  -0.00002   0.00052
   D23       -0.00066   0.00008   0.00000   0.00010   0.00010  -0.00056
   D24        3.14138   0.00000   0.00000   0.00001   0.00001   3.14140
   D25        3.14116   0.00004   0.00000   0.00004   0.00005   3.14120
   D26        0.00001  -0.00004   0.00000  -0.00004  -0.00004  -0.00003
   D27        0.01705  -0.00021   0.00000  -0.00022  -0.00022   0.01683
   D28       -3.12499  -0.00013   0.00000  -0.00013  -0.00013  -3.12512
   D29       -0.02279  -0.00013   0.00000  -0.00016  -0.00016  -0.02295
   D30        3.11880   0.00009   0.00000   0.00014   0.00014   3.11894
   D31        0.02282   0.00016   0.00000   0.00020   0.00020   0.02302
   D32       -3.11877  -0.00006   0.00000  -0.00010  -0.00010  -3.11887
   D33        0.46877   0.05150   0.00000   0.04885   0.04936   0.51813
   D34       -1.62562  -0.05570   0.00000  -0.05488  -0.05539  -1.68101
   D35       -2.67282   0.05179   0.00000   0.04924   0.04975  -2.62307
   D36        1.51597  -0.05541   0.00000  -0.05449  -0.05500   1.46097
   D37       -1.16127   0.01644   0.00000   0.00715   0.00692  -1.15435
   D38        0.93313  -0.01168   0.00000  -0.02298  -0.02248   0.91065
   D39        3.02752  -0.02303   0.00000  -0.03805  -0.03782   2.98970
   D40        0.93313  -0.00611   0.00000  -0.00699  -0.00755   0.92558
   D41        3.02752  -0.03424   0.00000  -0.03712  -0.03695   2.99057
   D42       -1.16127  -0.04558   0.00000  -0.05219  -0.05229  -1.21356
   D43       -1.07296   0.02374   0.00000   0.03724   0.03672  -1.03624
   D44        3.11583  -0.00652   0.00000   0.00183   0.00087   3.11670
   D45        3.11583   0.03588   0.00000   0.04048   0.04144  -3.12591
   D46        1.02143   0.00562   0.00000   0.00508   0.00559   1.02702
   D47        1.48699   0.01500   0.00000   0.01980   0.02055   1.50754
   D48       -2.70180   0.01001   0.00000   0.01374   0.01444  -2.68736
   D49       -0.60741   0.00427   0.00000   0.00675   0.00741  -0.60000
   D50       -0.60741  -0.00874   0.00000  -0.00986  -0.01012  -0.61753
   D51        1.48699  -0.01373   0.00000  -0.01592  -0.01623   1.47076
   D52       -2.70180  -0.01947   0.00000  -0.02291  -0.02326  -2.72506
   D53       -2.70180   0.01333   0.00000   0.01475   0.01440  -2.68741
   D54       -0.60741   0.00834   0.00000   0.00869   0.00828  -0.59913
   D55        1.48699   0.00260   0.00000   0.00170   0.00125   1.48824
   D56       -1.51850   0.00861   0.00000   0.01010   0.01015  -1.50835
   D57        0.57589   0.01750   0.00000   0.02015   0.02023   0.59612
   D58        2.67029   0.01498   0.00000   0.01709   0.01716   2.68745
   D59        2.67029  -0.02289   0.00000  -0.02737  -0.02746   2.64283
   D60       -1.51850  -0.01399   0.00000  -0.01732  -0.01738  -1.53588
   D61        0.57589  -0.01652   0.00000  -0.02038  -0.02045   0.55544
   D62        0.94593   0.00106   0.00000   0.00120   0.00120   0.94713
   D63        3.04033   0.00120   0.00000   0.00136   0.00136   3.04169
   D64       -1.14846   0.00096   0.00000   0.00107   0.00107  -1.14739
   D65       -1.14846  -0.00157   0.00000  -0.00159  -0.00158  -1.15004
   D66        0.94593  -0.00143   0.00000  -0.00142  -0.00141   0.94452
   D67        3.04033  -0.00168   0.00000  -0.00172  -0.00171   3.03862
   D68        3.04033   0.00127   0.00000   0.00149   0.00149   3.04182
   D69       -1.14846   0.00141   0.00000   0.00166   0.00165  -1.14681
   D70        0.94593   0.00116   0.00000   0.00136   0.00136   0.94729
         Item               Value     Threshold  Converged?
 Maximum Force            0.197722     0.000450     NO 
 RMS     Force            0.030326     0.000300     NO 
 Maximum Displacement     0.875867     0.001800     NO 
 RMS     Displacement     0.239006     0.001200     NO 
 Predicted change in Energy=-1.154598D-01
 GradGradGradGradGradGradGradGradGradGradGradGradGradGradGradGradGradGrad

                          Input orientation:                          
 ---------------------------------------------------------------------
 Center     Atomic      Atomic             Coordinates (Angstroms)
 Number     Number       Type             X           Y           Z
 ---------------------------------------------------------------------
      1          6           0       -2.553486   -0.505196    0.024139
      2          6           0       -1.158910   -0.518289    0.053526
      3          6           0       -0.456438    0.687910    0.089103
      4          6           0       -1.150061    1.902665    0.094060
      5          6           0       -2.546108    1.911111    0.064128
      6          6           0       -3.243894    0.703634    0.029530
      7          1           0       -0.620292   -1.472714    0.049868
      8          1           0        0.639462    0.682129    0.112872
      9          1           0       -0.597751    2.849122    0.121950
     10          1           0       -3.094203    2.860210    0.067862
     11          8           0       -4.665480    0.686607   -0.001126
     12          8           0       -3.291524   -1.720496   -0.011835
     13          5           0       -4.987502   -1.120880   -0.007766
     14          6           0       -6.396649   -1.934967   -0.009820
     15          6           0       -7.446916   -1.041199   -0.744812
     16          1           0       -7.610774   -0.163852   -0.144757
     17          1           0       -7.028220   -0.757697   -1.694418
     18          6           0       -6.683988   -2.293650    1.448386
     19          1           0       -5.862994   -2.892948    1.803620
     20          6           0       -8.804431   -1.720640   -1.040894
     21          1           0       -9.461068   -1.623120   -0.202184
     22          1           0       -9.257422   -1.247337   -1.894696
     23          1           0       -8.653049   -2.762381   -1.255966
     24          6           0       -7.985310   -3.050735    1.782816
     25          1           0       -8.787982   -2.352571    1.922297
     26          1           0       -8.226248   -3.722481    0.982897
     27          6           0       -7.790125   -3.856803    3.083855
     28          1           0       -7.450655   -3.202997    3.868185
     29          1           0       -8.723415   -4.305951    3.375318
     30          1           0       -7.058653   -4.629920    2.924622
 ---------------------------------------------------------------------
                    Distance matrix (angstroms):
                    1          2          3          4          5
     1  C    0.000000
     2  C    1.394948   0.000000
     3  C    2.413573   1.396298   0.000000
     4  C    2.787882   2.421310   1.398845   0.000000
     5  C    2.416649   2.797573   2.421479   1.396393   0.000000
     6  C    1.392106   2.416781   2.788136   2.413706   1.395028
     7  H    2.161942   1.095924   2.167184   3.416986   3.893487
     8  H    3.407717   2.163023   1.096173   2.166208   3.414766
     9  H    3.884059   3.414533   2.166075   1.096177   2.163170
    10  H    3.408848   3.893561   3.417183   2.167317   1.095998
    11  O    2.425191   3.708207   4.210009   3.721025   2.448552
    12  O    1.422304   2.449004   3.721333   4.210033   3.708097
    13  B    2.510880   3.876209   4.879718   4.886527   3.893397
    14  C    4.100646   5.426316   6.494257   6.501145   5.442834
    15  C    4.982393   6.360016   7.249277   7.001459   5.778273
    16  H    5.071607   6.464634   7.208655   6.787366   5.477221
    17  H    4.800046   6.128738   6.961253   6.695441   5.504938
    18  C    4.721027   5.968587   7.037025   7.075846   6.059557
    19  H    4.452051   5.552499   6.707679   6.937740   6.091514
    20  C    6.456463   7.816483   8.761678   8.544345   7.319651
    21  H    7.001119   8.379253   9.301025   9.032815   7.770353
    22  H    7.012521   8.361398   9.227023   8.922273   7.671669
    23  H    6.628591   7.931762   8.994340   8.937564   7.802493
    24  C    6.251194   7.483546   8.574966   8.608641   7.560339
    25  H    6.773828   8.065956   9.056476   8.932375   7.784136
    26  H    6.591689   7.815232   8.978884   9.083211   8.052669
    27  C    6.929467   8.018827   9.132684   9.284438   8.359862
    28  H    6.785063   7.832326   8.850971   8.944791   8.042358
    29  H    7.983994   9.088588  10.201998  10.328081   9.368829
    30  H    6.761855   7.743105   8.939168   9.251930   8.445743
                    6          7          8          9         10
     6  C    0.000000
     7  H    3.408840   0.000000
     8  H    3.884310   2.496858   0.000000
     9  H    3.407893   4.322496   2.495322   0.000000
    10  H    2.162105   4.989468   4.322767   2.497063   0.000000
    11  O    1.422019   4.585718   5.306169   4.608475   2.682950
    12  O    2.424950   2.683409   4.608776   5.306196   4.585646
    13  B    2.523967   4.381739   5.910002   5.920106   4.409010
    14  C    4.111402   5.795130   7.508069   7.518782   5.822877
    15  C    4.616215   6.886256   8.312340   7.924452   5.901486
    16  H    4.455620   7.114621   8.297497   7.637515   5.439629
    17  H    4.407789   6.679470   8.008292   7.593370   5.627732
    18  C    4.778191   6.276799   8.016968   8.077736   6.430760
    19  H    4.789831   5.707770   7.610634   7.970080   6.616486
    20  C    6.159747   8.260228   9.812828   9.464911   7.404068
    21  H    6.642344   8.845647  10.365044   9.932996   7.791671
    22  H    6.608438   8.856192  10.281122   9.789675   7.662169
    23  H    6.551696   8.239759  10.004455   9.913397   8.016658
    24  C    6.296850   7.728955   9.545139   9.599105   7.861505
    25  H    6.607562   8.425634  10.067777   9.868067   7.939215
    26  H    6.732255   7.986399   9.937724  10.105502   8.396844
    27  C    7.127040   8.142203  10.024300  10.269983   8.733049
    28  H    6.906075   8.014193   9.728647   9.880522   8.377565
    29  H    8.143426   9.205784  11.099008  11.305127   9.694388
    30  H    7.168036   7.725585   9.766514  10.272989   8.943153
                   11         12         13         14         15
    11  O    0.000000
    12  O    2.771644   0.000000
    13  B    1.835960   1.798860   0.000000
    14  C    3.141603   3.112523   1.627402   0.000000
    15  C    3.357792   4.273872   2.568716   1.562721   0.000000
    16  H    3.068984   4.593117   2.795751   2.151547   1.075478
    17  H    3.245888   4.209627   2.672307   2.150051   1.075841
    18  C    3.880385   3.737587   2.524645   1.528915   2.638334
    19  H    4.183821   3.359014   2.681013   2.119216   3.525944
    20  C    4.899680   5.608128   3.999502   2.628016   1.546658
    21  H    5.326624   6.173247   4.505867   3.086247   2.165614
    22  H    5.330260   6.273832   4.669979   3.494226   2.154682
    23  H    5.419487   5.601726   4.205801   2.707182   2.162984
    24  C    5.307677   5.198262   3.989659   2.642409   3.273683
    25  H    5.470940   5.861009   4.436875   3.102571   3.260617
    26  H    5.752167   5.417466   4.270740   2.743743   3.283536
    27  C    6.318471   5.863831   4.989799   3.899494   4.764882
    28  H    6.152868   5.877987   5.042354   4.213995   5.094421
    29  H    7.265868   6.903826   5.962129   4.742843   5.409577
    30  H    6.523245   5.592744   5.020152   4.038808   5.147272
                   16         17         18         19         20
    16  H    0.000000
    17  H    1.758827   0.000000
    18  C    2.816571   3.514949   0.000000
    19  H    3.781384   4.260671   1.076745   0.000000
    20  C    2.156726   2.123507   3.319809   4.256479   0.000000
    21  H    2.357191   2.982359   3.299419   4.310667   1.069633
    22  H    2.635844   2.291113   4.346668   5.282775   1.076194
    23  H    3.012221   2.617455   3.377933   4.142767   1.074429
    24  C    3.491405   4.273781   1.542226   2.128275   3.226988
    25  H    3.232495   4.326779   2.157511   2.976851   3.029869
    26  H    3.783418   4.170520   2.153324   2.635656   2.904719
    27  C    4.908563   5.746030   2.518282   2.506362   4.754531
    28  H    5.036441   6.091018   2.696316   2.622828   5.303692
    29  H    5.548502   6.416075   3.452779   3.556518   5.117941
    30  H    5.447172   6.027484   2.788872   2.388162   5.218904
                   21         22         23         24         25
    21  H    0.000000
    22  H    1.745646   0.000000
    23  H    1.749647   1.751742   0.000000
    24  C    2.855901   4.288893   3.124615   0.000000
    25  H    2.344902   4.001419   3.207414   1.072926   0.000000
    26  H    2.708600   3.933217   2.473147   1.071991   1.753474
    27  C    4.310388   5.809324   4.558119   1.542902   2.146543
    28  H    4.806837   6.348213   5.281744   2.158195   2.509611
    29  H    4.532134   6.116643   4.882248   2.157876   2.435391
    30  H    4.958766   6.285083   4.848413   2.157832   3.030107
                   26         27         28         29         30
    26  H    0.000000
    27  C    2.149947   0.000000
    28  H    3.032540   1.076046   0.000000
    29  H    2.512228   1.075972   1.754806   0.000000
    30  H    2.440700   1.076158   1.755018   1.754855   0.000000
 Stoichiometry    C12H15BO2
 Framework group  C1[X(C12H15BO2)]
 Deg. of freedom    84
 Full point group                 C1      NOp   1
 Largest Abelian subgroup         C1      NOp   1
 Largest concise Abelian subgroup C1      NOp   1
                         Standard orientation:                         
 ---------------------------------------------------------------------
 Center     Atomic      Atomic             Coordinates (Angstroms)
 Number     Number       Type             X           Y           Z
 ---------------------------------------------------------------------
      1          6           0        2.169710   -0.527531   -0.534053
      2          6           0        3.370289   -1.164309   -0.848702
      3          6           0        4.549839   -0.768979   -0.214649
      4          6           0        4.525503    0.261885    0.730599
      5          6           0        3.321510    0.896872    1.042216
      6          6           0        2.145283    0.498071    0.406959
      7          1           0        3.383856   -1.971632   -1.589711
      8          1           0        5.495344   -1.267116   -0.458527
      9          1           0        5.452017    0.571618    1.227834
     10          1           0        3.297165    1.705080    1.782094
     11          8           0        0.907081    1.129368    0.707722
     12          8           0        0.954997   -0.912535   -1.165870
     13          5           0       -0.232547    0.186576   -0.380000
     14          6           0       -1.843567    0.313572   -0.572153
     15          6           0       -2.227925    1.801686   -0.289520
     16          1           0       -2.035455    2.000215    0.749804
     17          1           0       -1.597748    2.424202   -0.900080
     18          6           0       -2.465979   -0.751569    0.330985
     19          1           0       -2.087808   -1.708419    0.013487
     20          6           0       -3.689234    2.183722   -0.622350
     21          1           0       -4.329155    1.968624    0.207318
     22          1           0       -3.738798    3.237250   -0.836400
     23          1           0       -4.024190    1.634342   -1.482806
     24          6           0       -4.002854   -0.862302    0.395899
     25          1           0       -4.386580   -0.184657    1.133952
[...]
 4,0.00014273,-0.00199038,0.00078938,-0.00011297,-0.00001785,0.00039499
 ,-0.04835980,-0.11934077,0.01552910,0.01099459,0.00727460,-0.00086023,
 -0.00046693,0.00041329,0.00003949,-0.00001548,0.00009121,0.00034329,0.
 00007716,0.00001206,-0.00019957,0.00011232,0.00013485,-0.00018926,-0.0
 4824943,0.54817475,0.00011919,-0.00016202,0.00021212,-0.00011205,0.000
 01129,-0.00000244,0.00006579,0.00012370,-0.00008171,0.00012931,-0.0000
 0334,0.00007964,0.00004774,-0.00017723,-0.00009273,-0.00047068,-0.0001
 7410,-0.00050508,0.00001983,-0.00000845,0.00000613,0.00002270,0.000007
 19,-0.00000102,0.00002342,0.00002896,0.00003096,-0.00001380,-0.0000119
 6,-0.00001418,0.00097094,0.00044377,-0.00141588,0.00100261,-0.00095025
 ,-0.00048726,-0.00434120,0.00466969,0.00867034,0.01546698,0.01531136,0
 .00795099,0.00130556,-0.00356427,-0.00489644,-0.00014207,0.00091102,-0
 .00020116,0.00021211,-0.00059968,0.00045471,0.01360418,0.01483836,-0.0
 8185710,-0.00798386,-0.00286910,0.00414154,-0.00111568,0.00047315,-0.0
 0023534,-0.00003234,-0.00003497,-0.00006930,-0.00003875,-0.00005706,-0
 .00041923,0.00000055,0.00004317,0.00019398,0.04054688,0.01346889,0.447
 24042,0.00026343,0.00015527,-0.00005986,0.00000368,-0.00002752,0.00001
 442,0.00000037,-0.00003168,0.00001788,-0.00005904,0.00000233,-0.000004
 09,0.00004279,0.00003295,-0.00001325,-0.00005790,-0.00012112,0.0000424
 7,0.00001752,0.00000453,-0.00000209,-0.00001011,-0.00000515,0.00000153
 ,-0.00000730,-0.00000750,0.00000345,-0.00000414,-0.00001544,0.00000569
 ,0.00004540,-0.00032225,0.00018782,-0.00037045,-0.00023952,0.00010473,
 0.00060787,0.00092071,-0.00041990,-0.00023317,0.00035335,-0.00025785,-
 0.00028036,0.00046131,0.00068384,0.00153205,-0.00024104,-0.00054445,0.
 00056340,0.00028616,-0.00024340,-0.02596963,0.01288646,-0.00970230,-0.
 00256024,-0.00326697,0.00118407,0.00044073,-0.00027303,0.00003499,-0.0
 0011121,0.00006637,0.00022767,0.00001087,0.00005683,0.00012405,0.00002
 257,0.00006477,-0.00023142,-0.22986068,0.08872366,-0.07656581,0.253542
 12,0.00008404,-0.00000110,0.00003525,-0.00000825,-0.00000078,-0.000002
 38,0.00000696,0.00000651,-0.00000432,0.00000289,-0.00000162,-0.0000009
 9,0.00002321,-0.00000819,0.00000399,-0.00008348,-0.00000919,0.00000494
 ,0.00000320,0.00000005,0.00000212,0.00000218,-0.00000022,0.00000013,0.
 00000338,0.00000167,0.00000007,-0.00000407,-0.00000220,0.00000376,0.00
 015345,0.00002027,-0.00002022,0.00007011,-0.00007843,0.00002043,-0.000
 06408,0.00031407,-0.00009881,0.00054931,0.00005386,0.00000890,-0.00099
 364,-0.00208688,0.00113947,0.00025858,-0.00253103,0.00107587,0.0000930
 1,0.00019763,-0.00023915,-0.01804813,0.00922845,-0.00773410,-0.0032011
 0,-0.00128638,0.00105158,0.00022529,0.00022809,-0.00006547,0.00000801,
 -0.00004589,-0.00008321,-0.00003366,-0.00001785,-0.00003063,-0.0000226
 8,0.00000581,-0.00013862,0.09116873,-0.09738225,0.03802229,-0.09836853
 ,0.10686771,-0.00004136,0.00000314,0.00001666,0.00000378,0.00000568,-0
 .00000341,0.00000025,-0.00000326,0.00000186,-0.00000067,0.00000020,-0.
 00000219,-0.00000616,0.00000236,-0.00000176,0.00001275,0.00000605,0.00
 000922,-0.00000014,-0.00000096,-0.00000045,0.00000130,0.00000060,-0.00
 000094,-0.00000024,0.00000014,-0.00000029,0.00000045,0.00000206,0.0000
 0155,-0.00002172,0.00000234,-0.00000165,0.00005067,0.00004723,-0.00001
 810,0.00004499,-0.00017791,0.00001681,-0.00047988,-0.00013785,-0.00030
 448,0.00002832,0.00101454,-0.00034132,0.00034640,0.00083801,0.00006138
 ,0.00015929,-0.00003537,-0.00006575,0.00790917,-0.00362206,0.00299932,
 0.00126928,0.00157124,0.00099132,-0.00006246,0.00025721,0.00009587,0.0
 0004294,-0.00012546,-0.00010852,-0.00000265,-0.00000556,-0.00002094,-0
 .00001713,-0.00011911,-0.00004645,-0.07804625,0.03693423,-0.08200515,0
 .08380967,-0.04599857,0.09331180,-0.00002188,0.00011214,-0.00002994,0.
 00007811,-0.00001122,0.00001434,-0.00003856,-0.00008902,0.00004224,-0.
 00009413,0.00003098,-0.00000865,0.00000691,0.00005026,-0.00006213,0.00
 016539,-0.00011626,-0.00005161,-0.00001089,0.00000478,-0.00000658,-0.0
 0001452,-0.00000566,0.00000125,-0.00001500,-0.00000252,0.00000913,0.00
 000683,-0.00000309,-0.00000209,-0.00040503,-0.00061221,0.00003258,-0.0
 0054730,0.00012093,-0.00024027,0.00157926,0.00117368,0.00163359,-0.004
 27176,-0.00065158,0.00158915,-0.00028765,0.00025346,-0.00034833,0.0005
 6847,-0.00035018,-0.00014156,0.00029973,0.00006377,-0.00017496,0.00110
 038,-0.02969138,-0.01073465,0.00048548,0.00080930,0.00010780,0.0001030
 3,-0.00004409,-0.00007492,-0.00000656,0.00001077,0.00002624,0.00004296
 ,0.00000309,0.00006341,-0.00002822,0.00000774,-0.00014166,-0.05310108,
 0.02175102,0.00704564,-0.00322859,0.02634232,0.01220776,0.05626730,0.0
 0000185,0.00007188,-0.00003935,0.00004655,-0.00001517,0.00002122,-0.00
 002735,-0.00005262,0.00002860,-0.00005948,0.00001626,-0.00000099,-0.00
 000985,0.00003885,-0.00004173,0.00011773,-0.00009037,-0.00003233,-0.00
 000609,0.00000238,-0.00001148,-0.00001402,-0.00000604,-0.00000098,-0.0
 0001327,-0.00000522,0.00000514,0.00000727,-0.00000402,-0.00000433,-0.0
 0039957,-0.00030306,0.00009863,-0.00038768,0.00000570,-0.00004485,0.00
 067631,0.00037876,0.00097171,-0.00262727,0.00066123,-0.00024600,-0.000
 19184,-0.00028395,-0.00083597,-0.00018612,0.00033484,-0.00008872,-0.00
 006769,-0.00014063,0.00019505,-0.00007510,-0.02130217,-0.00489673,-0.0
 0060957,0.00091340,0.00033354,-0.00002731,-0.00020460,-0.00023856,0.00
 003673,0.00012431,0.00007146,0.00003798,0.00003272,0.00005836,-0.00001
 754,0.00004643,0.00004003,0.02487643,-0.24713093,-0.09655505,0.0013339
 1,-0.01331626,-0.00644900,-0.02187777,0.27389835,0.00000647,0.00000221
 ,0.00000499,-0.00000001,-0.00000042,-0.00000141,0.00000169,0.00000554,
 -0.00000076,0.00000683,-0.00000053,-0.00000540,0.00000319,-0.00000068,
 0.00001419,0.00001340,0.00003530,0.00003318,-0.00000069,-0.00000159,0.
 00000036,0.00000118,-0.00000008,-0.00000064,0.00000214,-0.00000063,-0.
 00000335,-0.00000088,0.00000251,0.00000101,0.00006214,0.00010281,0.000
 04817,0.00003241,0.00002292,0.00003998,0.00001225,-0.00027631,-0.00061
 850,0.00066755,0.00022073,-0.00101354,0.00025971,0.00043393,0.00044258
 ,0.00004119,-0.00027346,0.00003293,0.00011244,0.00010213,-0.00015311,0
 .00106750,0.00959126,0.00367744,-0.00049006,-0.00040595,0.00030619,0.0
 0002434,-0.00000872,0.00007507,-0.00003919,-0.00003245,-0.00008428,-0.
 00001165,-0.00004737,-0.00000126,-0.00002169,-0.00001109,-0.00000575,0
 .00782737,-0.09428339,-0.08664740,-0.00168696,0.01133075,0.00523450,-0
 .01270551,0.10332629,0.10372750,0.00002308,0.00014882,-0.00012483,0.00
 009974,-0.00002807,0.00002144,-0.00005217,-0.00011065,0.00005659,-0.00
 012105,0.00002646,-0.00003502,0.00000620,0.00010124,-0.00001659,0.0002
 3655,-0.00003369,0.00014713,-0.00001455,0.00000958,-0.00000257,-0.0000
 2210,-0.00000790,0.00000403,-0.00001966,-0.00001269,-0.00000312,0.0000
 0886,-0.00000022,0.00000384,-0.00052286,-0.00051756,0.00055348,-0.0008
 2278,0.00026163,-0.00002578,0.00237983,-0.00035370,-0.00194395,-0.0041
 6549,-0.00212842,-0.00116069,-0.00092257,0.00070118,0.00112198,0.00058
 144,-0.00004784,-0.00017103,0.00023197,0.00005592,-0.00004262,-0.00318
 864,-0.00613757,0.03095843,0.00046834,-0.00020101,0.00016246,0.0006060
 2,-0.00026163,-0.00012825,-0.00007250,0.00008627,0.00015723,0.00007009
 ,-0.00001825,0.00021523,-0.00000079,0.00005779,-0.00012823,-0.08186243
 ,0.00250378,0.00830133,0.00384350,0.00316117,-0.02847565,0.00055102,-0
 .00043121,0.00459216,0.57556730,0.00003212,0.00006896,-0.00003621,0.00
 002098,-0.00001157,0.00000263,-0.00001292,-0.00003405,0.00001840,-0.00
 004309,-0.00000347,-0.00001589,-0.00000559,0.00004165,0.00000299,0.000
 03877,-0.00001141,0.00011926,0.00000310,0.00000538,-0.00000155,-0.0000
 0870,-0.00000233,0.00000186,-0.00000880,-0.00000783,-0.00000228,0.0000
 0283,-0.00000119,0.00000928,-0.00025617,-0.00018856,0.00026949,-0.0002
 7323,0.00002645,0.00009551,0.00066038,-0.00058994,-0.00130378,-0.00235
 265,-0.00082323,-0.00083339,-0.00019889,0.00027201,0.00056198,0.000042
 82,0.00012494,0.00014136,0.00001275,-0.00006680,0.00000638,-0.00560499
 ,-0.00639197,0.02327860,0.00063433,0.00045336,-0.00078074,0.00016015,-
 0.00012253,-0.00007279,0.00001593,0.00001540,-0.00005853,0.00002142,0.
 00000584,0.00008236,-0.00002788,-0.00000360,-0.00003385,0.00205707,-0.
 07582305,0.01173204,-0.00187510,-0.00120414,0.01573968,0.00347966,0.00
 395557,-0.03161064,0.00174107,0.57445279,0.00011244,0.00025618,-0.0000
 7753,0.00006261,-0.00003526,0.00001218,-0.00004653,-0.00008874,0.00004
 098,-0.00010091,0.00001893,-0.00002242,0.00000489,0.00005937,-0.000036
 09,0.00031344,-0.00006290,0.00004325,-0.00000831,0.00001256,0.00000186
 ,-0.00002232,-0.00000746,0.00000386,-0.00001919,-0.00000912,0.00000682
 ,0.00000887,0.00000004,0.00000590,-0.00050148,-0.00069253,0.00034448,-
 0.00093439,0.00004645,-0.00018084,0.00215084,0.00098560,-0.00013203,-0
 .00230606,-0.00440676,0.00092976,-0.00015773,0.00014735,-0.00015003,0.
 00012311,-0.00003194,0.00007377,0.00002600,-0.00008300,0.00006089,0.01
 032472,0.01015576,-0.01346505,-0.00079472,-0.00045630,0.00143909,0.000
 15146,-0.00003589,-0.00001627,-0.00002580,0.00000756,-0.00002935,0.000
 07584,-0.00002891,0.00009083,-0.00001627,-0.00000051,-0.00005940,0.001
 29250,0.00701456,-0.16581007,0.00286501,0.00101146,-0.01575338,0.00112
 733,0.00391328,-0.02125401,0.00921415,0.01609214,0.45456047,-0.0000355
 2,-0.00004291,0.00003035,-0.00000922,0.00000431,-0.00000973,0.00000276
 ,0.00001166,-0.00000897,0.00001684,-0.00000475,0.00000053,-0.00000371,
 -0.00001332,0.00000655,-0.00003322,0.00001721,0.00000453,-0.00000257,0
 .00000241,0.00000593,0.00000409,0.00000209,0.00000116,0.00000355,0.000
 00315,-0.00000044,-0.00000112,0.00000252,0.00000124,0.00004929,0.00008
 512,-0.00005828,0.00010787,-0.00001161,-0.00005046,-0.00022735,-0.0001
 4194,0.00006362,0.00029440,-0.00021120,-0.00012284,0.00013809,-0.00002
 874,-0.00002050,-0.00009264,0.00001310,0.00001798,-0.00002930,-0.00001
 321,0.00002598,-0.00014523,0.00109077,0.00031961,-0.00005642,0.0001150
 3,0.00006160,-0.00006522,0.00001881,0.00003383,0.00000804,-0.00001177,
 -0.00001113,-0.00001247,0.00000789,-0.00002997,0.00000254,-0.00000576,
 0.00002557,-0.00038664,0.00209670,0.00137204,0.00011949,-0.00058866,-0
 .00033470,0.00079019,-0.00016683,0.00042366,-0.05631312,0.03221413,0.0
 1621543,0.05572868,-0.00002188,-0.00005367,0.00001833,-0.00001389,0.00
 000770,0.00000043,0.00000932,0.00002312,-0.00000769,0.00002496,-0.0000
 0316,0.00000595,-0.00000032,-0.00001390,0.00001132,-0.00005958,0.00001
 527,-0.00001910,0.00000023,-0.00000583,-0.00000376,0.00000565,0.000000
 61,-0.00000246,0.00000519,0.00000225,-0.00000307,-0.00000234,-0.000000
 17,-0.00000357,0.00012204,0.00015980,-0.00005617,0.00019655,0.00001818
 ,0.00005403,-0.00044571,-0.00021686,-0.00002908,0.00057560,0.00036892,
 -0.00027450,0.00010591,0.00003926,0.00002436,-0.00002282,-0.00003132,-
 0.00000272,-0.00000589,0.00005129,-0.00002666,-0.00009248,0.00091249,0
 .00035834,0.00000020,-0.00006165,-0.00004147,-0.00003628,0.00000694,0.
 00001417,0.00000353,0.00000004,0.00001206,-0.00002034,0.00000860,-0.00
 002400,0.00000215,-0.00000173,0.00001324,-0.00126052,0.00492346,0.0045
 2782,-0.00032847,0.00053547,-0.00077732,-0.00044566,0.00124750,0.00180
 130,0.03273060,-0.25503537,-0.10377628,-0.03604524,0.27667260,-0.00000
 502,0.00000535,-0.00000791,0.00000398,-0.00000137,0.00000460,-0.000002
 96,-0.00000243,0.00000337,-0.00000254,0.00000225,-0.00000063,-0.000000
 65,0.00000490,0.00000257,0.00002299,0.00000236,-0.00000895,-0.00000098
 ,-0.00000067,-0.00000318,-0.00000178,-0.00000107,-0.00000100,-0.000000
 83,-0.00000127,-0.00000079,0.00000134,0.00000006,-0.00000268,-0.000022
 28,0.00002462,0.00002742,-0.00003857,0.00001989,0.00003788,0.00001563,
 -0.00004171,-0.00016655,0.00013187,0.00074940,0.00002306,0.00014505,0.
 00017433,-0.00001654,-0.00013719,-0.00004765,-0.00011972,-0.00001538,0
 .00003979,-0.00003071,-0.00124320,-0.00187099,0.00136278,0.00005678,-0
 .00000435,-0.00014425,-0.00007907,-0.00011026,-0.00001347,0.00001554,0
 .00003591,0.00005036,0.00000023,0.00001708,0.00000989,0.00000326,0.000
 01430,0.00005083,0.00631106,-0.02952149,-0.01864170,-0.00055533,-0.000
 11477,0.00130099,0.00087176,0.00145443,-0.00649717,0.01614000,-0.10266
 821,-0.09951314,-0.01865268,0.11369965,0.11349360,0.00006678,0.0001031
 0,-0.00004343,0.00001919,-0.00001366,0.00001089,-0.00001033,-0.0000308
 0,0.00001672,-0.00003886,0.00000756,-0.00000624,0.00000413,0.00002609,
 -0.00001239,0.00009507,-0.00002470,0.00001766,0.00000517,0.00000324,-0
 .00000457,-0.00001119,-0.00000360,0.00000027,-0.00000857,-0.00000707,0
 .00000264,0.00000430,-0.00000224,0.00000125,-0.00016459,-0.00020825,0.
 00009830,-0.00029190,-0.00003768,0.00002635,0.00055103,0.00027468,-0.0
 0017390,-0.00033748,0.00014185,0.00014653,-0.00005347,-0.00006659,0.00
 001896,0.00001541,0.00001468,-0.00000481,0.00004616,-0.00003489,0.0000
 1286,0.00086773,-0.00030768,0.00096995,0.00043339,0.00013927,-0.000255
 80,0.00004312,-0.00003659,-0.00006315,-0.00000787,0.00001925,-0.000003
 62,0.00002819,-0.00001451,0.00004166,-0.00001443,0.00000484,-0.0000073
 4,-0.00115920,-0.00066317,-0.00191852,0.00059105,-0.00002522,0.0003356
 4,-0.00022680,0.00043002,0.00045653,-0.20897539,-0.12073895,0.04024291
 ,0.00413501,0.00448841,-0.00094729,0.22589443,0.00003868,0.00008096,-0
 .00003861,0.00002700,-0.00001107,0.00000849,-0.00001287,-0.00003497,0.
 00001856,-0.00004036,0.00001008,-0.00000872,0.00000602,0.00003017,-0.0
 0001143,0.00009047,-0.00002172,0.00000984,0.00000077,0.00000322,-0.000
 00243,-0.00000951,-0.00000292,0.00000053,-0.00000799,-0.00000565,0.000
 00212,0.00000398,-0.00000150,0.00000055,-0.00014954,-0.00019473,0.0001
 1040,-0.00027747,0.00001379,0.00000056,0.00061391,0.00022550,-0.000248
 14,-0.00052632,0.00021650,0.00005154,-0.00009030,0.00009112,0.00013443
 ,0.00001244,-0.00000509,-0.00002835,0.00001957,-0.00000083,-0.00001855
 ,0.00070100,0.00071694,0.00101274,-0.00014600,-0.00008776,-0.00008779,
 0.00008818,-0.00005075,-0.00005356,-0.00001462,0.00001934,0.00000517,0
 .00002929,-0.00001782,0.00005902,-0.00000810,0.00000756,-0.00001447,-0
 .00240182,-0.00199622,-0.00064911,0.00014605,-0.00043899,0.00035974,0.
 00032482,0.00063936,0.00007281,-0.12112781,-0.14274038,0.02998888,-0.0
 2469646,-0.01707917,0.00634530,0.13465888,0.15187742,-0.00004141,-0.00
 012412,0.00005611,-0.00004709,0.00002000,-0.00000916,0.00002865,0.0000
 5970,-0.00002951,0.00006678,-0.00001157,0.00001748,0.00000172,-0.00005
 193,0.00001438,-0.00016367,0.00003130,-0.00007181,0.00000483,-0.000007
 92,0.00000021,0.00001449,0.00000455,-0.00000225,0.00001298,0.00000811,
 -0.00000102,-0.00000597,0.00000038,-0.00000384,0.00034812,0.00035882,-
 0.00024852,0.00051581,-0.00005450,0.00004474,-0.00127411,-0.00002196,0
 .00066729,0.00209090,0.00127883,0.00020103,0.00022971,-0.00026524,-0.0
 0037771,-0.00012275,-0.00001909,0.00001782,-0.00006689,0.00003318,-0.0
 0000215,-0.00219920,-0.00004244,-0.00657429,0.00016075,-0.00020002,0.0
 0012040,-0.00018576,0.00009425,0.00007289,0.00002562,-0.00002510,-0.00
 000211,-0.00004488,0.00002393,-0.00009777,0.00001495,-0.00000960,0.000
 03865,0.02867201,0.02055934,-0.00976985,-0.00048541,0.00028683,0.00104
 883,0.00019305,-0.00051135,0.00149154,0.03944650,0.02955752,-0.0576206
 6,-0.01252237,-0.00885000,0.00297566,-0.04472709,-0.03406588,0.0656400
 7,-0.00002963,-0.00005939,0.00002304,-0.00001840,0.00001365,-0.0000058
 3,0.00001382,0.00002178,-0.00000949,0.00002403,-0.00000539,0.00000589,
 0.00000156,-0.00001561,0.00000783,-0.00008748,0.00001506,-0.00001715,0
 .00000354,-0.00000416,-0.00000059,0.00000757,0.00000249,-0.00000162,0.
 00000517,0.00000279,-0.00000158,-0.00000324,-0.00000114,-0.00000056,0.
 00015294,0.00013914,-0.00006730,0.00023719,0.00000497,0.00002877,-0.00
 044801,-0.00014527,0.00008468,0.00040057,0.00035454,-0.00004539,-0.000
 09607,-0.00015350,0.00000726,0.00002524,0.00003327,-0.00001212,-0.0000
 0441,-0.00000118,0.00001598,0.00094151,-0.00088124,0.00068819,0.000206
 67,0.00033865,-0.00021436,-0.00000903,0.00002272,0.00001190,-0.0000010
 5,-0.00000073,-0.00000364,-0.00001492,0.00000130,-0.00001786,0.0000144
 5,-0.00000086,-0.00001168,0.00295141,-0.00194103,0.00247794,0.00110597
 ,-0.00071433,0.00126635,0.00025290,-0.00036924,-0.00065749,-0.22759786
 ,0.09026945,-0.07937785,-0.00398708,0.00053107,-0.00201376,-0.02150007
 ,0.01274813,-0.00994029,0.24745270,-0.00005841,-0.00004162,0.00002235,
 0.00000636,0.00000150,-0.00000687,-0.00000624,-0.00000046,-0.00000418,
 0.00000759,0.00000110,-0.00000201,-0.00000611,-0.00000521,0.00000107,0
 .00001303,0.00001912,0.00000277,-0.00000917,0.00000342,0.00000694,0.00
 000225,0.00000150,0.00000165,0.00000175,0.00000331,-0.00000038,0.00000
 045,0.00000414,-0.00000044,-0.00002252,0.00004533,-0.00003679,0.000025
 34,0.00004478,-0.00009415,0.00001791,-0.00013603,0.00010605,-0.0002316
 4,-0.00001904,-0.00011156,0.00012613,0.00011872,-0.00004955,-0.0001036
 3,0.00004252,-0.00004940,-0.00004390,0.00001312,-0.00000695,0.00108726
 ,-0.00030329,0.00022325,-0.00054631,-0.00001718,0.00023593,-0.00006385
 ,0.00002536,0.00001716,0.00000952,-0.00001083,-0.00000871,-0.00000674,
 0.00000435,-0.00002031,-0.00000042,-0.00000700,0.00002931,0.00298279,-
 0.00171214,0.00120389,-0.00037134,0.00095182,0.00066798,-0.00063807,0.
 00048750,-0.00009718,0.08983270,-0.09636094,0.04000548,0.02629750,-0.0
 1249067,0.01179661,-0.01809627,0.00875762,-0.00805602,-0.10020593,0.10
 057921,0.00004106,0.00002635,-0.00001491,-0.00000175,-0.00000149,0.000
 00033,0.00000375,-0.00000649,0.00000330,-0.00001143,-0.00000002,-0.000
 00088,0.00000885,0.00000638,-0.00000163,-0.00002063,-0.00001598,0.0000
 0815,0.00000681,0.00000165,0.00000036,-0.00000182,-0.00000035,0.000000
 45,-0.00000139,-0.00000217,0.00000088,-0.00000074,-0.00000350,0.000001
 25,0.00003088,-0.00004977,0.00004955,-0.00003246,-0.00004162,0.0000296
 8,0.00009976,0.00015455,-0.00014502,0.00026591,-0.00011100,0.00001313,
 -0.00029572,-0.00002444,0.00017330,0.00025690,-0.00008589,-0.00010569,
 0.00013944,0.00003572,-0.00003445,-0.00205180,-0.00013678,0.00107731,0
 .00114521,0.00014579,-0.00016566,0.00010632,-0.00008001,-0.00002364,-0
 .00002653,0.00002961,0.00007875,0.00000637,0.00000355,0.00003598,0.000
 01192,0.00002870,-0.00003917,-0.02882585,0.01578048,-0.01582779,0.0014
 6480,0.00053339,-0.00641533,-0.00024242,-0.00052031,0.00115692,-0.0788
 3765,0.03970635,-0.08349387,0.01321247,-0.00664311,0.00582538,0.005769
 02,-0.00295365,0.00240357,0.08778071,-0.04577595,0.09540977||0.0000007
 2,0.00000324,0.00000952,0.00000057,0.00000286,0.00000204,0.00000071,-0
 .00000273,-0.00000137,-0.00000074,0.00000219,0.00000202,-0.00000151,-0
 .00000131,-0.00000171,0.00000772,-0.00000025,-0.00000782,-0.00000003,-
 0.00000080,-0.00000186,-0.00000027,-0.00000004,-0.00000145,-0.00000002
 ,0.00000029,0.00000153,-0.00000015,0.00000076,0.00000220,-0.00000380,0
 .00000017,0.00000629,0.00000218,-0.00001099,-0.00000573,-0.00000396,0.
 00001464,-0.00000643,-0.00000713,-0.00001455,0.00000506,0.00000415,-0.
 00000164,0.00000282,-0.00000048,0.00000202,0.00000151,-0.00000194,0.00
 000234,0.00000296,0.00000456,0.00000768,-0.00000222,-0.00000072,-0.000
 00209,-0.00000162,-0.00000234,0.00000196,-0.00000030,0.00000009,0.0000
 0082,-0.00000061,0.00000066,0.00000132,0.00000069,-0.00000075,0.000001
 23,0.00000063,-0.00000353,0.00000486,0.00000035,0.00000190,-0.00000187
 ,0.00000095,0.00000084,-0.00000422,-0.00000299,0.00000110,-0.00000098,
 -0.00000294,0.00000075,-0.00000171,0.00000056,0.00000076,-0.00000123,-
 0.00000159,0.00000066,-0.00000195,-0.00000050|||@


 WERE I TO AWAIT PERFECTION, MY BOOK WOULD NEVER BE FINISHED.
                                    -- HISTORY OF CHINESE WRITING

                                       TAI T'UNG, 13TH CENTURY
 Job cpu time:       0 days  0 hours 11 minutes  9.0 seconds.
 File lengths (MBytes):  RWF=    121 Int=      0 D2E=      0 Chk=      4 Scr=      1
 Normal termination of Gaussian 09 at Wed Sep 13 17:43:29 2023.
