 Entering Link 1 = C:\G09W\l1.exe PID=      2924.
  
 Copyright (c) 1988,1990,1992,1993,1995,1998,2003,2009,2013,
            Gaussian, Inc.  All Rights Reserved.
  
 This is part of the Gaussian(R) 09 program.  It is based on
 the Gaussian(R) 03 system (copyright 2003, Gaussian, Inc.),
 the Gaussian(R) 98 system (copyright 1998, Gaussian, Inc.),
 the Gaussian(R) 94 system (copyright 1995, Gaussian, Inc.),
 the Gaussian 92(TM) system (copyright 1992, Gaussian, Inc.),
 the Gaussian 90(TM) system (copyright 1990, Gaussian, Inc.),
 the Gaussian 88(TM) system (copyright 1988, Gaussian, Inc.),
 the Gaussian 86(TM) system (copyright 1986, Carnegie Mellon
 University), and the Gaussian 82(TM) system (copyright 1983,
 Carnegie Mellon University). Gaussian is a federally registered
 trademark of Gaussian, Inc.
  
 This software contains proprietary and confidential information,
 including trade secrets, belonging to Gaussian, Inc.
  
 This software is provided under written license and may be
 used, copied, transmitted, or stored only in accord with that
 written license.
  
 The following legend is applicable only to US Government
 contracts under FAR:
  
                    RESTRICTED RIGHTS LEGEND
  
 Use, reproduction and disclosure by the US Government is
 subject to restrictions as set forth in subparagraphs (a)
 and (c) of the Commercial Computer Software - Restricted
 Rights clause in FAR 52.227-19.
  
 Gaussian, Inc.
 340 Quinnipiac St., Bldg. 40, Wallingford CT 06492
  
  
 ---------------------------------------------------------------
 Warning -- This program may not be used in any manner that
 competes with the business of Gaussian, Inc. or will provide
 assistance to any competitor of Gaussian, Inc.  The licensee
 of this program is prohibited from giving any competitor of
 Gaussian, Inc. access to this program.  By using this program,
 the user acknowledges that Gaussian, Inc. is engaged in the
 business of creating and licensing software in the field of
 computational chemistry and represents and warrants to the
 licensee that it is not a competitor of Gaussian, Inc. and that
 it will not use this program in any manner prohibited above.
 ---------------------------------------------------------------
  

 Cite this work as:
 Gaussian 09, Revision D.01,
 M. J. Frisch, G. W. Trucks, H. B. Schlegel, G. E. Scuseria, 
 M. A. Robb, J. R. Cheeseman, G. Scalmani, V. Barone, B. Mennucci, 
 G. A. Petersson, H. Nakatsuji, M. Caricato, X. Li, H. P. Hratchian, 
 A. F. Izmaylov, J. Bloino, G. Zheng, J. L. Sonnenberg, M. Hada, 
 M. Ehara, K. Toyota, R. Fukuda, J. Hasegawa, M. Ishida, T. Nakajima, 
 Y. Honda, O. Kitao, H. Nakai, T. Vreven, J. A. Montgomery, Jr., 
 J. E. Peralta, F. Ogliaro, M. Bearpark, J. J. Heyd, E. Brothers, 
 K. N. Kudin, V. N. Staroverov, T. Keith, R. Kobayashi, J. Normand, 
 K. Raghavachari, A. Rendell, J. C. Burant, S. S. Iyengar, J. Tomasi, 
 M. Cossi, N. Rega, J. M. Millam, M. Klene, J. E. Knox, J. B. Cross, 
 V. Bakken, C. Adamo, J. Jaramillo, R. Gomperts, R. E. Stratmann, 
 O. Yazyev, A. J. Austin, R. Cammi, C. Pomelli, J. W. Ochterski, 
 R. L. Martin, K. Morokuma, V. G. Zakrzewski, G. A. Voth, 
 P. Salvador, J. J. Dannenberg, S. Dapprich, A. D. Daniels, 
 O. Farkas, J. B. Foresman, J. V. Ortiz, J. Cioslowski, 
 and D. J. Fox, Gaussian, Inc., Wallingford CT, 2013.
 
 ******************************************
 Gaussian 09:  EM64W-G09RevD.01 13-Apr-2013
                25-Aug-2023 
 ******************************************
 %nprocshared=2
 Will use up to    2 processors via shared memory.
 %mem=4GB
 %chk=C:\Users\123\Desktop\ML project\MOLECULE_9.chk
 --------------------------------------------------------------------
 # opt freq b3lyp/6-31+g(d) geom=connectivity empiricaldispersion=gd3
 --------------------------------------------------------------------
 1/14=-1,18=20,19=15,26=3,38=1,57=2/1,3;
 2/9=110,12=2,17=6,18=5,40=1/2;
 3/5=1,6=6,7=11,11=2,16=1,25=1,30=1,71=1,74=-5,124=31/1,2,3;
 4//1;
 5/5=2,38=5/2;
 6/7=2,8=2,9=2,10=2,28=1/1;
 7//1,2,3,16;
 1/14=-1,18=20,19=15,26=3/3(2);
 2/9=110/2;
 99//99;
 2/9=110/2;
 3/5=1,6=6,7=11,11=2,16=1,25=1,30=1,71=1,74=-5,124=31/1,2,3;
 4/5=5,16=3,69=1/1;
 5/5=2,38=5/2;
 7//1,2,3,16;
 1/14=-1,18=20,19=15,26=3/3(-5);
 2/9=110/2;
 6/7=2,8=2,9=2,10=2,19=2,28=1/1;
 99/9=1/99;
 -------------------
 Title Card Required
 -------------------
 Symbolic Z-matrix:
 Charge =  0 Multiplicity = 1
 C                    -0.91579  -1.42531   0.00001 
 C                     0.46648  -1.29112   0.00002 
 C                     1.08645  -0.02311  -0.00001 
 C                     0.24981   1.1043   0. 
 C                    -1.14348   0.99331   0.00003 
 C                    -1.72993  -0.28054   0. 
 H                    -1.39312  -2.40099   0.00004 
 H                     1.08715  -2.18329   0.00003 
 H                     0.69705   2.09505  -0.00001 
 H                    -1.75133   1.89132   0.00008 
 B                     2.63445   0.12015  0. 
 O                     3.17663   1.38993   0. 
 H                     4.14222   1.44389   0.00014 
 O                     3.39765  -1.02997  -0.00003 
 H                     4.35721  -0.90938  -0.00011 
 Cl                   -3.48226  -0.44464  -0.00004 
 

 GradGradGradGradGradGradGradGradGradGradGradGradGradGradGradGradGradGrad
 Berny optimization.
 Initialization pass.
                           ----------------------------
                           !    Initial Parameters    !
                           ! (Angstroms and Degrees)  !
 --------------------------                            --------------------------
 ! Name  Definition              Value          Derivative Info.                !
 --------------------------------------------------------------------------------
 ! R1    R(1,2)                  1.3888         estimate D2E/DX2                !
 ! R2    R(1,6)                  1.4047         estimate D2E/DX2                !
 ! R3    R(1,7)                  1.0862         estimate D2E/DX2                !
 ! R4    R(2,3)                  1.4115         estimate D2E/DX2                !
 ! R5    R(2,8)                  1.0868         estimate D2E/DX2                !
 ! R6    R(3,4)                  1.4039         estimate D2E/DX2                !
 ! R7    R(3,11)                 1.5546         estimate D2E/DX2                !
 ! R8    R(4,5)                  1.3977         estimate D2E/DX2                !
 ! R9    R(4,9)                  1.087          estimate D2E/DX2                !
 ! R10   R(5,6)                  1.4024         estimate D2E/DX2                !
 ! R11   R(5,10)                 1.0844         estimate D2E/DX2                !
 ! R12   R(6,16)                 1.76           estimate D2E/DX2                !
 ! R13   R(11,12)                1.3807         estimate D2E/DX2                !
 ! R14   R(11,14)                1.3803         estimate D2E/DX2                !
 ! R15   R(12,13)                0.9671         estimate D2E/DX2                !
 ! R16   R(14,15)                0.9671         estimate D2E/DX2                !
 ! A1    A(2,1,6)              119.8751         estimate D2E/DX2                !
 ! A2    A(2,1,7)              121.6141         estimate D2E/DX2                !
 ! A3    A(6,1,7)              118.5108         estimate D2E/DX2                !
 ! A4    A(1,2,3)              121.6003         estimate D2E/DX2                !
 ! A5    A(1,2,8)              119.281          estimate D2E/DX2                !
 ! A6    A(3,2,8)              119.1187         estimate D2E/DX2                !
 ! A7    A(2,3,4)              117.3655         estimate D2E/DX2                !
 ! A8    A(2,3,11)             121.343          estimate D2E/DX2                !
 ! A9    A(4,3,11)             121.2915         estimate D2E/DX2                !
 ! A10   A(3,4,5)              122.0244         estimate D2E/DX2                !
 ! A11   A(3,4,9)              119.1256         estimate D2E/DX2                !
 ! A12   A(5,4,9)              118.85           estimate D2E/DX2                !
 ! A13   A(4,5,6)              119.2743         estimate D2E/DX2                !
 ! A14   A(4,5,10)             119.5387         estimate D2E/DX2                !
 ! A15   A(6,5,10)             121.187          estimate D2E/DX2                !
 ! A16   A(1,6,5)              119.8604         estimate D2E/DX2                !
 ! A17   A(1,6,16)             120.0698         estimate D2E/DX2                !
 ! A18   A(5,6,16)             120.0698         estimate D2E/DX2                !
 ! A19   A(3,11,12)            118.4092         estimate D2E/DX2                !
 ! A20   A(3,11,14)            118.2798         estimate D2E/DX2                !
 ! A21   A(12,11,14)           123.311          estimate D2E/DX2                !
 ! A22   A(11,12,13)           116.3205         estimate D2E/DX2                !
 ! A23   A(11,14,15)           116.4042         estimate D2E/DX2                !
 ! D1    D(6,1,2,3)             -0.0014         estimate D2E/DX2                !
 ! D2    D(6,1,2,8)            179.9996         estimate D2E/DX2                !
 ! D3    D(7,1,2,3)           -179.9989         estimate D2E/DX2                !
 ! D4    D(7,1,2,8)              0.0021         estimate D2E/DX2                !
 ! D5    D(2,1,6,5)             -0.0012         estimate D2E/DX2                !
 ! D6    D(2,1,6,16)           179.9988         estimate D2E/DX2                !
 ! D7    D(7,1,6,5)            179.9964         estimate D2E/DX2                !
 ! D8    D(7,1,6,16)            -0.0036         estimate D2E/DX2                !
 ! D9    D(1,2,3,4)              0.0016         estimate D2E/DX2                !
 ! D10   D(1,2,3,11)          -179.9996         estimate D2E/DX2                !
 ! D11   D(8,2,3,4)           -179.9994         estimate D2E/DX2                !
 ! D12   D(8,2,3,11)            -0.0006         estimate D2E/DX2                !
 ! D13   D(2,3,4,5)              0.0007         estimate D2E/DX2                !
 ! D14   D(2,3,4,9)            179.9992         estimate D2E/DX2                !
 ! D15   D(11,3,4,5)          -179.9981         estimate D2E/DX2                !
 ! D16   D(11,3,4,9)             0.0004         estimate D2E/DX2                !
 ! D17   D(2,3,11,12)         -179.9988         estimate D2E/DX2                !
 ! D18   D(2,3,11,14)            0.0025         estimate D2E/DX2                !
 ! D19   D(4,3,11,12)           -0.0001         estimate D2E/DX2                !
 ! D20   D(4,3,11,14)         -179.9987         estimate D2E/DX2                !
 ! D21   D(3,4,5,6)             -0.0032         estimate D2E/DX2                !
 ! D22   D(3,4,5,10)           179.9973         estimate D2E/DX2                !
 ! D23   D(9,4,5,6)            179.9983         estimate D2E/DX2                !
 ! D24   D(9,4,5,10)            -0.0012         estimate D2E/DX2                !
 ! D25   D(4,5,6,1)              0.0034         estimate D2E/DX2                !
 ! D26   D(4,5,6,16)          -179.9966         estimate D2E/DX2                !
 ! D27   D(10,5,6,1)          -179.9971         estimate D2E/DX2                !
 ! D28   D(10,5,6,16)            0.0029         estimate D2E/DX2                !
 ! D29   D(3,11,12,13)         179.9907         estimate D2E/DX2                !
 ! D30   D(14,11,12,13)         -0.0107         estimate D2E/DX2                !
 ! D31   D(3,11,14,15)         179.9943         estimate D2E/DX2                !
 ! D32   D(12,11,14,15)         -0.0043         estimate D2E/DX2                !
 --------------------------------------------------------------------------------
 Trust Radius=3.00D-01 FncErr=1.00D-07 GrdErr=1.00D-06
 Number of steps in this run=     81 maximum allowed number of steps=    100.
 GradGradGradGradGradGradGradGradGradGradGradGradGradGradGradGradGradGrad

                          Input orientation:                          
 ---------------------------------------------------------------------
 Center     Atomic      Atomic             Coordinates (Angstroms)
 Number     Number       Type             X           Y           Z
 ---------------------------------------------------------------------
      1          6           0       -0.915788   -1.425307    0.000007
      2          6           0        0.466481   -1.291121    0.000018
      3          6           0        1.086454   -0.023112   -0.000005
      4          6           0        0.249807    1.104301   -0.000004
      5          6           0       -1.143483    0.993313    0.000033
      6          6           0       -1.729925   -0.280542    0.000002
      7          1           0       -1.393122   -2.400986    0.000042
      8          1           0        1.087146   -2.183287    0.000028
      9          1           0        0.697052    2.095046   -0.000008
     10          1           0       -1.751326    1.891323    0.000077
     11          5           0        2.634454    0.120149   -0.000002
     12          8           0        3.176630    1.389928    0.000000
     13          1           0        4.142223    1.443893    0.000143
     14          8           0        3.397647   -1.029974   -0.000030
     15          1           0        4.357212   -0.909382   -0.000114
     16         17           0       -3.482258   -0.444643   -0.000043
 ---------------------------------------------------------------------
                    Distance matrix (angstroms):
                    1          2          3          4          5
     1  C    0.000000
     2  C    1.388767   0.000000
     3  C    2.444407   1.411458   0.000000
     4  C    2.785234   2.405201   1.403937   0.000000
     5  C    2.429314   2.794749   2.450661   1.397704   0.000000
     6  C    1.404744   2.417741   2.828120   2.416015   1.402363
     7  H    1.086185   2.165623   3.435489   3.871208   3.403467
     8  H    2.141560   1.086823   2.160175   3.392546   3.881558
     9  H    3.872227   3.394008   2.153654   1.087016   2.145084
    10  H    3.420257   3.878997   3.423165   2.150334   1.084387
    11  B    3.872035   2.586849   1.554615   2.579747   3.877528
    12  O    4.967236   3.812208   2.522998   2.940727   4.338281
    13  H    5.815134   4.581635   3.389665   3.907202   5.304876
    14  O    4.331514   2.942776   2.520989   3.803160   4.971474
    15  H    5.298180   3.909413   3.388707   4.574461   5.820472
    16  Cl   2.747448   4.038448   4.588117   4.040735   2.745466
                    6          7          8          9         10
     6  C    0.000000
     7  H    2.147026   0.000000
     8  H    3.399460   2.489804   0.000000
     9  H    3.396121   4.958138   4.296080   0.000000
    10  H    2.171970   4.307230   4.965820   2.456839   0.000000
    11  B    4.382734   4.751578   2.774884   2.766540   4.729918
    12  O    5.183122   5.937479   4.139301   2.577886   4.953398
    13  H    6.120114   6.739669   4.742355   3.506166   5.910509
    14  O    5.182050   4.983086   2.582353   4.130250   5.919958
    15  H    6.119532   5.940642   3.509440   4.735331   6.719984
    16  Cl   1.760000   2.862127   4.889002   4.890465   2.907381
                   11         12         13         14         15
    11  B    0.000000
    12  O    1.380686   0.000000
    13  H    2.006406   0.967100   0.000000
    14  O    1.380307   2.429974   2.583488   0.000000
    15  H    2.006945   2.584686   2.363075   0.967113   0.000000
    16  Cl   6.142732   6.906985   7.854889   6.904760   7.853233
                   16
    16  Cl   0.000000
 Stoichiometry    C6H6BClO2
 Framework group  C1[X(C6H6BClO2)]
 Deg. of freedom    42
 Full point group                 C1      NOp   1
 Largest Abelian subgroup         C1      NOp   1
 Largest concise Abelian subgroup C1      NOp   1
                         Standard orientation:                         
 ---------------------------------------------------------------------
 Center     Atomic      Atomic             Coordinates (Angstroms)
 Number     Number       Type             X           Y           Z
 ---------------------------------------------------------------------
      1          6           0       -1.053992   -1.212658    0.000013
      2          6           0        0.334759   -1.206010    0.000024
      3          6           0        1.068586   -0.000311    0.000001
      4          6           0        0.339037    1.199187    0.000002
      5          6           0       -1.058557    1.216652    0.000039
      6          6           0       -1.759533    0.002051    0.000008
      7          1           0       -1.618931   -2.140365    0.000048
      8          1           0        0.870848   -2.151417    0.000034
      9          1           0        0.875398    2.144661   -0.000002
     10          1           0       -1.581342    2.166700    0.000083
     11          5           0        2.623201    0.000150    0.000004
     12          8           0        3.279723    1.214758    0.000006
     13          1           0        4.246191    1.179798    0.000149
     14          8           0        3.277521   -1.215216   -0.000024
     15          1           0        4.244106   -1.183276   -0.000108
     16         17           0       -3.519531   -0.000391   -0.000037
 ---------------------------------------------------------------------
 Rotational constants (GHZ):      3.6409192      0.5179228      0.4534231
 Standard basis: 6-31+G(d) (6D, 7F)
 There are   206 symmetry adapted cartesian basis functions of A   symmetry.
 There are   206 symmetry adapted basis functions of A   symmetry.
   206 basis functions,   368 primitive gaussians,   206 cartesian basis functions
    40 alpha electrons       40 beta electrons
       nuclear repulsion energy       529.8547492672 Hartrees.
 NAtoms=   16 NActive=   16 NUniq=   16 SFac= 1.00D+00 NAtFMM=   60 NAOKFM=F Big=F
 Integral buffers will be    131072 words long.
 Raffenetti 2 integral format.
 Two-electron integral symmetry is turned on.
 Nuclear repulsion after empirical dispersion term =      529.8424655231 Hartrees.
 One-electron integrals computed using PRISM.
 NBasis=   206 RedAO= T EigKep=  3.05D-06  NBF=   206
 NBsUse=   206 1.00D-06 EigRej= -1.00D+00 NBFU=   206
 ExpMin= 3.15D-02 ExpMax= 2.52D+04 ExpMxC= 3.78D+03 IAcc=3 IRadAn=         5 AccDes= 0.00D+00
 Harris functional with IExCor=  402 and IRadAn=       5 diagonalized for initial guess.
 HarFok:  IExCor=  402 AccDes= 0.00D+00 IRadAn=         5 IDoV= 1 UseB2=F ITyADJ=14
 ICtDFT=  3500011 ScaDFX=  1.000000  1.000000  1.000000  1.000000
 FoFCou: FMM=F IPFlag=           0 FMFlag=      100000 FMFlg1=           0
         NFxFlg=           0 DoJE=T BraDBF=F KetDBF=T FulRan=T
         wScrn=  0.000000 ICntrl=     500 IOpCl=  0 I1Cent=   200000004 NGrid=           0
         NMat0=    1 NMatS0=      1 NMatT0=    0 NMatD0=    1 NMtDS0=    0 NMtDT0=    0
 Petite list used in FoFCou.
 Keep R1 ints in memory in canonical form, NReq=231886580.
 Requested convergence on RMS density matrix=1.00D-08 within 128 cycles.
 Requested convergence on MAX density matrix=1.00D-06.
 Requested convergence on             energy=1.00D-06.
 No special actions if energy rises.
 SCF Done:  E(RB3LYP) =  -867.891552027     A.U. after   15 cycles
            NFock= 15  Conv=0.32D-08     -V/T= 2.0062

 **********************************************************************

            Population analysis using the SCF density.

 **********************************************************************

 Orbital symmetries:
       Occupied  (A) (A) (A) (A) (A) (A) (A) (A) (A) (A) (A) (A)
                 (A) (A) (A) (A) (A) (A) (A) (A) (A) (A) (A) (A)
                 (A) (A) (A) (A) (A) (A) (A) (A) (A) (A) (A) (A)
                 (A) (A) (A) (A)
       Virtual   (A) (A) (A) (A) (A) (A) (A) (A) (A) (A) (A) (A)
                 (A) (A) (A) (A) (A) (A) (A) (A) (A) (A) (A) (A)
                 (A) (A) (A) (A) (A) (A) (A) (A) (A) (A) (A) (A)
                 (A) (A) (A) (A) (A) (A) (A) (A) (A) (A) (A) (A)
                 (A) (A) (A) (A) (A) (A) (A) (A) (A) (A) (A) (A)
                 (A) (A) (A) (A) (A) (A) (A) (A) (A) (A) (A) (A)
                 (A) (A) (A) (A) (A) (A) (A) (A) (A) (A) (A) (A)
                 (A) (A) (A) (A) (A) (A) (A) (A) (A) (A) (A) (A)
                 (A) (A) (A) (A) (A) (A) (A) (A) (A) (A) (A) (A)
                 (A) (A) (A) (A) (A) (A) (A) (A) (A) (A) (A) (A)
                 (A) (A) (A) (A) (A) (A) (A) (A) (A) (A) (A) (A)
                 (A) (A) (A) (A) (A) (A) (A) (A) (A) (A) (A) (A)
                 (A) (A) (A) (A) (A) (A) (A) (A) (A) (A) (A) (A)
                 (A) (A) (A) (A) (A) (A) (A) (A) (A) (A)
 The electronic state is 1-A.
 Alpha  occ. eigenvalues -- -101.55587 -19.18520 -19.18519 -10.26217 -10.20746
 Alpha  occ. eigenvalues --  -10.20709 -10.20507 -10.20473 -10.18459  -9.47093
 Alpha  occ. eigenvalues --   -7.23496  -7.22534  -7.22496  -6.80694  -1.05806
 Alpha  occ. eigenvalues --   -1.02457  -0.89178  -0.83702  -0.75943  -0.73734
 Alpha  occ. eigenvalues --   -0.62185  -0.61627  -0.57911  -0.56333  -0.51204
 Alpha  occ. eigenvalues --   -0.46597  -0.46363  -0.44802  -0.43289  -0.41259
 Alpha  occ. eigenvalues --   -0.41061  -0.39206  -0.36453  -0.35345  -0.34667
 Alpha  occ. eigenvalues --   -0.34262  -0.33399  -0.31604  -0.26515  -0.25093
 Alpha virt. eigenvalues --   -0.04483  -0.03478  -0.01949   0.00709   0.01338
 Alpha virt. eigenvalues --    0.01427   0.02925   0.03705   0.03824   0.05302
 Alpha virt. eigenvalues --    0.05938   0.07690   0.08521   0.08869   0.08920
 Alpha virt. eigenvalues --    0.09242   0.11165   0.11171   0.11553   0.12760
 Alpha virt. eigenvalues --    0.13257   0.14189   0.14498   0.15125   0.15745
 Alpha virt. eigenvalues --    0.15800   0.16422   0.16778   0.17393   0.18661
 Alpha virt. eigenvalues --    0.19937   0.20071   0.20238   0.21543   0.22336
 Alpha virt. eigenvalues --    0.22533   0.22987   0.23006   0.23358   0.23504
 Alpha virt. eigenvalues --    0.24499   0.24795   0.25041   0.25912   0.28991
 Alpha virt. eigenvalues --    0.29218   0.29969   0.31284   0.32136   0.33517
 Alpha virt. eigenvalues --    0.33877   0.34206   0.36570   0.41891   0.42316
 Alpha virt. eigenvalues --    0.45052   0.45284   0.47908   0.53849   0.54489
 Alpha virt. eigenvalues --    0.57913   0.62077   0.62847   0.63931   0.66279
 Alpha virt. eigenvalues --    0.67177   0.67405   0.69054   0.70401   0.71062
 Alpha virt. eigenvalues --    0.71562   0.73895   0.73981   0.76997   0.77738
 Alpha virt. eigenvalues --    0.79839   0.81007   0.84351   0.86891   0.88465
 Alpha virt. eigenvalues --    0.90858   0.91972   0.93137   0.94424   0.94618
 Alpha virt. eigenvalues --    0.96426   0.96928   1.01325   1.04196   1.05397
 Alpha virt. eigenvalues --    1.08201   1.10098   1.11219   1.11318   1.13551
 Alpha virt. eigenvalues --    1.15913   1.16509   1.18984   1.21716   1.21908
 Alpha virt. eigenvalues --    1.23947   1.24386   1.25952   1.27234   1.30063
 Alpha virt. eigenvalues --    1.35207   1.36116   1.41224   1.43007   1.43857
 Alpha virt. eigenvalues --    1.46830   1.46842   1.49647   1.50208   1.54752
 Alpha virt. eigenvalues --    1.55064   1.65219   1.65696   1.69770   1.73129
 Alpha virt. eigenvalues --    1.73412   1.77009   1.79739   1.83799   1.85909
 Alpha virt. eigenvalues --    1.88706   1.95189   1.98497   2.07704   2.08025
 Alpha virt. eigenvalues --    2.10076   2.13255   2.13671   2.15597   2.17032
 Alpha virt. eigenvalues --    2.21563   2.23836   2.25348   2.30328   2.37439
 Alpha virt. eigenvalues --    2.38158   2.42229   2.51565   2.58134   2.59912
 Alpha virt. eigenvalues --    2.63754   2.65608   2.74636   2.75027   2.76795
 Alpha virt. eigenvalues --    2.80142   2.90929   2.91711   2.97716   3.13031
 Alpha virt. eigenvalues --    3.36129   3.69266   4.15485   4.23647   4.24364
 Alpha virt. eigenvalues --    4.30695   4.36770   4.37808   4.39224   4.46210
 Alpha virt. eigenvalues --    4.70316
          Condensed to atoms (all electrons):
               1          2          3          4          5          6
     1  C   11.860846  -6.213680   1.288419   1.375719  -1.345976  -0.669199
     2  C   -6.213680  16.962229  -2.404759  -5.249216   1.314866   1.169175
     3  C    1.288419  -2.404759  10.520136  -2.739174   1.414677  -1.573107
     4  C    1.375719  -5.249216  -2.739174  17.243005  -6.202828   1.135088
     5  C   -1.345976   1.314866   1.414677  -6.202828  11.740092  -0.626174
     6  C   -0.669199   1.169175  -1.573107   1.135088  -0.626174   6.315154
     7  H    0.236194  -0.006355   0.015134  -0.025400   0.057164   0.015761
     8  H   -0.019104   0.237104   0.038014   0.033251  -0.009588   0.001538
     9  H   -0.010290   0.034547   0.041751   0.232367  -0.018982   0.001315
    10  H    0.056196  -0.025153   0.014553  -0.006325   0.234641   0.019203
    11  B   -0.162405   0.136274   0.407064   0.133629  -0.158025   0.050628
    12  O    0.100467  -0.508256  -0.110148   0.512224  -0.028538  -0.006022
    13  H    0.004302  -0.021634  -0.010522   0.025558   0.003050  -0.001005
    14  O   -0.025042   0.494243  -0.085010  -0.520965   0.102639  -0.005154
    15  H    0.002910   0.024921  -0.009712  -0.021746   0.004224  -0.000941
    16  Cl  -0.182948   0.159204  -0.100323   0.149307  -0.181933  -0.047396
               7          8          9         10         11         12
     1  C    0.236194  -0.019104  -0.010290   0.056196  -0.162405   0.100467
     2  C   -0.006355   0.237104   0.034547  -0.025153   0.136274  -0.508256
     3  C    0.015134   0.038014   0.041751   0.014553   0.407064  -0.110148
     4  C   -0.025400   0.033251   0.232367  -0.006325   0.133629   0.512224
     5  C    0.057164  -0.009588  -0.018982   0.234641  -0.158025  -0.028538
     6  C    0.015761   0.001538   0.001315   0.019203   0.050628  -0.006022
     7  H    0.512763  -0.004587   0.000014  -0.000157   0.000580   0.000019
     8  H   -0.004587   0.521320  -0.000135   0.000014  -0.011499   0.001189
     9  H    0.000014  -0.000135   0.522864  -0.004895  -0.011418   0.007443
    10  H   -0.000157   0.000014  -0.004895   0.513147   0.000635   0.000146
    11  B    0.000580  -0.011499  -0.011418   0.000635   3.348760   0.202251
    12  O    0.000019   0.001189   0.007443   0.000146   0.202251   8.724294
    13  H    0.000000  -0.000010  -0.000197   0.000000   0.006042   0.155979
    14  O    0.000123   0.007615   0.001261   0.000019   0.200782  -0.254693
    15  H    0.000000  -0.000196  -0.000010   0.000000   0.006113  -0.008059
    16  Cl   0.001861   0.000497   0.000613   0.001152  -0.001479  -0.000327
              13         14         15         16
     1  C    0.004302  -0.025042   0.002910  -0.182948
     2  C   -0.021634   0.494243   0.024921   0.159204
     3  C   -0.010522  -0.085010  -0.009712  -0.100323
     4  C    0.025558  -0.520965  -0.021746   0.149307
     5  C    0.003050   0.102639   0.004224  -0.181933
     6  C   -0.001005  -0.005154  -0.000941  -0.047396
     7  H    0.000000   0.000123   0.000000   0.001861
     8  H   -0.000010   0.007615  -0.000196   0.000497
     9  H   -0.000197   0.001261  -0.000010   0.000613
    10  H    0.000000   0.000019   0.000000   0.001152
    11  B    0.006042   0.200782   0.006113  -0.001479
    12  O    0.155979  -0.254693  -0.008059  -0.000327
    13  H    0.348427  -0.008109   0.004947  -0.000010
    14  O   -0.008109   8.723942   0.156005  -0.000299
    15  H    0.004947   0.156005   0.348484  -0.000010
    16  Cl  -0.000010  -0.000299  -0.000010  17.007539
 Mulliken charges:
               1
     1  C   -0.296409
     2  C   -0.103512
     3  C   -0.706994
     4  C   -0.074494
     5  C   -0.299309
     6  C    0.221136
     7  H    0.196885
     8  H    0.204577
     9  H    0.203752
    10  H    0.196823
    11  B    0.852068
    12  O   -0.787969
    13  H    0.493182
    14  O   -0.787358
    15  H    0.493070
    16  Cl   0.194554
 Sum of Mulliken charges =   0.00000
 Mulliken charges with hydrogens summed into heavy atoms:
               1
     1  C   -0.099524
     2  C    0.101065
     3  C   -0.706994
     4  C    0.129258
     5  C   -0.102487
     6  C    0.221136
    11  B    0.852068
    12  O   -0.294787
    14  O   -0.294288
    16  Cl   0.194554
 Electronic spatial extent (au):  <R**2>=           2203.6664
 Charge=              0.0000 electrons
 Dipole moment (field-independent basis, Debye):
    X=              4.1977    Y=              0.0088    Z=              0.0002  Tot=              4.1977
 Quadrupole moment (field-independent basis, Debye-Ang):
   XX=            -47.3501   YY=            -63.4850   ZZ=            -68.1883
   XY=             -0.0246   XZ=              0.0004   YZ=              0.0005
 Traceless Quadrupole moment (field-independent basis, Debye-Ang):
   XX=             12.3243   YY=             -3.8105   ZZ=             -8.5138
   XY=             -0.0246   XZ=              0.0004   YZ=              0.0005
 Octapole moment (field-independent basis, Debye-Ang**2):
  XXX=            154.7238  YYY=              0.2738  ZZZ=             -0.0003  XYY=             -7.6665
  XXY=             -0.2726  XXZ=              0.0023  XZZ=              3.9560  YZZ=             -0.0078
  YYZ=              0.0006  XYZ=              0.0022
 Hexadecapole moment (field-independent basis, Debye-Ang**3):
 XXXX=          -1630.0931 YYYY=           -424.2676 ZZZZ=            -79.2111 XXXY=             -0.1339
 XXXZ=              0.0073 YYYX=             -0.4860 YYYZ=             -0.0004 ZZZX=             -0.0030
 ZZZY=             -0.0012 XXYY=           -458.9896 XXZZ=           -409.5541 YYZZ=            -95.1007
 XXYZ=              0.0107 YYXZ=             -0.0011 ZZXY=             -0.0085
 N-N= 5.298424655231D+02 E-N=-3.103361079763D+03  KE= 8.625600748072D+02
 Calling FoFJK, ICntrl=      2127 FMM=F ISym2X=0 I1Cent= 0 IOpClX= 0 NMat=1 NMatS=1 NMatT=0.
 ***** Axes restored to original set *****
 -------------------------------------------------------------------
 Center     Atomic                   Forces (Hartrees/Bohr)
 Number     Number              X              Y              Z
 -------------------------------------------------------------------
      1        6          -0.012389877    0.000895982    0.000002399
      2        6           0.005700285    0.002602194   -0.000002052
      3        6          -0.005101239   -0.003586578    0.000000335
      4        6          -0.000611772    0.000988605    0.000003472
      5        6          -0.001209730   -0.002577160   -0.000003116
      6        6           0.010298049    0.003353493    0.000001268
      7        1           0.001773066   -0.000888766   -0.000001916
      8        1          -0.000318953   -0.000071849    0.000000347
      9        1          -0.000249295   -0.000031903    0.000000373
     10        1          -0.002666034   -0.000707009   -0.000001587
     11        5           0.005875932    0.000466138   -0.000003165
     12        8          -0.001914882   -0.001757187    0.000002729
     13        1           0.000067244    0.000170739   -0.000001882
     14        8          -0.001908790    0.001113884    0.000000832
     15        1           0.000084346   -0.000111214    0.000000730
     16       17           0.002571650    0.000140632    0.000001233
 -------------------------------------------------------------------
 Cartesian Forces:  Max     0.012389877 RMS     0.002972077

 GradGradGradGradGradGradGradGradGradGradGradGradGradGradGradGradGradGrad
 Berny optimization.
 FormGI is forming the generalized inverse of G from B-inverse, IUseBI=4.
 Internal  Forces:  Max     0.006135470 RMS     0.001699867
 Search for a local minimum.
 Step number   1 out of a maximum of   81
 All quantities printed in internal units (Hartrees-Bohrs-Radians)
 Mixed Optimization -- RFO/linear search
 Second derivative matrix not updated -- first step.
 ITU=  0
     Eigenvalues ---    0.00573   0.01539   0.01575   0.01994   0.02041
     Eigenvalues ---    0.02068   0.02068   0.02088   0.02093   0.02117
     Eigenvalues ---    0.02156   0.02477   0.02482   0.16000   0.16000
     Eigenvalues ---    0.16000   0.16000   0.16000   0.16000   0.22000
     Eigenvalues ---    0.22961   0.24000   0.25000   0.25000   0.25000
     Eigenvalues ---    0.25000   0.27263   0.29539   0.35160   0.35182
     Eigenvalues ---    0.35257   0.35469   0.41019   0.41518   0.44496
     Eigenvalues ---    0.44908   0.45508   0.47032   0.48977   0.49046
     Eigenvalues ---    0.53971   0.53974
 RFO step:  Lambda=-7.05006138D-04 EMin= 5.72796614D-03
 Linear search not attempted -- first point.
 Iteration  1 RMS(Cart)=  0.00881141 RMS(Int)=  0.00006884
 Iteration  2 RMS(Cart)=  0.00008891 RMS(Int)=  0.00001121
 Iteration  3 RMS(Cart)=  0.00000000 RMS(Int)=  0.00001121
 Variable       Old X    -DE/DX   Delta X   Delta X   Delta X     New X
                                 (Linear)    (Quad)   (Total)
    R1        2.62439   0.00299   0.00000   0.00649   0.00649   2.63088
    R2        2.65458  -0.00518   0.00000  -0.01184  -0.01182   2.64277
    R3        2.05259   0.00002   0.00000   0.00005   0.00005   2.05265
    R4        2.66727  -0.00257   0.00000  -0.00532  -0.00534   2.66192
    R5        2.05380  -0.00012   0.00000  -0.00035  -0.00035   2.05345
    R6        2.65306   0.00138   0.00000   0.00337   0.00335   2.65641
    R7        2.93780   0.00218   0.00000   0.00799   0.00799   2.94579
    R8        2.64128  -0.00138   0.00000  -0.00320  -0.00320   2.63808
    R9        2.05416  -0.00013   0.00000  -0.00037  -0.00037   2.05379
   R10        2.65008  -0.00614   0.00000  -0.01407  -0.01405   2.63603
   R11        2.04919   0.00091   0.00000   0.00256   0.00256   2.05175
   R12        3.32592  -0.00257   0.00000  -0.00869  -0.00869   3.31723
   R13        2.60912  -0.00219   0.00000  -0.00446  -0.00446   2.60466
   R14        2.60840  -0.00184   0.00000  -0.00375  -0.00375   2.60465
   R15        1.82755   0.00008   0.00000   0.00014   0.00014   1.82770
   R16        1.82758   0.00007   0.00000   0.00013   0.00013   1.82771
    A1        2.09221  -0.00311   0.00000  -0.01364  -0.01362   2.07860
    A2        2.12257  -0.00048   0.00000  -0.00584  -0.00585   2.11671
    A3        2.06840   0.00359   0.00000   0.01948   0.01947   2.08788
    A4        2.12233  -0.00094   0.00000  -0.00207  -0.00209   2.12023
    A5        2.08185   0.00016   0.00000  -0.00090  -0.00089   2.08096
    A6        2.07901   0.00078   0.00000   0.00297   0.00298   2.08200
    A7        2.04841   0.00130   0.00000   0.00730   0.00726   2.05567
    A8        2.11784  -0.00094   0.00000  -0.00480  -0.00478   2.11305
    A9        2.11694  -0.00036   0.00000  -0.00249  -0.00247   2.11446
   A10        2.12973  -0.00153   0.00000  -0.00609  -0.00611   2.12362
   A11        2.07913   0.00098   0.00000   0.00441   0.00442   2.08355
   A12        2.07432   0.00054   0.00000   0.00168   0.00169   2.07601
   A13        2.08173  -0.00133   0.00000  -0.00696  -0.00694   2.07479
   A14        2.08634   0.00333   0.00000   0.02008   0.02007   2.10641
   A15        2.11511  -0.00200   0.00000  -0.01312  -0.01313   2.10198
   A16        2.09196   0.00562   0.00000   0.02146   0.02150   2.11346
   A17        2.09561  -0.00298   0.00000  -0.01139  -0.01141   2.08421
   A18        2.09561  -0.00265   0.00000  -0.01007  -0.01009   2.08552
   A19        2.06663  -0.00116   0.00000  -0.00462  -0.00462   2.06201
   A20        2.06437  -0.00079   0.00000  -0.00316  -0.00316   2.06121
   A21        2.15218   0.00195   0.00000   0.00778   0.00778   2.15996
   A22        2.03018   0.00030   0.00000   0.00189   0.00189   2.03207
   A23        2.03164   0.00022   0.00000   0.00138   0.00138   2.03302
    D1       -0.00002   0.00000   0.00000   0.00003   0.00003   0.00001
    D2        3.14159   0.00000   0.00000   0.00001   0.00001  -3.14159
    D3       -3.14157   0.00000   0.00000  -0.00001  -0.00001  -3.14159
    D4        0.00004   0.00000   0.00000  -0.00003  -0.00003   0.00000
    D5       -0.00002   0.00000   0.00000   0.00002   0.00002   0.00000
    D6        3.14157   0.00000   0.00000   0.00001   0.00001   3.14158
    D7        3.14153   0.00000   0.00000   0.00006   0.00006   3.14159
    D8       -0.00006   0.00000   0.00000   0.00005   0.00005  -0.00001
    D9        0.00003   0.00000   0.00000  -0.00003  -0.00003   0.00000
   D10       -3.14159   0.00000   0.00000  -0.00001  -0.00001   3.14159
   D11       -3.14158   0.00000   0.00000  -0.00001  -0.00001  -3.14159
   D12       -0.00001   0.00000   0.00000   0.00001   0.00001   0.00000
   D13        0.00001   0.00000   0.00000  -0.00003  -0.00003  -0.00001
   D14        3.14158   0.00000   0.00000   0.00002   0.00002  -3.14159
   D15       -3.14156   0.00000   0.00000  -0.00005  -0.00005   3.14158
   D16        0.00001   0.00000   0.00000   0.00000   0.00000   0.00000
   D17       -3.14157   0.00000   0.00000  -0.00004  -0.00004   3.14157
   D18        0.00004   0.00000   0.00000  -0.00009  -0.00009  -0.00005
   D19        0.00000   0.00000   0.00000  -0.00002  -0.00002  -0.00002
   D20       -3.14157   0.00000   0.00000  -0.00007  -0.00007   3.14154
   D21       -0.00006   0.00000   0.00000   0.00007   0.00007   0.00002
   D22        3.14155   0.00000   0.00000   0.00005   0.00005  -3.14159
   D23        3.14156   0.00000   0.00000   0.00003   0.00003  -3.14159
   D24       -0.00002   0.00000   0.00000   0.00001   0.00001  -0.00001
   D25        0.00006   0.00000   0.00000  -0.00007  -0.00007  -0.00001
   D26       -3.14153   0.00000   0.00000  -0.00006  -0.00006   3.14159
   D27       -3.14154   0.00000   0.00000  -0.00004  -0.00004  -3.14158
   D28        0.00005   0.00000   0.00000  -0.00004  -0.00004   0.00002
   D29        3.14143   0.00000   0.00000   0.00003   0.00003   3.14146
   D30       -0.00019   0.00000   0.00000   0.00009   0.00009  -0.00010
   D31        3.14149   0.00000   0.00000   0.00005   0.00005   3.14154
   D32       -0.00008   0.00000   0.00000   0.00000   0.00000  -0.00008
         Item               Value     Threshold  Converged?
 Maximum Force            0.006135     0.000450     NO 
 RMS     Force            0.001700     0.000300     NO 
 Maximum Displacement     0.038534     0.001800     NO 
 RMS     Displacement     0.008812     0.001200     NO 
 Predicted change in Energy=-3.535691D-04
 GradGradGradGradGradGradGradGradGradGradGradGradGradGradGradGradGradGrad

                          Input orientation:                          
 ---------------------------------------------------------------------
 Center     Atomic      Atomic             Coordinates (Angstroms)
 Number     Number       Type             X           Y           Z
 ---------------------------------------------------------------------
      1          6           0       -0.917852   -1.425800    0.000003
      2          6           0        0.467701   -1.289905   -0.000012
      3          6           0        1.082523   -0.022533   -0.000001
      4          6           0        0.249532    1.109787    0.000024
      5          6           0       -1.141852    0.996238    0.000022
      6          6           0       -1.713915   -0.275991    0.000017
      7          1           0       -1.388505   -2.404751    0.000002
      8          1           0        1.088352   -2.181855   -0.000028
      9          1           0        0.696448    2.100464    0.000032
     10          1           0       -1.770091    1.881759    0.000041
     11          5           0        2.634974    0.118484   -0.000014
     12          8           0        3.172512    1.387673   -0.000028
     13          1           0        4.137909    1.446293    0.000076
     14          8           0        3.391484   -1.033671    0.000021
     15          1           0        4.351850   -0.919056   -0.000031
     16         17           0       -3.461867   -0.437538    0.000018
 ---------------------------------------------------------------------
                    Distance matrix (angstroms):
                    1          2          3          4          5
     1  C    0.000000
     2  C    1.392201   0.000000
     3  C    2.443493   1.408630   0.000000
     4  C    2.791413   2.409589   1.405711   0.000000
     5  C    2.432375   2.795910   2.446577   1.396010   0.000000
     6  C    1.398491   2.405716   2.807901   2.403229   1.394928
     7  H    1.086213   2.165267   3.432338   3.877518   3.409922
     8  H    2.143939   1.086638   2.159330   3.396840   3.882536
     9  H    3.878209   3.398077   2.157816   1.086818   2.144449
    10  H    3.415591   3.881645   3.429831   2.162133   1.085741
    11  B    3.873937   2.584692   1.558843   2.583218   3.877482
    12  O    4.964545   3.805973   2.521257   2.936160   4.332085
    13  H    5.814606   4.577904   3.390108   3.902911   5.298908
    14  O    4.327140   2.934989   2.520655   3.803455   4.967058
    15  H    5.294010   3.901812   3.390022   4.576594   5.817999
    16  Cl   2.729225   4.020949   4.563300   4.021032   2.727304
                    6          7          8          9         10
     6  C    0.000000
     7  H    2.153488   0.000000
     8  H    3.388956   2.486867   0.000000
     9  H    3.384876   4.964271   4.300214   0.000000
    10  H    2.158482   4.303461   4.968265   2.476216   0.000000
    11  B    4.366744   4.749221   2.771930   2.772387   4.744865
    12  O    5.161875   5.931725   4.133431   2.576619   4.967238
    13  H    6.100009   6.735859   4.739542   3.503084   5.924028
    14  O    5.161316   4.972741   2.573469   4.133524   5.928034
    15  H    6.099757   5.929499   3.499296   4.741251   6.732216
    16  Cl   1.755401   2.858103   4.873103   4.871656   2.870757
                   11         12         13         14         15
    11  B    0.000000
    12  O    1.378328   0.000000
    13  H    2.005466   0.967175   0.000000
    14  O    1.378320   2.431225   2.589860   0.000000
    15  H    2.006029   2.590721   2.375005   0.967181   0.000000
    16  Cl   6.122142   6.880871   7.829777   6.879228   7.828539
                   16
    16  Cl   0.000000
 Stoichiometry    C6H6BClO2
 Framework group  C1[X(C6H6BClO2)]
 Deg. of freedom    42
 Full point group                 C1      NOp   1
 Largest Abelian subgroup         C1      NOp   1
 Largest concise Abelian subgroup C1      NOp   1
                         Standard orientation:                         
 ---------------------------------------------------------------------
 Center     Atomic      Atomic             Coordinates (Angstroms)
 Number     Number       Type             X           Y           Z
 ---------------------------------------------------------------------
      1          6           0       -1.058758   -1.215572   -0.000004
      2          6           0        0.333409   -1.205844   -0.000019
      3          6           0        1.060593    0.000572   -0.000008
      4          6           0        0.333683    1.203745    0.000017
      5          6           0       -1.062265    1.216800    0.000015
      6          6           0       -1.747307    0.001669    0.000010
      7          1           0       -1.616221   -2.147825   -0.000006
      8          1           0        0.870645   -2.150387   -0.000035
      9          1           0        0.868569    2.149827    0.000024
     10          1           0       -1.607641    2.155628    0.000034
     11          5           0        2.619436    0.000270   -0.000022
     12          8           0        3.269819    1.215503   -0.000036
     13          1           0        4.236555    1.186363    0.000068
     14          8           0        3.268382   -1.215722    0.000014
     15          1           0        4.235184   -1.188641   -0.000038
     16         17           0       -3.502706   -0.000752    0.000010
 ---------------------------------------------------------------------
 Rotational constants (GHZ):      3.6332010      0.5216596      0.4561631
 Standard basis: 6-31+G(d) (6D, 7F)
 There are   206 symmetry adapted cartesian basis functions of A   symmetry.
 There are   206 symmetry adapted basis functions of A   symmetry.
   206 basis functions,   368 primitive gaussians,   206 cartesian basis functions
    40 alpha electrons       40 beta electrons
       nuclear repulsion energy       530.9099410653 Hartrees.
 NAtoms=   16 NActive=   16 NUniq=   16 SFac= 1.00D+00 NAtFMM=   60 NAOKFM=F Big=F
 Integral buffers will be    131072 words long.
 Raffenetti 2 integral format.
 Two-electron integral symmetry is turned on.
 Nuclear repulsion after empirical dispersion term =      530.8976541148 Hartrees.
 One-electron integrals computed using PRISM.
 NBasis=   206 RedAO= T EigKep=  2.91D-06  NBF=   206
 NBsUse=   206 1.00D-06 EigRej= -1.00D+00 NBFU=   206
 Initial guess from the checkpoint file:  "C:\Users\123\Desktop\ML project\MOLECULE_9.chk"
 B after Tr=     0.000000    0.000000    0.000000
         Rot=    1.000000    0.000002   -0.000003   -0.000184 Ang=   0.02 deg.
 ExpMin= 3.15D-02 ExpMax= 2.52D+04 ExpMxC= 3.78D+03 IAcc=3 IRadAn=         5 AccDes= 0.00D+00
 Harris functional with IExCor=  402 and IRadAn=       5 diagonalized for initial guess.
 HarFok:  IExCor=  402 AccDes= 0.00D+00 IRadAn=         5 IDoV= 1 UseB2=F ITyADJ=14
 ICtDFT=  3500011 ScaDFX=  1.000000  1.000000  1.000000  1.000000
 FoFCou: FMM=F IPFlag=           0 FMFlag=      100000 FMFlg1=           0
         NFxFlg=           0 DoJE=T BraDBF=F KetDBF=T FulRan=T
         wScrn=  0.000000 ICntrl=     500 IOpCl=  0 I1Cent=   200000004 NGrid=           0
         NMat0=    1 NMatS0=      1 NMatT0=    0 NMatD0=    1 NMtDS0=    0 NMtDT0=    0
 Petite list used in FoFCou.
 Keep R1 ints in memory in canonical form, NReq=231886580.
 Requested convergence on RMS density matrix=1.00D-08 within 128 cycles.
 Requested convergence on MAX density matrix=1.00D-06.
 Requested convergence on             energy=1.00D-06.
 No special actions if energy rises.
 SCF Done:  E(RB3LYP) =  -867.891954027     A.U. after   12 cycles
            NFock= 12  Conv=0.77D-08     -V/T= 2.0061
 Calling FoFJK, ICntrl=      2127 FMM=F ISym2X=0 I1Cent= 0 IOpClX= 0 NMat=1 NMatS=1 NMatT=0.
 ***** Axes restored to original set *****
 -------------------------------------------------------------------
 Center     Atomic                   Forces (Hartrees/Bohr)
 Number     Number              X              Y              Z
 -------------------------------------------------------------------
      1        6          -0.003735759   -0.000266220   -0.000000148
      2        6           0.002317893    0.001029053    0.000000416
      3        6          -0.001475995   -0.001176687   -0.000000963
      4        6           0.000052170    0.000726530   -0.000001616
      5        6           0.000663795    0.001088357    0.000001765
      6        6           0.002626512   -0.000738943   -0.000000681
      7        1           0.000629732    0.000094963   -0.000000167
      8        1           0.000019811    0.000043886   -0.000000031
      9        1           0.000242465   -0.000203966    0.000000201
     10        1          -0.000486171   -0.000514066   -0.000000389
     11        5           0.001652181    0.000186062    0.000002970
     12        8          -0.000490590   -0.000697652    0.000000492
     13        1           0.000084503    0.000165656   -0.000001257
     14        8          -0.000570733    0.000535207   -0.000001135
     15        1           0.000088255   -0.000102608    0.000000310
     16       17          -0.001618070   -0.000169570    0.000000232
 -------------------------------------------------------------------
 Cartesian Forces:  Max     0.003735759 RMS     0.000929095

 GradGradGradGradGradGradGradGradGradGradGradGradGradGradGradGradGradGrad
 Berny optimization.
 Using GEDIIS/GDIIS optimizer.
 FormGI is forming the generalized inverse of G from B-inverse, IUseBI=4.
 Internal  Forces:  Max     0.001856973 RMS     0.000441003
 Search for a local minimum.
 Step number   2 out of a maximum of   81
 All quantities printed in internal units (Hartrees-Bohrs-Radians)
 Mixed Optimization -- En-DIIS/RFO-DIIS
 Update second derivatives using D2CorX and points    1    2
 DE= -4.02D-04 DEPred=-3.54D-04 R= 1.14D+00
 TightC=F SS=  1.41D+00  RLast= 5.27D-02 DXNew= 5.0454D-01 1.5813D-01
 Trust test= 1.14D+00 RLast= 5.27D-02 DXMaxT set to 3.00D-01
 ITU=  1  0
 Use linear search instead of GDIIS.
     Eigenvalues ---    0.00573   0.01543   0.01582   0.01994   0.02041
     Eigenvalues ---    0.02067   0.02068   0.02088   0.02093   0.02116
     Eigenvalues ---    0.02155   0.02477   0.02482   0.13928   0.16000
     Eigenvalues ---    0.16000   0.16000   0.16000   0.16113   0.21160
     Eigenvalues ---    0.22724   0.23140   0.24911   0.25000   0.25000
     Eigenvalues ---    0.25013   0.27083   0.31265   0.35157   0.35182
     Eigenvalues ---    0.35261   0.35545   0.41471   0.41677   0.42948
     Eigenvalues ---    0.44918   0.45908   0.48701   0.48953   0.49060
     Eigenvalues ---    0.53972   0.53976
 RFO step:  Lambda=-4.38491644D-05 EMin= 5.72796652D-03
 Quartic linear search produced a step of  0.15858.
 Iteration  1 RMS(Cart)=  0.00236970 RMS(Int)=  0.00000713
 Iteration  2 RMS(Cart)=  0.00000769 RMS(Int)=  0.00000226
 Iteration  3 RMS(Cart)=  0.00000000 RMS(Int)=  0.00000226
 Variable       Old X    -DE/DX   Delta X   Delta X   Delta X     New X
                                 (Linear)    (Quad)   (Total)
    R1        2.63088   0.00186   0.00103   0.00393   0.00496   2.63584
    R2        2.64277  -0.00092  -0.00187  -0.00118  -0.00305   2.63971
    R3        2.05265  -0.00036   0.00001  -0.00118  -0.00117   2.05147
    R4        2.66192  -0.00082  -0.00085  -0.00166  -0.00251   2.65941
    R5        2.05345  -0.00002  -0.00006  -0.00005  -0.00010   2.05335
    R6        2.65641   0.00022   0.00053   0.00020   0.00073   2.65713
    R7        2.94579   0.00077   0.00127   0.00248   0.00375   2.94953
    R8        2.63808   0.00010  -0.00051   0.00053   0.00002   2.63809
    R9        2.05379  -0.00009  -0.00006  -0.00025  -0.00031   2.05348
   R10        2.63603   0.00072  -0.00223   0.00323   0.00101   2.63704
   R11        2.05175  -0.00014   0.00041  -0.00070  -0.00029   2.05146
   R12        3.31723   0.00163  -0.00138   0.00723   0.00585   3.32308
   R13        2.60466  -0.00065  -0.00071  -0.00110  -0.00181   2.60286
   R14        2.60465  -0.00063  -0.00060  -0.00111  -0.00171   2.60294
   R15        1.82770   0.00009   0.00002   0.00019   0.00021   1.82791
   R16        1.82771   0.00008   0.00002   0.00015   0.00017   1.82788
    A1        2.07860  -0.00069  -0.00216  -0.00199  -0.00415   2.07445
    A2        2.11671  -0.00019  -0.00093  -0.00166  -0.00259   2.11412
    A3        2.08788   0.00089   0.00309   0.00365   0.00674   2.09461
    A4        2.12023   0.00010  -0.00033   0.00090   0.00057   2.12080
    A5        2.08096  -0.00001  -0.00014   0.00005  -0.00009   2.08086
    A6        2.08200  -0.00009   0.00047  -0.00095  -0.00048   2.08152
    A7        2.05567   0.00047   0.00115   0.00147   0.00262   2.05829
    A8        2.11305  -0.00017  -0.00076  -0.00031  -0.00106   2.11199
    A9        2.11446  -0.00030  -0.00039  -0.00117  -0.00156   2.11291
   A10        2.12362  -0.00042  -0.00097  -0.00171  -0.00268   2.12094
   A11        2.08355  -0.00010   0.00070  -0.00155  -0.00085   2.08271
   A12        2.07601   0.00052   0.00027   0.00326   0.00352   2.07953
   A13        2.07479   0.00000  -0.00110   0.00071  -0.00038   2.07441
   A14        2.10641   0.00071   0.00318   0.00315   0.00633   2.11275
   A15        2.10198  -0.00071  -0.00208  -0.00386  -0.00595   2.09603
   A16        2.11346   0.00054   0.00341   0.00061   0.00403   2.11748
   A17        2.08421  -0.00031  -0.00181  -0.00039  -0.00220   2.08200
   A18        2.08552  -0.00024  -0.00160  -0.00022  -0.00182   2.08370
   A19        2.06201  -0.00027  -0.00073  -0.00080  -0.00154   2.06047
   A20        2.06121  -0.00018  -0.00050  -0.00054  -0.00104   2.06017
   A21        2.15996   0.00045   0.00123   0.00134   0.00258   2.16254
   A22        2.03207   0.00029   0.00030   0.00193   0.00223   2.03430
   A23        2.03302   0.00021   0.00022   0.00135   0.00157   2.03459
    D1        0.00001   0.00000   0.00001  -0.00002  -0.00001   0.00000
    D2       -3.14159   0.00000   0.00000  -0.00001  -0.00001   3.14159
    D3       -3.14159   0.00000   0.00000  -0.00001  -0.00001   3.14159
    D4        0.00000   0.00000  -0.00001   0.00000   0.00000   0.00000
    D5        0.00000   0.00000   0.00000   0.00000   0.00001   0.00000
    D6        3.14158   0.00000   0.00000   0.00001   0.00002  -3.14159
    D7        3.14159   0.00000   0.00001  -0.00001   0.00000   3.14159
    D8       -0.00001   0.00000   0.00001   0.00000   0.00001   0.00000
    D9        0.00000   0.00000   0.00000   0.00000   0.00000   0.00000
   D10        3.14159   0.00000   0.00000   0.00000   0.00000   3.14159
   D11       -3.14159   0.00000   0.00000  -0.00001  -0.00001   3.14159
   D12        0.00000   0.00000   0.00000  -0.00001  -0.00001   0.00000
   D13       -0.00001   0.00000   0.00000   0.00002   0.00002   0.00001
   D14       -3.14159   0.00000   0.00000  -0.00001   0.00000   3.14159
   D15        3.14158   0.00000  -0.00001   0.00003   0.00002  -3.14159
   D16        0.00000   0.00000   0.00000   0.00000   0.00000   0.00000
   D17        3.14157   0.00000  -0.00001  -0.00003  -0.00004   3.14154
   D18       -0.00005   0.00000  -0.00001   0.00007   0.00005   0.00000
   D19       -0.00002   0.00000   0.00000  -0.00003  -0.00004  -0.00006
   D20        3.14154   0.00000  -0.00001   0.00006   0.00005  -3.14159
   D21        0.00002   0.00000   0.00001  -0.00004  -0.00003  -0.00001
   D22       -3.14159   0.00000   0.00001  -0.00001   0.00000   3.14159
   D23       -3.14159   0.00000   0.00001  -0.00001   0.00000  -3.14159
   D24       -0.00001   0.00000   0.00000   0.00002   0.00002   0.00000
   D25       -0.00001   0.00000  -0.00001   0.00002   0.00001   0.00000
   D26        3.14159   0.00000  -0.00001   0.00001   0.00000  -3.14159
   D27       -3.14158   0.00000  -0.00001   0.00000  -0.00001   3.14159
   D28        0.00002   0.00000  -0.00001  -0.00001  -0.00002   0.00000
   D29        3.14146   0.00000   0.00001   0.00009   0.00010   3.14156
   D30       -0.00010   0.00000   0.00001  -0.00001   0.00000  -0.00010
   D31        3.14154   0.00000   0.00001  -0.00004  -0.00003   3.14151
   D32       -0.00008   0.00000   0.00000   0.00006   0.00006  -0.00002
         Item               Value     Threshold  Converged?
 Maximum Force            0.001857     0.000450     NO 
 RMS     Force            0.000441     0.000300     NO 
 Maximum Displacement     0.009395     0.001800     NO 
 RMS     Displacement     0.002369     0.001200     NO 
 Predicted change in Energy=-2.979224D-05
 GradGradGradGradGradGradGradGradGradGradGradGradGradGradGradGradGradGrad

                          Input orientation:                          
 ---------------------------------------------------------------------
 Center     Atomic      Atomic             Coordinates (Angstroms)
 Number     Number       Type             X           Y           Z
 ---------------------------------------------------------------------
      1          6           0       -0.919986   -1.426625   -0.000006
      2          6           0        0.468021   -1.288856    0.000002
      3          6           0        1.081507   -0.022313    0.000021
      4          6           0        0.250578    1.111997    0.000030
      5          6           0       -1.140741    0.997533    0.000028
      6          6           0       -1.711698   -0.275777    0.000008
      7          1           0       -1.386694   -2.406774   -0.000021
      8          1           0        1.089598   -2.180095   -0.000008
      9          1           0        0.700264    2.101241    0.000046
     10          1           0       -1.775063    1.878515    0.000038
     11          5           0        2.635999    0.118162    0.000032
     12          8           0        3.171804    1.387046   -0.000019
     13          1           0        4.137113    1.448862    0.000017
     14          8           0        3.390279   -1.034373    0.000019
     15          1           0        4.351082   -0.922701   -0.000046
     16         17           0       -3.462858   -0.436243    0.000004
 ---------------------------------------------------------------------
                    Distance matrix (angstroms):
                    1          2          3          4          5
     1  C    0.000000
     2  C    1.394828   0.000000
     3  C    2.445008   1.407300   0.000000
     4  C    2.795500   2.410679   1.406095   0.000000
     5  C    2.434189   2.795655   2.445091   1.396019   0.000000
     6  C    1.396875   2.403644   2.804681   2.403423   1.395460
     7  H    1.085592   2.165574   3.431861   3.881032   3.413181
     8  H    2.146193   1.086584   2.157796   3.397326   3.882232
     9  H    3.882145   3.398042   2.157505   1.086656   2.146502
    10  H    3.413958   3.881194   3.431201   2.165819   1.085585
    11  B    3.877035   2.584536   1.560826   2.584172   3.877764
    12  O    4.965832   3.804062   2.521039   2.934146   4.330100
    13  H    5.817446   4.577918   3.391326   3.901107   5.297117
    14  O    4.328077   2.933317   2.520851   3.803239   4.965761
    15  H    5.295101   3.900286   3.391286   4.577568   5.817853
    16  Cl   2.728929   4.022283   4.563178   4.023264   2.729092
                    6          7          8          9         10
     6  C    0.000000
     7  H    2.155639   0.000000
     8  H    3.387283   2.486646   0.000000
     9  H    3.386410   4.967655   4.299002   0.000000
    10  H    2.155223   4.302852   4.967756   2.485328   0.000000
    11  B    4.365508   4.749459   2.770079   2.771222   4.749349
    12  O    5.158834   5.930681   4.130384   2.572660   4.971221
    13  H    6.097784   6.736348   4.738848   3.498218   5.927768
    14  O    5.158065   4.970207   2.570177   4.131374   5.930065
    15  H    6.097197   5.926597   3.495471   4.740537   6.736205
    16  Cl   1.758497   2.862421   4.875026   4.875491   2.864744
                   11         12         13         14         15
    11  B    0.000000
    12  O    1.377372   0.000000
    13  H    2.006018   0.967287   0.000000
    14  O    1.377416   2.431255   2.593109   0.000000
    15  H    2.006217   2.593382   2.381196   0.967271   0.000000
    16  Cl   6.124004   6.880634   7.830274   6.879190   7.829068
                   16
    16  Cl   0.000000
 Stoichiometry    C6H6BClO2
 Framework group  C1[X(C6H6BClO2)]
 Deg. of freedom    42
 Full point group                 C1      NOp   1
 Largest Abelian subgroup         C1      NOp   1
 Largest concise Abelian subgroup C1      NOp   1
                         Standard orientation:                         
 ---------------------------------------------------------------------
 Center     Atomic      Atomic             Coordinates (Angstroms)
 Number     Number       Type             X           Y           Z
 ---------------------------------------------------------------------
      1          6           0       -1.060542   -1.216810   -0.000015
      2          6           0        0.334238   -1.205169   -0.000007
      3          6           0        1.059783    0.000682    0.000012
      4          6           0        0.334874    1.205510    0.000021
      5          6           0       -1.061094    1.217378    0.000019
      6          6           0       -1.744898    0.000940   -0.000002
      7          1           0       -1.614004   -2.150721   -0.000030
      8          1           0        0.872641   -2.148984   -0.000017
      9          1           0        0.872207    2.150018    0.000037
     10          1           0       -1.613119    2.152131    0.000028
     11          5           0        2.620609   -0.000043    0.000023
     12          8           0        3.269005    1.215168   -0.000028
     13          1           0        4.235949    1.189405    0.000007
     14          8           0        3.267535   -1.216086    0.000010
     15          1           0        4.234500   -1.191790   -0.000055
     16         17           0       -3.503394   -0.000452   -0.000005
 ---------------------------------------------------------------------
 Rotational constants (GHZ):      3.6307832      0.5216693      0.4561324
 Standard basis: 6-31+G(d) (6D, 7F)
 There are   206 symmetry adapted cartesian basis functions of A   symmetry.
 There are   206 symmetry adapted basis functions of A   symmetry.
   206 basis functions,   368 primitive gaussians,   206 cartesian basis functions
    40 alpha electrons       40 beta electrons
       nuclear repulsion energy       530.8420675574 Hartrees.
 NAtoms=   16 NActive=   16 NUniq=   16 SFac= 1.00D+00 NAtFMM=   60 NAOKFM=F Big=F
 Integral buffers will be    131072 words long.
 Raffenetti 2 integral format.
 Two-electron integral symmetry is turned on.
 Nuclear repulsion after empirical dispersion term =      530.8297772077 Hartrees.
 One-electron integrals computed using PRISM.
 NBasis=   206 RedAO= T EigKep=  2.88D-06  NBF=   206
 NBsUse=   206 1.00D-06 EigRej= -1.00D+00 NBFU=   206
 Initial guess from the checkpoint file:  "C:\Users\123\Desktop\ML project\MOLECULE_9.chk"
 B after Tr=     0.000000    0.000000    0.000000
         Rot=    1.000000   -0.000001    0.000002    0.000020 Ang=   0.00 deg.
 Keep R1 ints in memory in canonical form, NReq=231886580.
 Requested convergence on RMS density matrix=1.00D-08 within 128 cycles.
 Requested convergence on MAX density matrix=1.00D-06.
 Requested convergence on             energy=1.00D-06.
 No special actions if energy rises.
 SCF Done:  E(RB3LYP) =  -867.891988792     A.U. after   11 cycles
            NFock= 11  Conv=0.45D-08     -V/T= 2.0061
 Calling FoFJK, ICntrl=      2127 FMM=F ISym2X=0 I1Cent= 0 IOpClX= 0 NMat=1 NMatS=1 NMatT=0.
 ***** Axes restored to original set *****
 -------------------------------------------------------------------
 Center     Atomic                   Forces (Hartrees/Bohr)
 Number     Number              X              Y              Z
 -------------------------------------------------------------------
      1        6          -0.000431480    0.000122893   -0.000000050
      2        6           0.000396363    0.000292615    0.000000048
      3        6          -0.000088593   -0.000477758    0.000001771
      4        6          -0.000468948    0.000236139    0.000000934
      5        6           0.000460158    0.000554761   -0.000000759
      6        6           0.000673395   -0.000641095    0.000000328
      7        1           0.000074051    0.000017937   -0.000000034
      8        1          -0.000024489   -0.000031302    0.000000090
      9        1           0.000040517   -0.000049794   -0.000000128
     10        1          -0.000007646   -0.000058428    0.000000048
     11        5           0.000143411    0.000010765   -0.000006692
     12        8          -0.000004438   -0.000137965    0.000002701
     13        1          -0.000023189    0.000056659   -0.000000424
     14        8          -0.000042020    0.000140072    0.000001626
     15        1          -0.000004076   -0.000042382    0.000000604
     16       17          -0.000693015    0.000006883   -0.000000064
 -------------------------------------------------------------------
 Cartesian Forces:  Max     0.000693015 RMS     0.000245874

 GradGradGradGradGradGradGradGradGradGradGradGradGradGradGradGradGradGrad
 Berny optimization.
 Using GEDIIS/GDIIS optimizer.
 FormGI is forming the generalized inverse of G from B-inverse, IUseBI=4.
 Internal  Forces:  Max     0.000689496 RMS     0.000127213
 Search for a local minimum.
 Step number   3 out of a maximum of   81
 All quantities printed in internal units (Hartrees-Bohrs-Radians)
 Mixed Optimization -- En-DIIS/RFO-DIIS
 Swapping is turned off.
 Update second derivatives using D2CorX and points    1    2    3
 DE= -3.48D-05 DEPred=-2.98D-05 R= 1.17D+00
 TightC=F SS=  1.41D+00  RLast= 1.78D-02 DXNew= 5.0454D-01 5.3336D-02
 Trust test= 1.17D+00 RLast= 1.78D-02 DXMaxT set to 3.00D-01
 ITU=  1  1  0
     Eigenvalues ---    0.00573   0.01544   0.01584   0.01994   0.02041
     Eigenvalues ---    0.02067   0.02068   0.02088   0.02093   0.02116
     Eigenvalues ---    0.02155   0.02477   0.02482   0.12876   0.16000
     Eigenvalues ---    0.16000   0.16000   0.16074   0.16113   0.20693
     Eigenvalues ---    0.22467   0.23105   0.24894   0.25000   0.25012
     Eigenvalues ---    0.25164   0.27028   0.30515   0.35149   0.35184
     Eigenvalues ---    0.35245   0.35523   0.41011   0.41769   0.42163
     Eigenvalues ---    0.44950   0.47330   0.48011   0.48959   0.49022
     Eigenvalues ---    0.53972   0.53989
 En-DIIS/RFO-DIIS IScMMF=        0 using points:     3    2
 RFO step:  Lambda=-2.18199486D-06.
 DidBck=F Rises=F RFO-DIIS coefs:    1.20838   -0.20838
 Iteration  1 RMS(Cart)=  0.00058394 RMS(Int)=  0.00000033
 Iteration  2 RMS(Cart)=  0.00000040 RMS(Int)=  0.00000013
 Variable       Old X    -DE/DX   Delta X   Delta X   Delta X     New X
                                 (Linear)    (Quad)   (Total)
    R1        2.63584   0.00024   0.00103  -0.00012   0.00091   2.63676
    R2        2.63971  -0.00022  -0.00064  -0.00027  -0.00090   2.63881
    R3        2.05147  -0.00005  -0.00024   0.00004  -0.00021   2.05126
    R4        2.65941  -0.00026  -0.00052  -0.00041  -0.00093   2.65848
    R5        2.05335   0.00001  -0.00002   0.00005   0.00003   2.05337
    R6        2.65713   0.00025   0.00015   0.00059   0.00074   2.65788
    R7        2.94953   0.00007   0.00078  -0.00017   0.00062   2.95015
    R8        2.63809  -0.00031   0.00000  -0.00087  -0.00086   2.63723
    R9        2.05348  -0.00003  -0.00006  -0.00005  -0.00012   2.05337
   R10        2.63704   0.00048   0.00021   0.00083   0.00104   2.63808
   R11        2.05146  -0.00004  -0.00006  -0.00005  -0.00011   2.05135
   R12        3.32308   0.00069   0.00122   0.00162   0.00284   3.32592
   R13        2.60286  -0.00009  -0.00038   0.00001  -0.00037   2.60249
   R14        2.60294  -0.00011  -0.00036  -0.00004  -0.00040   2.60254
   R15        1.82791  -0.00002   0.00004  -0.00008  -0.00003   1.82788
   R16        1.82788  -0.00001   0.00004  -0.00005  -0.00001   1.82787
    A1        2.07445  -0.00003  -0.00086   0.00031  -0.00055   2.07389
    A2        2.11412  -0.00005  -0.00054  -0.00006  -0.00060   2.11352
    A3        2.09461   0.00008   0.00140  -0.00025   0.00115   2.09577
    A4        2.12080   0.00001   0.00012  -0.00014  -0.00002   2.12078
    A5        2.08086  -0.00004  -0.00002  -0.00029  -0.00031   2.08055
    A6        2.08152   0.00004  -0.00010   0.00043   0.00033   2.08185
    A7        2.05829   0.00006   0.00055  -0.00006   0.00048   2.05877
    A8        2.11199   0.00003  -0.00022   0.00024   0.00001   2.11201
    A9        2.11291  -0.00009  -0.00032  -0.00017  -0.00050   2.11241
   A10        2.12094  -0.00001  -0.00056   0.00028  -0.00027   2.12067
   A11        2.08271  -0.00006  -0.00018  -0.00019  -0.00036   2.08234
   A12        2.07953   0.00006   0.00073  -0.00010   0.00064   2.08017
   A13        2.07441  -0.00004  -0.00008  -0.00024  -0.00032   2.07409
   A14        2.11275   0.00006   0.00132  -0.00029   0.00103   2.11377
   A15        2.09603  -0.00002  -0.00124   0.00053  -0.00071   2.09532
   A16        2.11748   0.00001   0.00084  -0.00016   0.00068   2.11816
   A17        2.08200   0.00011  -0.00046   0.00065   0.00019   2.08219
   A18        2.08370  -0.00012  -0.00038  -0.00049  -0.00087   2.08283
   A19        2.06047  -0.00005  -0.00032  -0.00005  -0.00037   2.06010
   A20        2.06017   0.00000  -0.00022   0.00014  -0.00008   2.06009
   A21        2.16254   0.00004   0.00054  -0.00008   0.00045   2.16299
   A22        2.03430   0.00011   0.00046   0.00045   0.00091   2.03521
   A23        2.03459   0.00008   0.00033   0.00033   0.00065   2.03524
    D1        0.00000   0.00000   0.00000   0.00000   0.00000   0.00000
    D2        3.14159   0.00000   0.00000   0.00000   0.00000  -3.14159
    D3        3.14159   0.00000   0.00000   0.00000   0.00000   3.14159
    D4        0.00000   0.00000   0.00000   0.00000   0.00000   0.00000
    D5        0.00000   0.00000   0.00000   0.00000   0.00000   0.00000
    D6       -3.14159   0.00000   0.00000  -0.00001   0.00000   3.14159
    D7        3.14159   0.00000   0.00000   0.00000   0.00000  -3.14159
    D8        0.00000   0.00000   0.00000   0.00000   0.00000   0.00000
    D9        0.00000   0.00000   0.00000   0.00000   0.00000   0.00000
   D10        3.14159   0.00000   0.00000   0.00001   0.00001  -3.14159
   D11        3.14159   0.00000   0.00000   0.00001   0.00000  -3.14159
   D12        0.00000   0.00000   0.00000   0.00001   0.00001   0.00000
   D13        0.00001   0.00000   0.00000  -0.00002  -0.00001  -0.00001
   D14        3.14159   0.00000   0.00000   0.00000   0.00000  -3.14159
   D15       -3.14159   0.00000   0.00000  -0.00002  -0.00002   3.14158
   D16        0.00000   0.00000   0.00000   0.00000   0.00000   0.00000
   D17        3.14154   0.00000  -0.00001   0.00011   0.00010  -3.14155
   D18        0.00000   0.00000   0.00001  -0.00010  -0.00009  -0.00008
   D19       -0.00006   0.00000  -0.00001   0.00011   0.00010   0.00004
   D20       -3.14159   0.00000   0.00001  -0.00009  -0.00008   3.14151
   D21       -0.00001   0.00000  -0.00001   0.00002   0.00002   0.00001
   D22        3.14159   0.00000   0.00000   0.00001   0.00001  -3.14159
   D23       -3.14159   0.00000   0.00000   0.00000   0.00000   3.14159
   D24        0.00000   0.00000   0.00000  -0.00001  -0.00001   0.00000
   D25        0.00000   0.00000   0.00000  -0.00001  -0.00001   0.00000
   D26       -3.14159   0.00000   0.00000   0.00000   0.00000   3.14159
   D27        3.14159   0.00000   0.00000   0.00000   0.00000   3.14159
   D28        0.00000   0.00000   0.00000   0.00001   0.00000   0.00000
   D29        3.14156   0.00000   0.00002  -0.00010  -0.00008   3.14148
   D30       -0.00010   0.00000   0.00000   0.00012   0.00012   0.00002
   D31        3.14151   0.00000  -0.00001   0.00013   0.00012  -3.14155
   D32       -0.00002   0.00000   0.00001  -0.00009  -0.00007  -0.00009
         Item               Value     Threshold  Converged?
 Maximum Force            0.000689     0.000450     NO 
 RMS     Force            0.000127     0.000300     YES
 Maximum Displacement     0.002336     0.001800     NO 
 RMS     Displacement     0.000584     0.001200     YES
 Predicted change in Energy=-2.201352D-06
 GradGradGradGradGradGradGradGradGradGradGradGradGradGradGradGradGradGrad

                          Input orientation:                          
 ---------------------------------------------------------------------
 Center     Atomic      Atomic             Coordinates (Angstroms)
 Number     Number       Type             X           Y           Z
 ---------------------------------------------------------------------
      1          6           0       -0.920257   -1.426813    0.000000
      2          6           0        0.468220   -1.288881   -0.000023
      3          6           0        1.081362   -0.022722   -0.000020
      4          6           0        0.250635    1.112223    0.000010
      5          6           0       -1.140241    0.997946    0.000029
      6          6           0       -1.711156   -0.275985    0.000026
      7          1           0       -1.386249   -2.407181   -0.000005
      8          1           0        1.089604   -2.180273   -0.000045
      9          1           0        0.701033    2.101075    0.000012
     10          1           0       -1.775339    1.878300    0.000047
     11          5           0        2.636162    0.117962   -0.000053
     12          8           0        3.171270    1.386931    0.000000
     13          1           0        4.136475    1.450098    0.000074
     14          8           0        3.390369   -1.034367    0.000015
     15          1           0        4.351235   -0.923289    0.000026
     16         17           0       -3.463919   -0.435425    0.000053
 ---------------------------------------------------------------------
                    Distance matrix (angstroms):
                    1          2          3          4          5
     1  C    0.000000
     2  C    1.395311   0.000000
     3  C    2.444984   1.406806   0.000000
     4  C    2.796013   2.410943   1.406488   0.000000
     5  C    2.434718   2.795841   2.444848   1.395562   0.000000
     6  C    1.396398   2.403256   2.803979   2.403277   1.396010
     7  H    1.085482   2.165560   3.431435   3.881442   3.414002
     8  H    2.146449   1.086599   2.157567   3.397705   3.882433
     9  H    3.882599   3.397942   2.157583   1.086595   2.146435
    10  H    3.413933   3.881313   3.431417   2.165974   1.085528
    11  B    3.877428   2.584411   1.561152   2.584433   3.877576
    12  O    4.965656   3.803478   2.520880   2.933526   4.329022
    13  H    5.817831   4.578002   3.391595   3.900502   5.296053
    14  O    4.328453   2.933212   2.520901   3.803391   4.965554
    15  H    5.295486   3.900188   3.391621   4.578017   5.817857
    16  Cl   2.730030   4.023693   4.563979   4.024068   2.730207
                    6          7          8          9         10
     6  C    0.000000
     7  H    2.155820   0.000000
     8  H    3.386823   2.486229   0.000000
     9  H    3.386601   4.968010   4.298946   0.000000
    10  H    2.155241   4.303108   4.967888   2.486372   0.000000
    11  B    4.365131   4.749331   2.770150   2.770823   4.749750
    12  O    5.157845   5.930115   4.130167   2.571395   4.970954
    13  H    6.097061   6.736400   4.739518   3.496574   5.927301
    14  O    5.157587   4.969980   2.570335   4.130802   5.930276
    15  H    6.096851   5.926269   3.495462   4.740333   6.736751
    16  Cl   1.760000   2.864355   4.876378   4.876542   2.864372
                   11         12         13         14         15
    11  B    0.000000
    12  O    1.377179   0.000000
    13  H    2.006371   0.967270   0.000000
    14  O    1.377204   2.431191   2.594079   0.000000
    15  H    2.006410   2.594115   2.383084   0.967266   0.000000
    16  Cl   6.125131   6.880895   7.830785   6.880407   7.830367
                   16
    16  Cl   0.000000
 Stoichiometry    C6H6BClO2
 Framework group  C1[X(C6H6BClO2)]
 Deg. of freedom    42
 Full point group                 C1      NOp   1
 Largest Abelian subgroup         C1      NOp   1
 Largest concise Abelian subgroup C1      NOp   1
                         Standard orientation:                         
 ---------------------------------------------------------------------
 Center     Atomic      Atomic             Coordinates (Angstroms)
 Number     Number       Type             X           Y           Z
 ---------------------------------------------------------------------
      1          6           0       -1.060485   -1.217268   -0.000013
      2          6           0        0.334775   -1.205315   -0.000035
      3          6           0        1.059777    0.000286   -0.000033
      4          6           0        0.334960    1.205628   -0.000002
      5          6           0       -1.060553    1.217450    0.000016
      6          6           0       -1.744202    0.000294    0.000013
      7          1           0       -1.613125   -2.151537   -0.000017
      8          1           0        0.873103   -2.149190   -0.000057
      9          1           0        0.872836    2.149756   -0.000001
     10          1           0       -1.613536    2.151570    0.000035
     11          5           0        2.620929   -0.000042   -0.000066
     12          8           0        3.268469    1.215405   -0.000012
     13          1           0        4.235435    1.191132    0.000061
     14          8           0        3.267968   -1.215785    0.000003
     15          1           0        4.234940   -1.191952    0.000014
     16         17           0       -3.504202   -0.000176    0.000041
 ---------------------------------------------------------------------
 Rotational constants (GHZ):      3.6301060      0.5215801      0.4560535
 Standard basis: 6-31+G(d) (6D, 7F)
 There are   206 symmetry adapted cartesian basis functions of A   symmetry.
 There are   206 symmetry adapted basis functions of A   symmetry.
   206 basis functions,   368 primitive gaussians,   206 cartesian basis functions
    40 alpha electrons       40 beta electrons
       nuclear repulsion energy       530.7920523815 Hartrees.
 NAtoms=   16 NActive=   16 NUniq=   16 SFac= 1.00D+00 NAtFMM=   60 NAOKFM=F Big=F
 Integral buffers will be    131072 words long.
 Raffenetti 2 integral format.
 Two-electron integral symmetry is turned on.
 Nuclear repulsion after empirical dispersion term =      530.7797612442 Hartrees.
 One-electron integrals computed using PRISM.
 NBasis=   206 RedAO= T EigKep=  2.88D-06  NBF=   206
 NBsUse=   206 1.00D-06 EigRej= -1.00D+00 NBFU=   206
 Initial guess from the checkpoint file:  "C:\Users\123\Desktop\ML project\MOLECULE_9.chk"
 B after Tr=     0.000000    0.000000    0.000000
         Rot=    1.000000   -0.000001   -0.000004   -0.000022 Ang=   0.00 deg.
 Keep R1 ints in memory in canonical form, NReq=231886580.
 Requested convergence on RMS density matrix=1.00D-08 within 128 cycles.
 Requested convergence on MAX density matrix=1.00D-06.
 Requested convergence on             energy=1.00D-06.
 No special actions if energy rises.
 SCF Done:  E(RB3LYP) =  -867.891991295     A.U. after   10 cycles
            NFock= 10  Conv=0.37D-08     -V/T= 2.0061
 Calling FoFJK, ICntrl=      2127 FMM=F ISym2X=0 I1Cent= 0 IOpClX= 0 NMat=1 NMatS=1 NMatT=0.
 ***** Axes restored to original set *****
 -------------------------------------------------------------------
 Center     Atomic                   Forces (Hartrees/Bohr)
 Number     Number              X              Y              Z
 -------------------------------------------------------------------
      1        6          -0.000012625    0.000094740    0.000000336
      2        6           0.000047462    0.000085906   -0.000000505
      3        6           0.000125593   -0.000124067   -0.000004051
      4        6          -0.000171434    0.000041519   -0.000001181
      5        6           0.000070626    0.000120349    0.000000777
      6        6           0.000080916   -0.000245352   -0.000000292
      7        1          -0.000030785    0.000000947    0.000000132
      8        1          -0.000013271   -0.000011513   -0.000000046
      9        1           0.000022227   -0.000003659    0.000000062
     10        1           0.000029868    0.000005222    0.000000106
     11        5          -0.000080468   -0.000003073    0.000013438
     12        8           0.000041467    0.000009104   -0.000003509
     13        1          -0.000015239    0.000006462   -0.000000828
     14        8           0.000028760    0.000009266   -0.000004183
     15        1          -0.000011374   -0.000005539   -0.000000208
     16       17          -0.000111721    0.000019688   -0.000000047
 -------------------------------------------------------------------
 Cartesian Forces:  Max     0.000245352 RMS     0.000063358

 GradGradGradGradGradGradGradGradGradGradGradGradGradGradGradGradGradGrad
 Berny optimization.
 Using GEDIIS/GDIIS optimizer.
 FormGI is forming the generalized inverse of G from B-inverse, IUseBI=4.
 Internal  Forces:  Max     0.000118804 RMS     0.000031995
 Search for a local minimum.
 Step number   4 out of a maximum of   81
 All quantities printed in internal units (Hartrees-Bohrs-Radians)
[...]
 ! D4    D(7,1,2,8)              0.0            -DE/DX =    0.0                 !
 ! D5    D(2,1,6,5)              0.0001         -DE/DX =    0.0                 !
 ! D6    D(2,1,6,16)           179.9999         -DE/DX =    0.0                 !
 ! D7    D(7,1,6,5)           -179.9998         -DE/DX =    0.0                 !
 ! D8    D(7,1,6,16)             0.0001         -DE/DX =    0.0                 !
 ! D9    D(1,2,3,4)              0.0002         -DE/DX =    0.0                 !
 ! D10   D(1,2,3,11)           180.0003         -DE/DX =    0.0                 !
 ! D11   D(8,2,3,4)            180.0001         -DE/DX =    0.0                 !
 ! D12   D(8,2,3,11)             0.0002         -DE/DX =    0.0                 !
 ! D13   D(2,3,4,5)             -0.0004         -DE/DX =    0.0                 !
 ! D14   D(2,3,4,9)            180.0001         -DE/DX =    0.0                 !
 ! D15   D(11,3,4,5)           179.9995         -DE/DX =    0.0                 !
 ! D16   D(11,3,4,9)            -0.0001         -DE/DX =    0.0                 !
 ! D17   D(2,3,11,12)          180.0023         -DE/DX =    0.0                 !
 ! D18   D(2,3,11,14)           -0.0047         -DE/DX =    0.0                 !
 ! D19   D(4,3,11,12)            0.0025         -DE/DX =    0.0                 !
 ! D20   D(4,3,11,14)          179.9954         -DE/DX =    0.0                 !
 ! D21   D(3,4,5,6)              0.0004         -DE/DX =    0.0                 !
 ! D22   D(3,4,5,10)           180.0003         -DE/DX =    0.0                 !
 ! D23   D(9,4,5,6)           -180.0            -DE/DX =    0.0                 !
 ! D24   D(9,4,5,10)            -0.0002         -DE/DX =    0.0                 !
 ! D25   D(4,5,6,1)             -0.0003         -DE/DX =    0.0                 !
 ! D26   D(4,5,6,16)           179.9998         -DE/DX =    0.0                 !
 ! D27   D(10,5,6,1)          -180.0001         -DE/DX =    0.0                 !
 ! D28   D(10,5,6,16)            0.0            -DE/DX =    0.0                 !
 ! D29   D(3,11,12,13)         179.9937         -DE/DX =    0.0                 !
 ! D30   D(14,11,12,13)          0.0012         -DE/DX =    0.0                 !
 ! D31   D(3,11,14,15)         180.0022         -DE/DX =    0.0                 !
 ! D32   D(12,11,14,15)         -0.0053         -DE/DX =    0.0                 !
 --------------------------------------------------------------------------------
 GradGradGradGradGradGradGradGradGradGradGradGradGradGradGradGradGradGrad

 1|1|UNPC-DESKTOP-LNBVCDA|Freq|RB3LYP|6-31+G(d)|C6H6B1Cl1O2|123|25-Aug-
 2023|0||#N Geom=AllCheck Guess=TCheck SCRF=Check GenChk RB3LYP/6-31+G(
 d) Freq||Title Card Required||0,1|C,-0.9202568809,-1.4268127379,-0.000
 0004099|C,0.4682200164,-1.2888813343,-0.000022952|C,1.0813617189,-0.02
 27221721,-0.0000203395|C,0.2506345983,1.1122226784,0.0000100683|C,-1.1
 40241106,0.9979463978,0.0000285332|C,-1.7111557298,-0.2759846874,0.000
 0257569|H,-1.3862494081,-2.4071807104,-0.0000049836|H,1.0896036118,-2.
 1802734879,-0.0000448595|H,0.7010333072,2.101075179,0.0000115654|H,-1.
 7753387371,1.8783000087,0.0000468941|B,2.6361620468,0.1179623932,-0.00
 00533978|O,3.1712698135,1.3869307578,0.0000002345|H,4.1364752366,1.450
 0983995,0.0000735968|O,3.3903690489,-1.0343672938,0.0000150232|H,4.351
 2354183,-0.9232890657,0.0000261773|Cl,-3.4639189548,-0.4354250549,0.00
 00530127||Version=EM64W-G09RevD.01|State=1-A|HF=-867.8919913|RMSD=3.39
 7e-009|RMSF=6.336e-005|ZeroPoint=0.1152001|Thermal=0.1242392|Dipole=1.
 6946841,0.1535495,0.0000001|DipoleDeriv=-0.4176451,0.1249229,0.000016,
 0.1111076,0.0030896,-0.0000005,-0.0003441,-0.0000248,-0.1120944,0.1928
 076,-0.1045107,0.000117,0.1469499,0.0852876,0.0000879,0.0003502,0.0000
 251,-0.100356,-0.8113663,-0.0545168,-0.0000671,-0.0535336,-0.2135999,-
 0.0000877,-0.0002678,-0.0000202,-0.1416258,0.1982123,0.12503,0.0000499
 ,-0.1272383,0.0812617,0.0000146,0.0000304,0.0000039,-0.1002891,-0.3622
 663,-0.1919841,-0.0000215,-0.1782621,-0.0524977,-0.0000054,-0.0001532,
 -0.0000044,-0.1121038,1.3405063,0.1079425,-0.0000546,0.1076295,0.16290
 69,0.0000468,0.0005322,0.0000372,-0.0281471,0.0398676,-0.0619083,-0.00
 00141,-0.0598032,-0.0268277,-0.0000385,0.0000235,0.0000022,0.1414024,0
 .0384473,0.0676011,0.0000088,0.0611462,-0.0256162,0.0000129,0.000034,-
 0.000001,0.1227734,0.0592016,-0.0520466,-0.0000011,-0.0456584,-0.04639
 64,-0.0000148,0.0000138,0.0000008,0.1227719,0.0158568,0.0698494,0.0000
 055,0.0679522,-0.003095,0.0000049,-0.0000449,-0.0000084,0.1413963,2.25
 04236,0.0610486,0.0000781,0.0606672,1.5826648,0.0000451,0.0001682,0.00
 00047,0.4835523,-0.8637056,-0.3698268,-0.00001,-0.5309911,-1.1298534,-
 0.0001053,-0.0000747,-0.0000307,-0.5299494,0.1356908,0.0354434,-0.0000
 374,0.1085238,0.3409888,0.0000145,0.0000062,0.0000005,0.3566499,-1.031
 7885,0.3876726,-0.0000051,0.5490863,-0.9621262,0.0000656,-0.000454,0.0
 000043,-0.529929,0.1679275,-0.0670621,-0.0000396,-0.1399715,0.3089627,
 -0.0000303,0.0002155,0.0000133,0.3566384,-0.9521694,-0.077655,-0.00002
 5,-0.0776046,-0.1051497,-0.0000098,-0.0000353,-0.0000024,-0.07069|Pola
 r=149.419594,4.438472,100.9022187,-0.0043936,0.000216,57.2817201|PG=C0
 1 [X(C6H6B1Cl1O2)]|NImag=0||0.68004950,0.04147502,0.73090817,-0.000010
 99,0.00000703,0.12700223,-0.33782848,-0.05645335,0.00000610,0.69411765
 ,0.01143187,-0.13155574,-0.00000025,-0.03908216,0.69738592,0.00000702,
 -0.00000062,-0.06228602,-0.00001068,0.00000765,0.14249061,-0.02000952,
 -0.02992643,-0.00000339,-0.15846749,-0.09899796,0.00000295,0.62763992,
 -0.07266256,0.02197101,-0.00000014,-0.05227943,-0.27864449,-0.00000114
 ,-0.00202230,0.64578718,-0.00000209,0.00000165,0.01138646,0.00000252,-
 0.00000042,-0.06591072,-0.00001047,0.00000529,0.13625726,-0.05314407,0
 .02463497,0.00000155,0.06115869,0.03066051,-0.00000006,-0.18934614,0.0
 6901498,0.00000401,0.67988448,0.02437117,-0.01225814,0.00000019,-0.008
 83233,-0.05818126,-0.00000111,0.11571371,-0.24845020,-0.00000392,0.035
 52289,0.71168128,0.00000132,-0.00000060,-0.00505061,-0.00000163,-0.000
 00168,0.00720817,0.00000496,-0.00000329,-0.06585285,-0.00000923,0.0000
 0555,0.14247014,0.05928286,-0.01181595,-0.00000385,-0.04315464,-0.0300
 2621,0.00000217,-0.03683113,0.06192878,-0.00000027,-0.33850250,-0.0493
 8367,0.00000386,0.69594927,0.03202478,-0.05117784,-0.00000257,-0.03029
 093,-0.02226796,0.00000137,0.01916878,0.03878395,-0.00000132,0.0185171
 3,-0.13027438,-0.00000074,-0.04741036,0.71515630,-0.00000135,-0.000000
 28,0.00784510,-0.00000176,-0.00000120,-0.00505194,0.00000199,0.0000004
 0,0.01139021,0.00000271,0.00000032,-0.06231089,-0.00000914,0.00000659,
 0.12697742,-0.16531688,0.12619344,0.00000606,-0.03966598,0.01866912,-0
 .00000188,0.00338631,0.00637355,0.00000221,-0.02020961,-0.03029442,-0.
 00000008,-0.13587464,-0.10168716,0.00000158,0.49734537,0.06035876,-0.2
 7171329,-0.00000173,0.07617079,0.04344031,-0.00000140,0.00639544,-0.06
 645245,-0.00000023,-0.08782087,0.02396396,0.00000145,-0.03584521,-0.30
 199681,-0.00000248,-0.01396299,0.65470381,0.00000571,-0.00000553,-0.06
 198201,0.00000184,0.00000092,0.00613977,0.00000294,-0.00000044,-0.0083
 0494,0.00000033,-0.00000022,0.00613815,0.00000400,0.00000106,-0.061910
 16,-0.00001125,0.00000501,0.12360679,-0.10911849,-0.11170087,-0.000000
 25,-0.00806386,-0.02950771,-0.00000036,-0.00545211,0.00088262,0.000000
 41,-0.00091817,0.00075032,0.00000006,-0.00210431,0.00316607,0.00000044
 ,0.00931528,0.01811605,-0.00000020,0.11423587,-0.10827709,-0.29225706,
 -0.00000102,0.00078037,0.00245166,-0.00000090,0.00001133,0.00169859,0.
 00000053,0.00075788,0.00041569,0.00000004,0.00427792,-0.00197978,0.000
 00072,-0.01398733,-0.01969315,-0.00000145,0.11710225,0.30872085,0.0000
 0012,-0.00000150,-0.03498964,-0.00000131,-0.00000051,0.00314712,0.0000
 0151,0.00000109,0.00723823,-0.00000055,-0.00000022,-0.00071399,0.00000
 085,0.00000017,0.00562550,-0.00000045,-0.00000121,0.00244206,0.0000001
 2,0.00000184,0.02444296,-0.01412067,0.02668789,0.00000098,-0.15191709,
 0.13256097,0.00000367,0.01229272,-0.01144054,-0.00000027,-0.00068444,-
 0.00334108,0.00000003,-0.00053030,-0.00080716,-0.00000005,-0.00385495,
 -0.00172755,-0.00000007,0.00069395,-0.00029455,-0.00000018,0.15988517,
 -0.00429375,0.00660068,0.00000013,0.13163422,-0.24845077,-0.00000467,0
 .01644406,-0.01910235,-0.00000071,-0.00384610,-0.00378843,-0.00000004,
 -0.00074579,0.00011422,-0.00000032,-0.00119943,0.00128469,0.00000034,0
 .00032371,0.00081220,-0.00000010,-0.14045832,0.26380795,0.00000040,-0.
 00000058,0.00430131,0.00000342,-0.00000490,-0.03955535,0.00000040,-0.0
 0000001,0.00247829,-0.00000014,-0.00000009,0.00677384,0.00000043,0.000
 00024,-0.00082190,-0.00000004,-0.00000040,0.00760799,-0.00000005,0.000
 00012,-0.00426158,-0.00000426,0.00000531,0.02696960,-0.00078351,0.0006
 4370,0.00000006,-0.00205545,0.00365679,0.00000013,0.01216813,0.0171583
 3,-0.00000005,-0.10819279,-0.10683585,0.00000023,-0.00949045,-0.029639
 14,0.00000007,-0.00420975,0.00072169,0.00000007,0.00009618,-0.00007197
 ,0.,0.00056674,0.00104120,0.00000002,0.11342851,0.00058076,0.00036746,
 0.,0.00416275,-0.00241029,-0.00000043,-0.01072158,-0.01896588,0.000000
 10,-0.10592460,-0.29218405,-0.00000054,0.00134592,0.00195689,0.0000002
 5,0.00019411,0.00163626,-0.00000040,-0.00011691,-0.00001417,0.00000014
 ,-0.00075169,-0.00101598,0.00000003,0.11290144,0.31025861,0.00000006,0
 .00000005,-0.00082121,0.00000133,0.00000053,0.00678412,-0.00000130,-0.
 00000117,0.00247816,0.00000093,-0.00000054,-0.03954980,-0.00000019,0.0
 0000031,0.00429915,0.00000004,0.00000045,0.00759773,-0.00000014,-0.000
 00028,-0.00097879,0.00000005,0.00000008,0.00027737,-0.00000051,0.00000
 070,0.02696386,-0.00078251,-0.00294558,0.00000070,-0.00060534,-0.00093
 657,-0.00000049,-0.00506651,-0.00212214,0.00000067,-0.01279233,0.02670
 121,0.00000047,-0.15403057,0.13696798,0.00000321,0.00910986,-0.0128442
 5,-0.00000104,0.00065013,-0.00065240,-0.00000015,0.00005923,0.00013001
 ,-0.00000009,0.00070331,-0.00034311,-0.00000003,0.16201352,-0.00405793
 ,-0.00330263,-0.00000115,-0.00094785,0.00010231,0.00000107,-0.00124873
 ,0.00131193,-0.00000089,-0.00357115,0.00719967,0.00000020,0.13352235,-
 0.24724488,-0.00000461,0.01926798,-0.01952302,0.00000116,0.00093701,-0
 .00089992,0.00000008,0.00008514,0.00002291,0.00000011,0.00027603,0.000
 80226,0.00000004,-0.14390631,0.26085841,-0.00000028,0.00000013,0.00563
 277,0.00000130,0.00000086,-0.00071461,-0.00000111,-0.00000110,0.007229
 76,0.00000064,-0.00000010,0.00313305,0.00000241,-0.00000462,-0.0350059
 2,0.00000047,0.00000064,0.00245805,-0.00000012,-0.00000020,0.00045953,
 0.00000008,0.00000012,-0.00097796,-0.00000009,-0.00000004,-0.00425495,
 -0.00000336,0.00000441,0.02445663,0.00507405,-0.00208410,0.00000420,-0
 .01139602,-0.01228114,-0.00000244,-0.19964024,-0.01183476,0.00000640,-
 0.01698360,0.00841003,-0.00000045,0.00371812,0.00363232,-0.00000056,-0
 .00405085,-0.00002173,-0.00000395,0.00075522,0.00044190,-0.00000136,0.
 00037443,0.00170904,-0.00000050,0.00030234,-0.00119366,0.00000089,0.00
 060653,-0.00033206,0.00000140,0.53338303,-0.00381232,-0.00470909,0.000
 00114,-0.02210642,0.00423316,0.00000045,-0.01182191,-0.07005658,0.0000
 0069,0.01822576,0.00980615,-0.00000064,0.00534840,-0.00334809,-0.00000
 104,-0.00001430,-0.00385445,-0.00000040,-0.00116081,-0.00000767,-0.000
 00067,-0.00158675,-0.00252947,-0.00000016,0.00210008,-0.00245356,0.000
 00045,0.00127267,0.00014241,0.00000060,-0.00482467,0.58672467,0.000000
 93,-0.00000040,0.00602354,-0.00000140,-0.00000117,0.00048486,0.0000032
 1,0.00000111,-0.06016532,-0.00000012,0.00000030,0.00048629,0.00000138,
 0.00000048,0.00603231,-0.00000130,-0.00000084,-0.00042855,0.00000006,-
 0.00000004,0.00035437,-0.00000016,0.00000003,-0.00278236,0.,-0.0000000
 1,-0.00278989,-0.00000024,0.00000043,0.00035501,0.00001004,-0.00000131
 ,0.14653618,-0.00219351,-0.00070608,-0.00000196,-0.00372343,0.00390273
 ,0.00000143,-0.01635050,-0.02888986,-0.00000209,-0.00149374,-0.0021009
 5,0.00000042,0.00030252,-0.00068698,-0.00000019,0.00147864,-0.00105992
 ,0.00000218,-0.00059009,-0.00013637,0.00000053,0.00014791,-0.00019028,
 0.00000023,-0.00145721,-0.00055455,-0.00000024,-0.00019889,0.00010245,
 -0.00000056,-0.12204494,-0.10805930,-0.00000497,0.63159448,-0.00129165
 ,0.00096491,-0.00000268,0.00060923,0.00208510,0.00000069,-0.01405604,-
 0.00497266,-0.00000177,0.00150748,-0.00475945,0.00000058,-0.00111038,0
 .00019832,0.00000151,0.00137962,-0.00013960,0.00000116,-0.00019323,-0.
 00008182,0.00000136,0.00058172,0.00062908,0.00000049,0.00004679,0.0010
 1610,-0.00000099,-0.00034343,0.00005829,-0.00000125,-0.06663936,-0.275
 90539,-0.00000577,0.13561206,0.36956865,-0.00000040,0.00000008,-0.0004
 2861,-0.00000060,-0.00000026,0.00133451,-0.00000034,-0.00000069,0.0065
 9884,-0.00000012,-0.00000014,0.00076939,-0.00000043,-0.00000021,-0.000
 48292,0.00000073,0.00000004,0.00012843,0.00000005,0.00000026,-0.000125
 06,0.00000003,-0.00000008,0.00009059,0.00000004,0.00000012,-0.00021548
 ,0.00000008,-0.00000022,-0.00001251,-0.00000508,-0.00001093,-0.0464600
 2,0.00004355,0.00001266,0.02927385,0.00011792,-0.00056674,0.00000054,-
 0.00120970,0.00051257,-0.00000082,0.00240622,-0.00302211,0.00000014,0.
 00048973,-0.00013914,-0.00000018,0.00000462,0.00012125,0.00000079,-0.0
 0000226,0.00007696,-0.00000135,-0.00010271,0.00001986,0.00000017,-0.00
 000508,-0.00009931,-0.00000002,0.00011777,-0.00001760,-0.00000021,-0.0
 0002254,-0.00000318,-0.00000009,-0.01634579,0.00587516,-0.00000046,-0.
 50282960,-0.04809626,-0.00003738,0.51365350,0.00004856,-0.00031285,0.0
 0000060,-0.00101702,0.00036953,-0.00000029,0.00049667,-0.00386816,0.00
 000006,0.00063491,-0.00019148,-0.00000003,0.00003565,0.00022918,-0.000
 00012,-0.00007922,-0.00003454,-0.00000050,-0.00006394,0.00000311,-0.00
 000019,-0.00005831,-0.00007814,-0.00000010,-0.00034735,0.00046213,0.00
 000014,0.00003038,-0.00000678,0.00000019,-0.03611918,-0.00142183,-0.00
 000234,-0.01044832,-0.03228265,-0.00000198,0.04220094,0.03720007,0.000
 00009,-0.00000002,-0.00054659,0.00000066,0.00000059,0.00056019,0.00000
 015,-0.00000042,0.00473425,0.00000036,-0.00000004,-0.00037749,-0.00000
 005,0.00000002,-0.00000867,-0.00000023,0.00000021,0.00006738,-0.000000
 09,-0.00000022,-0.00005798,0.00000002,0.00000008,0.00024441,-0.0000000
 4,-0.00000004,-0.00009697,0.,0.00000007,0.00002454,-0.00000161,0.00000
 098,-0.00021251,-0.00003742,-0.00000514,-0.00942821,0.00003807,0.00000
 396,0.00776158,-0.00002028,0.00064778,-0.00000143,-0.00171759,0.002649
 10,0.00000116,-0.02356960,0.02550603,-0.00000210,-0.00273031,-0.004787
 73,0.00000017,-0.00244779,0.00007900,-0.00000027,0.00148554,0.00135744
 ,0.00000207,-0.00023167,-0.00015319,0.00000020,-0.00147632,0.00010089,
 0.00000010,0.00023303,0.00011873,-0.00000011,-0.00063263,0.00003565,-0
 .00000028,-0.15783097,0.12956346,-0.00000720,0.01507234,-0.00246280,-0
 .00000087,0.00273711,0.00269309,0.00000055,0.67106624,0.00107072,0.000
 52119,0.00000174,-0.00094544,-0.00454829,-0.00000059,0.01066411,0.0022
 3621,0.00000077,-0.00149343,0.00110435,-0.00000030,0.00067127,0.001218
 08,-0.00000084,-0.00108548,-0.00014570,-0.00000082,0.00028948,0.000091
 02,-0.00000085,-0.00050562,0.00102418,-0.00000028,-0.00065359,0.000543
 53,0.00000058,0.00009342,-0.00003979,0.00000080,0.08814509,-0.24005919
 ,0.00000869,0.01599377,-0.05907196,0.00000127,0.00405389,0.00391824,0.
 00000046,-0.08057633,0.33007368,-0.00000239,0.00000081,-0.00048084,-0.
 00000056,-0.00000067,0.00076940,-0.00000239,0.00000043,0.00659912,-0.0
 0000072,0.00000033,0.00133385,-0.00000216,-0.00000122,-0.00043008,0.00
 000362,0.00000052,0.00012821,0.00000025,0.00000111,-0.00001303,0.00000
 013,-0.00000035,-0.00021721,0.00000011,0.00000028,0.00009139,0.0000005
 4,-0.00000123,-0.00012451,-0.00000344,0.00001073,-0.04646363,-0.000001
 73,-0.00000067,0.02334073,0.00000129,0.00000086,-0.00443084,0.00001194
 ,-0.00001130,0.02927430,0.00004107,-0.00015584,0.00000007,0.00055665,0
 .00027772,-0.00000060,0.00175994,0.00404235,-0.00000005,-0.00124994,-0
 .00080559,0.00000004,0.00001278,0.00062618,0.00000088,-0.00000531,-0.0
 0006994,-0.00000110,-0.00001770,0.00000027,0.00000035,0.00006382,-0.00
 005445,0.00000007,-0.00003543,0.00010702,-0.00000032,-0.00010664,-0.00
 004011,-0.00000024,-0.02120270,-0.00948263,0.00000045,0.00396628,-0.00
 404507,0.00000043,0.00092717,0.00182024,-0.00000020,-0.49803118,-0.036
 87035,-0.00000604,0.51322816,-0.00006964,0.00019427,-0.00000085,-0.000
 50033,-0.00025814,0.00000012,0.00053091,-0.00322055,0.00000008,0.00072
 255,0.00040749,0.00000012,0.00001196,-0.00020683,0.00000046,0.00008344
 ,-0.00003384,0.00000032,-0.00003225,-0.00001228,0.00000044,0.00027477,
 0.00051648,0.00000020,0.00006599,-0.00004799,-0.00000028,0.00004341,0.
 00000823,-0.00000041,0.03250809,0.00343746,0.00000077,-0.00268384,0.00
 268880,0.00000001,-0.00091718,-0.00402480,-0.00000042,-0.07451560,-0.0
 3709795,0.00000023,0.04464137,0.03764064,0.00000117,-0.00000042,-0.000
 00879,0.00000068,0.00000073,-0.00037686,0.00000116,0.00000010,0.004733
 55,0.00000037,-0.00000033,0.00056009,0.00000098,0.00000065,-0.00054651
 ,-0.00000183,-0.00000013,0.00006731,-0.00000017,-0.00000067,0.00002493
 ,-0.00000005,0.00000019,-0.00009722,-0.00000004,-0.00000018,0.00024444
 ,-0.00000028,0.00000063,-0.00005836,-0.00000387,0.00000005,-0.00021354
 ,0.00000098,-0.00000005,-0.00443042,-0.00000060,-0.00000032,0.00176105
 ,-0.00000379,0.00000059,-0.00942382,0.00000618,-0.00000075,0.00775825,
 -0.04124748,-0.00392787,0.00000159,0.00397207,0.00651038,-0.00000121,-
 0.00491999,-0.00063293,0.00000102,0.00471476,-0.00494857,0.,-0.0363038
 4,-0.00378177,0.00000166,-0.14893077,-0.00984469,-0.00000020,0.0008524
 7,0.00018112,0.00000016,-0.00149512,-0.00049568,0.00000002,-0.00139141
 ,0.00021299,-0.00000025,0.00109539,-0.00011929,-0.00000018,0.00528139,
 0.00048359,-0.00000022,-0.00168027,-0.00149868,0.00000031,0.00006363,0
 .00017290,-0.00000025,-0.00190593,0.00114847,0.00000155,0.00009301,-0.
 00016365,-0.00000091,0.22180210,0.02310326,0.00575895,-0.00000042,-0.0
 0090209,-0.00375105,-0.00000019,-0.00063004,0.00194446,0.00000009,0.00
 245711,-0.00449119,-0.00000009,-0.03080467,0.00083963,0.00000065,-0.00
 985093,-0.04144218,-0.00000021,0.00120822,0.00075271,0.00000012,0.0007
 8109,0.00015274,0.00000002,-0.00106415,0.00004868,-0.00000008,-0.00114
 530,0.00051059,-0.00000003,0.00048419,0.00000148,0.00000007,-0.0000945
 6,0.00000430,0.00000005,0.00000090,0.00003899,-0.00000006,-0.00025553,
 0.00023238,0.00000015,0.00000882,0.00000901,-0.00000011,0.01670368,0.0
 3939050,0.00000067,0.00000020,0.00440293,0.00000008,-0.00000021,0.0049
 7677,-0.00000028,0.,-0.00089029,0.00000004,0.00000003,0.00498266,0.000
 00002,-0.00000020,0.00439931,0.00000236,0.00000009,-0.02375622,-0.0000
 0001,0.00000015,-0.00259464,0.00000005,-0.00000002,-0.00002981,0.00000
 001,0.00000002,-0.00002912,0.00000002,-0.00000012,-0.00260052,0.000000
 32,0.00000006,-0.00075674,-0.00000018,-0.00000013,0.00004689,0.0000001
 1,0.00000005,0.00000588,-0.00000017,0.00000008,0.00004697,0.00000008,-
 0.00000004,0.00000590,-0.00000312,0.00000003,0.01179003||0.00001260,-0
 .00009475,-0.00000034,-0.00004744,-0.00008591,0.00000051,-0.00012561,0
 .00012410,0.00000405,0.00017142,-0.00004153,0.00000118,-0.00007061,-0.
 00012036,-0.00000078,-0.00008093,0.00024539,0.00000029,0.00003078,-0.0
 0000095,-0.00000013,0.00001328,0.00001150,0.00000005,-0.00002223,0.000
 00365,-0.00000006,-0.00002986,-0.00000523,-0.00000011,0.00008047,0.000
 00307,-0.00001344,-0.00004147,-0.00000910,0.00000351,0.00001524,-0.000
 00646,0.00000083,-0.00002876,-0.00000927,0.00000418,0.00001137,0.00000
 554,0.00000021,0.00011173,-0.00001969,0.00000005|||@


 YOU KNOW YOU'VE SPOKEN TOO LONG WHEN THE AUDIENCE STOPS LOOKING AT
 THEIR WATCHES AND STARTS SHAKING THEM.
 Job cpu time:       0 days  0 hours  8 minutes 11.0 seconds.
 File lengths (MBytes):  RWF=     82 Int=      0 D2E=      0 Chk=      4 Scr=      1
 Normal termination of Gaussian 09 at Fri Aug 25 15:42:29 2023.
