 Entering Link 1 = C:\G09W\l1.exe PID=      8332.
  
 Copyright (c) 1988,1990,1992,1993,1995,1998,2003,2009,2013,
            Gaussian, Inc.  All Rights Reserved.
  
 This is part of the Gaussian(R) 09 program.  It is based on
 the Gaussian(R) 03 system (copyright 2003, Gaussian, Inc.),
 the Gaussian(R) 98 system (copyright 1998, Gaussian, Inc.),
 the Gaussian(R) 94 system (copyright 1995, Gaussian, Inc.),
 the Gaussian 92(TM) system (copyright 1992, Gaussian, Inc.),
 the Gaussian 90(TM) system (copyright 1990, Gaussian, Inc.),
 the Gaussian 88(TM) system (copyright 1988, Gaussian, Inc.),
 the Gaussian 86(TM) system (copyright 1986, Carnegie Mellon
 University), and the Gaussian 82(TM) system (copyright 1983,
 Carnegie Mellon University). Gaussian is a federally registered
 trademark of Gaussian, Inc.
  
 This software contains proprietary and confidential information,
 including trade secrets, belonging to Gaussian, Inc.
  
 This software is provided under written license and may be
 used, copied, transmitted, or stored only in accord with that
 written license.
  
 The following legend is applicable only to US Government
 contracts under FAR:
  
                    RESTRICTED RIGHTS LEGEND
  
 Use, reproduction and disclosure by the US Government is
 subject to restrictions as set forth in subparagraphs (a)
 and (c) of the Commercial Computer Software - Restricted
 Rights clause in FAR 52.227-19.
  
 Gaussian, Inc.
 340 Quinnipiac St., Bldg. 40, Wallingford CT 06492
  
  
 ---------------------------------------------------------------
 Warning -- This program may not be used in any manner that
 competes with the business of Gaussian, Inc. or will provide
 assistance to any competitor of Gaussian, Inc.  The licensee
 of this program is prohibited from giving any competitor of
 Gaussian, Inc. access to this program.  By using this program,
 the user acknowledges that Gaussian, Inc. is engaged in the
 business of creating and licensing software in the field of
 computational chemistry and represents and warrants to the
 licensee that it is not a competitor of Gaussian, Inc. and that
 it will not use this program in any manner prohibited above.
 ---------------------------------------------------------------
  

 Cite this work as:
 Gaussian 09, Revision D.01,
 M. J. Frisch, G. W. Trucks, H. B. Schlegel, G. E. Scuseria, 
 M. A. Robb, J. R. Cheeseman, G. Scalmani, V. Barone, B. Mennucci, 
 G. A. Petersson, H. Nakatsuji, M. Caricato, X. Li, H. P. Hratchian, 
 A. F. Izmaylov, J. Bloino, G. Zheng, J. L. Sonnenberg, M. Hada, 
 M. Ehara, K. Toyota, R. Fukuda, J. Hasegawa, M. Ishida, T. Nakajima, 
 Y. Honda, O. Kitao, H. Nakai, T. Vreven, J. A. Montgomery, Jr., 
 J. E. Peralta, F. Ogliaro, M. Bearpark, J. J. Heyd, E. Brothers, 
 K. N. Kudin, V. N. Staroverov, T. Keith, R. Kobayashi, J. Normand, 
 K. Raghavachari, A. Rendell, J. C. Burant, S. S. Iyengar, J. Tomasi, 
 M. Cossi, N. Rega, J. M. Millam, M. Klene, J. E. Knox, J. B. Cross, 
 V. Bakken, C. Adamo, J. Jaramillo, R. Gomperts, R. E. Stratmann, 
 O. Yazyev, A. J. Austin, R. Cammi, C. Pomelli, J. W. Ochterski, 
 R. L. Martin, K. Morokuma, V. G. Zakrzewski, G. A. Voth, 
 P. Salvador, J. J. Dannenberg, S. Dapprich, A. D. Daniels, 
 O. Farkas, J. B. Foresman, J. V. Ortiz, J. Cioslowski, 
 and D. J. Fox, Gaussian, Inc., Wallingford CT, 2013.
 
 ******************************************
 Gaussian 09:  EM64W-G09RevD.01 13-Apr-2013
                14-Sep-2023 
 ******************************************
 %nprocshared=2
 Will use up to    2 processors via shared memory.
 %mem=2GB
 %chk=E:\PROJECT- VIT group\ML\Substrates\molecule_8.chk
 -----------------------------------------------------
 # opt freq b3lyp/6-31g nosymm empiricaldispersion=gd3
 -----------------------------------------------------
 1/14=-1,18=20,19=15,26=3,38=1/1,3;
 2/9=110,12=2,15=1,17=6,18=5,40=1/2;
 3/5=1,6=6,11=2,16=1,25=1,30=1,71=1,74=-5,124=31/1,2,3;
 4//1;
 5/5=2,38=5/2;
 6/7=2,8=2,9=2,10=2,28=1/1;
 7/30=1/1,2,3,16;
 1/14=-1,18=20,19=15,26=3/3(2);
 2/9=110,15=1/2;
 99//99;
 2/9=110,15=1/2;
 3/5=1,6=6,11=2,16=1,25=1,30=1,71=1,74=-5,124=31/1,2,3;
 4/5=5,16=3,69=1/1;
 5/5=2,38=5/2;
 7/30=1/1,2,3,16;
 1/14=-1,18=20,19=15,26=3/3(-5);
 2/9=110,15=1/2;
 6/7=2,8=2,9=2,10=2,19=2,28=1/1;
 99/9=1/99;
 -----------
 molecule_11
 -----------
 Symbolic Z-matrix:
 Charge =  0 Multiplicity = 1
 C                    -0.26413  -0.70775   0. 
 C                     1.13103  -0.70775   0. 
 C                     1.82857   0.5       0. 
 C                     1.13092   1.70851  -0.0012 
 C                    -0.26391   1.70843  -0.00168 
 C                    -0.96151   0.50022  -0.00068 
 H                     1.68054  -1.66026   0.00132 
 H                    -0.81403   2.66071  -0.00263 
 B                     3.47857   0.50012   0.00095 
 O                     4.24934   0.49944  -1.33228 
 H                     5.19316   0.50175  -1.1568 
 O                     4.2478    0.50091   1.33507 
 H                     5.19183   0.4995    1.16067 
 H                     1.66591   2.63516  -0.00175 
 H                    -0.79914  -1.63439   0.00052 
 F                    -2.31151   0.50026  -0.00038 
 

 GradGradGradGradGradGradGradGradGradGradGradGradGradGradGradGradGradGrad
 Berny optimization.
 Initialization pass.
                           ----------------------------
                           !    Initial Parameters    !
                           ! (Angstroms and Degrees)  !
 --------------------------                            --------------------------
 ! Name  Definition              Value          Derivative Info.                !
 --------------------------------------------------------------------------------
 ! R1    R(1,2)                  1.3952         estimate D2E/DX2                !
 ! R2    R(1,6)                  1.3948         estimate D2E/DX2                !
 ! R3    R(1,15)                 1.07           estimate D2E/DX2                !
 ! R4    R(2,3)                  1.3947         estimate D2E/DX2                !
 ! R5    R(2,7)                  1.0997         estimate D2E/DX2                !
 ! R6    R(3,4)                  1.3954         estimate D2E/DX2                !
 ! R7    R(3,9)                  1.65           estimate D2E/DX2                !
 ! R8    R(4,5)                  1.3948         estimate D2E/DX2                !
 ! R9    R(4,14)                 1.07           estimate D2E/DX2                !
 ! R10   R(5,6)                  1.3951         estimate D2E/DX2                !
 ! R11   R(5,8)                  1.0998         estimate D2E/DX2                !
 ! R12   R(6,16)                 1.35           estimate D2E/DX2                !
 ! R13   R(9,10)                 1.54           estimate D2E/DX2                !
 ! R14   R(9,12)                 1.54           estimate D2E/DX2                !
 ! R15   R(10,11)                0.96           estimate D2E/DX2                !
 ! R16   R(12,13)                0.96           estimate D2E/DX2                !
 ! A1    A(2,1,6)              119.9985         estimate D2E/DX2                !
 ! A2    A(2,1,15)             120.0008         estimate D2E/DX2                !
 ! A3    A(6,1,15)             120.0008         estimate D2E/DX2                !
 ! A4    A(1,2,3)              120.0086         estimate D2E/DX2                !
 ! A5    A(1,2,7)              119.9808         estimate D2E/DX2                !
 ! A6    A(3,2,7)              120.0106         estimate D2E/DX2                !
 ! A7    A(2,3,4)              119.9942         estimate D2E/DX2                !
 ! A8    A(2,3,9)              120.0128         estimate D2E/DX2                !
 ! A9    A(4,3,9)              119.993          estimate D2E/DX2                !
 ! A10   A(3,4,5)              119.994          estimate D2E/DX2                !
 ! A11   A(3,4,14)             120.003          estimate D2E/DX2                !
 ! A12   A(5,4,14)             120.003          estimate D2E/DX2                !
 ! A13   A(4,5,6)              120.0047         estimate D2E/DX2                !
 ! A14   A(4,5,8)              120.0113         estimate D2E/DX2                !
 ! A15   A(6,5,8)              119.984          estimate D2E/DX2                !
 ! A16   A(1,6,5)              120.0            estimate D2E/DX2                !
 ! A17   A(1,6,16)             120.0            estimate D2E/DX2                !
 ! A18   A(5,6,16)             120.0            estimate D2E/DX2                !
 ! A19   A(3,9,10)             120.0            estimate D2E/DX2                !
 ! A20   A(3,9,12)             120.0            estimate D2E/DX2                !
 ! A21   A(10,9,12)            120.0            estimate D2E/DX2                !
 ! A22   A(9,10,11)            109.5            estimate D2E/DX2                !
 ! A23   A(9,12,13)            109.5            estimate D2E/DX2                !
 ! D1    D(6,1,2,3)              0.0323         estimate D2E/DX2                !
 ! D2    D(6,1,2,7)            179.9532         estimate D2E/DX2                !
 ! D3    D(15,1,2,3)          -179.9677         estimate D2E/DX2                !
 ! D4    D(15,1,2,7)            -0.0468         estimate D2E/DX2                !
 ! D5    D(2,1,6,5)              0.0149         estimate D2E/DX2                !
 ! D6    D(2,1,6,16)          -179.9851         estimate D2E/DX2                !
 ! D7    D(15,1,6,5)          -179.9851         estimate D2E/DX2                !
 ! D8    D(15,1,6,16)            0.0149         estimate D2E/DX2                !
 ! D9    D(1,2,3,4)             -0.0568         estimate D2E/DX2                !
 ! D10   D(1,2,3,9)            179.9619         estimate D2E/DX2                !
 ! D11   D(7,2,3,4)           -179.9777         estimate D2E/DX2                !
 ! D12   D(7,2,3,9)              0.041          estimate D2E/DX2                !
 ! D13   D(2,3,4,5)              0.0341         estimate D2E/DX2                !
 ! D14   D(2,3,4,14)          -179.9659         estimate D2E/DX2                !
 ! D15   D(9,3,4,5)           -179.9846         estimate D2E/DX2                !
 ! D16   D(9,3,4,14)             0.0154         estimate D2E/DX2                !
 ! D17   D(2,3,9,10)            89.9874         estimate D2E/DX2                !
 ! D18   D(2,3,9,12)           -90.0126         estimate D2E/DX2                !
 ! D19   D(4,3,9,10)           -89.9939         estimate D2E/DX2                !
 ! D20   D(4,3,9,12)            90.0061         estimate D2E/DX2                !
 ! D21   D(3,4,5,6)              0.0131         estimate D2E/DX2                !
 ! D22   D(3,4,5,8)           -179.9995         estimate D2E/DX2                !
 ! D23   D(14,4,5,6)          -179.9869         estimate D2E/DX2                !
 ! D24   D(14,4,5,8)             0.0005         estimate D2E/DX2                !
 ! D25   D(4,5,6,1)             -0.0376         estimate D2E/DX2                !
 ! D26   D(4,5,6,16)           179.9624         estimate D2E/DX2                !
 ! D27   D(8,5,6,1)            179.975          estimate D2E/DX2                !
 ! D28   D(8,5,6,16)            -0.025          estimate D2E/DX2                !
 ! D29   D(3,9,10,11)          179.8644         estimate D2E/DX2                !
 ! D30   D(12,9,10,11)          -0.1356         estimate D2E/DX2                !
 ! D31   D(3,9,12,13)          179.9122         estimate D2E/DX2                !
 ! D32   D(10,9,12,13)          -0.0878         estimate D2E/DX2                !
 --------------------------------------------------------------------------------
 Trust Radius=3.00D-01 FncErr=1.00D-07 GrdErr=1.00D-06
 Number of steps in this run=     81 maximum allowed number of steps=    100.
 GradGradGradGradGradGradGradGradGradGradGradGradGradGradGradGradGradGrad

                          Input orientation:                          
 ---------------------------------------------------------------------
 Center     Atomic      Atomic             Coordinates (Angstroms)
 Number     Number       Type             X           Y           Z
 ---------------------------------------------------------------------
      1          6           0       -0.264127   -0.707751    0.000000
      2          6           0        1.131033   -0.707751    0.000000
      3          6           0        1.828571    0.500000    0.000000
      4          6           0        1.130917    1.708509   -0.001199
      5          6           0       -0.263908    1.708431   -0.001678
      6          6           0       -0.961509    0.500225   -0.000682
      7          1           0        1.680541   -1.660264    0.001315
      8          1           0       -0.814030    2.660712   -0.002631
      9          5           0        3.478571    0.500120    0.000951
     10          8           0        4.249340    0.499439   -1.332283
     11          1           0        5.193161    0.501746   -1.156796
     12          8           0        4.247802    0.500914    1.335074
     13          1           0        5.191827    0.499499    1.160673
     14          1           0        1.665914    2.635158   -0.001751
     15          1           0       -0.799139   -1.634391    0.000523
     16          9           0       -2.311509    0.500261   -0.000378
 ---------------------------------------------------------------------
                    Distance matrix (angstroms):
                    1          2          3          4          5
     1  C    0.000000
     2  C    1.395160   0.000000
     3  C    2.416205   1.394712   0.000000
     4  C    2.790065   2.416260   1.395427   0.000000
     5  C    2.416183   2.789946   2.416356   1.394825   0.000000
     6  C    1.394829   2.416183   2.790080   2.416236   1.395138
     7  H    2.165414   1.099655   2.165330   3.413316   3.889601
     8  H    3.413055   3.889707   3.413506   2.165528   1.099761
     9  B    3.932778   2.640054   1.650000   2.640395   3.932705
    10  O    4.858360   3.599461   2.763168   3.599750   4.858145
    11  H    5.708156   4.393397   3.557899   4.392438   5.707012
    12  O    4.858065   3.599658   2.763168   3.599845   4.858037
    13  H    5.707192   4.392568   3.557899   4.393477   5.707680
    14  H    3.860065   3.385431   2.141345   1.070000   2.140803
    15  H    1.070000   2.141081   3.385334   3.860065   3.385400
    16  F    2.377197   3.648341   4.140080   3.648309   2.377466
                    6          7          8          9         10
     6  C    0.000000
     7  H    3.412938   0.000000
     8  H    2.165516   4.989362   0.000000
     9  B    4.440080   2.810724   4.805683   0.000000
    10  O    5.378300   3.611305   5.663638   1.540000   0.000000
    11  H    6.262313   4.284157   6.486877   2.068864   0.960000
    12  O    5.377840   3.611153   5.663596   1.540000   2.667358
    13  H    6.261971   4.282267   6.488022   2.068864   2.665167
    14  H    3.385453   4.295448   2.480076   2.800735   3.606342
    15  H    2.140783   2.479816   4.295130   4.780684   5.640633
    16  F    1.350000   4.539200   2.628687   5.790080   6.694677
                   11         12         13         14         15
    11  H    0.000000
    12  O    2.665168   0.000000
    13  H    2.317471   0.960000   0.000000
    14  H    4.281010   3.606694   4.283028   0.000000
    15  H    6.466075   5.640227   6.464604   4.930065   0.000000
    16  F    7.593245   6.693877   7.592633   4.514164   2.616104
                   16
    16  F    0.000000
 Symmetry turned off by external request.
 Stoichiometry    C6H6BFO2
 Framework group  C1[X(C6H6BFO2)]
 Deg. of freedom    42
 Full point group                 C1      NOp   1
 Rotational constants (GHZ):      3.4087695      0.6308051      0.6087362
 Standard basis: 6-31G (6D, 7F)
   102 basis functions,   244 primitive gaussians,   102 cartesian basis functions
    36 alpha electrons       36 beta electrons
       nuclear repulsion energy       459.7797635979 Hartrees.
 NAtoms=   16 NActive=   16 NUniq=   16 SFac= 1.00D+00 NAtFMM=   60 NAOKFM=F Big=F
 Integral buffers will be    131072 words long.
 Raffenetti 2 integral format.
 Two-electron integral symmetry is turned off.
 Nuclear repulsion after empirical dispersion term =      459.7696133479 Hartrees.
 One-electron integrals computed using PRISM.
 NBasis=   102 RedAO= T EigKep=  7.04D-04  NBF=   102
 NBsUse=   102 1.00D-06 EigRej= -1.00D+00 NBFU=   102
 ExpMin= 1.27D-01 ExpMax= 7.00D+03 ExpMxC= 1.05D+03 IAcc=1 IRadAn=         1 AccDes= 0.00D+00
 Harris functional with IExCor=  402 and IRadAn=       1 diagonalized for initial guess.
 HarFok:  IExCor=  402 AccDes= 0.00D+00 IRadAn=         1 IDoV= 1 UseB2=F ITyADJ=14
 ICtDFT=  3500011 ScaDFX=  1.000000  1.000000  1.000000  1.000000
 FoFCou: FMM=F IPFlag=           0 FMFlag=      100000 FMFlg1=           0
         NFxFlg=           0 DoJE=T BraDBF=F KetDBF=T FulRan=T
         wScrn=  0.000000 ICntrl=     500 IOpCl=  0 I1Cent=   200000004 NGrid=           0
         NMat0=    1 NMatS0=      1 NMatT0=    0 NMatD0=    1 NMtDS0=    0 NMtDT0=    0
 Symmetry not used in FoFCou.
 Keep R1 ints in memory in canonical form, NReq=14774255.
 Requested convergence on RMS density matrix=1.00D-08 within 128 cycles.
 Requested convergence on MAX density matrix=1.00D-06.
 Requested convergence on             energy=1.00D-06.
 No special actions if energy rises.
 Integral accuracy reduced to 1.0D-05 until final iterations.
 Initial convergence to 1.0D-05 achieved.  Increase integral accuracy.
 SCF Done:  E(RB3LYP) =  -507.336542023     A.U. after   15 cycles
            NFock= 15  Conv=0.45D-08     -V/T= 2.0061

 **********************************************************************

            Population analysis using the SCF density.

 **********************************************************************

 Alpha  occ. eigenvalues --  -24.70142 -19.17650 -19.17649 -10.27598 -10.20234
 Alpha  occ. eigenvalues --  -10.19977 -10.19881 -10.19627 -10.19242  -6.85848
 Alpha  occ. eigenvalues --   -1.22592  -1.03463  -1.00898  -0.86994  -0.76369
 Alpha  occ. eigenvalues --   -0.75445  -0.63041  -0.61614  -0.56107  -0.54156
 Alpha  occ. eigenvalues --   -0.52327  -0.49332  -0.47313  -0.45970  -0.45203
 Alpha  occ. eigenvalues --   -0.43723  -0.41741  -0.39962  -0.36353  -0.36281
 Alpha  occ. eigenvalues --   -0.34856  -0.34586  -0.34105  -0.32021  -0.26364
 Alpha  occ. eigenvalues --   -0.24987
 Alpha virt. eigenvalues --   -0.01012  -0.00968  -0.00691   0.02128   0.08460
 Alpha virt. eigenvalues --    0.10577   0.13177   0.13636   0.15627   0.17141
 Alpha virt. eigenvalues --    0.17453   0.19141   0.24269   0.28093   0.31133
 Alpha virt. eigenvalues --    0.31421   0.33492   0.34507   0.42829   0.45943
 Alpha virt. eigenvalues --    0.46434   0.50427   0.52318   0.54580   0.55276
 Alpha virt. eigenvalues --    0.58267   0.59845   0.61094   0.61431   0.61928
 Alpha virt. eigenvalues --    0.64509   0.65406   0.66408   0.69400   0.72272
 Alpha virt. eigenvalues --    0.76729   0.82699   0.83874   0.84508   0.84945
 Alpha virt. eigenvalues --    0.87863   0.89168   0.89505   0.90754   0.93239
 Alpha virt. eigenvalues --    0.97853   0.99370   1.03426   1.04354   1.08125
 Alpha virt. eigenvalues --    1.09333   1.18082   1.18397   1.21749   1.23948
 Alpha virt. eigenvalues --    1.24237   1.24676   1.28377   1.36021   1.44497
 Alpha virt. eigenvalues --    1.47114   1.56625   1.63775   1.75730   1.85252
 Alpha virt. eigenvalues --    2.36407
          Condensed to atoms (all electrons):
               1          2          3          4          5          6
     1  C    5.225919   0.423952  -0.043980  -0.037336  -0.103504   0.411456
     2  C    0.423952   5.012964   0.491861  -0.033497  -0.039087  -0.002292
     3  C   -0.043980   0.491861   5.052422   0.495051  -0.042369  -0.041635
     4  C   -0.037336  -0.033497   0.495051   5.004736   0.423787  -0.003652
     5  C   -0.103504  -0.039087  -0.042369   0.423787   5.235361   0.406387
     6  C    0.411456  -0.002292  -0.041635  -0.003652   0.406387   4.729736
     7  H   -0.032814   0.358022  -0.037142   0.005334   0.000309   0.003433
     8  H    0.006021   0.000176   0.005188  -0.033212   0.350244  -0.037969
     9  B    0.006477  -0.030548   0.286009  -0.030399   0.006599  -0.000307
    10  O   -0.000001   0.000213  -0.039683   0.000227  -0.000001  -0.000001
    11  H    0.000002   0.000024   0.004337   0.000023   0.000002   0.000000
    12  O   -0.000001   0.000213  -0.039667   0.000223  -0.000001  -0.000001
    13  H    0.000002   0.000025   0.004337   0.000023   0.000002   0.000000
    14  H    0.000309   0.005911  -0.038410   0.361012  -0.034050   0.003814
    15  H    0.352565  -0.034375   0.005618   0.000152   0.006595  -0.039803
    16  F   -0.064982   0.003717  -0.000247   0.003708  -0.064935   0.274920
               7          8          9         10         11         12
     1  C   -0.032814   0.006021   0.006477  -0.000001   0.000002  -0.000001
     2  C    0.358022   0.000176  -0.030548   0.000213   0.000024   0.000213
     3  C   -0.037142   0.005188   0.286009  -0.039683   0.004337  -0.039667
     4  C    0.005334  -0.033212  -0.030399   0.000227   0.000023   0.000223
     5  C    0.000309   0.350244   0.006599  -0.000001   0.000002  -0.000001
     6  C    0.003433  -0.037969  -0.000307  -0.000001   0.000000  -0.000001
     7  H    0.574541   0.000010  -0.008675   0.000063  -0.000004   0.000064
     8  H    0.000010   0.570525  -0.000159   0.000000   0.000000   0.000000
     9  B   -0.008675  -0.000159   3.542857   0.316216  -0.017366   0.316221
    10  O    0.000063   0.000000   0.316216   8.157009   0.223659  -0.034911
    11  H   -0.000004   0.000000  -0.017366   0.223659   0.428931  -0.001728
    12  O    0.000064   0.000000   0.316221  -0.034911  -0.001728   8.156990
    13  H   -0.000004   0.000000  -0.017368  -0.001727   0.002566   0.223663
    14  H   -0.000160  -0.004786  -0.009716   0.000058  -0.000003   0.000058
    15  H   -0.004774  -0.000134  -0.000173   0.000000   0.000000   0.000000
    16  F   -0.000018  -0.002182   0.000000   0.000000   0.000000   0.000000
              13         14         15         16
     1  C    0.000002   0.000309   0.352565  -0.064982
     2  C    0.000025   0.005911  -0.034375   0.003717
     3  C    0.004337  -0.038410   0.005618  -0.000247
     4  C    0.000023   0.361012   0.000152   0.003708
     5  C    0.000002  -0.034050   0.006595  -0.064935
     6  C    0.000000   0.003814  -0.039803   0.274920
     7  H   -0.000004  -0.000160  -0.004774  -0.000018
     8  H    0.000000  -0.004786  -0.000134  -0.002182
     9  B   -0.017368  -0.009716  -0.000173   0.000000
    10  O   -0.001727   0.000058   0.000000   0.000000
    11  H    0.002566  -0.000003   0.000000   0.000000
    12  O    0.223663   0.000058   0.000000   0.000000
    13  H    0.428926  -0.000003   0.000000   0.000000
    14  H   -0.000003   0.577592   0.000010  -0.000020
    15  H    0.000000   0.000010   0.573563  -0.002356
    16  F    0.000000  -0.000020  -0.002356   9.170530
 Mulliken charges:
               1
     1  C   -0.144085
     2  C   -0.157279
     3  C   -0.061691
     4  C   -0.156179
     5  C   -0.145337
     6  C    0.295914
     7  H    0.141817
     8  H    0.146277
     9  B    0.640332
    10  O   -0.621122
    11  H    0.359557
    12  O   -0.621125
    13  H    0.359560
    14  H    0.138384
    15  H    0.143112
    16  F   -0.318135
 Sum of Mulliken charges =   0.00000
 Mulliken charges with hydrogens summed into heavy atoms:
               1
     1  C   -0.000973
     2  C   -0.015462
     3  C   -0.061691
     4  C   -0.017796
     5  C    0.000941
     6  C    0.295914
     9  B    0.640332
    10  O   -0.261564
    12  O   -0.261565
    16  F   -0.318135
 Electronic spatial extent (au):  <R**2>=           2263.9231
 Charge=              0.0000 electrons
 Dipole moment (field-independent basis, Debye):
    X=              3.6017    Y=              0.0050    Z=              0.0014  Tot=              3.6018
 Quadrupole moment (field-independent basis, Debye-Ang):
   XX=            -34.7154   YY=            -50.3603   ZZ=            -65.2953
   XY=              1.8210   XZ=              0.0173   YZ=             -0.0181
 Traceless Quadrupole moment (field-independent basis, Debye-Ang):
   XX=             15.4083   YY=             -0.2366   ZZ=            -15.1716
   XY=              1.8210   XZ=              0.0173   YZ=             -0.0181
 Octapole moment (field-independent basis, Debye-Ang**2):
  XXX=            -23.9300  YYY=            -75.5379  ZZZ=             -0.0144  XYY=            -71.2970
  XXY=            -17.3097  XXZ=              0.1113  XZZ=            -99.1535  YZZ=            -32.6610
  YYZ=             -0.0219  XYZ=             -0.0527
 Hexadecapole moment (field-independent basis, Debye-Ang**3):
 XXXX=           -979.5021 YYYY=           -350.8027 ZZZZ=           -202.9706 XXXY=            -11.1816
 XXXZ=              0.3916 YYYX=           -107.6875 YYYZ=             -0.0109 ZZZX=             -0.2866
 ZZZY=              0.0309 XXYY=           -413.8033 XXZZ=           -467.7812 YYZZ=           -104.4443
 XXYZ=             -0.2174 YYXZ=             -0.1350 ZZXY=            -49.3128
 N-N= 4.597696133479D+02 E-N=-2.108945619096D+03  KE= 5.042418824497D+02
 Calling FoFJK, ICntrl=      2127 FMM=F ISym2X=0 I1Cent= 0 IOpClX= 0 NMat=1 NMatS=1 NMatT=0.
 -------------------------------------------------------------------
 Center     Atomic                   Forces (Hartrees/Bohr)
 Number     Number              X              Y              Z
 -------------------------------------------------------------------
      1        6          -0.002239088   -0.000303085   -0.000023595
      2        6           0.000818057   -0.009382848    0.000133277
      3        6           0.060193257   -0.000104391   -0.000025857
      4        6          -0.008851724   -0.007180834   -0.000002802
      5        6          -0.012298260    0.016536799    0.000004647
      6        6           0.041885687    0.000721822   -0.000023646
      7        1          -0.006608652    0.007876281   -0.000048695
      8        1           0.003210002   -0.009866595    0.000016005
      9        5           0.022153201   -0.000014650    0.000009535
     10        8          -0.053293731    0.000041489    0.069507260
     11        1           0.020789720    0.000009999   -0.003663314
     12        8          -0.053214986   -0.000017992   -0.069568844
     13        1           0.020784930   -0.000019915    0.003686914
     14        1           0.003571495    0.009690479   -0.000000784
     15        1          -0.007048668   -0.007879763    0.000007029
     16        9          -0.029851242   -0.000106796   -0.000007129
 -------------------------------------------------------------------
 Cartesian Forces:  Max     0.069568844 RMS     0.022395446

 GradGradGradGradGradGradGradGradGradGradGradGradGradGradGradGradGradGrad
 Berny optimization.
 FormGI is forming the generalized inverse of G from B-inverse, IUseBI=4.
 Internal  Forces:  Max     0.073273220 RMS     0.014786531
 Search for a local minimum.
 Step number   1 out of a maximum of   81
 All quantities printed in internal units (Hartrees-Bohrs-Radians)
 Mixed Optimization -- RFO/linear search
 Second derivative matrix not updated -- first step.
 ITU=  0
     Eigenvalues ---    0.00230   0.00300   0.00369   0.00369   0.01562
     Eigenvalues ---    0.02152   0.02153   0.02154   0.02155   0.02155
     Eigenvalues ---    0.02155   0.02156   0.02157   0.16000   0.16000
     Eigenvalues ---    0.16000   0.16000   0.16000   0.16000   0.20635
     Eigenvalues ---    0.22000   0.22982   0.24000   0.25000   0.25000
     Eigenvalues ---    0.25000   0.25000   0.28519   0.28519   0.33709
     Eigenvalues ---    0.33720   0.37230   0.37230   0.42116   0.42487
     Eigenvalues ---    0.46412   0.46453   0.46466   0.46497   0.55021
     Eigenvalues ---    0.55473   0.55473
 RFO step:  Lambda=-4.65960167D-02 EMin= 2.30000000D-03
 Linear search not attempted -- first point.
 Maximum step size (   0.300) exceeded in Quadratic search.
    -- Step size scaled by   0.784
 Iteration  1 RMS(Cart)=  0.04542324 RMS(Int)=  0.00040387
 Iteration  2 RMS(Cart)=  0.00044954 RMS(Int)=  0.00000288
 Iteration  3 RMS(Cart)=  0.00000031 RMS(Int)=  0.00000288
 Variable       Old X    -DE/DX   Delta X   Delta X   Delta X     New X
                                 (Linear)    (Quad)   (Total)
    R1        2.63647   0.00311   0.00000   0.00478   0.00478   2.64125
    R2        2.63584  -0.00091   0.00000  -0.00194  -0.00193   2.63391
    R3        2.02201   0.01035   0.00000   0.01938   0.01938   2.04139
    R4        2.63562   0.01067   0.00000   0.01690   0.01689   2.65252
    R5        2.07805  -0.01012   0.00000  -0.02069  -0.02069   2.05735
    R6        2.63697   0.01056   0.00000   0.01677   0.01676   2.65374
    R7        3.11805  -0.04278   0.00000  -0.13267  -0.13267   2.98538
    R8        2.63584   0.00323   0.00000   0.00495   0.00495   2.64078
    R9        2.02201   0.01018   0.00000   0.01906   0.01906   2.04107
   R10        2.63643  -0.00129   0.00000  -0.00252  -0.00252   2.63391
   R11        2.07825  -0.01015   0.00000  -0.02075  -0.02075   2.05750
   R12        2.55113   0.02985   0.00000   0.03924   0.03924   2.59037
   R13        2.91018  -0.07327   0.00000  -0.17324  -0.17324   2.73694
   R14        2.91018  -0.07327   0.00000  -0.17324  -0.17324   2.73694
   R15        1.81414   0.01977   0.00000   0.02579   0.02579   1.83993
   R16        1.81414   0.01977   0.00000   0.02579   0.02579   1.83993
    A1        2.09437  -0.00439   0.00000  -0.01381  -0.01380   2.08057
    A2        2.09441   0.00438   0.00000   0.01521   0.01521   2.10962
    A3        2.09441   0.00001   0.00000  -0.00140  -0.00141   2.09300
    A4        2.09455   0.00288   0.00000   0.00969   0.00969   2.10423
    A5        2.09406  -0.00330   0.00000  -0.01190  -0.01190   2.08216
    A6        2.09458   0.00042   0.00000   0.00221   0.00221   2.09679
    A7        2.09429  -0.00561   0.00000  -0.01279  -0.01280   2.08149
    A8        2.09462   0.00279   0.00000   0.00637   0.00638   2.10099
    A9        2.09427   0.00281   0.00000   0.00642   0.00643   2.10070
   A10        2.09429   0.00213   0.00000   0.00744   0.00744   2.10173
   A11        2.09445   0.00071   0.00000   0.00300   0.00301   2.09746
   A12        2.09445  -0.00283   0.00000  -0.01045  -0.01044   2.08400
   A13        2.09448  -0.00359   0.00000  -0.01147  -0.01147   2.08301
   A14        2.09459   0.00403   0.00000   0.01424   0.01424   2.10884
   A15        2.09411  -0.00045   0.00000  -0.00277  -0.00277   2.09134
   A16        2.09440   0.00858   0.00000   0.02094   0.02095   2.11534
   A17        2.09439  -0.00443   0.00000  -0.01083  -0.01084   2.08356
   A18        2.09439  -0.00415   0.00000  -0.01011  -0.01011   2.08428
   A19        2.09440   0.00020   0.00000   0.00052   0.00052   2.09491
   A20        2.09440   0.00019   0.00000   0.00051   0.00051   2.09490
   A21        2.09440  -0.00039   0.00000  -0.00103  -0.00103   2.09337
   A22        1.91114   0.01343   0.00000   0.05099   0.05099   1.96212
   A23        1.91114   0.01343   0.00000   0.05098   0.05098   1.96212
    D1        0.00056  -0.00002   0.00000  -0.00022  -0.00022   0.00034
    D2        3.14078   0.00002   0.00000   0.00024   0.00023   3.14101
    D3       -3.14103  -0.00002   0.00000  -0.00023  -0.00023  -3.14126
    D4       -0.00082   0.00002   0.00000   0.00022   0.00022  -0.00060
    D5        0.00026   0.00000   0.00000  -0.00005  -0.00005   0.00021
    D6       -3.14133   0.00000   0.00000  -0.00004  -0.00004  -3.14137
    D7       -3.14133   0.00000   0.00000  -0.00003  -0.00004  -3.14137
    D8        0.00026   0.00000   0.00000  -0.00003  -0.00003   0.00023
    D9       -0.00099   0.00003   0.00000   0.00034   0.00034  -0.00065
   D10        3.14093   0.00002   0.00000   0.00023   0.00023   3.14116
   D11       -3.14120  -0.00001   0.00000  -0.00011  -0.00011  -3.14131
   D12        0.00072  -0.00002   0.00000  -0.00021  -0.00021   0.00050
   D13        0.00060  -0.00002   0.00000  -0.00018  -0.00018   0.00042
   D14       -3.14100  -0.00002   0.00000  -0.00017  -0.00016  -3.14116
   D15       -3.14132  -0.00001   0.00000  -0.00007  -0.00007  -3.14140
   D16        0.00027  -0.00001   0.00000  -0.00006  -0.00006   0.00021
   D17        1.57058   0.00001   0.00000   0.00007   0.00007   1.57065
   D18       -1.57102   0.00001   0.00000   0.00007   0.00007  -1.57094
   D19       -1.57069   0.00000   0.00000  -0.00003  -0.00003  -1.57072
   D20        1.57090   0.00000   0.00000  -0.00003  -0.00003   1.57087
   D21        0.00023  -0.00001   0.00000  -0.00011  -0.00010   0.00013
   D22       -3.14158   0.00000   0.00000   0.00002   0.00002  -3.14156
   D23       -3.14136  -0.00001   0.00000  -0.00012  -0.00012  -3.14148
   D24        0.00001   0.00000   0.00000   0.00000   0.00001   0.00001
   D25       -0.00066   0.00002   0.00000   0.00021   0.00021  -0.00045
   D26        3.14094   0.00002   0.00000   0.00021   0.00020   3.14114
   D27        3.14116   0.00001   0.00000   0.00008   0.00009   3.14124
   D28       -0.00044   0.00001   0.00000   0.00008   0.00008  -0.00036
   D29        3.13923   0.00002   0.00000   0.00037   0.00037   3.13960
   D30       -0.00237   0.00002   0.00000   0.00037   0.00037  -0.00200
   D31        3.14006   0.00000   0.00000   0.00002   0.00002   3.14008
   D32       -0.00153   0.00000   0.00000   0.00002   0.00002  -0.00151
         Item               Value     Threshold  Converged?
 Maximum Force            0.073273     0.000450     NO 
 RMS     Force            0.014787     0.000300     NO 
 Maximum Displacement     0.150897     0.001800     NO 
 RMS     Displacement     0.045507     0.001200     NO 
 Predicted change in Energy=-2.431228D-02
 GradGradGradGradGradGradGradGradGradGradGradGradGradGradGradGradGradGrad

                          Input orientation:                          
 ---------------------------------------------------------------------
 Center     Atomic      Atomic             Coordinates (Angstroms)
 Number     Number       Type             X           Y           Z
 ---------------------------------------------------------------------
      1          6           0       -0.237838   -0.714412    0.000027
      2          6           0        1.159847   -0.710185    0.000242
      3          6           0        1.869941    0.500602    0.000091
      4          6           0        1.160399    1.712462   -0.001079
      5          6           0       -0.237042    1.714198   -0.001582
      6          6           0       -0.921661    0.500117   -0.000757
      7          1           0        1.695492   -1.658004    0.001407
      8          1           0       -0.793829    2.649842   -0.002515
      9          5           0        3.449734    0.500262    0.000923
     10          8           0        4.175208    0.499380   -1.252608
     11          1           0        5.140214    0.501045   -1.123189
     12          8           0        4.173874    0.500832    1.255223
     13          1           0        5.139017    0.499187    1.126826
     14          1           0        1.691861    2.652746   -0.001613
     15          1           0       -0.789335   -1.643283    0.000449
     16          9           0       -2.292424    0.500068   -0.000708
 ---------------------------------------------------------------------
                    Distance matrix (angstroms):
                    1          2          3          4          5
     1  C    0.000000
     2  C    1.397692   0.000000
     3  C    2.432898   1.403652   0.000000
     4  C    2.800855   2.422647   1.404299   0.000000
     5  C    2.428611   2.798023   2.431500   1.397443   0.000000
     6  C    1.393807   2.407802   2.791603   2.409307   1.393807
     7  H    2.151309   1.088705   2.165644   3.412678   3.886701
     8  H    3.409889   3.886726   3.422705   2.167416   1.088781
     9  B    3.882476   2.590128   1.579793   2.590460   3.881490
    10  O    4.745246   3.482108   2.623645   3.482378   4.744343
    11  H    5.626935   4.309581   3.457809   4.308780   5.625355
    12  O    4.745054   3.482226   2.623636   3.482438   4.744259
    13  H    5.626106   4.308778   3.457801   4.309710   5.625972
    14  H    3.880914   3.404753   2.159499   1.080086   2.145120
    15  H    1.080255   2.161015   3.415845   3.881043   3.402603
    16  F    2.386690   3.658264   4.162365   3.659493   2.387197
                    6          7          8          9         10
     6  C    0.000000
     7  H    3.392194   0.000000
     8  H    2.153524   4.975367   0.000000
     9  B    4.371396   2.781272   4.756946   0.000000
    10  O    5.248353   3.517933   5.556846   1.448327   0.000000
    11  H    6.164916   4.218094   6.409844   2.030111   0.973647
    12  O    5.248045   3.517813   5.556818   1.448326   2.507831
    13  H    6.164679   4.216385   6.410880   2.030107   2.567223
    14  H    3.385899   4.310752   2.485692   2.779084   3.516956
    15  H    2.147481   2.484871   4.293129   4.750210   5.550482
    16  F    1.370763   4.534397   2.620557   5.742158   6.587679
                   11         12         13         14         15
    11  H    0.000000
    12  O    2.567227   0.000000
    13  H    2.250016   0.973647   0.000000
    14  H    4.216502   3.517209   4.218302   0.000000
    15  H    6.404706   5.550238   6.403457   4.961069   0.000000
    16  F    7.516919   6.587138   7.516492   4.528637   2.617868
                   16
    16  F    0.000000
 Symmetry turned off by external request.
 Stoichiometry    C6H6BFO2
 Framework group  C1[X(C6H6BFO2)]
 Deg. of freedom    42
 Full point group                 C1      NOp   1
 Rotational constants (GHZ):      3.5563847      0.6547099      0.6252216
 Standard basis: 6-31G (6D, 7F)
   102 basis functions,   244 primitive gaussians,   102 cartesian basis functions
    36 alpha electrons       36 beta electrons
       nuclear repulsion energy       465.5645535647 Hartrees.
 NAtoms=   16 NActive=   16 NUniq=   16 SFac= 1.00D+00 NAtFMM=   60 NAOKFM=F Big=F
 Integral buffers will be    131072 words long.
 Raffenetti 2 integral format.
 Two-electron integral symmetry is turned off.
 Nuclear repulsion after empirical dispersion term =      465.5542957623 Hartrees.
 One-electron integrals computed using PRISM.
 NBasis=   102 RedAO= T EigKep=  7.09D-04  NBF=   102
 NBsUse=   102 1.00D-06 EigRej= -1.00D+00 NBFU=   102
 Initial guess from the checkpoint file:  "E:\PROJECT- VIT group\ML\Substrates\molecule_8.chk"
 B after Tr=    -0.000928    0.000068   -0.000068
         Rot=    1.000000    0.000005    0.000008   -0.000006 Ang=   0.00 deg.
 ExpMin= 1.27D-01 ExpMax= 7.00D+03 ExpMxC= 1.05D+03 IAcc=1 IRadAn=         1 AccDes= 0.00D+00
 Harris functional with IExCor=  402 and IRadAn=       1 diagonalized for initial guess.
 HarFok:  IExCor=  402 AccDes= 0.00D+00 IRadAn=         1 IDoV= 1 UseB2=F ITyADJ=14
 ICtDFT=  3500011 ScaDFX=  1.000000  1.000000  1.000000  1.000000
 FoFCou: FMM=F IPFlag=           0 FMFlag=      100000 FMFlg1=           0
         NFxFlg=           0 DoJE=T BraDBF=F KetDBF=T FulRan=T
         wScrn=  0.000000 ICntrl=     500 IOpCl=  0 I1Cent=   200000004 NGrid=           0
         NMat0=    1 NMatS0=      1 NMatT0=    0 NMatD0=    1 NMtDS0=    0 NMtDT0=    0
 Symmetry not used in FoFCou.
 Keep R1 ints in memory in canonical form, NReq=14774255.
 Requested convergence on RMS density matrix=1.00D-08 within 128 cycles.
 Requested convergence on MAX density matrix=1.00D-06.
 Requested convergence on             energy=1.00D-06.
 No special actions if energy rises.
 Integral accuracy reduced to 1.0D-05 until final iterations.
 Initial convergence to 1.0D-05 achieved.  Increase integral accuracy.
 SCF Done:  E(RB3LYP) =  -507.363752031     A.U. after   13 cycles
            NFock= 13  Conv=0.30D-08     -V/T= 2.0057
 Calling FoFJK, ICntrl=      2127 FMM=F ISym2X=0 I1Cent= 0 IOpClX= 0 NMat=1 NMatS=1 NMatT=0.
 -------------------------------------------------------------------
 Center     Atomic                   Forces (Hartrees/Bohr)
 Number     Number              X              Y              Z
 -------------------------------------------------------------------
      1        6          -0.002283958   -0.001639546   -0.000014977
      2        6          -0.002360502   -0.000397338    0.000084530
      3        6           0.023368553    0.000239603   -0.000029356
      4        6          -0.005146218   -0.005268084   -0.000003342
      5        6          -0.005585888    0.006943408    0.000004735
      6        6           0.022378244   -0.000051643   -0.000009768
      7        1          -0.001727014    0.002082137   -0.000028975
      8        1           0.000697500   -0.003487820    0.000009524
      9        5           0.016667519   -0.000035199    0.000006747
     10        8          -0.020389355    0.000063045    0.036597184
     11        1           0.005299771   -0.000024646   -0.006859047
     12        8          -0.020350367   -0.000024620   -0.036618397
     13        1           0.005292508    0.000011209    0.006864684
     14        1           0.001109462    0.003038737    0.000002755
     15        1          -0.002277306   -0.001516041    0.000004141
     16        9          -0.014692950    0.000066796   -0.000010439
 -------------------------------------------------------------------
 Cartesian Forces:  Max     0.036618397 RMS     0.010593079

 GradGradGradGradGradGradGradGradGradGradGradGradGradGradGradGradGradGrad
 Berny optimization.
 Using GEDIIS/GDIIS optimizer.
 FormGI is forming the generalized inverse of G from B-inverse, IUseBI=4.
 Internal  Forces:  Max     0.033296932 RMS     0.006767570
 Search for a local minimum.
 Step number   2 out of a maximum of   81
 All quantities printed in internal units (Hartrees-Bohrs-Radians)
 Mixed Optimization -- RFO/linear search
 Update second derivatives using D2CorX and points    1    2
 DE= -2.72D-02 DEPred=-2.43D-02 R= 1.12D+00
 TightC=F SS=  1.41D+00  RLast= 3.00D-01 DXNew= 5.0454D-01 9.0000D-01
 Trust test= 1.12D+00 RLast= 3.00D-01 DXMaxT set to 5.05D-01
 ITU=  1  0
 Use linear search instead of GDIIS.
     Eigenvalues ---    0.00230   0.00300   0.00369   0.00369   0.01554
     Eigenvalues ---    0.02152   0.02153   0.02154   0.02155   0.02155
     Eigenvalues ---    0.02155   0.02156   0.02157   0.13819   0.16000
     Eigenvalues ---    0.16000   0.16000   0.16000   0.16016   0.21631
     Eigenvalues ---    0.22006   0.22256   0.23905   0.24060   0.25000
     Eigenvalues ---    0.25000   0.25000   0.27670   0.28519   0.33710
     Eigenvalues ---    0.33863   0.37227   0.37404   0.42152   0.42389
     Eigenvalues ---    0.46441   0.46453   0.46466   0.46597   0.54402
     Eigenvalues ---    0.55473   0.56270
 RFO step:  Lambda=-3.01834130D-03 EMin= 2.29999999D-03
 Quartic linear search produced a step of  0.57929.
 Iteration  1 RMS(Cart)=  0.03459131 RMS(Int)=  0.00233531
 Iteration  2 RMS(Cart)=  0.00199202 RMS(Int)=  0.00000448
 Iteration  3 RMS(Cart)=  0.00000324 RMS(Int)=  0.00000411
 Iteration  4 RMS(Cart)=  0.00000000 RMS(Int)=  0.00000411
 Variable       Old X    -DE/DX   Delta X   Delta X   Delta X     New X
                                 (Linear)    (Quad)   (Total)
    R1        2.64125   0.00085   0.00277  -0.00106   0.00171   2.64296
    R2        2.63391  -0.00187  -0.00112  -0.00516  -0.00628   2.62763
    R3        2.04139   0.00247   0.01123  -0.00642   0.00480   2.04619
    R4        2.65252   0.00381   0.00979  -0.00062   0.00917   2.66168
    R5        2.05735  -0.00266  -0.01199   0.00606  -0.00593   2.05143
    R6        2.65374   0.00362   0.00971  -0.00111   0.00860   2.66234
    R7        2.98538  -0.01348  -0.07686   0.03678  -0.04008   2.94530
    R8        2.64078   0.00093   0.00287  -0.00094   0.00193   2.64271
    R9        2.04107   0.00319   0.01104  -0.00310   0.00794   2.04901
   R10        2.63391  -0.00201  -0.00146  -0.00514  -0.00660   2.62731
   R11        2.05750  -0.00335  -0.01202   0.00290  -0.00912   2.04838
   R12        2.59037   0.01469   0.02273   0.01071   0.03344   2.62381
   R13        2.73694  -0.03330  -0.10035  -0.02052  -0.12087   2.61607
   R14        2.73694  -0.03330  -0.10036  -0.02051  -0.12087   2.61607
   R15        1.83993   0.00434   0.01494  -0.00819   0.00675   1.84668
   R16        1.83993   0.00434   0.01494  -0.00819   0.00675   1.84667
    A1        2.08057  -0.00227  -0.00799  -0.00294  -0.01094   2.06963
    A2        2.10962   0.00234   0.00881   0.00356   0.01237   2.12199
    A3        2.09300  -0.00008  -0.00082  -0.00062  -0.00144   2.09156
    A4        2.10423   0.00225   0.00561   0.00692   0.01254   2.11677
    A5        2.08216  -0.00162  -0.00689  -0.00007  -0.00697   2.07519
    A6        2.09679  -0.00063   0.00128  -0.00685  -0.00557   2.09122
    A7        2.08149  -0.00424  -0.00742  -0.01241  -0.01982   2.06167
    A8        2.10099   0.00210   0.00369   0.00611   0.00981   2.11080
    A9        2.10070   0.00214   0.00372   0.00630   0.01002   2.11072
   A10        2.10173   0.00252   0.00431   0.01111   0.01542   2.11715
   A11        2.09746  -0.00072   0.00174  -0.00810  -0.00636   2.09109
   A12        2.08400  -0.00180  -0.00605  -0.00301  -0.00906   2.07494
   A13        2.08301  -0.00251  -0.00665  -0.00708  -0.01372   2.06928
   A14        2.10884   0.00247   0.00825   0.00549   0.01374   2.12258
   A15        2.09134   0.00004  -0.00160   0.00158  -0.00002   2.09132
   A16        2.11534   0.00425   0.01214   0.00439   0.01652   2.13187
   A17        2.08356  -0.00204  -0.00628  -0.00130  -0.00757   2.07598
   A18        2.08428  -0.00221  -0.00586  -0.00309  -0.00895   2.07534
   A19        2.09491  -0.00293   0.00030  -0.01875  -0.01845   2.07646
   A20        2.09490  -0.00293   0.00029  -0.01875  -0.01845   2.07645
   A21        2.09337   0.00585  -0.00059   0.03750   0.03690   2.13027
   A22        1.96212   0.01380   0.02954   0.07465   0.10419   2.06631
   A23        1.96212   0.01380   0.02953   0.07466   0.10419   2.06631
    D1        0.00034  -0.00001  -0.00013   0.00014   0.00001   0.00036
    D2        3.14101   0.00001   0.00014  -0.00002   0.00012   3.14113
    D3       -3.14126  -0.00001  -0.00013   0.00014   0.00000  -3.14126
    D4       -0.00060   0.00001   0.00013  -0.00002   0.00011  -0.00049
    D5        0.00021   0.00000  -0.00003  -0.00003  -0.00006   0.00015
    D6       -3.14137   0.00000  -0.00002  -0.00006  -0.00009  -3.14146
    D7       -3.14137   0.00000  -0.00002  -0.00003  -0.00005  -3.14142
    D8        0.00023   0.00000  -0.00002  -0.00006  -0.00008   0.00016
    D9       -0.00065   0.00002   0.00020  -0.00015   0.00005  -0.00061
   D10        3.14116   0.00001   0.00014  -0.00010   0.00003   3.14119
   D11       -3.14131  -0.00001  -0.00006   0.00001  -0.00006  -3.14137
   D12        0.00050  -0.00001  -0.00012   0.00005  -0.00007   0.00043
   D13        0.00042  -0.00001  -0.00010   0.00005  -0.00005   0.00037
   D14       -3.14116  -0.00001  -0.00010   0.00002  -0.00007  -3.14124
   D15       -3.14140   0.00000  -0.00004   0.00001  -0.00003  -3.14143
   D16        0.00021   0.00000  -0.00004  -0.00002  -0.00006   0.00015
   D17        1.57065   0.00001   0.00004   0.00080   0.00083   1.57148
   D18       -1.57094   0.00000   0.00004  -0.00061  -0.00055  -1.57150
   D19       -1.57072   0.00000  -0.00002   0.00085   0.00082  -1.56990
   D20        1.57087   0.00000  -0.00002  -0.00056  -0.00057   1.57031
   D21        0.00013  -0.00001  -0.00006   0.00005  -0.00001   0.00011
   D22       -3.14156   0.00000   0.00001  -0.00005  -0.00004   3.14158
   D23       -3.14148  -0.00001  -0.00007   0.00008   0.00001  -3.14147
   D24        0.00001   0.00000   0.00000  -0.00002  -0.00001   0.00000
   D25       -0.00045   0.00001   0.00012  -0.00006   0.00007  -0.00038
   D26        3.14114   0.00001   0.00012  -0.00003   0.00009   3.14123
   D27        3.14124   0.00001   0.00005   0.00004   0.00009   3.14133
   D28       -0.00036   0.00001   0.00005   0.00006   0.00011  -0.00025
   D29        3.13960   0.00002   0.00021  -0.00118  -0.00098   3.13861
   D30       -0.00200   0.00002   0.00021   0.00022   0.00045  -0.00155
   D31        3.14008   0.00001   0.00001   0.00251   0.00253  -3.14057
   D32       -0.00151   0.00001   0.00001   0.00110   0.00110  -0.00041
         Item               Value     Threshold  Converged?
 Maximum Force            0.033297     0.000450     NO 
 RMS     Force            0.006768     0.000300     NO 
 Maximum Displacement     0.144075     0.001800     NO 
 RMS     Displacement     0.035303     0.001200     NO 
 Predicted change in Energy=-8.113424D-03
 GradGradGradGradGradGradGradGradGradGradGradGradGradGradGradGradGradGrad

                          Input orientation:                          
 ---------------------------------------------------------------------
 Center     Atomic      Atomic             Coordinates (Angstroms)
 Number     Number       Type             X           Y           Z
 ---------------------------------------------------------------------
      1          6           0       -0.223867   -0.716610    0.000020
      2          6           0        1.174704   -0.708422    0.000255
      3          6           0        1.899009    0.499575    0.000126
      4          6           0        1.174904    1.708098   -0.000999
      5          6           0       -0.223528    1.717256   -0.001529
      6          6           0       -0.896216    0.500514   -0.000782
      7          1           0        1.704891   -1.655712    0.001321
      8          1           0       -0.785686    2.644043   -0.002387
      9          5           0        3.457593    0.499395    0.000923
     10          8           0        4.128784    0.499650   -1.209849
     11          1           0        5.105944    0.502095   -1.199430
     12          8           0        4.127533    0.500665    1.212387
     13          1           0        5.104705    0.501416    1.202976
     14          1           0        1.704886    2.654036   -0.001461
     15          1           0       -0.785522   -1.642348    0.000424
     16          9           0       -2.284674    0.501204   -0.000859
 ---------------------------------------------------------------------
                    Distance matrix (angstroms):
                    1          2          3          4          5
     1  C    0.000000
     2  C    1.398595   0.000000
     3  C    2.446572   1.408502   0.000000
     4  C    2.799245   2.416520   1.408849   0.000000
     5  C    2.433867   2.799816   2.447021   1.398462   0.000000
     6  C    1.390483   2.397965   2.795226   2.397456   1.390313
     7  H    2.145232   1.085568   2.164012   3.405306   3.885321
     8  H    3.407291   3.883575   3.436035   2.172535   1.083954
     9  B    3.877089   2.582713   1.558584   2.582951   3.877350
    10  O    4.678530   3.413265   2.536914   3.412780   4.678164
    11  H    5.597393   4.284769   3.423941   4.282961   5.595967
    12  O    4.678277   3.413262   2.536906   3.412949   4.678185
    13  H    5.596819   4.284292   3.423936   4.283571   5.596353
    14  H    3.883471   3.404001   2.163189   1.084288   2.143907
    15  H    1.082795   2.171336   3.434318   3.881850   3.406285
    16  F    2.393741   3.664763   4.183684   3.664051   2.393138
                    6          7          8          9         10
     6  C    0.000000
     7  H    3.378619   0.000000
     8  H    2.146377   4.968991   0.000000
     9  B    4.353809   2.777850   4.754466   0.000000
    10  O    5.168410   3.462337   5.496217   1.384365   0.000000
    11  H    6.120676   4.202987   6.382175   2.039096   0.977218
    12  O    5.168155   3.462057   5.496314   1.384365   2.422237
    13  H    6.120465   4.201894   6.382826   2.039097   2.602720
    14  H    3.376890   4.309749   2.490593   2.777493   3.460760
    15  H    2.145719   2.490448   4.286391   4.753008   5.495754
    16  F    1.388458   4.535297   2.615095   5.742268   6.526415
                   11         12         13         14         15
    11  H    0.000000
    12  O    2.602720   0.000000
    13  H    2.402407   0.977218   0.000000
    14  H    4.199187   3.461163   4.200383   0.000000
    15  H    6.383389   5.495404   6.382525   4.965989   0.000000
    16  F    7.487176   6.525976   7.486798   4.533352   2.615774
                   16
    16  F    0.000000
 Symmetry turned off by external request.
 Stoichiometry    C6H6BFO2
 Framework group  C1[X(C6H6BFO2)]
 Deg. of freedom    42
 Full point group                 C1      NOp   1
 Rotational constants (GHZ):      3.6350593      0.6674746      0.6344858
 Standard basis: 6-31G (6D, 7F)
   102 basis functions,   244 primitive gaussians,   102 cartesian basis functions
    36 alpha electrons       36 beta electrons
       nuclear repulsion energy       469.0223099719 Hartrees.
 NAtoms=   16 NActive=   16 NUniq=   16 SFac= 1.00D+00 NAtFMM=   60 NAOKFM=F Big=F
 Integral buffers will be    131072 words long.
 Raffenetti 2 integral format.
 Two-electron integral symmetry is turned off.
 Nuclear repulsion after empirical dispersion term =      469.0120329782 Hartrees.
 One-electron integrals computed using PRISM.
 NBasis=   102 RedAO= T EigKep=  7.10D-04  NBF=   102
 NBsUse=   102 1.00D-06 EigRej= -1.00D+00 NBFU=   102
 Initial guess from the checkpoint file:  "E:\PROJECT- VIT group\ML\Substrates\molecule_8.chk"
 B after Tr=    -0.000079    0.000118   -0.000096
         Rot=    1.000000   -0.000026    0.000004    0.000054 Ang=  -0.01 deg.
 ExpMin= 1.27D-01 ExpMax= 7.00D+03 ExpMxC= 1.05D+03 IAcc=1 IRadAn=         1 AccDes= 0.00D+00
 Harris functional with IExCor=  402 and IRadAn=       1 diagonalized for initial guess.
 HarFok:  IExCor=  402 AccDes= 0.00D+00 IRadAn=         1 IDoV= 1 UseB2=F ITyADJ=14
 ICtDFT=  3500011 ScaDFX=  1.000000  1.000000  1.000000  1.000000
 FoFCou: FMM=F IPFlag=           0 FMFlag=      100000 FMFlg1=           0
         NFxFlg=           0 DoJE=T BraDBF=F KetDBF=T FulRan=T
         wScrn=  0.000000 ICntrl=     500 IOpCl=  0 I1Cent=   200000004 NGrid=           0
         NMat0=    1 NMatS0=      1 NMatT0=    0 NMatD0=    1 NMtDS0=    0 NMtDT0=    0
 Symmetry not used in FoFCou.
 Keep R1 ints in memory in canonical form, NReq=14774255.
 Requested convergence on RMS density matrix=1.00D-08 within 128 cycles.
 Requested convergence on MAX density matrix=1.00D-06.
 Requested convergence on             energy=1.00D-06.
 No special actions if energy rises.
 Integral accuracy reduced to 1.0D-05 until final iterations.
 Initial convergence to 1.0D-05 achieved.  Increase integral accuracy.
 SCF Done:  E(RB3LYP) =  -507.370662565     A.U. after   14 cycles
            NFock= 14  Conv=0.29D-08     -V/T= 2.0053
 Calling FoFJK, ICntrl=      2127 FMM=F ISym2X=0 I1Cent= 0 IOpClX= 0 NMat=1 NMatS=1 NMatT=0.
 -------------------------------------------------------------------
 Center     Atomic                   Forces (Hartrees/Bohr)
 Number     Number              X              Y              Z
 -------------------------------------------------------------------
      1        6          -0.000514856   -0.001204548   -0.000015261
      2        6          -0.000259322    0.000905132    0.000076950
      3        6           0.000363076    0.000095382   -0.000039714
      4        6          -0.000416383   -0.001646232   -0.000000902
      5        6          -0.000827922    0.001825968    0.000010468
      6        6           0.005299204   -0.000089800   -0.000009794
      7        1          -0.000261257   -0.000051359   -0.000022036
      8        1           0.000033589   -0.000495082    0.000004195
      9        5          -0.003166513    0.000144568   -0.000002776
     10        8           0.003970999    0.000023345   -0.001877973
     11        1          -0.002163009   -0.000049317   -0.002633786
     12        8           0.003969539   -0.000013447    0.001882142
     13        1          -0.002166445   -0.000015686    0.002631159
     14        1           0.000199376    0.000804224    0.000002870
     15        1          -0.000429737   -0.000172619    0.000001883
     16        9          -0.003630337   -0.000060530   -0.000007426
 -------------------------------------------------------------------
 Cartesian Forces:  Max     0.005299204 RMS     0.001607432

 GradGradGradGradGradGradGradGradGradGradGradGradGradGradGradGradGradGrad
 Berny optimization.
 Using GEDIIS/GDIIS optimizer.
 FormGI is forming the generalized inverse of G from B-inverse, IUseBI=4.
 Internal  Forces:  Max     0.004822510 RMS     0.001450217
 Search for a local minimum.
 Step number   3 out of a maximum of   81
 All quantities printed in internal units (Hartrees-Bohrs-Radians)
 Mixed Optimization -- RFO/linear search
 Update second derivatives using D2CorX and points    1    2    3
 DE= -6.91D-03 DEPred=-8.11D-03 R= 8.52D-01
 TightC=F SS=  1.41D+00  RLast= 2.42D-01 DXNew= 8.4853D-01 7.2561D-01
 Trust test= 8.52D-01 RLast= 2.42D-01 DXMaxT set to 7.26D-01
 ITU=  1  1  0
 Use linear search instead of GDIIS.
     Eigenvalues ---    0.00230   0.00302   0.00369   0.00369   0.01542
     Eigenvalues ---    0.02152   0.02153   0.02154   0.02155   0.02155
     Eigenvalues ---    0.02155   0.02156   0.02157   0.13399   0.16000
     Eigenvalues ---    0.16000   0.16000   0.16001   0.16015   0.21688
     Eigenvalues ---    0.22010   0.22540   0.24013   0.24188   0.25000
     Eigenvalues ---    0.25000   0.25001   0.28519   0.33634   0.33707
     Eigenvalues ---    0.36832   0.37222   0.38683   0.42147   0.42392
     Eigenvalues ---    0.46448   0.46452   0.46467   0.46640   0.53850
     Eigenvalues ---    0.55473   0.57604
 RFO step:  Lambda=-5.66197801D-04 EMin= 2.29999994D-03
 Quartic linear search produced a step of  0.01759.
 Iteration  1 RMS(Cart)=  0.01709475 RMS(Int)=  0.00028063
 Iteration  2 RMS(Cart)=  0.00028757 RMS(Int)=  0.00002288
 Iteration  3 RMS(Cart)=  0.00000004 RMS(Int)=  0.00002288
 Variable       Old X    -DE/DX   Delta X   Delta X   Delta X     New X
                                 (Linear)    (Quad)   (Total)
    R1        2.64296   0.00001   0.00003   0.00021   0.00024   2.64320
    R2        2.62763  -0.00011  -0.00011  -0.00019  -0.00030   2.62733
    R3        2.04619   0.00037   0.00008   0.00185   0.00193   2.04812
    R4        2.66168   0.00038   0.00016   0.00144   0.00160   2.66328
    R5        2.05143  -0.00008  -0.00010  -0.00115  -0.00126   2.05017
    R6        2.66234   0.00010   0.00015   0.00085   0.00100   2.66334
    R7        2.94530   0.00044  -0.00070  -0.00375  -0.00445   2.94084
    R8        2.64271   0.00008   0.00003   0.00037   0.00040   2.64311
    R9        2.04901   0.00080   0.00014   0.00292   0.00306   2.05207
   R10        2.62731   0.00013  -0.00012   0.00029   0.00018   2.62749
   R11        2.04838  -0.00044  -0.00016  -0.00215  -0.00232   2.04606
   R12        2.62381   0.00363   0.00059   0.00790   0.00849   2.63229
   R13        2.61607   0.00482  -0.00213   0.01038   0.00825   2.62432
   R14        2.61607   0.00482  -0.00213   0.01038   0.00825   2.62432
   R15        1.84668  -0.00219   0.00012  -0.00279  -0.00268   1.84400
   R16        1.84667  -0.00219   0.00012  -0.00280  -0.00268   1.84400
    A1        2.06963  -0.00086  -0.00019  -0.00425  -0.00444   2.06519
    A2        2.12199   0.00071   0.00022   0.00417   0.00439   2.12638
    A3        2.09156   0.00015  -0.00003   0.00007   0.00005   2.09161
    A4        2.11677   0.00050   0.00022   0.00252   0.00274   2.11951
    A5        2.07519  -0.00051  -0.00012  -0.00321  -0.00333   2.07186
    A6        2.09122   0.00001  -0.00010   0.00069   0.00060   2.09182
    A7        2.06167  -0.00032  -0.00035  -0.00161  -0.00196   2.05971
    A8        2.11080   0.00020   0.00017   0.00097   0.00114   2.11194
    A9        2.11072   0.00012   0.00018   0.00064   0.00082   2.11154
   A10        2.11715   0.00035   0.00027   0.00167   0.00194   2.11910
   A11        2.09109   0.00005  -0.00011   0.00087   0.00076   2.09185
   A12        2.07494  -0.00040  -0.00016  -0.00254  -0.00270   2.07224
   A13        2.06928  -0.00073  -0.00024  -0.00345  -0.00369   2.06559
   A14        2.12258   0.00060   0.00024   0.00347   0.00371   2.12629
   A15        2.09132   0.00013   0.00000  -0.00002  -0.00002   2.09130
   A16        2.13187   0.00106   0.00029   0.00512   0.00541   2.13728
   A17        2.07598  -0.00061  -0.00013  -0.00291  -0.00305   2.07293
   A18        2.07534  -0.00045  -0.00016  -0.00220  -0.00236   2.07297
   A19        2.07646  -0.00214  -0.00032  -0.00812  -0.00848   2.06798
   A20        2.07645  -0.00214  -0.00032  -0.00812  -0.00848   2.06797
   A21        2.13027   0.00427   0.00065   0.01626   0.01687   2.14714
   A22        2.06631   0.00482   0.00183   0.03046   0.03229   2.09860
   A23        2.06631   0.00482   0.00183   0.03046   0.03229   2.09860
    D1        0.00036  -0.00001   0.00000  -0.00057  -0.00057  -0.00021
    D2        3.14113   0.00001   0.00000   0.00051   0.00051  -3.14155
    D3       -3.14126  -0.00001   0.00000  -0.00057  -0.00057   3.14136
    D4       -0.00049   0.00001   0.00000   0.00051   0.00051   0.00002
    D5        0.00015   0.00000   0.00000  -0.00013  -0.00013   0.00002
    D6       -3.14146   0.00000   0.00000  -0.00007  -0.00007  -3.14153
    D7       -3.14142   0.00000   0.00000  -0.00013  -0.00013  -3.14155
    D8        0.00016   0.00000   0.00000  -0.00007  -0.00007   0.00008
    D9       -0.00061   0.00002   0.00000   0.00085   0.00085   0.00025
   D10        3.14119   0.00001   0.00000   0.00053   0.00053  -3.14146
   D11       -3.14137  -0.00001   0.00000  -0.00023  -0.00023   3.14158
   D12        0.00043  -0.00001   0.00000  -0.00056  -0.00056  -0.00013
   D13        0.00037  -0.00001   0.00000  -0.00046  -0.00046  -0.00010
   D14       -3.14124  -0.00001   0.00000  -0.00041  -0.00041   3.14154
   D15       -3.14143   0.00000   0.00000  -0.00014  -0.00014  -3.14157
   D16        0.00015   0.00000   0.00000  -0.00008  -0.00008   0.00007
   D17        1.57148  -0.00003   0.00001  -0.00736  -0.00728   1.56420
   D18       -1.57150   0.00003  -0.00001   0.00898   0.00890  -1.56259
   D19       -1.56990  -0.00003   0.00001  -0.00770  -0.00762  -1.57751
   D20        1.57031   0.00003  -0.00001   0.00864   0.00857   1.57888
   D21        0.00011   0.00000   0.00000  -0.00020  -0.00020  -0.00009
   D22        3.14158   0.00000   0.00000   0.00008   0.00008  -3.14152
   D23       -3.14147  -0.00001   0.00000  -0.00025  -0.00025   3.14146
   D24        0.00000   0.00000   0.00000   0.00003   0.00003   0.00003
   D25       -0.00038   0.00001   0.00000   0.00051   0.00051   0.00013
   D26        3.14123   0.00001   0.00000   0.00045   0.00045  -3.14151
   D27        3.14133   0.00000   0.00000   0.00023   0.00024   3.14157
   D28       -0.00025   0.00000   0.00000   0.00017   0.00018  -0.00007
   D29        3.13861   0.00006  -0.00002   0.01629   0.01634  -3.12824
   D30       -0.00155   0.00000   0.00001  -0.00056  -0.00061  -0.00216
   D31       -3.14057  -0.00004   0.00004  -0.01167  -0.01169   3.13092
   D32       -0.00041   0.00002   0.00002   0.00517   0.00525   0.00484
         Item               Value     Threshold  Converged?
 Maximum Force            0.004823     0.000450     NO 
 RMS     Force            0.001450     0.000300     NO 
 Maximum Displacement     0.093369     0.001800     NO 
 RMS     Displacement     0.017115     0.001200     NO 
 Predicted change in Energy=-2.897059D-04
 GradGradGradGradGradGradGradGradGradGradGradGradGradGradGradGradGradGrad

                          Input orientation:                          
 ---------------------------------------------------------------------
 Center     Atomic      Atomic             Coordinates (Angstroms)
 Number     Number       Type             X           Y           Z
 ---------------------------------------------------------------------
      1          6           0       -0.219008   -0.718062    0.000021
      2          6           0        1.179653   -0.704879    0.000748
      3          6           0        1.903384    0.504447    0.000232
      4          6           0        1.175636    1.711396   -0.000737
      5          6           0       -0.223017    1.719372   -0.001295
      6          6           0       -0.890219    0.499505   -0.000978
      7          1           0        1.709741   -1.651463    0.001486
      8          1           0       -0.788757    2.642541   -0.002105
      9          5           0        3.459609    0.507339    0.000877
     10          8           0        4.122487    0.499699   -1.219413
     11          1           0        5.097798    0.490035   -1.248839
     12          8           0        4.121462    0.499379    1.221721
     13          1           0        5.096767    0.491970    1.251964
     14          1           0        1.703046    2.660626   -0.001105
     15          1           0       -0.781954   -1.644213    0.000196
     16          9           0       -2.283167    0.497164   -0.001635
 ---------------------------------------------------------------------
                    Distance matrix (angstroms):
                    1          2          3          4          5
     1  C    0.000000
     2  C    1.398723   0.000000
     3  C    2.449302   1.409347   0.000000
     4  C    2.801304   2.416279   1.409378   0.000000
     5  C    2.437438   2.800800   2.449006   1.398676   0.000000
     6  C    1.390323   2.394768   2.793608   2.395086   1.390408
     7  H    2.142734   1.084903   2.164589   3.405010   3.885626
     8  H    3.408558   3.883280   3.437888   2.173906   1.082729
     9  B    3.877348   2.582184   1.556227   2.581916   3.876953
    10  O    4.671032   3.405888   2.532187   3.411351   4.674914
    11  H    5.593530   4.282657   3.429966   4.293348   5.601670
    12  O    4.670588   3.405181   2.532178   3.411932   4.675323
    13  H    5.593657   4.282730   3.429968   4.293195   5.601542
    14  H    3.887136   3.405961   2.165467   1.085909   2.143753
    15  H    1.083819   2.174913   3.439154   3.884877   3.409709
    16  F    2.395314   3.665519   4.186558   3.665744   2.395414
                    6          7          8          9         10
     6  C    0.000000
     7  H    3.374383   0.000000
     8  H    2.145436   4.967994   0.000000
     9  B    4.349836   2.778932   4.754756   0.000000
    10  O    5.158663   3.455348   5.494899   1.388731   0.000000
    11  H    6.116665   4.198601   6.390552   2.060523   0.975803
    12  O    5.158676   3.454199   5.495556   1.388731   2.441134
    13  H    6.116692   4.198803   6.390385   2.060519   2.656498
    14  H    3.375718   4.312095   2.491869   2.778878   3.465195
    15  H    2.146451   2.491706   4.286759   4.756052   5.489749
    16  F    1.392949   4.534304   2.614556   5.742785   6.520382
                   11         12         13         14         15
    11  H    0.000000
    12  O    2.656499   0.000000
    13  H    2.500804   0.975802   0.000000
    14  H    4.218133   3.466269   4.217889   0.000000
    15  H    6.378604   5.489134   6.378837   4.970600   0.000000
    16  F    7.485600   6.520419   7.485650   4.535467   2.615174
                   16
    16  F    0.000000
 Symmetry turned off by external request.
 Stoichiometry    C6H6BFO2
 Framework group  C1[X(C6H6BFO2)]
 Deg. of freedom    42
 Full point group                 C1      NOp   1
 Rotational constants (GHZ):      3.6068250      0.6682034      0.6358378
 Standard basis: 6-31G (6D, 7F)
   102 basis functions,   244 primitive gaussians,   102 cartesian basis functions
    36 alpha electrons       36 beta electrons
       nuclear repulsion energy       468.7467871187 Hartrees.
 NAtoms=   16 NActive=   16 NUniq=   16 SFac= 1.00D+00 NAtFMM=   60 NAOKFM=F Big=F
 Integral buffers will be    131072 words long.
 Raffenetti 2 integral format.
 Two-electron integral symmetry is turned off.
 Nuclear repulsion after empirical dispersion term =      468.7365338034 Hartrees.
 One-electron integrals computed using PRISM.
 NBasis=   102 RedAO= T EigKep=  7.12D-04  NBF=   102
 NBsUse=   102 1.00D-06 EigRej= -1.00D+00 NBFU=   102
 Initial guess from the checkpoint file:  "E:\PROJECT- VIT group\ML\Substrates\molecule_8.chk"
 B after Tr=     0.001586   -0.000079   -0.000323
         Rot=    1.000000   -0.000071    0.000020   -0.000275 Ang=  -0.03 deg.
 ExpMin= 1.27D-01 ExpMax= 7.00D+03 ExpMxC= 1.05D+03 IAcc=1 IRadAn=         1 AccDes= 0.00D+00
 Harris functional with IExCor=  402 and IRadAn=       1 diagonalized for initial guess.
 HarFok:  IExCor=  402 AccDes= 0.00D+00 IRadAn=         1 IDoV= 1 UseB2=F ITyADJ=14
 ICtDFT=  3500011 ScaDFX=  1.000000  1.000000  1.000000  1.000000
 FoFCou: FMM=F IPFlag=           0 FMFlag=      100000 FMFlg1=           0
         NFxFlg=           0 DoJE=T BraDBF=F KetDBF=T FulRan=T
         wScrn=  0.000000 ICntrl=     500 IOpCl=  0 I1Cent=   200000004 NGrid=           0
         NMat0=    1 NMatS0=      1 NMatT0=    0 NMatD0=    1 NMtDS0=    0 NMtDT0=    0
 Symmetry not used in FoFCou.
 Keep R1 ints in memory in canonical form, NReq=14774255.
 Requested convergence on RMS density matrix=1.00D-08 within 128 cycles.
 Requested convergence on MAX density matrix=1.00D-06.
 Requested convergence on             energy=1.00D-06.
 No special actions if energy rises.
 Integral accuracy reduced to 1.0D-05 until final iterations.
 Initial convergence to 1.0D-05 achieved.  Increase integral accuracy.
 SCF Done:  E(RB3LYP) =  -507.370950914     A.U. after   11 cycles
            NFock= 11  Conv=0.64D-08     -V/T= 2.0054
 Calling FoFJK, ICntrl=      2127 FMM=F ISym2X=0 I1Cent= 0 IOpClX= 0 NMat=1 NMatS=1 NMatT=0.
 -------------------------------------------------------------------
 Center     Atomic                   Forces (Hartrees/Bohr)
 Number     Number              X              Y              Z
 -------------------------------------------------------------------
      1        6          -0.000324000   -0.000299766    0.000004838
      2        6           0.000066297    0.000635330   -0.000026000
      3        6          -0.002367321    0.000734028    0.000018214
      4        6           0.000158004   -0.000285482   -0.000004635
      5        6          -0.000101863   -0.000202342   -0.000010990
      6        6           0.001358335    0.000038030    0.000007739
      7        1           0.000286750   -0.000359277    0.000005506
      8        1          -0.000186407    0.000234274    0.000002946
      9        5           0.002801034   -0.001545588    0.000000524
     10        8           0.001436474    0.000260269    0.000891585
     11        1          -0.001861594    0.000163553   -0.000186018
     12        8           0.001437936    0.000299127   -0.000890759
     13        1          -0.001861166    0.000119519    0.000184850
     14        1          -0.000087015   -0.000225222    0.000000259
     15        1           0.000220692    0.000421815    0.000004009
     16        9          -0.000976157    0.000011732   -0.000002068
 -------------------------------------------------------------------
 Cartesian Forces:  Max     0.002801034 RMS     0.000834678

 GradGradGradGradGradGradGradGradGradGradGradGradGradGradGradGradGradGrad
 Berny optimization.
 Using GEDIIS/GDIIS optimizer.
 FormGI is forming the generalized inverse of G from B-inverse, IUseBI=4.
 Internal  Forces:  Max     0.001951374 RMS     0.000468161
 Search for a local minimum.
 Step number   4 out of a maximum of   81
 All quantities printed in internal units (Hartrees-Bohrs-Radians)
 Mixed Optimization -- En-DIIS/RFO-DIIS
 Update second derivatives using D2CorX and points    1    2    3    4
 DE= -2.88D-04 DEPred=-2.90D-04 R= 9.95D-01
 TightC=F SS=  1.41D+00  RLast= 6.02D-02 DXNew= 1.2203D+00 1.8064D-01
 Trust test= 9.95D-01 RLast= 6.02D-02 DXMaxT set to 7.26D-01
 ITU=  1  1  1  0
 Use linear search instead of GDIIS.
     Eigenvalues ---    0.00230   0.00322   0.00369   0.00374   0.01541
     Eigenvalues ---    0.02152   0.02153   0.02154   0.02155   0.02155
     Eigenvalues ---    0.02156   0.02156   0.02157   0.11144   0.16000
     Eigenvalues ---    0.16000   0.16000   0.16004   0.16018   0.21981
     Eigenvalues ---    0.22127   0.23548   0.23876   0.24120   0.24999
     Eigenvalues ---    0.25000   0.25096   0.28519   0.33705   0.34020
     Eigenvalues ---    0.37211   0.37641   0.39995   0.42155   0.42435
     Eigenvalues ---    0.46444   0.46451   0.46505   0.46735   0.52367
     Eigenvalues ---    0.55473   0.56809
 RFO step:  Lambda=-2.70718690D-04 EMin= 2.29990638D-03
 Quartic linear search produced a step of  0.01890.
 Iteration  1 RMS(Cart)=  0.04557537 RMS(Int)=  0.00185316
 Iteration  2 RMS(Cart)=  0.00255660 RMS(Int)=  0.00090016
 Iteration  3 RMS(Cart)=  0.00000187 RMS(Int)=  0.00090015
 Iteration  4 RMS(Cart)=  0.00000000 RMS(Int)=  0.00090015
 Variable       Old X    -DE/DX   Delta X   Delta X   Delta X     New X
                                 (Linear)    (Quad)   (Total)
    R1        2.64320  -0.00001   0.00000   0.00016   0.00017   2.64337
    R2        2.62733  -0.00014  -0.00001  -0.00053  -0.00054   2.62679
    R3        2.04812  -0.00048   0.00004  -0.00012  -0.00008   2.04804
    R4        2.66328  -0.00045   0.00003   0.00005   0.00008   2.66336
    R5        2.05017   0.00045  -0.00002   0.00048   0.00046   2.05063
    R6        2.66334  -0.00032   0.00002   0.00006   0.00008   2.66342
    R7        2.94084   0.00195  -0.00008   0.00586   0.00578   2.94662
    R8        2.64311   0.00002   0.00001   0.00033   0.00034   2.64345
    R9        2.05207  -0.00024   0.00006   0.00111   0.00117   2.05324
   R10        2.62749  -0.00025   0.00000  -0.00057  -0.00057   2.62693
   R11        2.04606   0.00030  -0.00004  -0.00054  -0.00058   2.04548
   R12        2.63229   0.00098   0.00016   0.00678   0.00694   2.63924
   R13        2.62432  -0.00083   0.00016  -0.00257  -0.00241   2.62191
   R14        2.62432  -0.00082   0.00016  -0.00257  -0.00241   2.62191
   R15        1.84400  -0.00186  -0.00005  -0.00432  -0.00437   1.83963
   R16        1.84400  -0.00186  -0.00005  -0.00432  -0.00437   1.83963
    A1        2.06519  -0.00003  -0.00008  -0.00246  -0.00254   2.06265
    A2        2.12638   0.00005   0.00008   0.00262   0.00270   2.12908
    A3        2.09161  -0.00002   0.00000  -0.00016  -0.00016   2.09145
    A4        2.11951  -0.00005   0.00005   0.00126   0.00131   2.12082
    A5        2.07186   0.00010  -0.00006  -0.00113  -0.00120   2.07066
    A6        2.09182  -0.00005   0.00001  -0.00013  -0.00012   2.09170
    A7        2.05971   0.00008  -0.00004  -0.00107  -0.00111   2.05860
    A8        2.11194  -0.00033   0.00002  -0.00058  -0.00056   2.11138
    A9        2.11154   0.00025   0.00002   0.00165   0.00166   2.11320
   A10        2.11910   0.00010   0.00004   0.00165   0.00168   2.12078
   A11        2.09185  -0.00008   0.00001  -0.00015  -0.00014   2.09171
   A12        2.07224  -0.00002  -0.00005  -0.00150  -0.00155   2.07069
   A13        2.06559  -0.00020  -0.00007  -0.00291  -0.00298   2.06261
   A14        2.12629   0.00014   0.00007   0.00274   0.00281   2.12911
   A15        2.09130   0.00006   0.00000   0.00017   0.00017   2.09147
   A16        2.13728   0.00010   0.00010   0.00353   0.00363   2.14091
   A17        2.07293  -0.00003  -0.00006  -0.00185  -0.00191   2.07103
   A18        2.07297  -0.00007  -0.00004  -0.00168  -0.00173   2.07125
   A19        2.06798  -0.00018  -0.00016  -0.00423  -0.00867   2.05931
   A20        2.06797  -0.00018  -0.00016  -0.00422  -0.00866   2.05931
   A21        2.14714   0.00036   0.00032   0.01074   0.00665   2.15379
   A22        2.09860   0.00045   0.00061   0.01997   0.02058   2.11918
   A23        2.09860   0.00045   0.00061   0.01997   0.02058   2.11918
    D1       -0.00021   0.00001  -0.00001   0.00004   0.00003  -0.00018
    D2       -3.14155   0.00000   0.00001   0.00014   0.00015  -3.14140
    D3        3.14136   0.00001  -0.00001   0.00005   0.00004   3.14140
    D4        0.00002   0.00000   0.00001   0.00015   0.00016   0.00018
    D5        0.00002   0.00000   0.00000  -0.00008  -0.00008  -0.00006
    D6       -3.14153   0.00000   0.00000  -0.00013  -0.00013   3.14152
    D7       -3.14155   0.00000   0.00000  -0.00008  -0.00009   3.14154
    D8        0.00008   0.00000   0.00000  -0.00014  -0.00014  -0.00006
    D9        0.00025  -0.00001   0.00002   0.00002   0.00004   0.00029
   D10       -3.14146   0.00000   0.00001   0.00006   0.00007  -3.14139
   D11        3.14158   0.00000   0.00000  -0.00007  -0.00008   3.14151
   D12       -0.00013   0.00000  -0.00001  -0.00004  -0.00005  -0.00018
   D13       -0.00010   0.00000  -0.00001  -0.00006  -0.00007  -0.00016
   D14        3.14154   0.00000  -0.00001  -0.00006  -0.00007   3.14147
   D15       -3.14157   0.00000   0.00000  -0.00009  -0.00010   3.14152
   D16        0.00007   0.00000   0.00000  -0.00010  -0.00010  -0.00003
   D17        1.56420   0.00028  -0.00014   0.08581   0.08511   1.64931
   D18       -1.56259  -0.00028   0.00017  -0.08221  -0.08148  -1.64407
   D19       -1.57751   0.00029  -0.00014   0.08584   0.08514  -1.49237
   D20        1.57888  -0.00028   0.00016  -0.08217  -0.08145   1.49743
   D21       -0.00009   0.00000   0.00000   0.00003   0.00002  -0.00006
   D22       -3.14152   0.00000   0.00000  -0.00005  -0.00005  -3.14157
   D23        3.14146   0.00000   0.00000   0.00003   0.00002   3.14148
   D24        0.00003   0.00000   0.00000  -0.00005  -0.00005  -0.00002
   D25        0.00013   0.00000   0.00001   0.00004   0.00005   0.00018
   D26       -3.14151   0.00000   0.00001   0.00010   0.00010  -3.14140
   D27        3.14157   0.00000   0.00000   0.00012   0.00012  -3.14149
   D28       -0.00007   0.00000   0.00000   0.00017   0.00018   0.00011
   D29       -3.12824  -0.00041   0.00031  -0.11457  -0.11451   3.04044
   D30       -0.00216   0.00018  -0.00001   0.06141   0.06164   0.05948
   D31        3.13092   0.00038  -0.00022   0.10850   0.10852  -3.04375
   D32        0.00484  -0.00021   0.00010  -0.06748  -0.06762  -0.06278
         Item               Value     Threshold  Converged?
 Maximum Force            0.001951     0.000450     NO 
 RMS     Force            0.000468     0.000300     NO 
 Maximum Displacement     0.184758     0.001800     NO 
 RMS     Displacement     0.045690     0.001200     NO 
 Predicted change in Energy=-1.397086D-04
 GradGradGradGradGradGradGradGradGradGradGradGradGradGradGradGradGradGrad

                          Input orientation:                          
 ---------------------------------------------------------------------
 Center     Atomic      Atomic             Coordinates (Angstroms)
 Number     Number       Type             X           Y           Z
 ---------------------------------------------------------------------
      1          6           0       -0.238999   -0.723661    0.000764
      2          6           0        1.159767   -0.734942    0.001471
      3          6           0        1.906131    0.460599    0.000226
      4          6           0        1.199832    1.680274   -0.001410
      5          6           0       -0.198581    1.715358   -0.001996
      6          6           0       -0.885552    0.506857   -0.000996
      7          1           0        1.672190   -1.691481    0.002661
      8          1           0       -0.748791    2.647506   -0.003270
      9          5           0        3.465176    0.433308    0.000766
[...]
 ! D4    D(15,1,2,7)            -0.033          -DE/DX =    0.0                 !
 ! D5    D(2,1,6,5)              0.0014         -DE/DX =    0.0                 !
 ! D6    D(2,1,6,16)          -180.0107         -DE/DX =    0.0                 !
 ! D7    D(15,1,6,5)          -179.993          -DE/DX =    0.0                 !
 ! D8    D(15,1,6,16)           -0.0051         -DE/DX =    0.0                 !
 ! D9    D(1,2,3,4)             -0.0051         -DE/DX =    0.0                 !
 ! D10   D(1,2,3,9)           -179.977          -DE/DX =    0.0                 !
 ! D11   D(7,2,3,4)           -179.9761         -DE/DX =    0.0                 !
 ! D12   D(7,2,3,9)              0.052          -DE/DX =    0.0                 !
 ! D13   D(2,3,4,5)              0.0051         -DE/DX =    0.0                 !
 ! D14   D(2,3,4,14)          -179.986          -DE/DX =    0.0                 !
 ! D15   D(9,3,4,5)           -180.023          -DE/DX =    0.0                 !
 ! D16   D(9,3,4,14)            -0.0141         -DE/DX =    0.0                 !
 ! D17   D(2,3,9,10)           179.9816         -DE/DX =    0.0                 !
 ! D18   D(2,3,9,12)            -0.0515         -DE/DX =    0.0                 !
 ! D19   D(4,3,9,10)             0.0103         -DE/DX =    0.0                 !
 ! D20   D(4,3,9,12)           179.9773         -DE/DX =    0.0                 !
 ! D21   D(3,4,5,6)             -0.0019         -DE/DX =    0.0                 !
 ! D22   D(3,4,5,8)            179.988          -DE/DX =    0.0                 !
 ! D23   D(14,4,5,6)           179.9891         -DE/DX =    0.0                 !
 ! D24   D(14,4,5,8)            -0.021          -DE/DX =    0.0                 !
 ! D25   D(4,5,6,1)             -0.0015         -DE/DX =    0.0                 !
 ! D26   D(4,5,6,16)          -179.9893         -DE/DX =    0.0                 !
 ! D27   D(8,5,6,1)           -179.9916         -DE/DX =    0.0                 !
 ! D28   D(8,5,6,16)             0.0205         -DE/DX =    0.0                 !
 ! D29   D(3,9,10,11)          179.9939         -DE/DX =    0.0                 !
 ! D30   D(12,9,10,11)           0.0287         -DE/DX =    0.0                 !
 ! D31   D(3,9,12,13)          179.9751         -DE/DX =    0.0                 !
 ! D32   D(10,9,12,13)          -0.0597         -DE/DX =    0.0                 !
 --------------------------------------------------------------------------------
 GradGradGradGradGradGradGradGradGradGradGradGradGradGradGradGradGradGrad

 1|1|UNPC-LAPTOP-H4OM2LBP|Freq|RB3LYP|6-31G|C6H6B1F1O2|SREEKALA P NAIR|
 14-Sep-2023|0||#N Geom=AllCheck Guess=TCheck SCRF=Check GenChk RB3LYP/
 6-31G Freq||molecule_11||0,1|C,-0.2170925213,-0.6604352329,0.380950708
 8|C,1.1800430703,-0.6513741954,0.377709627|C,1.9022614419,0.5001304869
 ,0.0002873256|C,1.1809095702,1.6521445262,-0.3771370231|C,-0.216293219
 8,1.6625001505,-0.380259656|C,-0.8826258065,0.5013099058,0.0003998101|
 H,1.7265531199,-1.5414744586,0.6697429863|H,-0.7843996335,2.5390213361
 ,-0.6672211749|B,3.4503079053,0.499507574,-0.0003720374|O,4.1097398848
 ,1.6624078684,-0.3819049466|H,5.0799713281,1.704812553,-0.3962517631|O
 ,4.1091111966,-0.6636213378,0.3812432971|H,5.079268015,-0.7073856575,0
 .3946939572|H,1.727830137,2.5418854449,-0.6690049194|H,-0.7858245081,-
 1.536350595,0.6679847123|F,-2.27630101,0.5017774515,0.0002774261||Vers
 ion=EM64W-G09RevD.01|HF=-507.3831709|RMSD=4.691e-009|RMSF=4.888e-005|Z
 eroPoint=0.1169015|Thermal=0.1255204|Dipole=1.8750715,-0.0012825,-0.00
 0779|DipoleDeriv=-0.2651416,0.0928552,-0.030426,0.2207999,-0.0636835,-
 0.0308284,-0.0723198,-0.0306701,-0.1475688,0.2015177,-0.0592924,0.0194
 371,0.0737557,0.1065015,-0.0709952,-0.0240483,-0.0712522,-0.0866111,-0
 .7580004,0.0002546,0.0001192,0.0001625,-0.2797364,0.0468761,0.0000378,
 0.0470587,-0.1516634,0.2014648,0.059146,-0.0195293,-0.0737676,0.106418
 9,-0.0708639,0.0242111,-0.0710411,-0.0866966,-0.2653157,-0.092786,0.03
 04315,-0.2206742,-0.0633197,-0.0308607,0.0722205,-0.030739,-0.1475961,
 1.2575211,-0.0002678,-0.0000262,-0.0002712,0.3226057,-0.0457072,0.0001
 72,-0.0457244,0.1980616,0.0773585,0.0512454,-0.0168704,0.0523612,-0.01
 59847,0.0452799,-0.0172275,0.045407,0.1073842,0.0226289,0.0647233,-0.0
 211775,0.0696614,0.0015456,0.0509959,-0.022787,0.05097,0.1406541,2.077
 3114,-0.0003827,-0.0002907,-0.0003402,1.3411773,-0.2687421,-0.0002491,
 -0.2686123,0.6106576,-0.7993339,-0.3147307,0.103093,-0.5216091,-0.9875
 144,0.1214813,0.1710478,0.1212213,-0.6581229,0.0698442,0.0300671,-0.00
 96922,0.1334119,0.3813868,0.0124619,-0.0436144,0.0125022,0.4154223,-0.
 7990069,0.3144985,-0.1032469,0.5212901,-0.9883832,0.1212818,-0.1714315
 ,0.1214496,-0.6581084,0.0698799,-0.0296849,0.0100282,-0.1329764,0.3816
 857,0.0126028,0.0440435,0.0124421,0.4154589,0.0772882,-0.0512581,0.016
 8742,-0.0524358,-0.0159222,0.0452679,0.0172239,0.045306,0.1074157,0.02
 25155,-0.0647246,0.0212414,-0.0696707,0.001672,0.0509783,0.0228225,0.0
 509862,0.1406387,-1.1905318,0.000337,0.0000347,0.0003023,-0.2284495,0.
 0107716,-0.0001014,0.010696,-0.1993258|Polar=110.7187444,-0.0199788,77
 .4083512,-0.0156658,-16.4634053,32.5731657|PG=C01 [X(C6H6B1F1O2)]|NIma
 g=0||0.71367382,0.03958282,0.68596208,-0.01307296,-0.18226353,0.189510
 31,-0.34805807,-0.03087654,0.01016767,0.70455993,0.02661103,-0.1246903
 3,0.01963282,-0.04316343,0.66033500,-0.00872160,0.01967987,-0.07134660
 ,0.01411453,-0.16681075,0.20647358,-0.03176420,-0.02690948,0.00881358,
 -0.17261386,-0.09940104,0.03259622,0.64980967,-0.06144699,0.02770624,-
 0.00532825,-0.05903119,-0.24666246,0.05764696,-0.00005089,0.60537555,0
 .02012750,-0.00530997,0.01313792,0.01938092,0.05762936,-0.08964548,-0.
 00015444,-0.15140827,0.19288852,-0.04703205,0.02624842,-0.00856222,0.0
 5943678,0.01640985,-0.00539133,-0.17251121,0.05899905,-0.01932332,0.70
 446108,0.02672750,-0.01596676,0.00394808,-0.01649996,-0.05534667,0.020
 97122,0.09937460,-0.24682140,0.05764758,0.04318242,0.66057654,-0.00873
 804,0.00394381,-0.00515110,0.00541258,0.02096174,0.00171115,-0.0325530
 0,0.05767962,-0.08963891,-0.01431308,-0.16685415,0.20645026,0.05931212
 ,-0.01878610,0.00614192,-0.04707159,-0.02670143,0.00874187,-0.03168589
 ,0.06148840,-0.02012229,-0.34786215,-0.02641343,0.00876110,0.71337637,
 0.01870137,-0.04592518,0.01739529,-0.02622488,-0.01591739,0.00393384,0
 .02694669,0.02763371,-0.00530491,0.03107939,-0.12470186,0.01966982,-0.
 03942892,0.68596688,-0.00614037,0.01740168,0.00145552,0.00857556,0.003
 94642,-0.00515440,-0.00880957,-0.00533782,0.01314505,-0.01013402,0.019
 64853,-0.07136262,0.01281281,-0.18222163,0.18952184,-0.15619785,0.1119
 7107,-0.03667921,-0.03366201,0.03034625,-0.00990014,0.00328241,-0.0000
 2423,0.00000505,-0.03375249,-0.03029751,0.00989930,-0.15632514,-0.1121
 1245,0.03676720,0.65779686,0.04215960,-0.28507680,0.07263465,0.0790541
 8,0.03269452,-0.01016437,-0.00002425,-0.06311510,0.01862930,-0.0790051
 1,0.03278570,-0.01016587,-0.04230736,-0.28505809,0.07264645,0.00006301
 ,0.67044512,-0.01374668,0.07258023,-0.08712219,-0.02591263,-0.01010949
 ,0.00507212,0.00000951,0.01863025,-0.01231834,0.02590667,-0.01013048,0
 .00507143,0.01383025,0.07262097,-0.08713605,-0.00008527,-0.17319106,0.
 19853494,-0.01274167,0.02739465,-0.00898387,-0.13232799,0.11933360,-0.
 03914829,0.01158453,-0.01529150,0.00499974,-0.00148958,-0.00327876,0.0
 0107241,-0.00055367,-0.00059385,0.00019452,-0.00375568,-0.00180205,0.0
 0058838,0.13972560,-0.00446717,0.00466966,0.00002199,0.11786162,-0.250
 89704,0.06845008,0.01426784,-0.01737639,0.00668678,-0.00361663,-0.0017
 8999,0.00277271,-0.00070471,0.00032300,-0.00036424,-0.00132206,0.00198
 124,0.00204650,-0.12467591,0.26465227,0.00147212,0.00000910,0.00472510
 ,-0.03866797,0.06848322,-0.06467641,-0.00470135,0.00666524,0.00083849,
 0.00118345,0.00276708,0.00574807,0.00023159,-0.00036609,-0.00067062,0.
 00043814,0.00204575,0.00754312,0.04089747,-0.07742439,0.05403557,-0.00
 156758,-0.00269396,0.00088308,-0.00069838,-0.00073343,0.00024020,-0.00
 490330,-0.00158567,0.00052331,-0.01066764,0.02794628,-0.00915446,-0.13
 575802,0.12250515,-0.04010594,0.00968142,-0.01588927,0.00520242,0.0000
 5846,0.00012310,-0.00004065,0.14065927,-0.00386387,-0.00176788,0.00244
 391,-0.00106362,0.00026586,-0.00034196,-0.00093633,0.00217283,0.001751
 17,-0.00358092,0.00510661,-0.00077339,0.11976836,-0.24944545,0.0700388
 4,0.01948704,-0.01834223,0.00725899,0.00008451,-0.00012213,-0.00028114
 ,-0.13086040,0.26037701,0.00126697,0.00244222,0.00488735,0.00034894,-0
 .00034147,-0.00066761,0.00030900,0.00175361,0.00694457,0.00116937,-0.0
 0077908,0.00299925,-0.03921225,0.07004728,-0.05841137,-0.00639834,0.00
 727335,0.00145209,-0.00002749,-0.00028147,-0.00088766,0.04283952,-0.07
 699193,0.05036072,0.00420672,-0.00300643,0.00098505,-0.01717548,-0.009
 39057,0.00309396,-0.21974823,0.00006107,0.00007436,-0.01715797,0.00941
 113,-0.00308569,0.00420815,0.00300102,-0.00098050,-0.00480716,0.000001
 41,-0.00000206,0.00029304,0.00100924,-0.00033693,0.00065194,-0.0004225
 6,0.00013831,0.55671019,-0.00413851,-0.00307431,0.00292278,-0.02227824
 ,0.00539518,-0.00145119,0.00006165,-0.06834817,0.00303413,0.02229572,0
 .00536761,-0.00145840,0.00413254,-0.00307698,0.00292338,0.00000039,-0.
 00328705,0.00112806,-0.00226202,-0.00298564,0.00008856,0.00114244,0.00
 010481,0.00011806,-0.00012246,0.52227807,0.00135665,0.00291969,0.00488
 580,0.00729628,-0.00145681,0.00143691,0.00008247,0.00306050,-0.0600395
 0,-0.00730584,-0.00144563,0.00144174,-0.00135593,0.00292267,0.00488629
 ,0.00000042,0.00113030,-0.00021434,0.00075291,0.00007677,-0.00274849,-
 0.00037529,0.00011791,0.00042557,-0.00013425,-0.12695961,0.17688388,-0
 .00194247,-0.00023031,0.00007554,-0.00262739,0.00372956,-0.00122118,-0
 .01847231,-0.02562555,0.00843329,-0.00165645,-0.00217804,0.00071372,0.
 00008005,-0.00081416,0.00026433,0.00166286,-0.00105114,0.00034466,0.00
 020944,-0.00008157,0.00002720,-0.00020638,0.00014382,-0.00004702,-0.13
 728053,-0.12373951,0.04056535,0.63419950,-0.00097868,0.00103614,-0.000
 44505,0.00112047,0.00211032,-0.00026451,-0.01054865,-0.00204736,0.0025
 9675,0.00162049,-0.00492502,0.00193257,-0.00094122,0.00033731,-0.00024
 890,0.00156294,-0.00041560,0.00008198,0.00077684,0.00068101,-0.0002098
 4,-0.00034946,0.00008262,-0.00004392,-0.07255336,-0.21910394,0.0579579
 2,0.14641358,0.29010492,0.00032245,-0.00044467,-0.00017666,-0.00036519
 ,-0.00027238,0.00137361,0.00348053,0.00261318,0.00498171,-0.00052051,0
 .00192254,0.00032189,0.00030812,-0.00024938,-0.00034375,-0.00051271,0.
 00008296,-0.00019499,-0.00025457,-0.00020947,0.00010761,0.00011494,-0.
 00004425,-0.00003755,0.02377304,0.05797797,-0.06148922,-0.04821665,-0.
 08573326,0.05708531,0.00000883,-0.00061172,0.00020027,-0.00136037,0.00
 073422,-0.00023948,0.00231034,-0.00401725,0.00131732,0.00068885,0.0000
 3297,-0.00001151,0.00004229,0.00002279,-0.00000745,0.00007178,0.000005
 37,-0.00000169,-0.00000499,-0.00009963,0.00003305,-0.00002527,0.000007
 89,-0.00000249,-0.02034253,0.01441583,-0.00471589,-0.48530870,-0.04930
 527,0.01636453,0.49927348,0.00010991,-0.00030807,-0.00006240,-0.000687
 45,0.00025746,0.00005726,0.00097179,-0.00232633,0.00230035,0.00047979,
 0.00000180,-0.00014186,0.00006510,0.00019605,-0.00006626,-0.00016871,0
 .00002882,0.00002326,-0.00008780,-0.00004396,0.00009530,0.00005558,-0.
 00001274,0.00001472,-0.03622936,-0.00544758,0.00188999,-0.00604679,-0.
 02472109,0.00473806,0.03779655,0.03185608,-0.00003669,-0.00006135,-0.0
 0047796,0.00022723,0.00005643,0.00041242,-0.00032072,0.00230248,0.0039
 4280,-0.00015869,-0.00014030,-0.00038405,-0.00002089,-0.00006605,0.000
 01552,0.00005533,0.00002259,0.00009224,0.00002854,0.00009471,0.0002148
 6,-0.00001824,0.00001478,0.00002752,0.01189641,0.00186267,-0.00034183,
 0.00218918,0.00476509,-0.01177811,-0.01260020,-0.00780167,0.01060786,0
 .00008010,0.00081444,-0.00026479,-0.00165065,0.00217772,-0.00070958,-0
 .01845399,0.02563999,-0.00842774,-0.00263208,-0.00372514,0.00122480,-0
 .00194113,0.00023219,-0.00007581,0.00166312,0.00104956,-0.00034343,-0.
 00115118,0.00048163,-0.00013650,-0.00053296,0.00008659,-0.00002849,-0.
 13721830,0.12378734,-0.04054539,0.01152941,-0.01211958,0.00398971,0.00
 372353,0.00213076,-0.00071702,0.63414237,0.00094253,0.00033710,-0.0002
 4894,-0.00162348,-0.00492811,0.00193344,0.01056657,-0.00208155,0.00260
 847,-0.00111276,0.00211260,-0.00026808,0.00098018,0.00103434,-0.000444
 71,-0.00156450,-0.00041484,0.00008083,-0.00011909,0.00084424,-0.000443
 08,0.00015710,-0.00008616,-0.00001995,0.07261711,-0.21930848,0.0580391
 4,0.01209100,-0.04735265,0.02247738,0.00283397,0.00319312,-0.00237192,
 -0.14712633,0.29039710,-0.00030863,-0.00024916,-0.00034330,0.00052560,
 0.00192452,0.00032137,-0.00347173,0.00259733,0.00498440,0.00037113,-0.
 00027276,0.00137422,-0.00032325,-0.00044620,-0.00017593,0.00051339,0.0
 0008294,-0.00019474,0.00005217,-0.00043666,-0.00040002,-0.00005134,-0.
 00001949,-0.00013923,-0.02371549,0.05800906,-0.06147731,-0.00397013,0.
 02248007,0.01378688,-0.00092978,-0.00236818,-0.00325537,0.04772044,-0.
 08577631,0.05704191,0.00004231,-0.00002314,0.00000740,0.00068790,-0.00
 003294,0.00001110,0.00231265,0.00401458,-0.00131824,-0.00136133,-0.000
 73256,0.00024032,0.00000927,0.00061135,-0.00020056,0.00007189,-0.00000
 522,0.00000174,0.00027526,0.00019078,-0.00006149,-0.00012413,-0.000019
 41,0.00000641,-0.02030659,-0.01440962,0.00475685,0.00371699,-0.0028362
 2,0.00091810,0.00079164,0.00163653,-0.00053289,-0.48534568,0.04995673,
 -0.01595147,0.49927975,-0.00006489,0.00019547,-0.00006634,-0.00048012,
 0.00000379,-0.00014195,-0.00097619,-0.00232421,0.00230272,0.00068798,0
 .00025759,0.00005731,-0.00011027,-0.00030843,-0.00006254,0.00016867,0.
 00002894,0.00002330,0.00031971,0.00048256,-0.00016115,0.00002657,0.000
 01317,-0.00001984,0.03621586,-0.00546269,0.00184774,-0.00213336,0.0031
 9638,-0.00236610,-0.00163896,-0.00317444,0.00151190,0.00672068,-0.0247
 6897,0.00476546,-0.03844782,0.03191328,0.00002092,-0.00006633,0.000015
 36,0.00015711,-0.00014092,-0.00038459,0.00032574,0.00230183,0.00394445
 ,-0.00022661,0.00005721,0.00041204,0.00003675,-0.00006149,-0.00047815,
 -0.00005561,0.00002270,0.00009212,-0.00010539,-0.00016302,0.00004191,-
 0.00000872,-0.00001987,-0.00004083,-0.01190253,0.00189865,-0.00035216,
 0.00070655,-0.00237032,-0.00325478,0.00053655,0.00150917,0.00093650,-0
 .00173470,0.00472356,-0.01174991,0.01215467,-0.00779425,0.01058818,-0.
 00055328,0.00059549,-0.00019448,-0.00148489,0.00327882,-0.00107056,0.0
 1158699,0.01527535,-0.00499595,-0.13250880,-0.11952752,0.03921572,-0.0
 1277380,-0.02739382,0.00898738,-0.00375624,0.00180590,-0.00058707,0.00
 050002,0.00077885,-0.00025527,0.00080146,0.00034919,-0.00011502,0.0002
 9399,0.00226033,-0.00075180,-0.00115498,0.00012091,-0.00005313,0.00027
 490,-0.00031946,0.00010499,0.00020904,-0.00077673,0.00025417,-0.000004
 78,0.00008775,-0.00002846,0.13993723,0.00070635,0.00032204,-0.00036431
 ,0.00361545,-0.00179424,0.00277286,-0.01428737,-0.01736673,0.00668349,
 -0.11806463,-0.25096521,0.06847875,0.00448167,0.00468793,0.00001504,0.
 00132661,0.00197847,0.00204516,-0.00077975,-0.00089680,0.00039050,-0.0
 0046645,0.00028850,-0.00153794,-0.00101193,-0.00298769,0.00007760,-0.0
 0048100,0.00084425,-0.00043573,-0.00019099,0.00048333,-0.00016317,0.00
 008191,0.00068210,-0.00020946,0.00009959,-0.00004422,0.00009467,0.1248
 7975,0.26469872,-0.00022977,-0.00036693,-0.00067023,-0.00118253,0.0027
 6617,0.00575125,0.00470264,0.00666959,0.00083453,0.03873792,0.06849385
 ,-0.06464710,-0.00146864,0.00001683,0.00472882,-0.00043418,0.00204676,
 0.00754278,0.00025488,0.00039010,0.00016624,0.00015048,-0.00153692,-0.
 00389707,0.00033368,0.00008368,-0.00274920,0.00013623,-0.00044101,-0.0
 0040013,0.00006155,-0.00016158,0.00004136,-0.00002725,-0.00020877,0.00
 010729,-0.00003283,0.00009531,0.00021514,-0.04097311,-0.07744471,0.054
 00391,-0.13601295,-0.12272902,0.04022439,-0.01069594,-0.02794297,0.009
 15810,-0.00490351,0.00159126,-0.00051823,-0.00069748,0.00073482,-0.000
 24082,-0.00156298,0.00269483,-0.00088056,0.00968198,0.01587338,-0.0052
 0042,0.00080193,0.00046676,-0.00015314,0.00050282,0.00075247,-0.000246
 84,0.00065145,-0.00114327,0.00037460,-0.00053312,-0.00015659,0.0000516
 1,-0.00012411,-0.00002653,0.00000876,-0.00020629,0.00034979,-0.0001149
 3,-0.00002536,-0.00005561,0.00001827,0.00005834,-0.00012324,0.00004041
 ,0.14093832,-0.11999850,-0.24941593,0.07009655,0.00359725,0.00513009,-
 0.00078070,0.00094229,0.00217088,0.00175257,0.00106451,0.00026484,-0.0
 0034228,0.00386416,-0.00177305,0.00244421,-0.01950964,-0.01834637,0.00
 726875,-0.00034926,0.00028765,-0.00153711,-0.00075317,-0.00079752,0.00
 037857,0.00042217,0.00010539,0.00011746,-0.00008625,-0.00008600,-0.000
 01954,0.00001950,0.00001318,-0.00001988,-0.00014357,0.00008239,-0.0000
 4413,-0.00000784,-0.00001267,0.00001477,-0.00008466,-0.00012186,-0.000
 28113,0.13109000,0.26033494,0.03932843,0.07011341,-0.05841853,-0.00116
 534,-0.00077374,0.00300275,-0.00030771,0.00175262,0.00694758,-0.000351
 33,-0.00034063,-0.00066788,-0.00126252,0.00244460,0.00488676,0.0064031
 4,0.00726214,0.00145372,0.00011394,-0.00153923,-0.00389818,0.00024721,
 0.00037832,0.00023265,-0.00013782,0.00011754,0.00042612,0.00002809,-0.
 00002008,-0.00013927,-0.00000647,-0.00001984,-0.00004087,0.00004703,-0
 .00004391,-0.00003754,0.00000257,0.00001474,0.00002751,0.00002716,-0.0
 0028120,-0.00088745,-0.04296634,-0.07705222,0.05036100,-0.04145379,-0.
 00074019,0.00025863,0.00474200,0.00474475,-0.00155382,-0.00583009,0.00
 000357,-0.00000128,0.00474251,-0.00475681,0.00155665,-0.04149388,0.000
 77330,-0.00026700,-0.29165575,0.00007198,-0.00000438,-0.00142352,-0.00
 021215,0.00007028,0.00212828,0.00006727,-0.00000058,0.00702133,-0.0000
 0259,-0.00000116,-0.00221593,-0.00182618,0.00059972,-0.00001967,0.0003
 2011,-0.00010509,-0.00221530,0.00182789,-0.00060013,-0.00001978,-0.000
 31998,0.00010547,-0.00142518,0.00021403,-0.00006948,0.00212689,-0.0000
 6699,-0.00000004,0.36699187,0.03941750,0.00599654,-0.00031725,-0.00332
 006,-0.00595599,0.00450989,0.00000276,0.00341049,-0.00159952,0.0033124
 3,-0.00595639,0.00450770,-0.03938694,0.00602722,-0.00031845,0.00007310
 ,-0.06588672,0.00964275,0.00133069,0.00019032,-0.00012194,0.00137559,0
 .00216271,-0.00201220,-0.00000232,-0.00016853,-0.00029564,0.00008973,0
 .00025871,-0.00003732,-0.00000526,0.00000434,-0.00000631,-0.00008819,0
 .00025775,-0.00003705,0.00000521,0.00000446,-0.00000635,-0.00133015,0.
 00019143,-0.00012125,-0.00137608,0.00216405,-0.00201251,-0.00009801,0.
 05729960,-0.01290029,-0.00032806,0.00508918,0.00108725,0.00450487,0.00
 631992,-0.00000116,-0.00159888,-0.00094779,-0.00108158,0.00450693,0.00
 632160,0.01290137,-0.00033557,0.00509310,-0.00001651,0.00964142,-0.039
 67392,-0.00043536,-0.00012115,-0.00013957,-0.00044651,-0.00199498,-0.0
 0324842,0.00000047,-0.00029534,-0.00097428,-0.00002916,-0.00003748,0.0
 0015744,0.00000170,-0.00000631,-0.00001289,0.00002871,-0.00003716,0.00
 015725,-0.00000169,-0.00000629,-0.00001279,0.00043542,-0.00012155,-0.0
 0014014,0.00044513,-0.00199588,-0.00324838,0.00001221,-0.01177455,0.02
 525968||0.00001197,-0.00002527,0.00000367,-0.00000745,0.00006176,-0.00
 007965,-0.00005590,0.00000280,0.00005033,0.00010976,-0.00006716,0.0000
 3739,-0.00001158,-0.00002294,-0.00000285,0.00011236,0.00001857,0.00001
 694,0.00003791,-0.00005779,0.00003891,-0.00001368,0.00004714,-0.000007
 11,-0.00006985,-0.00004888,-0.00006140,0.00004364,0.00011856,0.0000048
 5,-0.00005317,-0.00004519,0.00000088,0.00005363,-0.00004298,0.00002780
 ,-0.00006285,0.00001943,-0.00000232,-0.00003692,0.00000285,-0.00000080
 ,0.00004529,0.00003509,-0.00001548,-0.00010316,0.00000402,-0.00001117|
 ||@


 PATIENCE IS THE ABILITY TO IDLE YOUR MOTOR WHEN
 YOU FEEL LIKE STRIPPING YOUR GEARS.
 Job cpu time:       0 days  0 hours  1 minutes 52.0 seconds.
 File lengths (MBytes):  RWF=     29 Int=      0 D2E=      0 Chk=      3 Scr=      1
 Normal termination of Gaussian 09 at Thu Sep 14 09:54:53 2023.
