 Entering Link 1 = C:\G09W\l1.exe PID=      2284.
  
 Copyright (c) 1988,1990,1992,1993,1995,1998,2003,2009,2013,
            Gaussian, Inc.  All Rights Reserved.
  
 This is part of the Gaussian(R) 09 program.  It is based on
 the Gaussian(R) 03 system (copyright 2003, Gaussian, Inc.),
 the Gaussian(R) 98 system (copyright 1998, Gaussian, Inc.),
 the Gaussian(R) 94 system (copyright 1995, Gaussian, Inc.),
 the Gaussian 92(TM) system (copyright 1992, Gaussian, Inc.),
 the Gaussian 90(TM) system (copyright 1990, Gaussian, Inc.),
 the Gaussian 88(TM) system (copyright 1988, Gaussian, Inc.),
 the Gaussian 86(TM) system (copyright 1986, Carnegie Mellon
 University), and the Gaussian 82(TM) system (copyright 1983,
 Carnegie Mellon University). Gaussian is a federally registered
 trademark of Gaussian, Inc.
  
 This software contains proprietary and confidential information,
 including trade secrets, belonging to Gaussian, Inc.
  
 This software is provided under written license and may be
 used, copied, transmitted, or stored only in accord with that
 written license.
  
 The following legend is applicable only to US Government
 contracts under FAR:
  
                    RESTRICTED RIGHTS LEGEND
  
 Use, reproduction and disclosure by the US Government is
 subject to restrictions as set forth in subparagraphs (a)
 and (c) of the Commercial Computer Software - Restricted
 Rights clause in FAR 52.227-19.
  
 Gaussian, Inc.
 340 Quinnipiac St., Bldg. 40, Wallingford CT 06492
  
  
 ---------------------------------------------------------------
 Warning -- This program may not be used in any manner that
 competes with the business of Gaussian, Inc. or will provide
 assistance to any competitor of Gaussian, Inc.  The licensee
 of this program is prohibited from giving any competitor of
 Gaussian, Inc. access to this program.  By using this program,
 the user acknowledges that Gaussian, Inc. is engaged in the
 business of creating and licensing software in the field of
 computational chemistry and represents and warrants to the
 licensee that it is not a competitor of Gaussian, Inc. and that
 it will not use this program in any manner prohibited above.
 ---------------------------------------------------------------
  

 Cite this work as:
 Gaussian 09, Revision D.01,
 M. J. Frisch, G. W. Trucks, H. B. Schlegel, G. E. Scuseria, 
 M. A. Robb, J. R. Cheeseman, G. Scalmani, V. Barone, B. Mennucci, 
 G. A. Petersson, H. Nakatsuji, M. Caricato, X. Li, H. P. Hratchian, 
 A. F. Izmaylov, J. Bloino, G. Zheng, J. L. Sonnenberg, M. Hada, 
 M. Ehara, K. Toyota, R. Fukuda, J. Hasegawa, M. Ishida, T. Nakajima, 
 Y. Honda, O. Kitao, H. Nakai, T. Vreven, J. A. Montgomery, Jr., 
 J. E. Peralta, F. Ogliaro, M. Bearpark, J. J. Heyd, E. Brothers, 
 K. N. Kudin, V. N. Staroverov, T. Keith, R. Kobayashi, J. Normand, 
 K. Raghavachari, A. Rendell, J. C. Burant, S. S. Iyengar, J. Tomasi, 
 M. Cossi, N. Rega, J. M. Millam, M. Klene, J. E. Knox, J. B. Cross, 
 V. Bakken, C. Adamo, J. Jaramillo, R. Gomperts, R. E. Stratmann, 
 O. Yazyev, A. J. Austin, R. Cammi, C. Pomelli, J. W. Ochterski, 
 R. L. Martin, K. Morokuma, V. G. Zakrzewski, G. A. Voth, 
 P. Salvador, J. J. Dannenberg, S. Dapprich, A. D. Daniels, 
 O. Farkas, J. B. Foresman, J. V. Ortiz, J. Cioslowski, 
 and D. J. Fox, Gaussian, Inc., Wallingford CT, 2013.
 
 ******************************************
 Gaussian 09:  EM64W-G09RevD.01 13-Apr-2013
                13-Sep-2023 
 ******************************************
 %nprocshared=2
 Will use up to    2 processors via shared memory.
 %mem=2GB
 %chk=E:\PROJECT- VIT group\ML\Substrates\molecule_17.chk
 -----------------------------------------------------
 # opt freq b3lyp/6-31g nosymm empiricaldispersion=gd3
 -----------------------------------------------------
 1/14=-1,18=20,19=15,26=3,38=1/1,3;
 2/9=110,12=2,15=1,17=6,18=5,40=1/2;
 3/5=1,6=6,11=2,16=1,25=1,30=1,71=1,74=-5,124=31/1,2,3;
 4//1;
 5/5=2,38=5/2;
 6/7=2,8=2,9=2,10=2,28=1/1;
 7/30=1/1,2,3,16;
 1/14=-1,18=20,19=15,26=3/3(2);
 2/9=110,15=1/2;
 99//99;
 2/9=110,15=1/2;
 3/5=1,6=6,11=2,16=1,25=1,30=1,71=1,74=-5,124=31/1,2,3;
 4/5=5,16=3,69=1/1;
 5/5=2,38=5/2;
 7/30=1/1,2,3,16;
 1/14=-1,18=20,19=15,26=3/3(-5);
 2/9=110,15=1/2;
 6/7=2,8=2,9=2,10=2,19=2,28=1/1;
 99/9=1/99;
 -----------
 molecule_17
 -----------
 Symbolic Z-matrix:
 Charge =  0 Multiplicity = 1
 C                    -0.25714   1.04286   0. 
 C                     0.93786   1.04286   0. 
 H                     1.99886   1.04286   0. 
 C                    -1.79714   1.04286   0. 
 H                    -2.15381   1.51646   0.89072 
 H                    -2.15381   0.03467  -0.03521 
 O                    -2.27381   1.7573   -1.14335 
 C                    -3.70381   1.75766  -1.14398 
 H                    -4.06074   2.23135  -0.2534 
 H                    -4.05997   2.29235  -1.99964 
 H                    -4.06071   0.74956  -1.17935 
 

 GradGradGradGradGradGradGradGradGradGradGradGradGradGradGradGradGradGrad
 Berny optimization.
 Initialization pass.
                           ----------------------------
                           !    Initial Parameters    !
                           ! (Angstroms and Degrees)  !
 --------------------------                            --------------------------
 ! Name  Definition              Value          Derivative Info.                !
 --------------------------------------------------------------------------------
 ! R1    R(1,2)                  1.195          estimate D2E/DX2                !
 ! R2    R(1,4)                  1.54           estimate D2E/DX2                !
 ! R3    R(2,3)                  1.061          estimate D2E/DX2                !
 ! R4    R(4,5)                  1.07           estimate D2E/DX2                !
 ! R5    R(4,6)                  1.07           estimate D2E/DX2                !
 ! R6    R(4,7)                  1.43           estimate D2E/DX2                !
 ! R7    R(7,8)                  1.43           estimate D2E/DX2                !
 ! R8    R(8,9)                  1.07           estimate D2E/DX2                !
 ! R9    R(8,10)                 1.07           estimate D2E/DX2                !
 ! R10   R(8,11)                 1.07           estimate D2E/DX2                !
 ! A1    A(1,4,5)              109.4712         estimate D2E/DX2                !
 ! A2    A(1,4,6)              109.4712         estimate D2E/DX2                !
 ! A3    A(1,4,7)              109.4712         estimate D2E/DX2                !
 ! A4    A(5,4,6)              109.4712         estimate D2E/DX2                !
 ! A5    A(5,4,7)              109.4713         estimate D2E/DX2                !
 ! A6    A(6,4,7)              109.4712         estimate D2E/DX2                !
 ! A7    A(4,7,8)              109.5            estimate D2E/DX2                !
 ! A8    A(7,8,9)              109.4712         estimate D2E/DX2                !
 ! A9    A(7,8,10)             109.4712         estimate D2E/DX2                !
 ! A10   A(7,8,11)             109.4712         estimate D2E/DX2                !
 ! A11   A(9,8,10)             109.4713         estimate D2E/DX2                !
 ! A12   A(9,8,11)             109.4712         estimate D2E/DX2                !
 ! A13   A(10,8,11)            109.4712         estimate D2E/DX2                !
 ! A14   L(2,1,4,7,-1)         180.0            estimate D2E/DX2                !
 ! A15   L(1,2,3,10,-1)        180.0            estimate D2E/DX2                !
 ! A16   L(2,1,4,7,-2)         180.0            estimate D2E/DX2                !
 ! A17   L(1,2,3,10,-2)        180.0            estimate D2E/DX2                !
 ! D1    D(1,4,7,8)            179.9989         estimate D2E/DX2                !
 ! D2    D(5,4,7,8)            -60.0011         estimate D2E/DX2                !
 ! D3    D(6,4,7,8)             59.9989         estimate D2E/DX2                !
 ! D4    D(4,7,8,9)             59.9997         estimate D2E/DX2                !
 ! D5    D(4,7,8,10)           179.9997         estimate D2E/DX2                !
 ! D6    D(4,7,8,11)           -60.0003         estimate D2E/DX2                !
 --------------------------------------------------------------------------------
 Trust Radius=3.00D-01 FncErr=1.00D-07 GrdErr=1.00D-06
 Number of steps in this run=     43 maximum allowed number of steps=    100.
 GradGradGradGradGradGradGradGradGradGradGradGradGradGradGradGradGradGrad

                          Input orientation:                          
 ---------------------------------------------------------------------
 Center     Atomic      Atomic             Coordinates (Angstroms)
 Number     Number       Type             X           Y           Z
 ---------------------------------------------------------------------
      1          6           0       -0.257143    1.042857    0.000000
      2          6           0        0.937857    1.042857    0.000000
      3          1           0        1.998857    1.042857    0.000000
      4          6           0       -1.797143    1.042857    0.000000
      5          1           0       -2.153809    1.516463    0.890723
      6          1           0       -2.153810    0.034666   -0.035207
      7          8           0       -2.273809    1.757303   -1.143353
      8          6           0       -3.703809    1.757662   -1.143976
      9          1           0       -4.060745    2.231347   -0.253404
     10          1           0       -4.059968    2.292346   -1.999642
     11          1           0       -4.060713    0.749561   -1.179350
 ---------------------------------------------------------------------
                    Distance matrix (angstroms):
                    1          2          3          4          5
     1  C    0.000000
     2  C    1.195000   0.000000
     3  H    2.256000   1.061000   0.000000
     4  C    1.540000   2.735000   3.796000   0.000000
     5  H    2.148263   3.252090   4.273444   1.070000   0.000000
     6  H    2.148263   3.252091   4.273445   1.070000   1.747303
     7  O    2.425826   3.483172   4.480331   1.430000   2.051796
     8  C    3.701234   4.833704   5.860037   2.335595   2.569178
     9  H    3.993007   5.144195   6.180250   2.569166   2.335913
    10  H    4.474513   5.526124   6.501473   3.268053   3.548189
    11  H    3.992999   5.144181   6.180233   2.569171   2.917126
                    6          7          8          9         10
     6  H    0.000000
     7  O    2.051796   0.000000
     8  C    2.569160   1.430000   0.000000
     9  H    2.917091   2.051796   1.070000   0.000000
    10  H    3.548178   2.051796   1.070000   1.747303   0.000000
    11  H    2.335898   2.051796   1.070000   1.747303   1.747303
                   11
    11  H    0.000000
 Symmetry turned off by external request.
 Stoichiometry    C4H6O
 Framework group  C1[X(C4H6O)]
 Deg. of freedom    27
 Full point group                 C1      NOp   1
 Rotational constants (GHZ):     28.9224017      2.3511052      2.2334873
 Standard basis: 6-31G (6D, 7F)
    57 basis functions,   134 primitive gaussians,    57 cartesian basis functions
    19 alpha electrons       19 beta electrons
       nuclear repulsion energy       155.4450164500 Hartrees.
 NAtoms=   11 NActive=   11 NUniq=   11 SFac= 1.00D+00 NAtFMM=   60 NAOKFM=F Big=F
 Integral buffers will be    131072 words long.
 Raffenetti 2 integral format.
 Two-electron integral symmetry is turned off.
 Nuclear repulsion after empirical dispersion term =      155.4405325923 Hartrees.
 One-electron integrals computed using PRISM.
 NBasis=    57 RedAO= T EigKep=  5.12D-04  NBF=    57
 NBsUse=    57 1.00D-06 EigRej= -1.00D+00 NBFU=    57
 ExpMin= 1.61D-01 ExpMax= 5.48D+03 ExpMxC= 8.25D+02 IAcc=1 IRadAn=         1 AccDes= 0.00D+00
 Harris functional with IExCor=  402 and IRadAn=       1 diagonalized for initial guess.
 HarFok:  IExCor=  402 AccDes= 0.00D+00 IRadAn=         1 IDoV= 1 UseB2=F ITyADJ=14
 ICtDFT=  3500011 ScaDFX=  1.000000  1.000000  1.000000  1.000000
 FoFCou: FMM=F IPFlag=           0 FMFlag=      100000 FMFlg1=           0
         NFxFlg=           0 DoJE=T BraDBF=F KetDBF=T FulRan=T
         wScrn=  0.000000 ICntrl=     500 IOpCl=  0 I1Cent=   200000004 NGrid=           0
         NMat0=    1 NMatS0=      1 NMatT0=    0 NMatD0=    1 NMtDS0=    0 NMtDT0=    0
 Symmetry not used in FoFCou.
 Keep R1 ints in memory in canonical form, NReq=2273610.
 Requested convergence on RMS density matrix=1.00D-08 within 128 cycles.
 Requested convergence on MAX density matrix=1.00D-06.
 Requested convergence on             energy=1.00D-06.
 No special actions if energy rises.
 Integral accuracy reduced to 1.0D-05 until final iterations.
 Initial convergence to 1.0D-05 achieved.  Increase integral accuracy.
 SCF Done:  E(RB3LYP) =  -231.091323233     A.U. after   15 cycles
            NFock= 15  Conv=0.19D-08     -V/T= 2.0048

 **********************************************************************

            Population analysis using the SCF density.

 **********************************************************************

 Alpha  occ. eigenvalues --  -19.14906 -10.25842 -10.22217 -10.18919 -10.17749
 Alpha  occ. eigenvalues --   -1.04455  -0.77479  -0.72325  -0.66573  -0.53594
 Alpha  occ. eigenvalues --   -0.49649  -0.49008  -0.48600  -0.42766  -0.41040
 Alpha  occ. eigenvalues --   -0.32189  -0.28030  -0.27831  -0.25700
 Alpha virt. eigenvalues --    0.03702   0.06538   0.09464   0.12648   0.14676
 Alpha virt. eigenvalues --    0.15587   0.16141   0.16520   0.19837   0.21252
 Alpha virt. eigenvalues --    0.24672   0.43825   0.48622   0.52926   0.53966
 Alpha virt. eigenvalues --    0.54180   0.56618   0.60333   0.66443   0.68202
 Alpha virt. eigenvalues --    0.71185   0.77494   0.78411   0.80761   0.87796
 Alpha virt. eigenvalues --    0.89140   0.89888   0.95267   0.96794   1.00351
 Alpha virt. eigenvalues --    1.11769   1.15658   1.16778   1.21515   1.42577
 Alpha virt. eigenvalues --    1.49154   1.65537   1.98431
          Condensed to atoms (all electrons):
               1          2          3          4          5          6
     1  C    4.758411   0.888286   0.022788   0.245347  -0.041736  -0.041735
     2  C    0.888286   5.435483   0.317470  -0.124219  -0.003872  -0.003872
     3  H    0.022788   0.317470   0.428256   0.002290  -0.000059  -0.000059
     4  C    0.245347  -0.124219   0.002290   5.020139   0.359350   0.359355
     5  H   -0.041736  -0.003872  -0.000059   0.359350   0.638155  -0.061517
     6  H   -0.041735  -0.003872  -0.000059   0.359355  -0.061517   0.638145
     7  O   -0.052920  -0.010224  -0.000069   0.227682  -0.051372  -0.051370
     8  C    0.010839   0.000492   0.000003  -0.055249  -0.006020  -0.006020
     9  H   -0.000736  -0.000042   0.000000  -0.009394   0.017396  -0.003773
    10  H   -0.000236  -0.000004   0.000000   0.005945  -0.000282  -0.000282
    11  H   -0.000737  -0.000042   0.000000  -0.009394  -0.003773   0.017396
               7          8          9         10         11
     1  C   -0.052920   0.010839  -0.000736  -0.000236  -0.000737
     2  C   -0.010224   0.000492  -0.000042  -0.000004  -0.000042
     3  H   -0.000069   0.000003   0.000000   0.000000   0.000000
     4  C    0.227682  -0.055249  -0.009394   0.005945  -0.009394
     5  H   -0.051372  -0.006020   0.017396  -0.000282  -0.003773
     6  H   -0.051370  -0.006020  -0.003773  -0.000282   0.017396
     7  O    8.357419   0.212924  -0.048549  -0.030444  -0.048549
     8  C    0.212924   4.888505   0.360809   0.384388   0.360807
     9  H   -0.048549   0.360809   0.643247  -0.034949  -0.055137
    10  H   -0.030444   0.384388  -0.034949   0.545032  -0.034949
    11  H   -0.048549   0.360807  -0.055137  -0.034949   0.643252
 Mulliken charges:
               1
     1  C    0.212429
     2  C   -0.499455
     3  H    0.229382
     4  C   -0.021852
     5  H    0.153733
     6  H    0.153734
     7  O   -0.504528
     8  C   -0.151477
     9  H    0.131129
    10  H    0.165779
    11  H    0.131127
 Sum of Mulliken charges =   0.00000
 Mulliken charges with hydrogens summed into heavy atoms:
               1
     1  C    0.212429
     2  C   -0.270073
     4  C    0.285614
     7  O   -0.504528
     8  C    0.276558
 Electronic spatial extent (au):  <R**2>=           1178.8876
 Charge=              0.0000 electrons
 Dipole moment (field-independent basis, Debye):
    X=             -1.5063    Y=             -0.7028    Z=              1.1246  Tot=              2.0069
 Quadrupole moment (field-independent basis, Debye-Ang):
   XX=            -16.9800   YY=            -32.8789   ZZ=            -32.2934
   XY=             -1.4372   XZ=             -0.2138   YZ=              2.0753
 Traceless Quadrupole moment (field-independent basis, Debye-Ang):
   XX=             10.4041   YY=             -5.4948   ZZ=             -4.9093
   XY=             -1.4372   XZ=             -0.2138   YZ=              2.0753
 Octapole moment (field-independent basis, Debye-Ang**2):
  XXX=            106.1958  YYY=           -127.4215  ZZZ=             42.5926  XYY=             43.9423
  XXY=            -21.1244  XXZ=              5.4678  XZZ=             45.1259  YZZ=            -42.2903
  YYZ=             17.2674  XYZ=             -0.0428
 Hexadecapole moment (field-independent basis, Debye-Ang**3):
 XXXX=           -828.6277 YYYY=           -401.4452 ZZZZ=           -137.8375 XXXY=            161.9431
 XXXZ=            -81.9344 YYYX=            223.7937 YYYZ=             78.5119 ZZZX=           -127.8889
 ZZZY=             72.4172 XXYY=           -199.2345 XXZZ=           -174.5722 YYZZ=            -88.5688
 XXYZ=              6.6558 YYXZ=            -41.9727 ZZXY=             69.9511
 N-N= 1.554405325923D+02 E-N=-8.497737234493D+02  KE= 2.299963163627D+02
 Calling FoFJK, ICntrl=      2127 FMM=F ISym2X=0 I1Cent= 0 IOpClX= 0 NMat=1 NMatS=1 NMatT=0.
 -------------------------------------------------------------------
 Center     Atomic                   Forces (Hartrees/Bohr)
 Number     Number              X              Y              Z
 -------------------------------------------------------------------
      1        6          -0.077911715   -0.000067835    0.000122037
      2        6           0.033826825   -0.000139613    0.000221044
      3        1           0.002485947    0.000046528   -0.000074619
      4        6           0.061502073    0.006432216   -0.010277832
      5        1          -0.005274187    0.006731205    0.020036260
      6        1          -0.005266595   -0.020957420    0.002723893
      7        8           0.009955482    0.008276634   -0.013238659
      8        6           0.004777423    0.001517998   -0.002434992
      9        1          -0.011729204    0.009127236    0.016530479
     10        1          -0.000650529    0.007906045   -0.012653540
     11        1          -0.011715520   -0.018872994   -0.000954071
 -------------------------------------------------------------------
 Cartesian Forces:  Max     0.077911715 RMS     0.020363880

 GradGradGradGradGradGradGradGradGradGradGradGradGradGradGradGradGradGrad
 Berny optimization.
 FormGI is forming the generalized inverse of G from B-inverse, IUseBI=4.
 GSVD:  received Info=                   1 from GESDD.
 Internal  Forces:  Max     0.041600382 RMS     0.013923812
 Search for a local minimum.
 Step number   1 out of a maximum of   43
 All quantities printed in internal units (Hartrees-Bohrs-Radians)
 Mixed Optimization -- RFO/linear search
 Second derivative matrix not updated -- first step.
 ITU=  0
     Eigenvalues ---    0.00237   0.00237   0.00618   0.00618   0.01295
     Eigenvalues ---    0.01295   0.10344   0.10344   0.10344   0.10682
     Eigenvalues ---    0.16000   0.16000   0.16000   0.16000   0.16000
     Eigenvalues ---    0.22700   0.25000   0.28519   0.37230   0.37230
     Eigenvalues ---    0.37230   0.37230   0.37230   0.38391   0.40989
     Eigenvalues ---    0.40989   1.07376
 RFO step:  Lambda=-1.67975107D-02 EMin= 2.36824121D-03
 Linear search not attempted -- first point.
 Iteration  1 RMS(Cart)=  0.08600107 RMS(Int)=  0.00263798
 Iteration  2 RMS(Cart)=  0.00343821 RMS(Int)=  0.00043880
 Iteration  3 RMS(Cart)=  0.00000921 RMS(Int)=  0.00043876
 Iteration  4 RMS(Cart)=  0.00000001 RMS(Int)=  0.00043876
 Variable       Old X    -DE/DX   Delta X   Delta X   Delta X     New X
                                 (Linear)    (Quad)   (Total)
    R1        2.25822   0.03631   0.00000   0.03330   0.03330   2.29152
    R2        2.91018  -0.04160   0.00000  -0.13776  -0.13776   2.77242
    R3        2.00500   0.00249   0.00000   0.00620   0.00620   2.01120
    R4        2.02201   0.02142   0.00000   0.05504   0.05504   2.07705
    R5        2.02201   0.02141   0.00000   0.05503   0.05503   2.07704
    R6        2.70231   0.01730   0.00000   0.04054   0.04054   2.74284
    R7        2.70231   0.01931   0.00000   0.04527   0.04527   2.74757
    R8        2.02201   0.02171   0.00000   0.05580   0.05580   2.07781
    R9        2.02201   0.01429   0.00000   0.03672   0.03672   2.05873
   R10        2.02201   0.02172   0.00000   0.05582   0.05582   2.07782
    A1        1.91063  -0.00251   0.00000  -0.01623  -0.01626   1.89438
    A2        1.91063  -0.00253   0.00000  -0.01644  -0.01646   1.89417
    A3        1.91063  -0.00135   0.00000  -0.00643  -0.00646   1.90417
    A4        1.91063  -0.00360   0.00000  -0.01786  -0.01829   1.89234
    A5        1.91063   0.00501   0.00000   0.02856   0.02832   1.93895
    A6        1.91063   0.00499   0.00000   0.02840   0.02816   1.93879
    A7        1.91114   0.01717   0.00000   0.06435   0.06435   1.97549
    A8        1.91063   0.00748   0.00000   0.04451   0.04392   1.95455
    A9        1.91063  -0.00974   0.00000  -0.05947  -0.05915   1.85148
   A10        1.91063   0.00746   0.00000   0.04438   0.04378   1.95442
   A11        1.91063  -0.00093   0.00000  -0.00968  -0.00937   1.90126
   A12        1.91063  -0.00334   0.00000  -0.01012  -0.01142   1.89921
   A13        1.91063  -0.00093   0.00000  -0.00963  -0.00933   1.90131
   A14        3.14159   0.00024   0.00000   0.01237   0.01237   3.15396
   A15        3.14159  -0.00017   0.00000  -0.00735  -0.00735   3.13424
   A16        3.14159  -0.00002   0.00000  -0.00093  -0.00093   3.14066
   A17        3.14159   0.00000   0.00000   0.00019   0.00019   3.14178
    D1        3.14157  -0.00002   0.00000  -0.00043  -0.00043   3.14114
    D2       -1.04722  -0.00086   0.00000  -0.00676  -0.00707  -1.05429
    D3        1.04718   0.00085   0.00000   0.00625   0.00657   1.05374
    D4        1.04719   0.00253   0.00000   0.02115   0.02240   1.06960
    D5        3.14159   0.00000   0.00000   0.00014   0.00014  -3.14146
    D6       -1.04720  -0.00252   0.00000  -0.02090  -0.02215  -1.06935
         Item               Value     Threshold  Converged?
 Maximum Force            0.041600     0.000450     NO 
 RMS     Force            0.013924     0.000300     NO 
 Maximum Displacement     0.178482     0.001800     NO 
 RMS     Displacement     0.087874     0.001200     NO 
 Predicted change in Energy=-8.852510D-03
 GradGradGradGradGradGradGradGradGradGradGradGradGradGradGradGradGradGrad

                          Input orientation:                          
 ---------------------------------------------------------------------
 Center     Atomic      Atomic             Coordinates (Angstroms)
 Number     Number       Type             X           Y           Z
 ---------------------------------------------------------------------
      1          6           0       -0.286830    1.043682   -0.000465
      2          6           0        0.925567    1.055480   -0.020481
      3          1           0        1.989475    1.069897   -0.044736
      4          6           0       -1.753204    1.019140    0.038726
      5          1           0       -2.085529    1.483402    0.977928
      6          1           0       -2.085270   -0.028602    0.032633
      7          8           0       -2.271159    1.737740   -1.111077
      8          6           0       -3.723961    1.767854   -1.160471
      9          1           0       -4.155193    2.275051   -0.285398
     10          1           0       -3.983862    2.328501   -2.057681
     11          1           0       -4.154269    0.758632   -1.233187
 ---------------------------------------------------------------------
                    Distance matrix (angstroms):
                    1          2          3          4          5
     1  C    0.000000
     2  C    1.212620   0.000000
     3  H    2.276887   1.064282   0.000000
     4  C    1.467103   2.679672   3.743954   0.000000
     5  H    2.094260   3.201037   4.221669   1.099127   0.000000
     6  H    2.094105   3.200499   4.220928   1.099122   1.783182
     7  O    2.377548   3.445857   4.442533   1.451450   2.112602
     8  C    3.699176   4.839955   5.863050   2.425392   2.708897
     9  H    4.069606   5.231793   6.266360   2.729821   2.550728
    10  H    4.421644   5.465643   6.427813   3.329441   3.678694
    11  H    4.069145   5.231014   6.265373   2.729604   3.113520
                    6          7          8          9         10
     6  H    0.000000
     7  O    2.112485   0.000000
     8  C    2.708516   1.453954   0.000000
     9  H    3.113286   2.126038   1.099529   0.000000
    10  H    3.678315   2.044116   1.089431   1.781348   0.000000
    11  H    2.550058   2.125951   1.099537   1.788249   1.781380
                   11
    11  H    0.000000
 Symmetry turned off by external request.
 Stoichiometry    C4H6O
 Framework group  C1[X(C4H6O)]
 Deg. of freedom    27
 Full point group                 C1      NOp   1
 Rotational constants (GHZ):     27.7856650      2.3569405      2.2343849
 Standard basis: 6-31G (6D, 7F)
    57 basis functions,   134 primitive gaussians,    57 cartesian basis functions
    19 alpha electrons       19 beta electrons
       nuclear repulsion energy       154.4637712567 Hartrees.
 NAtoms=   11 NActive=   11 NUniq=   11 SFac= 1.00D+00 NAtFMM=   60 NAOKFM=F Big=F
 Integral buffers will be    131072 words long.
 Raffenetti 2 integral format.
 Two-electron integral symmetry is turned off.
 Nuclear repulsion after empirical dispersion term =      154.4590605102 Hartrees.
 One-electron integrals computed using PRISM.
 NBasis=    57 RedAO= T EigKep=  5.14D-04  NBF=    57
 NBsUse=    57 1.00D-06 EigRej= -1.00D+00 NBFU=    57
 Initial guess from the checkpoint file:  "E:\PROJECT- VIT group\ML\Substrates\molecule_17.chk"
 B after Tr=     0.002750   -0.001997    0.003764
         Rot=    0.999999   -0.000007   -0.001265   -0.000790 Ang=  -0.17 deg.
 ExpMin= 1.61D-01 ExpMax= 5.48D+03 ExpMxC= 8.25D+02 IAcc=1 IRadAn=         1 AccDes= 0.00D+00
 Harris functional with IExCor=  402 and IRadAn=       1 diagonalized for initial guess.
 HarFok:  IExCor=  402 AccDes= 0.00D+00 IRadAn=         1 IDoV= 1 UseB2=F ITyADJ=14
 ICtDFT=  3500011 ScaDFX=  1.000000  1.000000  1.000000  1.000000
 FoFCou: FMM=F IPFlag=           0 FMFlag=      100000 FMFlg1=           0
         NFxFlg=           0 DoJE=T BraDBF=F KetDBF=T FulRan=T
         wScrn=  0.000000 ICntrl=     500 IOpCl=  0 I1Cent=   200000004 NGrid=           0
         NMat0=    1 NMatS0=      1 NMatT0=    0 NMatD0=    1 NMtDS0=    0 NMtDT0=    0
 Symmetry not used in FoFCou.
 Keep R1 ints in memory in canonical form, NReq=2273610.
 Requested convergence on RMS density matrix=1.00D-08 within 128 cycles.
 Requested convergence on MAX density matrix=1.00D-06.
 Requested convergence on             energy=1.00D-06.
 No special actions if energy rises.
 Integral accuracy reduced to 1.0D-05 until final iterations.
 Initial convergence to 1.0D-05 achieved.  Increase integral accuracy.
 SCF Done:  E(RB3LYP) =  -231.099710164     A.U. after   14 cycles
            NFock= 14  Conv=0.23D-08     -V/T= 2.0059
 Calling FoFJK, ICntrl=      2127 FMM=F ISym2X=0 I1Cent= 0 IOpClX= 0 NMat=1 NMatS=1 NMatT=0.
 -------------------------------------------------------------------
 Center     Atomic                   Forces (Hartrees/Bohr)
 Number     Number              X              Y              Z
 -------------------------------------------------------------------
      1        6          -0.001013324    0.000519669   -0.000859221
      2        6          -0.002449263    0.000125951   -0.000193702
      3        1           0.000170780   -0.000060911    0.000112698
      4        6           0.013079443   -0.000232497    0.000375200
      5        1          -0.004457758    0.000302438    0.000904592
      6        1          -0.004460221   -0.000968809    0.000130067
      7        8          -0.003701327    0.000865674   -0.001364369
      8        6           0.000270170   -0.000164020    0.000274354
      9        1           0.000849837   -0.000097979    0.001107098
     10        1           0.000876950    0.000652067   -0.001043309
     11        1           0.000834714   -0.000941583    0.000556593
 -------------------------------------------------------------------
 Cartesian Forces:  Max     0.013079443 RMS     0.002717225

 GradGradGradGradGradGradGradGradGradGradGradGradGradGradGradGradGradGrad
 Berny optimization.
 Using GEDIIS/GDIIS optimizer.
 FormGI is forming the generalized inverse of G from B-inverse, IUseBI=4.
 GSVD:  received Info=                   1 from GESDD.
 Internal  Forces:  Max     0.003598205 RMS     0.001886814
 Search for a local minimum.
 Step number   2 out of a maximum of   43
 All quantities printed in internal units (Hartrees-Bohrs-Radians)
 Mixed Optimization -- RFO/linear search
 Update second derivatives using D2CorX and points    1    2
 DE= -8.39D-03 DEPred=-8.85D-03 R= 9.47D-01
 TightC=F SS=  1.41D+00  RLast= 2.30D-01 DXNew= 5.0454D-01 6.9093D-01
 Trust test= 9.47D-01 RLast= 2.30D-01 DXMaxT set to 5.05D-01
 ITU=  1  0
 Use linear search instead of GDIIS.
     Eigenvalues ---    0.00237   0.00237   0.00618   0.00619   0.01295
     Eigenvalues ---    0.01295   0.09928   0.10277   0.10492   0.10547
     Eigenvalues ---    0.15824   0.16000   0.16000   0.16000   0.16795
     Eigenvalues ---    0.22551   0.25477   0.28099   0.36195   0.37230
     Eigenvalues ---    0.37230   0.37230   0.37407   0.38390   0.40871
     Eigenvalues ---    0.42038   1.08267
 RFO step:  Lambda=-7.24763698D-04 EMin= 2.36824053D-03
 Quartic linear search produced a step of -0.00136.
 Iteration  1 RMS(Cart)=  0.02095384 RMS(Int)=  0.00038371
 Iteration  2 RMS(Cart)=  0.00037997 RMS(Int)=  0.00017405
 Iteration  3 RMS(Cart)=  0.00000019 RMS(Int)=  0.00017405
 Variable       Old X    -DE/DX   Delta X   Delta X   Delta X     New X
                                 (Linear)    (Quad)   (Total)
    R1        2.29152  -0.00228  -0.00005  -0.00054  -0.00058   2.29094
    R2        2.77242  -0.00325   0.00019  -0.01789  -0.01770   2.75472
    R3        2.01120   0.00017  -0.00001   0.00073   0.00072   2.01192
    R4        2.07705   0.00225  -0.00007   0.00863   0.00856   2.08560
    R5        2.07704   0.00227  -0.00007   0.00868   0.00861   2.08564
    R6        2.74284   0.00083  -0.00005   0.00395   0.00389   2.74673
    R7        2.74757  -0.00287  -0.00006  -0.00483  -0.00489   2.74268
    R8        2.07781   0.00050  -0.00008   0.00399   0.00391   2.08172
    R9        2.05873   0.00098  -0.00005   0.00438   0.00433   2.06305
   R10        2.07782   0.00050  -0.00008   0.00399   0.00392   2.08174
    A1        1.89438   0.00359   0.00002   0.02845   0.02842   1.92280
    A2        1.89417   0.00360   0.00002   0.02861   0.02858   1.92275
    A3        1.90417   0.00026   0.00001   0.00536   0.00531   1.90948
    A4        1.89234  -0.00125   0.00002  -0.02051  -0.02109   1.87125
    A5        1.93895  -0.00296  -0.00004  -0.01997  -0.02033   1.91862
    A6        1.93879  -0.00293  -0.00004  -0.01970  -0.02007   1.91872
    A7        1.97549  -0.00335  -0.00009  -0.01027  -0.01036   1.96513
    A8        1.95455  -0.00134  -0.00006  -0.00689  -0.00698   1.94757
    A9        1.85148  -0.00087   0.00008  -0.00696  -0.00690   1.84458
   A10        1.95442  -0.00131  -0.00006  -0.00671  -0.00680   1.94761
   A11        1.90126   0.00146   0.00001   0.00985   0.00984   1.91111
   A12        1.89921   0.00073   0.00002   0.00183   0.00181   1.90102
   A13        1.90131   0.00145   0.00001   0.00974   0.00974   1.91104
   A14        3.15396  -0.00009  -0.00002  -0.02802  -0.02804   3.12592
   A15        3.13424   0.00026   0.00001   0.03723   0.03724   3.17148
   A16        3.14066   0.00002   0.00000   0.00695   0.00695   3.14761
   A17        3.14178  -0.00001   0.00000  -0.00096  -0.00096   3.14082
    D1        3.14114   0.00002   0.00000   0.00048   0.00048  -3.14156
    D2       -1.05429   0.00279   0.00001   0.02677   0.02633  -1.02796
    D3        1.05374  -0.00279  -0.00001  -0.02617  -0.02573   1.02802
    D4        1.06960  -0.00050  -0.00003  -0.00407  -0.00408   1.06551
    D5       -3.14146   0.00000   0.00000  -0.00024  -0.00024   3.14149
    D6       -1.06935   0.00049   0.00003   0.00356   0.00358  -1.06578
         Item               Value     Threshold  Converged?
 Maximum Force            0.003598     0.000450     NO 
 RMS     Force            0.001887     0.000300     NO 
 Maximum Displacement     0.058215     0.001800     NO 
 RMS     Displacement     0.021115     0.001200     NO 
 Predicted change in Energy=-3.615907D-04
 GradGradGradGradGradGradGradGradGradGradGradGradGradGradGradGradGradGrad

                          Input orientation:                          
 ---------------------------------------------------------------------
 Center     Atomic      Atomic             Coordinates (Angstroms)
 Number     Number       Type             X           Y           Z
 ---------------------------------------------------------------------
      1          6           0       -0.290278    1.036779    0.004653
      2          6           0        0.921073    1.064819   -0.034620
      3          1           0        1.985682    1.072778   -0.042017
      4          6           0       -1.747589    1.019534    0.035261
      5          1           0       -2.114202    1.486657    0.965554
      6          1           0       -2.116076   -0.020759    0.024895
      7          8           0       -2.263378    1.739485   -1.117268
      8          6           0       -3.714019    1.765105   -1.155282
      9          1           0       -4.133775    2.270286   -0.270908
     10          1           0       -3.975868    2.326573   -2.054194
     11          1           0       -4.135805    0.749519   -1.220283
 ---------------------------------------------------------------------
                    Distance matrix (angstroms):
                    1          2          3          4          5
     1  C    0.000000
     2  C    1.212312   0.000000
     3  H    2.276723   1.064664   0.000000
     4  C    1.457735   2.669962   3.734451   0.000000
     5  H    2.110076   3.223537   4.242115   1.103655   0.000000
     6  H    2.110055   3.225879   4.245553   1.103676   1.776836
     7  O    2.376052   3.430456   4.433415   1.453510   2.103407
     8  C    3.687534   4.819789   5.848527   2.416633   2.671122
     9  H    4.045979   5.201969   6.239725   2.711458   2.494311
    10  H    4.414293   5.445249   6.415678   3.322558   3.645564
    11  H    4.046116   5.203578   6.242228   2.711618   3.067268
                    6          7          8          9         10
     6  H    0.000000
     7  O    2.103496   0.000000
     8  C    2.671245   1.451365   0.000000
     9  H    3.067165   2.120486   1.101599   0.000000
    10  H    3.645737   2.038412   1.091720   1.791148   0.000000
    11  H    2.494614   2.120525   1.101609   1.792777   1.791112
                   11
    11  H    0.000000
 Symmetry turned off by external request.
 Stoichiometry    C4H6O
 Framework group  C1[X(C4H6O)]
 Deg. of freedom    27
 Full point group                 C1      NOp   1
 Rotational constants (GHZ):     27.5168565      2.3757094      2.2494025
 Standard basis: 6-31G (6D, 7F)
    57 basis functions,   134 primitive gaussians,    57 cartesian basis functions
    19 alpha electrons       19 beta electrons
       nuclear repulsion energy       154.7272003366 Hartrees.
 NAtoms=   11 NActive=   11 NUniq=   11 SFac= 1.00D+00 NAtFMM=   60 NAOKFM=F Big=F
 Integral buffers will be    131072 words long.
 Raffenetti 2 integral format.
 Two-electron integral symmetry is turned off.
 Nuclear repulsion after empirical dispersion term =      154.7224919955 Hartrees.
 One-electron integrals computed using PRISM.
 NBasis=    57 RedAO= T EigKep=  5.08D-04  NBF=    57
 NBsUse=    57 1.00D-06 EigRej= -1.00D+00 NBFU=    57
 Initial guess from the checkpoint file:  "E:\PROJECT- VIT group\ML\Substrates\molecule_17.chk"
 B after Tr=     0.006250    0.001708   -0.006506
         Rot=    1.000000   -0.000056   -0.000367   -0.000193 Ang=  -0.05 deg.
 ExpMin= 1.61D-01 ExpMax= 5.48D+03 ExpMxC= 8.25D+02 IAcc=1 IRadAn=         1 AccDes= 0.00D+00
 Harris functional with IExCor=  402 and IRadAn=       1 diagonalized for initial guess.
 HarFok:  IExCor=  402 AccDes= 0.00D+00 IRadAn=         1 IDoV= 1 UseB2=F ITyADJ=14
 ICtDFT=  3500011 ScaDFX=  1.000000  1.000000  1.000000  1.000000
 FoFCou: FMM=F IPFlag=           0 FMFlag=      100000 FMFlg1=           0
         NFxFlg=           0 DoJE=T BraDBF=F KetDBF=T FulRan=T
         wScrn=  0.000000 ICntrl=     500 IOpCl=  0 I1Cent=   200000004 NGrid=           0
         NMat0=    1 NMatS0=      1 NMatT0=    0 NMatD0=    1 NMtDS0=    0 NMtDT0=    0
 Symmetry not used in FoFCou.
 Keep R1 ints in memory in canonical form, NReq=2273610.
 Requested convergence on RMS density matrix=1.00D-08 within 128 cycles.
 Requested convergence on MAX density matrix=1.00D-06.
 Requested convergence on             energy=1.00D-06.
 No special actions if energy rises.
 Integral accuracy reduced to 1.0D-05 until final iterations.
 Initial convergence to 1.0D-05 achieved.  Increase integral accuracy.
 SCF Done:  E(RB3LYP) =  -231.100042637     A.U. after   12 cycles
            NFock= 12  Conv=0.25D-08     -V/T= 2.0059
 Calling FoFJK, ICntrl=      2127 FMM=F ISym2X=0 I1Cent= 0 IOpClX= 0 NMat=1 NMatS=1 NMatT=0.
 -------------------------------------------------------------------
 Center     Atomic                   Forces (Hartrees/Bohr)
 Number     Number              X              Y              Z
 -------------------------------------------------------------------
      1        6           0.001727814    0.001143245   -0.001344389
      2        6          -0.001504244   -0.001190101    0.001802741
      3        1          -0.000136692    0.000401078   -0.000734760
      4        6           0.001151033   -0.001317948    0.001819848
      5        1          -0.000236369   -0.000423217   -0.000012291
      6        1          -0.000279896    0.000207969    0.000358466
      7        8          -0.001145261    0.001122844   -0.001816319
      8        6           0.000135486    0.000239227   -0.000374164
      9        1           0.000236998   -0.000410651   -0.000527564
     10        1          -0.000190484   -0.000428379    0.000697676
     11        1           0.000241615    0.000655934    0.000130755
 -------------------------------------------------------------------
 Cartesian Forces:  Max     0.001819848 RMS     0.000927843

 GradGradGradGradGradGradGradGradGradGradGradGradGradGradGradGradGradGrad
 Berny optimization.
 Using GEDIIS/GDIIS optimizer.
 FormGI is forming the generalized inverse of G from B-inverse, IUseBI=4.
 Internal  Forces:  Max     0.002335579 RMS     0.000694041
 Search for a local minimum.
 Step number   3 out of a maximum of   43
 All quantities printed in internal units (Hartrees-Bohrs-Radians)
 Mixed Optimization -- En-DIIS/RFO-DIIS
 Update second derivatives using D2CorX and points    1    2    3
 DE= -3.32D-04 DEPred=-3.62D-04 R= 9.19D-01
 TightC=F SS=  1.41D+00  RLast= 8.67D-02 DXNew= 8.4853D-01 2.6007D-01
 Trust test= 9.19D-01 RLast= 8.67D-02 DXMaxT set to 5.05D-01
 ITU=  1  1  0
 Use linear search instead of GDIIS.
     Eigenvalues ---    0.00237   0.00253   0.00618   0.00717   0.01295
     Eigenvalues ---    0.01295   0.09116   0.10070   0.10252   0.10603
     Eigenvalues ---    0.15988   0.16000   0.16000   0.16220   0.16874
     Eigenvalues ---    0.22613   0.24757   0.28084   0.36084   0.37230
     Eigenvalues ---    0.37230   0.37259   0.37660   0.38394   0.41368
     Eigenvalues ---    0.42346   1.08283
 RFO step:  Lambda=-7.66626987D-04 EMin= 2.36777940D-03
 Quartic linear search produced a step of -0.07922.
 Iteration  1 RMS(Cart)=  0.07551886 RMS(Int)=  0.02424786
 Iteration  2 RMS(Cart)=  0.06670755 RMS(Int)=  0.00310635
 Iteration  3 RMS(Cart)=  0.00450011 RMS(Int)=  0.00017485
 Iteration  4 RMS(Cart)=  0.00001028 RMS(Int)=  0.00017447
 Iteration  5 RMS(Cart)=  0.00000000 RMS(Int)=  0.00017447
 Variable       Old X    -DE/DX   Delta X   Delta X   Delta X     New X
                                 (Linear)    (Quad)   (Total)
    R1        2.29094  -0.00169   0.00005  -0.00082  -0.00078   2.29016
    R2        2.75472   0.00010   0.00140  -0.02550  -0.02410   2.73062
    R3        2.01192  -0.00013  -0.00006   0.00077   0.00071   2.01263
    R4        2.08560  -0.00011  -0.00068   0.01175   0.01107   2.09668
    R5        2.08564  -0.00011  -0.00068   0.01181   0.01113   2.09678
    R6        2.74673   0.00234  -0.00031   0.01131   0.01100   2.75774
    R7        2.74268  -0.00042   0.00039  -0.00481  -0.00442   2.73826
    R8        2.08172  -0.00070  -0.00031   0.00496   0.00465   2.08638
    R9        2.06305  -0.00075  -0.00034   0.00458   0.00423   2.06729
   R10        2.08174  -0.00070  -0.00031   0.00497   0.00466   2.08640
    A1        1.92280   0.00010  -0.00225   0.03292   0.03060   1.95340
    A2        1.92275   0.00016  -0.00226   0.03362   0.03129   1.95403
    A3        1.90948   0.00016  -0.00042   0.00669   0.00620   1.91568
    A4        1.87125  -0.00059   0.00167  -0.02975  -0.02869   1.84257
    A5        1.91862   0.00010   0.00161  -0.02220  -0.02090   1.89772
    A6        1.91872   0.00006   0.00159  -0.02201  -0.02073   1.89799
    A7        1.96513  -0.00058   0.00082  -0.01152  -0.01070   1.95443
    A8        1.94757  -0.00009   0.00055  -0.00705  -0.00652   1.94105
    A9        1.84458   0.00065   0.00055  -0.00626  -0.00572   1.83886
   A10        1.94761  -0.00009   0.00054  -0.00686  -0.00635   1.94126
   A11        1.91111  -0.00014  -0.00078   0.01047   0.00968   1.92078
   A12        1.90102  -0.00016  -0.00014   0.00000  -0.00018   1.90084
   A13        1.91104  -0.00014  -0.00077   0.01036   0.00957   1.92061
   A14        3.12592   0.00119   0.00222   0.32429   0.32651   3.45243
   A15        3.17148  -0.00169  -0.00295  -0.18468  -0.18763   2.98385
   A16        3.14761  -0.00019  -0.00055  -0.05008  -0.05063   3.09699
   A17        3.14082   0.00005   0.00008   0.00555   0.00562   3.14644
    D1       -3.14156   0.00002  -0.00004   0.00091   0.00087  -3.14069
    D2       -1.02796   0.00030  -0.00209   0.03188   0.02933  -0.99863
    D3        1.02802  -0.00032   0.00204  -0.03105  -0.02855   0.99947
    D4        1.06551  -0.00017   0.00032  -0.00534  -0.00500   1.06052
    D5        3.14149   0.00000   0.00002  -0.00035  -0.00033   3.14116
    D6       -1.06578   0.00017  -0.00028   0.00461   0.00431  -1.06147
         Item               Value     Threshold  Converged?
 Maximum Force            0.002336     0.000450     NO 
 RMS     Force            0.000694     0.000300     NO 
 Maximum Displacement     0.317474     0.001800     NO 
 RMS     Displacement     0.136344     0.001200     NO 
 Predicted change in Energy=-4.435418D-04
 GradGradGradGradGradGradGradGradGradGradGradGradGradGradGradGradGradGrad

                          Input orientation:                          
 ---------------------------------------------------------------------
 Center     Atomic      Atomic             Coordinates (Angstroms)
 Number     Number       Type             X           Y           Z
 ---------------------------------------------------------------------
      1          6           0       -0.257895    1.153440   -0.152987
      2          6           0        0.922854    0.999793    0.072693
      3          1           0        1.985175    0.945536    0.125983
      4          6           0       -1.697758    1.082139   -0.054579
      5          1           0       -2.071105    1.529868    0.889440
      6          1           0       -2.062027    0.034075   -0.051631
      7          8           0       -2.304648    1.786441   -1.179431
      8          6           0       -3.752174    1.745801   -1.127532
      9          1           0       -4.132712    2.227468   -0.209849
     10          1           0       -4.089358    2.299022   -2.009010
     11          1           0       -4.124587    0.707194   -1.167305
 ---------------------------------------------------------------------
                    Distance matrix (angstroms):
                    1          2          3          4          5
     1  C    0.000000
     2  C    1.211902   0.000000
     3  H    2.269892   1.065040   0.000000
     4  C    1.444982   2.624992   3.689885   0.000000
     5  H    2.125107   3.148308   4.168658   1.109515   0.000000
     6  H    2.125593   3.139678   4.152366   1.109567   1.767228
     7  O    2.375600   3.550126   4.562215   1.459332   2.097761
     8  C    3.675679   4.883949   5.926964   2.410872   2.634540
     9  H    4.021315   5.210159   6.259766   2.695346   2.438300
    10  H    4.408774   5.580658   6.579519   3.319692   3.614686
    11  H    4.022348   5.205753   6.249686   2.695967   3.020560
                    6          7          8          9         10
     6  H    0.000000
     7  O    2.097995   0.000000
     8  C    2.635179   1.449026   0.000000
     9  H    3.020553   2.115753   1.104062   0.000000
    10  H    3.615437   2.033748   1.093960   1.801105   0.000000
    11  H    2.439666   2.115916   1.104074   1.796669   1.801007
                   11
    11  H    0.000000
 Symmetry turned off by external request.
 Stoichiometry    C4H6O
 Framework group  C1[X(C4H6O)]
 Deg. of freedom    27
 Full point group                 C1      NOp   1
 Rotational constants (GHZ):     31.7809906      2.3155283      2.2189665
 Standard basis: 6-31G (6D, 7F)
    57 basis functions,   134 primitive gaussians,    57 cartesian basis functions
    19 alpha electrons       19 beta electrons
       nuclear repulsion energy       154.7079272149 Hartrees.
 NAtoms=   11 NActive=   11 NUniq=   11 SFac= 1.00D+00 NAtFMM=   60 NAOKFM=F Big=F
 Integral buffers will be    131072 words long.
 Raffenetti 2 integral format.
 Two-electron integral symmetry is turned off.
 Nuclear repulsion after empirical dispersion term =      154.7032327497 Hartrees.
 One-electron integrals computed using PRISM.
 NBasis=    57 RedAO= T EigKep=  1.06D-03  NBF=    57
 NBsUse=    57 1.00D-06 EigRej= -1.00D+00 NBFU=    57
 Initial guess from the checkpoint file:  "E:\PROJECT- VIT group\ML\Substrates\molecule_17.chk"
 B after Tr=     0.003232    0.045655   -0.054540
         Rot=    0.999999   -0.000281   -0.000574   -0.001014 Ang=  -0.14 deg.
 ExpMin= 1.61D-01 ExpMax= 5.48D+03 ExpMxC= 8.25D+02 IAcc=1 IRadAn=         1 AccDes= 0.00D+00
 Harris functional with IExCor=  402 and IRadAn=       1 diagonalized for initial guess.
 HarFok:  IExCor=  402 AccDes= 0.00D+00 IRadAn=         1 IDoV= 1 UseB2=F ITyADJ=14
 ICtDFT=  3500011 ScaDFX=  1.000000  1.000000  1.000000  1.000000
 FoFCou: FMM=F IPFlag=           0 FMFlag=      100000 FMFlg1=           0
         NFxFlg=           0 DoJE=T BraDBF=F KetDBF=T FulRan=T
         wScrn=  0.000000 ICntrl=     500 IOpCl=  0 I1Cent=   200000004 NGrid=           0
         NMat0=    1 NMatS0=      1 NMatT0=    0 NMatD0=    1 NMtDS0=    0 NMtDT0=    0
 Symmetry not used in FoFCou.
 Keep R1 ints in memory in canonical form, NReq=2273610.
 Requested convergence on RMS density matrix=1.00D-08 within 128 cycles.
 Requested convergence on MAX density matrix=1.00D-06.
 Requested convergence on             energy=1.00D-06.
 No special actions if energy rises.
 Integral accuracy reduced to 1.0D-05 until final iterations.
 Initial convergence to 1.0D-05 achieved.  Increase integral accuracy.
 SCF Done:  E(RB3LYP) =  -231.096228765     A.U. after   15 cycles
            NFock= 15  Conv=0.17D-08     -V/T= 2.0058
 Calling FoFJK, ICntrl=      2127 FMM=F ISym2X=0 I1Cent= 0 IOpClX= 0 NMat=1 NMatS=1 NMatT=0.
 -------------------------------------------------------------------
 Center     Atomic                   Forces (Hartrees/Bohr)
 Number     Number              X              Y              Z
 -------------------------------------------------------------------
      1        6          -0.000588578   -0.010189030    0.014655557
      2        6           0.009834026    0.005107095   -0.008486963
      3        1          -0.000265922   -0.000505653    0.001562464
      4        6          -0.017571922    0.002992893   -0.003734259
      5        1           0.005054034   -0.000312182   -0.001596333
      6        1           0.005257671    0.001654954   -0.000438710
      7        8           0.000034405    0.000447441   -0.000671619
      8        6           0.000182004    0.000713650   -0.001146301
      9        1          -0.000391169   -0.000675570   -0.002269282
     10        1          -0.001181003   -0.001562696    0.002481918
     11        1          -0.000363546    0.002329098   -0.000356473
 -------------------------------------------------------------------
 Cartesian Forces:  Max     0.017571922 RMS     0.005311284

 GradGradGradGradGradGradGradGradGradGradGradGradGradGradGradGradGradGrad
 Berny optimization.
 Using GEDIIS/GDIIS optimizer.
 FormGI is forming the generalized inverse of G from B-inverse, IUseBI=4.
 Internal  Forces:  Max     0.020165193 RMS     0.004584362
 Search for a local minimum.
 Step number   4 out of a maximum of   43
 All quantities printed in internal units (Hartrees-Bohrs-Radians)
 Mixed Optimization -- RFO/linear search
 Update second derivatives using D2CorX and points    1    2    4    3
 DE=  3.81D-03 DEPred=-4.44D-04 R=-8.60D+00
 Trust test=-8.60D+00 RLast= 3.89D-01 DXMaxT set to 2.52D-01
 ITU= -1  1  1  0
 Use linear search instead of GDIIS.
 Energy rises -- skip Quadratic/GDIIS search.
 Quartic linear search produced a step of -0.91919.
 Iteration  1 RMS(Cart)=  0.07614071 RMS(Int)=  0.01936749
 Iteration  2 RMS(Cart)=  0.05480008 RMS(Int)=  0.00180365
 Iteration  3 RMS(Cart)=  0.00269701 RMS(Int)=  0.00001415
 Iteration  4 RMS(Cart)=  0.00000232 RMS(Int)=  0.00001393
 Iteration  5 RMS(Cart)=  0.00000000 RMS(Int)=  0.00001393
 Variable       Old X    -DE/DX   Delta X   Delta X   Delta X     New X
                                 (Linear)    (Quad)   (Total)
    R1        2.29016   0.00745   0.00071   0.00000   0.00071   2.29088
    R2        2.73062   0.00816   0.02215   0.00000   0.02215   2.75277
    R3        2.01263  -0.00016  -0.00065   0.00000  -0.00065   2.01198
    R4        2.09668  -0.00318  -0.01018   0.00000  -0.01018   2.08650
    R5        2.09678  -0.00329  -0.01023   0.00000  -0.01023   2.08654
    R6        2.75774   0.00282  -0.01011   0.00000  -0.01011   2.74762
    R7        2.73826   0.00168   0.00406   0.00000   0.00406   2.74233
    R8        2.08638  -0.00205  -0.00428   0.00000  -0.00428   2.08210
    R9        2.06729  -0.00242  -0.00389   0.00000  -0.00389   2.06339
   R10        2.08640  -0.00206  -0.00428   0.00000  -0.00428   2.08212
    A1        1.95340  -0.00465  -0.02813   0.00000  -0.02812   1.92527
    A2        1.95403  -0.00492  -0.02876   0.00000  -0.02876   1.92528
    A3        1.91568   0.00285  -0.00570   0.00000  -0.00569   1.90999
    A4        1.84257   0.00148   0.02637   0.00000   0.02642   1.86898
    A5        1.89772   0.00276   0.01921   0.00000   0.01924   1.91696
    A6        1.89799   0.00277   0.01906   0.00000   0.01908   1.91707
    A7        1.95443   0.00315   0.00983   0.00000   0.00983   1.96426
    A8        1.94105   0.00109   0.00599   0.00000   0.00600   1.94704
    A9        1.83886   0.00239   0.00526   0.00000   0.00526   1.84412
   A10        1.94126   0.00103   0.00584   0.00000   0.00584   1.94710
   A11        1.92078  -0.00184  -0.00889   0.00000  -0.00889   1.91189
   A12        1.90084  -0.00089   0.00017   0.00000   0.00017   1.90101
   A13        1.92061  -0.00177  -0.00880   0.00000  -0.00880   1.91182
   A14        3.45243  -0.02017  -0.30012   0.00000  -0.30012   3.15231
   A15        2.98385   0.00327   0.17246   0.00000   0.17246   3.15631
   A16        3.09699   0.00077   0.04654   0.00000   0.04654   3.14352
   A17        3.14644  -0.00025  -0.00517   0.00000  -0.00517   3.14128
    D1       -3.14069  -0.00009  -0.00080   0.00000  -0.00080  -3.14149
    D2       -0.99863  -0.00226  -0.02696   0.00000  -0.02692  -1.02555
    D3        0.99947   0.00240   0.02624   0.00000   0.02620   1.02567
    D4        1.06052   0.00016   0.00459   0.00000   0.00459   1.06511
    D5        3.14116  -0.00003   0.00030   0.00000   0.00030   3.14146
    D6       -1.06147  -0.00017  -0.00396   0.00000  -0.00396  -1.06543
         Item               Value     Threshold  Converged?
 Maximum Force            0.020165     0.000450     NO 
 RMS     Force            0.004584     0.000300     NO 
 Maximum Displacement     0.291716     0.001800     NO 
 RMS     Displacement     0.125236     0.001200     NO 
 Predicted change in Energy=-7.397122D-05
 GradGradGradGradGradGradGradGradGradGradGradGradGradGradGradGradGradGrad

                          Input orientation:                          
 ---------------------------------------------------------------------
 Center     Atomic      Atomic             Coordinates (Angstroms)
 Number     Number       Type             X           Y           Z
 ---------------------------------------------------------------------
      1          6           0       -0.287927    1.046659   -0.007839
      2          6           0        0.924150    1.059488   -0.025886
      3          1           0        1.988836    1.062541   -0.028386
      4          6           0       -1.744021    1.024315    0.027923
      5          1           0       -2.111666    1.488714    0.959733
      6          1           0       -2.111723   -0.016758    0.017328
      7          8           0       -2.267282    1.744208   -1.121863
      8          6           0       -3.717993    1.763856   -1.152921
      9          1           0       -4.135163    2.265873   -0.265278
     10          1           0       -3.986011    2.325675   -2.050012
     11          1           0       -4.135434    0.746204   -1.217008
 ---------------------------------------------------------------------
                    Distance matrix (angstroms):
                    1          2          3          4          5
     1  C    0.000000
     2  C    1.212279   0.000000
     3  H    2.276912   1.064694   0.000000
     4  C    1.456704   2.668945   3.733478   0.000000
     5  H    2.111310   3.220536   4.239354   1.104128   0.000000
     6  H    2.111332   3.221288   4.240468   1.104152   1.776112
     7  O    2.376020   3.443145   4.446899   1.453980   2.102983
     8  C    3.686588   4.828647   5.858696   2.416170   2.668201
     9  H    4.044005   5.206660   6.245598   2.710164   2.489813
    10  H    4.413861   5.459853   6.432828   3.322330   3.643109
    11  H    4.044214   5.207332   6.246566   2.710361   3.063521
                    6          7          8          9         10
     6  H    0.000000
     7  O    2.103083   0.000000
     8  C    2.668365   1.451176   0.000000
     9  H    3.063426   2.120106   1.101798   0.000000
    10  H    3.643329   2.038037   1.091901   1.791953   0.000000
    11  H    2.490202   2.120155   1.101808   1.793093   1.791913
                   11
    11  H    0.000000
 Symmetry turned off by external request.
 Stoichiometry    C4H6O
 Framework group  C1[X(C4H6O)]
 Deg. of freedom    27
 Full point group                 C1      NOp   1
 Rotational constants (GHZ):     27.8997998      2.3679023      2.2448972
 Standard basis: 6-31G (6D, 7F)
    57 basis functions,   134 primitive gaussians,    57 cartesian basis functions
    19 alpha electrons       19 beta electrons
       nuclear repulsion energy       154.7023457988 Hartrees.
 NAtoms=   11 NActive=   11 NUniq=   11 SFac= 1.00D+00 NAtFMM=   60 NAOKFM=F Big=F
 Integral buffers will be    131072 words long.
 Raffenetti 2 integral format.
 Two-electron integral symmetry is turned off.
 Nuclear repulsion after empirical dispersion term =      154.6976410185 Hartrees.
 One-electron integrals computed using PRISM.
 NBasis=    57 RedAO= T EigKep=  5.04D-04  NBF=    57
 NBsUse=    57 1.00D-06 EigRej= -1.00D+00 NBFU=    57
 Lowest energy guess from the checkpoint file:  "E:\PROJECT- VIT group\ML\Substrates\molecule_17.chk"
 B after Tr=     0.001042    0.004046   -0.006539
         Rot=    1.000000   -0.000511   -0.000028   -0.000217 Ang=  -0.06 deg.
 B after Tr=    -0.002208   -0.041597    0.047700
         Rot=    1.000000   -0.000280    0.000543    0.000777 Ang=  -0.11 deg.
 Keep R1 ints in memory in canonical form, NReq=2273610.
 Requested convergence on RMS density matrix=1.00D-08 within 128 cycles.
 Requested convergence on MAX density matrix=1.00D-06.
 Requested convergence on             energy=1.00D-06.
 No special actions if energy rises.
 Integral accuracy reduced to 1.0D-05 until final iterations.
 Initial convergence to 1.0D-05 achieved.  Increase integral accuracy.
 SCF Done:  E(RB3LYP) =  -231.100072958     A.U. after   10 cycles
            NFock= 10  Conv=0.91D-08     -V/T= 2.0059
 Calling FoFJK, ICntrl=      2127 FMM=F ISym2X=0 I1Cent= 0 IOpClX= 0 NMat=1 NMatS=1 NMatT=0.
 -------------------------------------------------------------------
 Center     Atomic                   Forces (Hartrees/Bohr)
 Number     Number              X              Y              Z
 -------------------------------------------------------------------
      1        6           0.002200702   -0.000064756    0.000262445
      2        6          -0.001526217   -0.000476827    0.000730521
      3        1          -0.000159996    0.000314286   -0.000533418
      4        6          -0.000075832   -0.000833285    0.001239915
      5        1           0.000188668   -0.000440437   -0.000132806
      6        1           0.000177856    0.000320856    0.000318978
      7        8          -0.001056253    0.001059003   -0.001708405
      8        6           0.000129301    0.000276139   -0.000432003
      9        1           0.000196760   -0.000430390   -0.000672250
     10        1          -0.000278501   -0.000517741    0.000837467
     11        1           0.000203513    0.000793151    0.000089557
 -------------------------------------------------------------------
 Cartesian Forces:  Max     0.002200702 RMS     0.000758252

 GradGradGradGradGradGradGradGradGradGradGradGradGradGradGradGradGradGrad
 Berny optimization.
 Using GEDIIS/GDIIS optimizer.
 FormGI is forming the generalized inverse of G from B-inverse, IUseBI=4.
 GSVD:  received Info=                   1 from GESDD.
 Internal  Forces:  Max     0.002362817 RMS     0.000671947
 Search for a local minimum.
 Step number   5 out of a maximum of   43
 All quantities printed in internal units (Hartrees-Bohrs-Radians)
 Mixed Optimization -- En-DIIS/RFO-DIIS
 Update second derivatives using D2CorX and points    1    2    4    3    5
 ITU=  0 -1  1  1  0
 Use linear search instead of GDIIS.
     Eigenvalues ---    0.00235   0.00411   0.00618   0.01295   0.01295
     Eigenvalues ---    0.06311   0.09467   0.10095   0.10253   0.10607
     Eigenvalues ---    0.15990   0.16000   0.16001   0.16167   0.17169
     Eigenvalues ---    0.22896   0.24858   0.28040   0.36330   0.37230
     Eigenvalues ---    0.37230   0.37263   0.37569   0.38398   0.40460
     Eigenvalues ---    0.42607   1.08134
 RFO step:  Lambda=-4.51232925D-04 EMin= 2.34922818D-03
 Quartic linear search produced a step of -0.02847.
 Maximum step size (   0.252) exceeded in Quadratic search.
    -- Step size scaled by   0.826
 Iteration  1 RMS(Cart)=  0.08382350 RMS(Int)=  0.01234760
 Iteration  2 RMS(Cart)=  0.01871952 RMS(Int)=  0.00047114
 Iteration  3 RMS(Cart)=  0.00049077 RMS(Int)=  0.00004554
 Iteration  4 RMS(Cart)=  0.00000046 RMS(Int)=  0.00004554
 Variable       Old X    -DE/DX   Delta X   Delta X   Delta X     New X
                                 (Linear)    (Quad)   (Total)
    R1        2.29088  -0.00169   0.00000  -0.00207  -0.00207   2.28881
    R2        2.75277   0.00050   0.00006  -0.00884  -0.00878   2.74399
    R3        2.01198  -0.00016   0.00000  -0.00004  -0.00005   2.01193
    R4        2.08650  -0.00036  -0.00003   0.00408   0.00406   2.09055
    R5        2.08654  -0.00037  -0.00003   0.00409   0.00407   2.09061
    R6        2.74762   0.00236  -0.00003   0.00952   0.00949   2.75712
    R7        2.74233  -0.00024   0.00001  -0.00337  -0.00336   2.73896
    R8        2.08210  -0.00081  -0.00001  -0.00015  -0.00016   2.08194
    R9        2.06339  -0.00089  -0.00001  -0.00024  -0.00025   2.06314
   R10        2.08212  -0.00081  -0.00001  -0.00015  -0.00016   2.08196
    A1        1.92527  -0.00029  -0.00007   0.01470   0.01461   1.93989
    A2        1.92528  -0.00027  -0.00007   0.01517   0.01508   1.94036
    A3        1.90999   0.00040  -0.00001   0.00475   0.00471   1.91470
    A4        1.86898  -0.00044   0.00006  -0.01647  -0.01657   1.85241
    A5        1.91696   0.00030   0.00005  -0.00932  -0.00936   1.90760
    A6        1.91707   0.00028   0.00005  -0.00935  -0.00939   1.90768
    A7        1.96426  -0.00029   0.00002  -0.00725  -0.00722   1.95704
    A8        1.94704   0.00000   0.00001  -0.00403  -0.00402   1.94302
    A9        1.84412   0.00078   0.00001   0.00199   0.00201   1.84612
   A10        1.94710  -0.00001   0.00001  -0.00398  -0.00398   1.94312
   A11        1.91189  -0.00027  -0.00002   0.00396   0.00394   1.91583
   A12        1.90101  -0.00022   0.00000  -0.00145  -0.00147   1.89954
   A13        1.91182  -0.00027  -0.00002   0.00393   0.00391   1.91572
   A14        3.15231  -0.00075  -0.00075  -0.07383  -0.07458   3.07773
   A15        3.15631  -0.00125   0.00043  -0.23515  -0.23472   2.92160
   A16        3.14352  -0.00007   0.00012  -0.04014  -0.04003   3.10350
   A17        3.14128   0.00002  -0.00001   0.00471   0.00470   3.14597
    D1       -3.14149   0.00000   0.00000   0.00054   0.00054  -3.14096
    D2       -1.02555   0.00009  -0.00007   0.01585   0.01566  -1.00989
    D3        1.02567  -0.00009   0.00007  -0.01533  -0.01515   1.01053
    D4        1.06511  -0.00014   0.00001  -0.00395  -0.00392   1.06118
    D5        3.14146   0.00000   0.00000  -0.00014  -0.00014   3.14132
    D6       -1.06543   0.00014  -0.00001   0.00364   0.00362  -1.06181
         Item               Value     Threshold  Converged?
 Maximum Force            0.002363     0.000450     NO 
 RMS     Force            0.000672     0.000300     NO 
 Maximum Displacement     0.378394     0.001800     NO 
 RMS     Displacement     0.098060     0.001200     NO 
 Predicted change in Energy=-2.332022D-04
 GradGradGradGradGradGradGradGradGradGradGradGradGradGradGradGradGradGrad

                          Input orientation:                          
 ---------------------------------------------------------------------
 Center     Atomic      Atomic             Coordinates (Angstroms)
 Number     Number       Type             X           Y           Z
 ---------------------------------------------------------------------
      1          6           0       -0.302968    1.008485    0.091841
      2          6           0        0.906380    1.027028    0.027798
      3          1           0        1.931377    1.157991   -0.228624
      4          6           0       -1.754889    1.006072    0.072138
      5          1           0       -2.167234    1.469632    0.988067
      6          1           0       -2.152433   -0.025958    0.044140
      7          8           0       -2.232226    1.738615   -1.095861
      8          6           0       -3.679545    1.769686   -1.166929
      9          1           0       -4.113349    2.268873   -0.285793
     10          1           0       -3.920347    2.336600   -2.068362
     11          1           0       -4.099002    0.753753   -1.242624
 ---------------------------------------------------------------------
                    Distance matrix (angstroms):
                    1          2          3          4          5
     1  C    0.000000
     2  C    1.211185   0.000000
     3  H    2.262155   1.064670   0.000000
     4  C    1.452056   2.661721   3.701633   0.000000
     5  H    2.119284   3.250403   4.286731   1.106274   0.000000
     6  H    2.119639   3.235025   4.260709   1.106305   1.768617
     7  O    2.380286   3.408785   4.292413   1.459004   2.102220
     8  C    3.683096   4.796835   5.721629   2.413026   2.649740
     9  H    4.031152   5.180560   6.146221   2.699095   2.459444
    10  H    4.417668   5.422745   6.246313   3.322838   3.628608
    11  H    4.031819   5.171316   6.128383   2.699469   3.036477
                    6          7          8          9         10
     6  H    0.000000
     7  O    2.102305   0.000000
     8  C    2.650113   1.449396   0.000000
     9  H    3.036494   2.115658   1.101714   0.000000
    10  H    3.629031   2.037915   1.091768   1.794266   0.000000
    11  H    2.460252   2.115738   1.101724   1.792016   1.794204
                   11
    11  H    0.000000
 Symmetry turned off by external request.
 Stoichiometry    C4H6O
 Framework group  C1[X(C4H6O)]
 Deg. of freedom    27
 Full point group                 C1      NOp   1
 Rotational constants (GHZ):     26.3056913      2.4065285      2.2681211
 Standard basis: 6-31G (6D, 7F)
    57 basis functions,   134 primitive gaussians,    57 cartesian basis functions
    19 alpha electrons       19 beta electrons
       nuclear repulsion energy       154.9292436789 Hartrees.
 NAtoms=   11 NActive=   11 NUniq=   11 SFac= 1.00D+00 NAtFMM=   60 NAOKFM=F Big=F
 Integral buffers will be    131072 words long.
 Raffenetti 2 integral format.
 Two-electron integral symmetry is turned off.
 Nuclear repulsion after empirical dispersion term =      154.9245312605 Hartrees.
 One-electron integrals computed using PRISM.
 NBasis=    57 RedAO= T EigKep=  6.26D-04  NBF=    57
 NBsUse=    57 1.00D-06 EigRej= -1.00D+00 NBFU=    57
 Initial guess from the checkpoint file:  "E:\PROJECT- VIT group\ML\Substrates\molecule_17.chk"
 B after Tr=    -0.020026   -0.043934    0.096856
         Rot=    0.999971    0.000309    0.006659    0.003597 Ang=   0.87 deg.
 ExpMin= 1.61D-01 ExpMax= 5.48D+03 ExpMxC= 8.25D+02 IAcc=1 IRadAn=         1 AccDes= 0.00D+00
 Harris functional with IExCor=  402 and IRadAn=       1 diagonalized for initial guess.
 HarFok:  IExCor=  402 AccDes= 0.00D+00 IRadAn=         1 IDoV= 1 UseB2=F ITyADJ=14
 ICtDFT=  3500011 ScaDFX=  1.000000  1.000000  1.000000  1.000000
 FoFCou: FMM=F IPFlag=           0 FMFlag=      100000 FMFlg1=           0
         NFxFlg=           0 DoJE=T BraDBF=F KetDBF=T FulRan=T
         wScrn=  0.000000 ICntrl=     500 IOpCl=  0 I1Cent=   200000004 NGrid=           0
         NMat0=    1 NMatS0=      1 NMatT0=    0 NMatD0=    1 NMtDS0=    0 NMtDT0=    0
 Symmetry not used in FoFCou.
 Keep R1 ints in memory in canonical form, NReq=2273610.
 Requested convergence on RMS density matrix=1.00D-08 within 128 cycles.
 Requested convergence on MAX density matrix=1.00D-06.
 Requested convergence on             energy=1.00D-06.
 No special actions if energy rises.
 Integral accuracy reduced to 1.0D-05 until final iterations.
 Initial convergence to 1.0D-05 achieved.  Increase integral accuracy.
 SCF Done:  E(RB3LYP) =  -231.097994668     A.U. after   13 cycles
            NFock= 13  Conv=0.47D-08     -V/T= 2.0059
 Calling FoFJK, ICntrl=      2127 FMM=F ISym2X=0 I1Cent= 0 IOpClX= 0 NMat=1 NMatS=1 NMatT=0.
 -------------------------------------------------------------------
 Center     Atomic                   Forces (Hartrees/Bohr)
 Number     Number              X              Y              Z
 -------------------------------------------------------------------
      1        6          -0.000036950   -0.000148189   -0.002790301
      2        6          -0.000162990    0.005036947   -0.007978439
      3        1           0.002357587   -0.003359650    0.006299639
      4        6          -0.007699228   -0.002415080    0.005871541
      5        1           0.001718527   -0.000311736   -0.000737229
      6        1           0.002116084    0.000769700   -0.000014905
      7        8           0.002882581    0.000386204   -0.000594785
      8        6          -0.000045522   -0.000177928    0.000324171
      9        1          -0.000366535   -0.000133589   -0.000947694
     10        1          -0.000390540   -0.000547828    0.000866260
     11        1          -0.000373015    0.000901149   -0.000298257
 -------------------------------------------------------------------
 Cartesian Forces:  Max     0.007978439 RMS     0.002880907

 GradGradGradGradGradGradGradGradGradGradGradGradGradGradGradGradGradGrad
 Berny optimization.
 Using GEDIIS/GDIIS optimizer.
 FormGI is forming the generalized inverse of G from B-inverse, IUseBI=4.
 Internal  Forces:  Max     0.015099538 RMS     0.003366938
 Search for a local minimum.
 Step number   6 out of a maximum of   43
 All quantities printed in internal units (Hartrees-Bohrs-Radians)
 Mixed Optimization -- RFO/linear search
 Update second derivatives using D2CorX and points    1    2    4    3    6
                                                      5
 DE=  2.08D-03 DEPred=-2.33D-04 R=-8.91D+00
 Trust test=-8.91D+00 RLast= 2.53D-01 DXMaxT set to 1.26D-01
 ITU= -1  0 -1  1  1  0
 Use linear search instead of GDIIS.
 Energy rises -- skip Quadratic/GDIIS search.
 Quartic linear search produced a step of -0.92392.
 Iteration  1 RMS(Cart)=  0.08352407 RMS(Int)=  0.01031988
 Iteration  2 RMS(Cart)=  0.01292069 RMS(Int)=  0.00025323
 Iteration  3 RMS(Cart)=  0.00028305 RMS(Int)=  0.00000321
 Iteration  4 RMS(Cart)=  0.00000017 RMS(Int)=  0.00000320
 Variable       Old X    -DE/DX   Delta X   Delta X   Delta X     New X
                                 (Linear)    (Quad)   (Total)
    R1        2.28881   0.00231   0.00191   0.00000   0.00191   2.29072
    R2        2.74399   0.00211   0.00811   0.00000   0.00811   2.75210
    R3        2.01193   0.00034   0.00004   0.00000   0.00004   2.01198
    R4        2.09055  -0.00138  -0.00375   0.00000  -0.00375   2.08681
    R5        2.09061  -0.00148  -0.00376   0.00000  -0.00376   2.08685
    R6        2.75712   0.00017  -0.00877   0.00000  -0.00877   2.74835
    R7        2.73896   0.00118   0.00311   0.00000   0.00311   2.74207
    R8        2.08194  -0.00067   0.00015   0.00000   0.00015   2.08208
    R9        2.06314  -0.00091   0.00023   0.00000   0.00023   2.06337
   R10        2.08196  -0.00067   0.00015   0.00000   0.00015   2.08210
    A1        1.93989  -0.00021  -0.01350   0.00000  -0.01350   1.92639
    A2        1.94036  -0.00074  -0.01393   0.00000  -0.01393   1.92643
    A3        1.91470  -0.00308  -0.00436   0.00000  -0.00435   1.91035
    A4        1.85241   0.00088   0.01531   0.00000   0.01532   1.86773
    A5        1.90760   0.00160   0.00865   0.00000   0.00866   1.91625
    A6        1.90768   0.00177   0.00868   0.00000   0.00868   1.91637
    A7        1.95704   0.00062   0.00667   0.00000   0.00667   1.96372
    A8        1.94302   0.00084   0.00372   0.00000   0.00372   1.94674
    A9        1.84612   0.00042  -0.00185   0.00000  -0.00185   1.84427
   A10        1.94312   0.00084   0.00368   0.00000   0.00368   1.94680
   A11        1.91583  -0.00084  -0.00364   0.00000  -0.00364   1.91219
   A12        1.89954  -0.00046   0.00136   0.00000   0.00136   1.90090
   A13        1.91572  -0.00082  -0.00361   0.00000  -0.00361   1.91211
   A14        3.07773   0.01011   0.06891   0.00000   0.06891   3.14664
   A15        2.92160   0.01510   0.21686   0.00000   0.21686   3.13846
   A16        3.10350   0.00139   0.03698   0.00000   0.03698   3.14048
   A17        3.14597  -0.00042  -0.00434   0.00000  -0.00434   3.14163
    D1       -3.14096  -0.00016  -0.00050   0.00000  -0.00050  -3.14145
    D2       -1.00989  -0.00135  -0.01447   0.00000  -0.01446  -1.02435
    D3        1.01053   0.00158   0.01400   0.00000   0.01399   1.02451
    D4        1.06118   0.00028   0.00363   0.00000   0.00362   1.06481
    D5        3.14132  -0.00002   0.00013   0.00000   0.00013   3.14145
    D6       -1.06181  -0.00030  -0.00334   0.00000  -0.00334  -1.06515
         Item               Value     Threshold  Converged?
 Maximum Force            0.015100     0.000450     NO 
 RMS     Force            0.003367     0.000300     NO 
 Maximum Displacement     0.349922     0.001800     NO 
 RMS     Displacement     0.090737     0.001200     NO 
 Predicted change in Energy=-1.514876D-05
 GradGradGradGradGradGradGradGradGradGradGradGradGradGradGradGradGradGrad

                          Input orientation:                          
 ---------------------------------------------------------------------
 Center     Atomic      Atomic             Coordinates (Angstroms)
 Number     Number       Type             X           Y           Z
 ---------------------------------------------------------------------
      1          6           0       -0.289263    1.043487   -0.000243
      2          6           0        0.922670    1.056760   -0.021735
      3          1           0        1.987056    1.070171   -0.043453
      4          6           0       -1.745125    1.022855    0.031307
      5          1           0       -2.116122    1.487328    0.961945
      6          1           0       -2.115267   -0.017516    0.019586
      7          8           0       -2.264845    1.743650   -1.120003
      8          6           0       -3.715338    1.764354   -1.154092
      9          1           0       -4.133695    2.266317   -0.266986
     10          1           0       -3.981228    2.326492   -2.051604
     11          1           0       -4.133079    0.746879   -1.218932
 ---------------------------------------------------------------------
                    Distance matrix (angstroms):
                    1          2          3          4          5
     1  C    0.000000
     2  C    1.212196   0.000000
     3  H    2.276886   1.064692   0.000000
     4  C    1.456350   2.668538   3.733230   0.000000
     5  H    2.111921   3.222929   4.245105   1.104291   0.000000
     6  H    2.111968   3.222551   4.244537   1.104315   1.775555
     7  O    2.376345   3.440678   4.437477   1.454362   2.102932
     8  C    3.686327   4.826390   5.850872   2.415933   2.666804
     9  H    4.043034   5.204806   6.240539   2.709325   2.487508
    10  H    4.414158   5.457179   6.421170   3.322371   3.642018
    11  H    4.043278   5.204796   6.240378   2.709535   3.061470
                    6          7          8          9         10
     6  H    0.000000
     7  O    2.103031   0.000000
     8  C    2.666984   1.451041   0.000000
     9  H    3.061383   2.119768   1.101792   0.000000
    10  H    3.642254   2.038027   1.091891   1.792130   0.000000
    11  H    2.487929   2.119820   1.101802   1.793012   1.792088
                   11
    11  H    0.000000
 Symmetry turned off by external request.
 Stoichiometry    C4H6O
 Framework group  C1[X(C4H6O)]
 Deg. of freedom    27
 Full point group                 C1      NOp   1
 Rotational constants (GHZ):     27.7808670      2.3704723      2.2464095
 Standard basis: 6-31G (6D, 7F)
    57 basis functions,   134 primitive gaussians,    57 cartesian basis functions
    19 alpha electrons       19 beta electrons
       nuclear repulsion energy       154.7161508276 Hartrees.
 NAtoms=   11 NActive=   11 NUniq=   11 SFac= 1.00D+00 NAtFMM=   60 NAOKFM=F Big=F
 Integral buffers will be    131072 words long.
 Raffenetti 2 integral format.
 Two-electron integral symmetry is turned off.
 Nuclear repulsion after empirical dispersion term =      154.7114455228 Hartrees.
 One-electron integrals computed using PRISM.
 NBasis=    57 RedAO= T EigKep=  5.03D-04  NBF=    57
 NBsUse=    57 1.00D-06 EigRej= -1.00D+00 NBFU=    57
 Lowest energy guess from the checkpoint file:  "E:\PROJECT- VIT group\ML\Substrates\molecule_17.chk"
 B after Tr=    -0.001941   -0.003629    0.007561
         Rot=    1.000000    0.000068    0.000506    0.000303 Ang=   0.07 deg.
 B after Tr=     0.016598    0.040467   -0.089528
         Rot=    0.999976   -0.000250   -0.006149   -0.003294 Ang=  -0.80 deg.
 Keep R1 ints in memory in canonical form, NReq=2273610.
 Requested convergence on RMS density matrix=1.00D-08 within 128 cycles.
 Requested convergence on MAX density matrix=1.00D-06.
 Requested convergence on             energy=1.00D-06.
 No special actions if energy rises.
 Integral accuracy reduced to 1.0D-05 until final iterations.
 Initial convergence to 1.0D-05 achieved.  Increase integral accuracy.
 SCF Done:  E(RB3LYP) =  -231.100087162     A.U. after   10 cycles
            NFock= 10  Conv=0.62D-08     -V/T= 2.0059
 Calling FoFJK, ICntrl=      2127 FMM=F ISym2X=0 I1Cent= 0 IOpClX= 0 NMat=1 NMatS=1 NMatT=0.
 -------------------------------------------------------------------
 Center     Atomic                   Forces (Hartrees/Bohr)
 Number     Number              X              Y              Z
 -------------------------------------------------------------------
      1        6           0.002155316   -0.000062344    0.000026451
      2        6          -0.001390462   -0.000026234    0.000057808
      3        1          -0.000156219    0.000004760    0.000008084
      4        6          -0.000621257   -0.000967180    0.001593260
      5        1           0.000303745   -0.000432039   -0.000184362
      6        1           0.000319200    0.000360870    0.000290113
      7        8          -0.000756638    0.001007815   -0.001626244
      8        6           0.000121826    0.000241979   -0.000374818
      9        1           0.000153068   -0.000408525   -0.000691493
     10        1          -0.000287674   -0.000519692    0.000839608
     11        1           0.000159092    0.000800589    0.000061593
 -------------------------------------------------------------------
 Cartesian Forces:  Max     0.002155316 RMS     0.000737399

 GradGradGradGradGradGradGradGradGradGradGradGradGradGradGradGradGradGrad
 Berny optimization.
 Using GEDIIS/GDIIS optimizer.
 FormGI is forming the generalized inverse of G from B-inverse, IUseBI=4.
 GSVD:  received Info=                   1 from GESDD.
 Internal  Forces:  Max     0.002190192 RMS     0.000593194
 Search for a local minimum.
 Step number   7 out of a maximum of   43
 All quantities printed in internal units (Hartrees-Bohrs-Radians)
 Mixed Optimization -- En-DIIS/RFO-DIIS
 Update second derivatives using D2CorX and points    1    2    4    3    6
                                                      5    7
 ITU=  0 -1  0 -1  1  1  0
 Use linear search instead of GDIIS.
     Eigenvalues ---    0.00240   0.00618   0.01295   0.01295   0.05003
     Eigenvalues ---    0.09098   0.09493   0.10121   0.10253   0.10607
     Eigenvalues ---    0.15992   0.16000   0.16005   0.16122   0.17192
     Eigenvalues ---    0.23290   0.24978   0.28330   0.36201   0.37230
     Eigenvalues ---    0.37230   0.37257   0.37443   0.38398   0.39515
     Eigenvalues ---    0.42256   1.07256
 RFO step:  Lambda=-3.15303933D-05 EMin= 2.39615421D-03
[...]
 Sum of electronic and thermal Free Energies=         -231.039694
 
                     E (Thermal)             CV                S
                      KCal/Mol        Cal/Mol-Kelvin    Cal/Mol-Kelvin
 Total                   59.920             20.030             75.815
 Electronic               0.000              0.000              0.000
 Translational            0.889              2.981             38.657
 Rotational               0.889              2.981             25.191
 Vibrational             58.142             14.068             11.967
 Vibration     1          0.601              1.957              3.696
 Vibration     2          0.627              1.875              2.394
 Vibration     3          0.650              1.801              1.906
 Vibration     4          0.732              1.561              1.136
 Vibration     5          0.746              1.523              1.059
 Vibration     6          0.883              1.189              0.592
                       Q            Log10(Q)             Ln(Q)
 Total Bot       0.163433D-27        -27.786660        -63.981148
 Total V=0       0.223044D+14         13.348391         30.735806
 Vib (Bot)       0.992841D-40        -40.003120        -92.110588
 Vib (Bot)    1  0.232793D+01          0.366969          0.844978
 Vib (Bot)    2  0.115796D+01          0.063694          0.146660
 Vib (Bot)    3  0.870594D+00         -0.060184         -0.138579
 Vib (Bot)    4  0.514775D+00         -0.288383         -0.664026
 Vib (Bot)    5  0.483538D+00         -0.315570         -0.726626
 Vib (Bot)    6  0.303695D+00         -0.517563         -1.191733
 Vib (V=0)       0.135497D+02          1.131931          2.606366
 Vib (V=0)    1  0.288102D+01          0.459546          1.058143
 Vib (V=0)    2  0.176130D+01          0.245833          0.566051
 Vib (V=0)    3  0.150396D+01          0.177236          0.408101
 Vib (V=0)    4  0.121763D+01          0.085515          0.196907
 Vib (V=0)    5  0.119556D+01          0.077573          0.178618
 Vib (V=0)    6  0.108500D+01          0.035432          0.081584
 Electronic      0.100000D+01          0.000000          0.000000
 Translational   0.230405D+08          7.362492         16.952764
 Rotational      0.714445D+05          4.853969         11.176676
 -------------------------------------------------------------------
 Center     Atomic                   Forces (Hartrees/Bohr)
 Number     Number              X              Y              Z
 -------------------------------------------------------------------
      1        6          -0.000060656    0.000009052   -0.000010130
      2        6           0.000103857   -0.000004905    0.000003921
      3        1           0.000013225    0.000006579   -0.000004408
      4        6          -0.000062308   -0.000184314    0.000291004
      5        1           0.000035437    0.000025344   -0.000094934
      6        1           0.000036768    0.000070283   -0.000073311
      7        8          -0.000049603    0.000060929   -0.000092956
      8        6           0.000014090   -0.000018290    0.000031226
      9        1          -0.000004333    0.000023235    0.000027611
     10        1          -0.000023305    0.000045039   -0.000063526
     11        1          -0.000003171   -0.000032953   -0.000014497
 -------------------------------------------------------------------
 Cartesian Forces:  Max     0.000291004 RMS     0.000074994
 FormGI is forming the generalized inverse of G from B-inverse, IUseBI=4.

 GradGradGradGradGradGradGradGradGradGradGradGradGradGradGradGradGradGrad
 Berny optimization.
 Internal  Forces:  Max     0.000149044 RMS     0.000050386
 Search for a local minimum.
 Step number   1 out of a maximum of    2
 All quantities printed in internal units (Hartrees-Bohrs-Radians)
 Second derivative matrix not updated -- analytic derivatives used.
 ITU=  0
     Eigenvalues ---    0.00513   0.00598   0.00984   0.03071   0.05155
     Eigenvalues ---    0.09114   0.09153   0.09185   0.09820   0.11145
     Eigenvalues ---    0.12710   0.13806   0.17581   0.17887   0.18605
     Eigenvalues ---    0.20572   0.23108   0.31323   0.31914   0.32411
     Eigenvalues ---    0.32778   0.33691   0.35312   0.36747   0.40674
     Eigenvalues ---    0.41948   1.10727
 Angle between quadratic step and forces=  32.99 degrees.
 Linear search not attempted -- first point.
 Iteration  1 RMS(Cart)=  0.00042986 RMS(Int)=  0.00000014
 Iteration  2 RMS(Cart)=  0.00000024 RMS(Int)=  0.00000005
 Variable       Old X    -DE/DX   Delta X   Delta X   Delta X     New X
                                 (Linear)    (Quad)   (Total)
    R1        2.28923   0.00012   0.00000   0.00011   0.00011   2.28933
    R2        2.75336   0.00006   0.00000   0.00015   0.00015   2.75351
    R3        2.01154   0.00001   0.00000   0.00004   0.00004   2.01158
    R4        2.08534  -0.00008   0.00000  -0.00035  -0.00035   2.08499
    R5        2.08535  -0.00008   0.00000  -0.00035  -0.00035   2.08501
    R6        2.75522   0.00015   0.00000   0.00081   0.00081   2.75603
    R7        2.74127   0.00002   0.00000   0.00004   0.00004   2.74131
    R8        2.07973   0.00003   0.00000   0.00010   0.00010   2.07983
    R9        2.06076   0.00008   0.00000   0.00024   0.00024   2.06100
   R10        2.07975   0.00003   0.00000   0.00010   0.00010   2.07985
    A1        1.92570   0.00002   0.00000   0.00013   0.00013   1.92583
    A2        1.92565   0.00002   0.00000   0.00014   0.00014   1.92579
    A3        1.91027  -0.00004   0.00000  -0.00040  -0.00040   1.90987
    A4        1.86671   0.00010   0.00000   0.00099   0.00099   1.86770
    A5        1.91759  -0.00005   0.00000  -0.00042  -0.00042   1.91717
    A6        1.91760  -0.00005   0.00000  -0.00042  -0.00042   1.91718
    A7        1.96115   0.00005   0.00000   0.00001   0.00001   1.96117
    A8        1.94753  -0.00001   0.00000  -0.00001  -0.00001   1.94753
    A9        1.84867   0.00001   0.00000  -0.00001  -0.00001   1.84866
   A10        1.94754  -0.00001   0.00000   0.00000   0.00000   1.94754
   A11        1.91017   0.00000   0.00000  -0.00006  -0.00006   1.91011
   A12        1.89900   0.00002   0.00000   0.00013   0.00013   1.89913
   A13        1.91011   0.00000   0.00000  -0.00006  -0.00006   1.91005
   A14        3.14804  -0.00002   0.00000  -0.00021  -0.00021   3.14782
   A15        3.13843  -0.00002   0.00000  -0.00023  -0.00023   3.13820
   A16        3.14136   0.00000   0.00000  -0.00005  -0.00005   3.14131
   A17        3.14174   0.00000   0.00000  -0.00013  -0.00013   3.14161
    D1       -3.14134   0.00000   0.00000   0.00009   0.00009  -3.14125
    D2       -1.02430  -0.00003   0.00000  -0.00027  -0.00027  -1.02456
    D3        1.02486   0.00003   0.00000   0.00044   0.00044   1.02529
    D4        1.06418   0.00000   0.00000   0.00009   0.00009   1.06427
    D5        3.14151   0.00000   0.00000   0.00001   0.00001   3.14152
    D6       -1.06442   0.00000   0.00000  -0.00007  -0.00007  -1.06449
         Item               Value     Threshold  Converged?
 Maximum Force            0.000149     0.000450     YES
 RMS     Force            0.000050     0.000300     YES
 Maximum Displacement     0.001134     0.001800     YES
 RMS     Displacement     0.000430     0.001200     YES
 Predicted change in Energy=-2.088186D-07
 Optimization completed.
    -- Stationary point found.
                           ----------------------------
                           !   Optimized Parameters   !
                           ! (Angstroms and Degrees)  !
 --------------------------                            --------------------------
 ! Name  Definition              Value          Derivative Info.                !
 --------------------------------------------------------------------------------
 ! R1    R(1,2)                  1.2114         -DE/DX =    0.0001              !
 ! R2    R(1,4)                  1.457          -DE/DX =    0.0001              !
 ! R3    R(2,3)                  1.0645         -DE/DX =    0.0                 !
 ! R4    R(4,5)                  1.1035         -DE/DX =   -0.0001              !
 ! R5    R(4,6)                  1.1035         -DE/DX =   -0.0001              !
 ! R6    R(4,7)                  1.458          -DE/DX =    0.0001              !
 ! R7    R(7,8)                  1.4506         -DE/DX =    0.0                 !
 ! R8    R(8,9)                  1.1005         -DE/DX =    0.0                 !
 ! R9    R(8,10)                 1.0905         -DE/DX =    0.0001              !
 ! R10   R(8,11)                 1.1006         -DE/DX =    0.0                 !
 ! A1    A(1,4,5)              110.3345         -DE/DX =    0.0                 !
 ! A2    A(1,4,6)              110.3316         -DE/DX =    0.0                 !
 ! A3    A(1,4,7)              109.4501         -DE/DX =    0.0                 !
 ! A4    A(5,4,6)              106.9548         -DE/DX =    0.0001              !
 ! A5    A(5,4,7)              109.8698         -DE/DX =   -0.0001              !
 ! A6    A(6,4,7)              109.8705         -DE/DX =   -0.0001              !
 ! A7    A(4,7,8)              112.3659         -DE/DX =    0.0                 !
 ! A8    A(7,8,9)              111.5855         -DE/DX =    0.0                 !
 ! A9    A(7,8,10)             105.9212         -DE/DX =    0.0                 !
 ! A10   A(7,8,11)             111.586          -DE/DX =    0.0                 !
 ! A11   A(9,8,10)             109.4449         -DE/DX =    0.0                 !
 ! A12   A(9,8,11)             108.8044         -DE/DX =    0.0                 !
 ! A13   A(10,8,11)            109.4413         -DE/DX =    0.0                 !
 ! A14   L(2,1,4,7,-1)         180.3692         -DE/DX =    0.0                 !
 ! A15   L(1,2,3,10,-1)        179.8187         -DE/DX =    0.0                 !
 ! A16   L(2,1,4,7,-2)         179.9868         -DE/DX =    0.0                 !
 ! A17   L(1,2,3,10,-2)        180.0082         -DE/DX =    0.0                 !
 ! D1    D(1,4,7,8)           -179.9855         -DE/DX =    0.0                 !
 ! D2    D(5,4,7,8)            -58.6878         -DE/DX =    0.0                 !
 ! D3    D(6,4,7,8)             58.72           -DE/DX =    0.0                 !
 ! D4    D(4,7,8,9)             60.973          -DE/DX =    0.0                 !
 ! D5    D(4,7,8,10)           179.9951         -DE/DX =    0.0                 !
 ! D6    D(4,7,8,11)           -60.9869         -DE/DX =    0.0                 !
 --------------------------------------------------------------------------------
 GradGradGradGradGradGradGradGradGradGradGradGradGradGradGradGradGradGrad

 1|1|UNPC-LAPTOP-H4OM2LBP|Freq|RB3LYP|6-31G|C4H6O1|SREEKALA P NAIR|13-S
 ep-2023|0||#N Geom=AllCheck Guess=TCheck SCRF=Check GenChk RB3LYP/6-31
 G Freq||molecule_17||0,1|C,-0.2880459712,1.043383412,-0.0007629922|C,0
 .923138432,1.055986555,-0.0203088846|H,1.9873340286,1.0687885468,-0.04
 03746672|C,-1.7445843075,1.023080297,0.0305983467|H,-2.1146029526,1.48
 64456222,0.961256432|H,-2.1138674141,-0.0167646412,0.0199272472|O,-2.2
 651670575,1.7457173477,-1.1237664239|C,-3.715321997,1.764966577,-1.154
 9213007|H,-4.1327410546,2.265355654,-0.2680315113|H,-3.9878951436,2.32
 53283106,-2.0498561865|H,-4.1324810325,0.7484887489,-1.2179689894||Ver
 sion=EM64W-G09RevD.01|HF=-231.1001041|RMSD=9.735e-010|RMSF=7.499e-005|
 ZeroPoint=0.0894304|Thermal=0.095488|Dipole=-0.5149954,-0.278988,0.445
 2844|DipoleDeriv=-0.1253808,0.0292996,-0.0468219,-0.0153725,-0.0549093
 ,0.0375389,0.0246562,0.037607,-0.0914208,-0.3750839,0.0021176,-0.00345
 44,0.0126649,-0.2927383,-0.0205661,-0.0203908,-0.0205824,-0.2727611,0.
 2138063,-0.0006755,0.0010585,-0.0013967,0.2421044,0.0078606,0.0022593,
 0.0078617,0.2344729,0.7759412,-0.0769225,0.1229678,-0.1986689,0.546272
 1,-0.083315,0.3174598,-0.083354,0.6272941,-0.0679084,0.0511106,0.07493
 74,0.0915946,-0.0080742,-0.0706141,-0.015873,-0.0380645,-0.1358335,-0.
 0677817,-0.0896178,-0.0132971,-0.0256954,-0.1542488,0.0328627,-0.08940
 69,0.0002142,0.0101899,-0.957093,0.1114085,-0.1782478,0.1657758,-0.507
 5799,0.0553469,-0.2649793,0.0554385,-0.5614201,0.7787374,-0.0789714,0.
 1263977,0.0200342,0.3651495,0.082058,-0.0317619,0.0820538,0.2854395,-0
 .0851803,0.0472212,0.009154,0.0332387,-0.0008892,-0.09033,0.121289,-0.
 1251277,-0.1119339,-0.0048621,0.0338967,-0.0541903,0.0414489,0.0404054
 ,0.0896472,-0.0662546,0.089625,-0.0466372,-0.0851947,-0.028867,-0.0385
 04,-0.1236236,-0.1754917,-0.040489,0.0230022,-0.0056716,0.0626101|Pola
 r=65.8531652,-2.5501799,29.0102444,4.091345,-1.5605485,30.527392|PG=C0
 1 [X(C4H6O1)]|NImag=0||1.46887178,0.01367280,0.09671282,-0.02107955,-0
 .00424610,0.10082873,-1.11730350,-0.01057591,0.01635073,1.54549564,-0.
 01156937,-0.03344240,0.00199351,0.01625752,0.04949225,0.01795748,0.001
 99497,-0.03537120,-0.02528137,-0.00410152,0.05346048,0.00964394,0.0000
 9447,-0.00014455,-0.42912917,-0.00477822,0.00747853,0.41941725,0.00001
 581,0.00192749,-0.00131333,-0.00472675,-0.02236547,0.00198834,0.004810
 45,0.01458288,-0.00002356,-0.00131345,0.00320295,0.00740193,0.00198841
 ,-0.02429028,-0.00753334,-0.00087406,0.01542564,-0.28694563,-0.0101276
 6,0.01601583,0.00040604,-0.00029948,0.00046402,-0.00020422,0.00027059,
 -0.00043761,0.55537360,-0.00945945,-0.07068240,-0.00292444,-0.00058470
 ,0.00549854,-0.00011288,0.00002163,0.00629149,0.00047712,0.02852393,0.
 50715197,0.01490956,-0.00292679,-0.06785045,0.00093909,-0.00011098,0.0
 0561196,-0.00003775,0.00047696,0.00582824,-0.04542511,0.05693986,0.451
 74039,-0.02117660,0.01554319,0.02861167,-0.00078136,-0.00042577,-0.000
 47928,0.00003036,-0.00063019,-0.00112321,-0.07773602,0.03521886,0.0682
 1402,0.08764796,-0.00089129,0.00286980,0.00215176,-0.00054373,0.000340
 97,-0.00001655,-0.00006956,-0.00009666,-0.00021706,0.03562238,-0.10096
 000,-0.09120163,-0.04051185,0.10529028,0.00393927,-0.00106752,0.002538
 01,-0.00147536,-0.00022484,0.00000460,0.00003699,0.00001157,-0.0001736
 0,0.06513639,-0.08934490,-0.20513562,-0.07102154,0.09284052,0.23933934
 ,-0.02115384,-0.03253179,-0.00150522,-0.00078039,0.00061867,0.00017416
 ,0.00003093,0.00128682,0.00007650,-0.07765700,-0.07663802,-0.00192530,
 0.00565949,0.01025122,0.00243910,0.08763875,-0.00316574,0.00299217,-0.
 00114312,0.00156293,-0.00002544,-0.00004620,-0.00000305,-0.00023922,0.
 00008101,-0.07407240,-0.25631091,-0.01401879,-0.00665807,-0.01524058,-
 0.00297504,0.08149618,0.28683852,0.00251399,0.00207019,0.00236594,-0.0
 0015614,0.00016071,0.00037037,0.00007875,-0.00014708,-0.00003140,-0.00
 361344,-0.01584818,-0.04991249,-0.00812650,-0.02769792,-0.00034204,0.0
 0543760,0.00479661,0.05790122,-0.02923300,0.02174045,-0.03475973,-0.00
 013863,0.00010997,-0.00017597,0.00031190,-0.00098172,0.00156759,-0.080
 51330,0.02793477,-0.04467251,0.00232988,-0.00108893,-0.00065196,0.0022
 7814,0.00107104,0.00067405,0.38705598,0.00973865,0.00104639,0.00225649
 ,-0.00173057,0.00023341,0.00029037,-0.00008953,-0.00012875,0.00006115,
 -0.00550193,-0.08906886,0.04839769,-0.00128605,0.00738961,0.00131776,0
 .01383992,-0.01900344,0.03741489,-0.03512849,0.15235926,-0.01556715,0.
 00225963,-0.00115467,0.00276674,0.00029252,-0.00005102,0.00014336,0.00
 006081,-0.00018716,0.00873780,0.04839484,-0.13599656,-0.01478431,0.024
 60515,-0.03779229,-0.00526763,0.01414345,-0.01141877,0.05616371,-0.104
 42620,0.25379704,-0.00242086,0.00078899,-0.00125827,0.00275542,0.00018
 108,-0.00028819,-0.00025113,0.00001132,-0.00001836,-0.03210281,0.00328
 479,-0.00524193,0.00399113,-0.00292735,0.00487714,0.00393473,-0.003068
 11,0.00474848,-0.19173648,0.01338228,-0.02130604,0.42497968,0.00150196
 ,-0.00211255,0.00293692,0.00047296,0.00032320,-0.00004806,0.00000437,0
 .00007621,-0.00017359,0.02485298,-0.00512580,0.00501225,-0.00169325,0.
 00091992,-0.00118973,0.00351818,0.00065063,0.00108044,-0.01328255,-0.0
 6497945,0.01034348,-0.00685791,0.57253908,-0.00239844,0.00294016,-0.00
 496902,-0.00075552,-0.00004918,0.00037046,-0.00000697,-0.00017372,0.00
 024485,-0.03966496,0.00500117,-0.00999560,-0.00309475,0.00095719,0.000
 67369,0.00015432,-0.00105078,0.00097466,0.02129270,0.01038774,-0.07512
 976,0.01066584,-0.03009868,0.60196177,0.00010545,-0.00001319,-0.000334
 75,0.00001592,-0.00010621,-0.00007005,0.00005022,0.00003743,0.00003440
 ,0.00262261,-0.00192196,0.00684707,0.00032768,-0.00011645,-0.00229713,
 -0.00031831,0.00043823,-0.00080013,-0.03422433,0.01684121,0.02596228,-
 0.07612319,0.03798232,0.06383180,0.09584978,-0.00012550,-0.00004447,0.
 00033219,-0.00010094,0.00000825,0.00002955,-0.00000223,-0.00000158,-0.
 00004453,-0.00009067,-0.00002693,-0.00149137,0.00039428,-0.00012060,0.
 00057706,-0.00004332,-0.00036294,-0.00021251,0.00235161,0.00489403,0.0
 0226961,0.03795632,-0.10748850,-0.09238150,-0.04422925,0.10896920,-0.0
 0012262,-0.00000219,0.00020735,0.00020517,0.00001932,-0.00001536,-0.00
 002307,-0.00000515,-0.00002306,-0.00167405,0.00122921,0.00298027,0.001
 53654,-0.00118916,0.00060072,0.00000163,-0.00024594,-0.00016068,0.0025
 8824,0.00310181,0.00448656,0.06639815,-0.09195340,-0.21733071,-0.07890
 451,0.10326913,0.23137072,-0.00049252,0.00110218,-0.00176064,-0.000555
 46,-0.00009762,0.00015552,0.00004965,-0.00004648,0.00007427,-0.0058693
 3,-0.00104811,0.00167258,0.00004243,-0.00023821,-0.00022831,0.00004226
 ,0.00030932,0.00011562,-0.02185953,0.02069624,-0.03303245,-0.05705183,
 0.02737507,-0.04370765,0.00463571,-0.00614943,0.00906050,0.07643387,0.
 00011725,0.00044478,0.00012041,0.00010979,-0.00007187,0.00000253,-0.00
 001008,-0.00000786,0.00000231,-0.00069408,0.00093447,-0.00117545,0.000
 01058,-0.00002067,0.00027838,-0.00020660,0.00045150,-0.00024024,0.0006
 2061,0.00055760,-0.00016257,0.03348000,-0.12600688,0.11816642,-0.00369
 523,0.00880237,-0.01484565,-0.03644676,0.12973981,-0.00018771,0.000120
 43,0.00032780,-0.00017557,0.00000249,-0.00007435,0.00001613,0.00000230
 ,-0.00001006,0.00110672,-0.00117550,0.00207494,0.00022363,-0.00001010,
 0.00043366,0.00008864,0.00004935,-0.00003864,-0.00099788,-0.00016559,0
 .00072856,-0.05342895,0.11817269,-0.24076971,-0.00566783,0.01507972,-0
 .02050233,0.05816641,-0.12869215,0.25470737,0.00010479,0.00030648,-0.0
 0013552,0.00001550,0.00010943,0.00006515,0.00005027,-0.00004729,-0.000
 01861,0.00262605,-0.00533174,0.00472029,-0.00033496,0.00051377,-0.0007
 5458,0.00032524,0.00208968,-0.00087229,-0.03427064,-0.03076173,-0.0038
 1632,-0.07597465,-0.07387412,-0.00631637,0.00705847,0.01003912,0.00093
 401,0.00462475,0.00671452,0.00085640,0.09577518,0.00016488,0.00028836,
 -0.00016429,-0.00014059,0.00000856,0.00001945,0.00002175,-0.00003852,0
 .00001270,0.00151635,0.00229842,0.00009825,0.00003828,-0.00037206,-0.0
 0022326,-0.00159125,0.00024970,-0.00137691,-0.00334675,0.00670021,0.00
 221929,-0.07623143,-0.26879588,-0.01369883,-0.00521690,-0.01462884,0.0
 0062202,-0.00545621,-0.01482327,-0.00338365,0.09024188,0.28911331,0.00
 005872,0.00017067,-0.00012544,0.00018029,0.00002957,-0.00001567,-0.000
 00808,-0.00002665,0.00001387,-0.00064560,-0.00263630,0.00065493,0.0000
 4373,-0.00022219,-0.00014648,0.00032619,0.00040946,0.00029183,-0.00102
 823,0.00136390,0.00271808,-0.00514787,-0.01408232,-0.05603063,-0.00860
 117,-0.02742736,-0.00161348,0.00948416,0.02654601,0.00312277,0.0053378
 5,0.01587523,0.05113021||0.00006066,-0.00000905,0.00001013,-0.00010386
 ,0.00000490,-0.00000392,-0.00001323,-0.00000658,0.00000441,0.00006231,
 0.00018431,-0.00029100,-0.00003544,-0.00002534,0.00009493,-0.00003677,
 -0.00007028,0.00007331,0.00004960,-0.00006093,0.00009296,-0.00001409,0
 .00001829,-0.00003123,0.00000433,-0.00002324,-0.00002761,0.00002331,-0
 .00004504,0.00006353,0.00000317,0.00003295,0.00001450|||@


 WOE UNTO THEM THAT CALL EVIL GOOD, AND GOOD EVIL      
 Job cpu time:       0 days  0 hours  0 minutes 46.0 seconds.
 File lengths (MBytes):  RWF=      8 Int=      0 D2E=      0 Chk=      1 Scr=      1
 Normal termination of Gaussian 09 at Wed Sep 13 19:41:04 2023.
