 Entering Link 1 = C:\G09W\l1.exe PID=     18716.
  
 Copyright (c) 1988,1990,1992,1993,1995,1998,2003,2009,2013,
            Gaussian, Inc.  All Rights Reserved.
  
 This is part of the Gaussian(R) 09 program.  It is based on
 the Gaussian(R) 03 system (copyright 2003, Gaussian, Inc.),
 the Gaussian(R) 98 system (copyright 1998, Gaussian, Inc.),
 the Gaussian(R) 94 system (copyright 1995, Gaussian, Inc.),
 the Gaussian 92(TM) system (copyright 1992, Gaussian, Inc.),
 the Gaussian 90(TM) system (copyright 1990, Gaussian, Inc.),
 the Gaussian 88(TM) system (copyright 1988, Gaussian, Inc.),
 the Gaussian 86(TM) system (copyright 1986, Carnegie Mellon
 University), and the Gaussian 82(TM) system (copyright 1983,
 Carnegie Mellon University). Gaussian is a federally registered
 trademark of Gaussian, Inc.
  
 This software contains proprietary and confidential information,
 including trade secrets, belonging to Gaussian, Inc.
  
 This software is provided under written license and may be
 used, copied, transmitted, or stored only in accord with that
 written license.
  
 The following legend is applicable only to US Government
 contracts under FAR:
  
                    RESTRICTED RIGHTS LEGEND
  
 Use, reproduction and disclosure by the US Government is
 subject to restrictions as set forth in subparagraphs (a)
 and (c) of the Commercial Computer Software - Restricted
 Rights clause in FAR 52.227-19.
  
 Gaussian, Inc.
 340 Quinnipiac St., Bldg. 40, Wallingford CT 06492
  
  
 ---------------------------------------------------------------
 Warning -- This program may not be used in any manner that
 competes with the business of Gaussian, Inc. or will provide
 assistance to any competitor of Gaussian, Inc.  The licensee
 of this program is prohibited from giving any competitor of
 Gaussian, Inc. access to this program.  By using this program,
 the user acknowledges that Gaussian, Inc. is engaged in the
 business of creating and licensing software in the field of
 computational chemistry and represents and warrants to the
 licensee that it is not a competitor of Gaussian, Inc. and that
 it will not use this program in any manner prohibited above.
 ---------------------------------------------------------------
  

 Cite this work as:
 Gaussian 09, Revision D.01,
 M. J. Frisch, G. W. Trucks, H. B. Schlegel, G. E. Scuseria, 
 M. A. Robb, J. R. Cheeseman, G. Scalmani, V. Barone, B. Mennucci, 
 G. A. Petersson, H. Nakatsuji, M. Caricato, X. Li, H. P. Hratchian, 
 A. F. Izmaylov, J. Bloino, G. Zheng, J. L. Sonnenberg, M. Hada, 
 M. Ehara, K. Toyota, R. Fukuda, J. Hasegawa, M. Ishida, T. Nakajima, 
 Y. Honda, O. Kitao, H. Nakai, T. Vreven, J. A. Montgomery, Jr., 
 J. E. Peralta, F. Ogliaro, M. Bearpark, J. J. Heyd, E. Brothers, 
 K. N. Kudin, V. N. Staroverov, T. Keith, R. Kobayashi, J. Normand, 
 K. Raghavachari, A. Rendell, J. C. Burant, S. S. Iyengar, J. Tomasi, 
 M. Cossi, N. Rega, J. M. Millam, M. Klene, J. E. Knox, J. B. Cross, 
 V. Bakken, C. Adamo, J. Jaramillo, R. Gomperts, R. E. Stratmann, 
 O. Yazyev, A. J. Austin, R. Cammi, C. Pomelli, J. W. Ochterski, 
 R. L. Martin, K. Morokuma, V. G. Zakrzewski, G. A. Voth, 
 P. Salvador, J. J. Dannenberg, S. Dapprich, A. D. Daniels, 
 O. Farkas, J. B. Foresman, J. V. Ortiz, J. Cioslowski, 
 and D. J. Fox, Gaussian, Inc., Wallingford CT, 2013.
 
 ******************************************
 Gaussian 09:  EM64W-G09RevD.01 13-Apr-2013
                13-Sep-2023 
 ******************************************
 %nprocshared=2
 Will use up to    2 processors via shared memory.
 %mem=2GB
 %chk=E:\PROJECT- VIT group\ML\Substrates\molecule_14.chk
 -----------------------------------------------------
 # opt freq b3lyp/6-31g nosymm empiricaldispersion=gd3
 -----------------------------------------------------
 1/14=-1,18=20,19=15,26=3,38=1/1,3;
 2/9=110,12=2,15=1,17=6,18=5,40=1/2;
 3/5=1,6=6,11=2,16=1,25=1,30=1,71=1,74=-5,124=31/1,2,3;
 4//1;
 5/5=2,38=5/2;
 6/7=2,8=2,9=2,10=2,28=1/1;
 7/30=1/1,2,3,16;
 1/14=-1,18=20,19=15,26=3/3(2);
 2/9=110,15=1/2;
 99//99;
 2/9=110,15=1/2;
 3/5=1,6=6,11=2,16=1,25=1,30=1,71=1,74=-5,124=31/1,2,3;
 4/5=5,16=3,69=1/1;
 5/5=2,38=5/2;
 7/30=1/1,2,3,16;
 1/14=-1,18=20,19=15,26=3/3(-5);
 2/9=110,15=1/2;
 6/7=2,8=2,9=2,10=2,19=2,28=1/1;
 99/9=1/99;
 -----------
 molecule_10
 -----------
 Symbolic Z-matrix:
 Charge =  0 Multiplicity = 1
 C                    -0.82362  -0.62321   0.24732 
 C                     0.57772  -0.63177   0.23816 
 C                     1.28396   0.54994  -0.024 
 C                     0.58884   1.74021  -0.27699 
 C                    -0.8125    1.74877  -0.26782 
 C                    -1.51873   0.56706  -0.00566 
 H                    -1.36284  -1.52547   0.44749 
 H                     1.10846  -1.54056   0.43132 
 H                     1.12806   2.64247  -0.47715 
 H                    -1.34324   2.65756  -0.46098 
 C                    -5.15513   1.77529  -0.23941 
 C                    -5.16625  -0.59669   0.27573 
 C                    -5.86136   0.59358   0.02274 
 H                    -5.46216   2.49554   0.48988 
 H                    -5.49156  -1.31308  -0.44943 
 B                    -3.05867   0.57646   0.00441 
 H                    -5.47543   2.12925  -1.19703 
 H                    -5.47829  -0.94678   1.23748 
 C                    -6.78102   0.33554  -1.18525 
 H                    -7.40259  -0.51222  -0.98564 
 H                    -7.39459   1.19526  -1.35647 
 H                    -6.18486   0.1443   -2.05296 
 C                    -6.76192   0.86273   1.24263 
 H                    -7.37566   1.71804   1.0511 
 H                    -7.38366   0.01056   1.42193 
 H                    -6.15218   1.04661   2.10246 
 O                    -3.75378   1.76673  -0.24858 
 O                    -3.7649   -0.60525   0.26656 
 F                     2.6339    0.5417   -0.03283 
 

 GradGradGradGradGradGradGradGradGradGradGradGradGradGradGradGradGradGrad
 Berny optimization.
 Initialization pass.
                           ----------------------------
                           !    Initial Parameters    !
                           ! (Angstroms and Degrees)  !
 --------------------------                            --------------------------
 ! Name  Definition              Value          Derivative Info.                !
 --------------------------------------------------------------------------------
 ! R1    R(1,2)                  1.4014         estimate D2E/DX2                !
 ! R2    R(1,6)                  1.4014         estimate D2E/DX2                !
 ! R3    R(1,7)                  1.07           estimate D2E/DX2                !
 ! R4    R(2,3)                  1.4014         estimate D2E/DX2                !
 ! R5    R(2,8)                  1.07           estimate D2E/DX2                !
 ! R6    R(3,4)                  1.4014         estimate D2E/DX2                !
 ! R7    R(3,29)                 1.35           estimate D2E/DX2                !
 ! R8    R(4,5)                  1.4014         estimate D2E/DX2                !
 ! R9    R(4,9)                  1.07           estimate D2E/DX2                !
 ! R10   R(5,6)                  1.4014         estimate D2E/DX2                !
 ! R11   R(5,10)                 1.07           estimate D2E/DX2                !
 ! R12   R(6,16)                 1.54           estimate D2E/DX2                !
 ! R13   R(11,13)                1.4014         estimate D2E/DX2                !
 ! R14   R(11,14)                1.07           estimate D2E/DX2                !
 ! R15   R(11,17)                1.07           estimate D2E/DX2                !
 ! R16   R(11,27)                1.4014         estimate D2E/DX2                !
 ! R17   R(12,13)                1.4014         estimate D2E/DX2                !
 ! R18   R(12,15)                1.07           estimate D2E/DX2                !
 ! R19   R(12,18)                1.07           estimate D2E/DX2                !
 ! R20   R(12,28)                1.4014         estimate D2E/DX2                !
 ! R21   R(13,19)                1.54           estimate D2E/DX2                !
 ! R22   R(13,23)                1.54           estimate D2E/DX2                !
 ! R23   R(16,27)                1.4014         estimate D2E/DX2                !
 ! R24   R(16,28)                1.4014         estimate D2E/DX2                !
 ! R25   R(19,20)                1.07           estimate D2E/DX2                !
 ! R26   R(19,21)                1.07           estimate D2E/DX2                !
 ! R27   R(19,22)                1.07           estimate D2E/DX2                !
 ! R28   R(23,24)                1.07           estimate D2E/DX2                !
 ! R29   R(23,25)                1.07           estimate D2E/DX2                !
 ! R30   R(23,26)                1.07           estimate D2E/DX2                !
 ! A1    A(2,1,6)              120.0            estimate D2E/DX2                !
 ! A2    A(2,1,7)              120.0            estimate D2E/DX2                !
 ! A3    A(6,1,7)              120.0            estimate D2E/DX2                !
 ! A4    A(1,2,3)              120.0            estimate D2E/DX2                !
 ! A5    A(1,2,8)              120.0            estimate D2E/DX2                !
 ! A6    A(3,2,8)              120.0            estimate D2E/DX2                !
 ! A7    A(2,3,4)              120.0            estimate D2E/DX2                !
 ! A8    A(2,3,29)             120.0            estimate D2E/DX2                !
 ! A9    A(4,3,29)             120.0            estimate D2E/DX2                !
 ! A10   A(3,4,5)              120.0            estimate D2E/DX2                !
 ! A11   A(3,4,9)              120.0            estimate D2E/DX2                !
 ! A12   A(5,4,9)              120.0            estimate D2E/DX2                !
 ! A13   A(4,5,6)              120.0            estimate D2E/DX2                !
 ! A14   A(4,5,10)             120.0            estimate D2E/DX2                !
 ! A15   A(6,5,10)             120.0            estimate D2E/DX2                !
 ! A16   A(1,6,5)              120.0            estimate D2E/DX2                !
 ! A17   A(1,6,16)             120.0            estimate D2E/DX2                !
 ! A18   A(5,6,16)             120.0            estimate D2E/DX2                !
 ! A19   A(13,11,14)           107.1877         estimate D2E/DX2                !
 ! A20   A(13,11,17)           107.1877         estimate D2E/DX2                !
 ! A21   A(13,11,27)           120.0            estimate D2E/DX2                !
 ! A22   A(14,11,17)           107.5431         estimate D2E/DX2                !
 ! A23   A(14,11,27)           107.1877         estimate D2E/DX2                !
 ! A24   A(17,11,27)           107.1877         estimate D2E/DX2                !
 ! A25   A(13,12,15)           107.1877         estimate D2E/DX2                !
 ! A26   A(13,12,18)           107.1877         estimate D2E/DX2                !
 ! A27   A(13,12,28)           120.0            estimate D2E/DX2                !
 ! A28   A(15,12,18)           107.5431         estimate D2E/DX2                !
 ! A29   A(15,12,28)           107.1877         estimate D2E/DX2                !
 ! A30   A(18,12,28)           107.1877         estimate D2E/DX2                !
 ! A31   A(11,13,12)           120.0            estimate D2E/DX2                !
 ! A32   A(11,13,19)           107.1877         estimate D2E/DX2                !
 ! A33   A(11,13,23)           107.1877         estimate D2E/DX2                !
 ! A34   A(12,13,19)           107.1877         estimate D2E/DX2                !
 ! A35   A(12,13,23)           107.1877         estimate D2E/DX2                !
 ! A36   A(19,13,23)           107.5431         estimate D2E/DX2                !
 ! A37   A(6,16,27)            120.0            estimate D2E/DX2                !
 ! A38   A(6,16,28)            120.0            estimate D2E/DX2                !
 ! A39   A(27,16,28)           120.0            estimate D2E/DX2                !
 ! A40   A(13,19,20)           109.4712         estimate D2E/DX2                !
 ! A41   A(13,19,21)           109.4712         estimate D2E/DX2                !
 ! A42   A(13,19,22)           109.4712         estimate D2E/DX2                !
 ! A43   A(20,19,21)           109.4713         estimate D2E/DX2                !
 ! A44   A(20,19,22)           109.4712         estimate D2E/DX2                !
 ! A45   A(21,19,22)           109.4712         estimate D2E/DX2                !
 ! A46   A(13,23,24)           109.4712         estimate D2E/DX2                !
 ! A47   A(13,23,25)           109.4712         estimate D2E/DX2                !
 ! A48   A(13,23,26)           109.4712         estimate D2E/DX2                !
 ! A49   A(24,23,25)           109.4713         estimate D2E/DX2                !
 ! A50   A(24,23,26)           109.4712         estimate D2E/DX2                !
 ! A51   A(25,23,26)           109.4712         estimate D2E/DX2                !
 ! A52   A(11,27,16)           120.0            estimate D2E/DX2                !
 ! A53   A(12,28,16)           120.0            estimate D2E/DX2                !
 ! D1    D(6,1,2,3)              0.0001         estimate D2E/DX2                !
 ! D2    D(6,1,2,8)           -179.9999         estimate D2E/DX2                !
 ! D3    D(7,1,2,3)           -179.9999         estimate D2E/DX2                !
 ! D4    D(7,1,2,8)              0.0            estimate D2E/DX2                !
 ! D5    D(2,1,6,5)              0.0            estimate D2E/DX2                !
 ! D6    D(2,1,6,16)           180.0            estimate D2E/DX2                !
 ! D7    D(7,1,6,5)           -180.0            estimate D2E/DX2                !
 ! D8    D(7,1,6,16)             0.0            estimate D2E/DX2                !
 ! D9    D(1,2,3,4)             -0.0001         estimate D2E/DX2                !
 ! D10   D(1,2,3,29)           180.0            estimate D2E/DX2                !
 ! D11   D(8,2,3,4)            179.9999         estimate D2E/DX2                !
 ! D12   D(8,2,3,29)             0.0            estimate D2E/DX2                !
 ! D13   D(2,3,4,5)              0.0            estimate D2E/DX2                !
 ! D14   D(2,3,4,9)           -179.9998         estimate D2E/DX2                !
 ! D15   D(29,3,4,5)           180.0            estimate D2E/DX2                !
 ! D16   D(29,3,4,9)             0.0002         estimate D2E/DX2                !
 ! D17   D(3,4,5,6)              0.0            estimate D2E/DX2                !
 ! D18   D(3,4,5,10)          -179.9999         estimate D2E/DX2                !
 ! D19   D(9,4,5,6)            179.9999         estimate D2E/DX2                !
 ! D20   D(9,4,5,10)            -0.0001         estimate D2E/DX2                !
 ! D21   D(4,5,6,1)             -0.0001         estimate D2E/DX2                !
 ! D22   D(4,5,6,16)           180.0            estimate D2E/DX2                !
 ! D23   D(10,5,6,1)           179.9999         estimate D2E/DX2                !
 ! D24   D(10,5,6,16)           -0.0001         estimate D2E/DX2                !
 ! D25   D(1,6,16,27)         -180.0            estimate D2E/DX2                !
 ! D26   D(1,6,16,28)           -0.0002         estimate D2E/DX2                !
 ! D27   D(5,6,16,27)            0.0            estimate D2E/DX2                !
 ! D28   D(5,6,16,28)          179.9998         estimate D2E/DX2                !
 ! D29   D(14,11,13,12)       -122.3949         estimate D2E/DX2                !
 ! D30   D(14,11,13,19)        115.2102         estimate D2E/DX2                !
 ! D31   D(14,11,13,23)          0.0001         estimate D2E/DX2                !
 ! D32   D(17,11,13,12)        122.395          estimate D2E/DX2                !
 ! D33   D(17,11,13,19)          0.0001         estimate D2E/DX2                !
 ! D34   D(17,11,13,23)       -115.21           estimate D2E/DX2                !
 ! D35   D(27,11,13,12)          0.0001         estimate D2E/DX2                !
 ! D36   D(27,11,13,19)       -122.3949         estimate D2E/DX2                !
 ! D37   D(27,11,13,23)        122.395          estimate D2E/DX2                !
 ! D38   D(13,11,27,16)         -0.0001         estimate D2E/DX2                !
 ! D39   D(14,11,27,16)        122.3948         estimate D2E/DX2                !
 ! D40   D(17,11,27,16)       -122.3951         estimate D2E/DX2                !
 ! D41   D(15,12,13,11)       -122.395          estimate D2E/DX2                !
 ! D42   D(15,12,13,19)          0.0            estimate D2E/DX2                !
 ! D43   D(15,12,13,23)        115.2101         estimate D2E/DX2                !
 ! D44   D(18,12,13,11)        122.3949         estimate D2E/DX2                !
 ! D45   D(18,12,13,19)       -115.2101         estimate D2E/DX2                !
 ! D46   D(18,12,13,23)          0.0            estimate D2E/DX2                !
 ! D47   D(28,12,13,11)          0.0            estimate D2E/DX2                !
 ! D48   D(28,12,13,19)        122.3949         estimate D2E/DX2                !
 ! D49   D(28,12,13,23)       -122.395          estimate D2E/DX2                !
 ! D50   D(13,12,28,16)          0.0            estimate D2E/DX2                !
 ! D51   D(15,12,28,16)        122.395          estimate D2E/DX2                !
 ! D52   D(18,12,28,16)       -122.3949         estimate D2E/DX2                !
 ! D53   D(11,13,19,20)       -174.9728         estimate D2E/DX2                !
 ! D54   D(11,13,19,21)        -54.9728         estimate D2E/DX2                !
 ! D55   D(11,13,19,22)         65.0272         estimate D2E/DX2                !
 ! D56   D(12,13,19,20)         54.9728         estimate D2E/DX2                !
 ! D57   D(12,13,19,21)        174.9728         estimate D2E/DX2                !
 ! D58   D(12,13,19,22)        -65.0272         estimate D2E/DX2                !
 ! D59   D(23,13,19,20)        -60.0            estimate D2E/DX2                !
 ! D60   D(23,13,19,21)         60.0            estimate D2E/DX2                !
 ! D61   D(23,13,19,22)        180.0            estimate D2E/DX2                !
 ! D62   D(11,13,23,24)         54.9727         estimate D2E/DX2                !
 ! D63   D(11,13,23,25)        174.9728         estimate D2E/DX2                !
 ! D64   D(11,13,23,26)        -65.0272         estimate D2E/DX2                !
 ! D65   D(12,13,23,24)       -174.9728         estimate D2E/DX2                !
 ! D66   D(12,13,23,25)        -54.9728         estimate D2E/DX2                !
 ! D67   D(12,13,23,26)         65.0272         estimate D2E/DX2                !
 ! D68   D(19,13,23,24)        -60.0            estimate D2E/DX2                !
 ! D69   D(19,13,23,25)         60.0            estimate D2E/DX2                !
 ! D70   D(19,13,23,26)        180.0            estimate D2E/DX2                !
 ! D71   D(6,16,27,11)         179.9999         estimate D2E/DX2                !
 ! D72   D(28,16,27,11)          0.0001         estimate D2E/DX2                !
 ! D73   D(6,16,28,12)        -179.9998         estimate D2E/DX2                !
 ! D74   D(27,16,28,12)          0.0            estimate D2E/DX2                !
 --------------------------------------------------------------------------------
 Trust Radius=3.00D-01 FncErr=1.00D-07 GrdErr=1.00D-06
 Number of steps in this run=    167 maximum allowed number of steps=    174.
 GradGradGradGradGradGradGradGradGradGradGradGradGradGradGradGradGradGrad

                          Input orientation:                          
 ---------------------------------------------------------------------
 Center     Atomic      Atomic             Coordinates (Angstroms)
 Number     Number       Type             X           Y           Z
 ---------------------------------------------------------------------
      1          6           0       -0.823619   -0.623209    0.247324
      2          6           0        0.577725   -0.631768    0.238156
      3          6           0        1.283955    0.549941   -0.024000
      4          6           0        0.588842    1.740208   -0.276988
      5          6           0       -0.812502    1.748767   -0.267821
      6          6           0       -1.518733    0.567058   -0.005664
      7          1           0       -1.362841   -1.525470    0.447487
      8          1           0        1.108460   -1.540563    0.431317
      9          1           0        1.128064    2.642468   -0.477153
     10          1           0       -1.343237    2.657562   -0.460985
     11          6           0       -5.155128    1.775288   -0.239414
     12          6           0       -5.166245   -0.596688    0.275727
     13          6           0       -5.861359    0.593579    0.022738
     14          1           0       -5.462161    2.495540    0.489880
     15          1           0       -5.491563   -1.313078   -0.449430
     16          5           0       -3.058671    0.576463    0.004410
     17          1           0       -5.475431    2.129245   -1.197026
     18          1           0       -5.478295   -0.946782    1.237475
     19          6           0       -6.781020    0.335541   -1.185252
     20          1           0       -7.402593   -0.512222   -0.985642
     21          1           0       -7.394591    1.195259   -1.356469
     22          1           0       -6.184860    0.144300   -2.052961
     23          6           0       -6.761924    0.862733    1.242631
     24          1           0       -7.375655    1.718040    1.051099
     25          1           0       -7.383658    0.010559    1.421925
     26          1           0       -6.152177    1.046610    2.102455
     27          8           0       -3.753785    1.766730   -0.248579
     28          8           0       -3.764901   -0.605246    0.266563
     29          9           0        2.633901    0.541696   -0.032831
 ---------------------------------------------------------------------
                    Distance matrix (angstroms):
                    1          2          3          4          5
     1  C    0.000000
     2  C    1.401400   0.000000
     3  C    2.427296   1.401400   0.000000
     4  C    2.802800   2.427296   1.401400   0.000000
     5  C    2.427296   2.802800   2.427296   1.401400   0.000000
     6  C    1.401400   2.427296   2.802800   2.427296   1.401400
     7  H    1.070000   2.146700   3.396345   3.872800   3.396345
     8  H    2.146700   1.070000   2.146700   3.396345   3.872800
     9  H    3.872800   3.396345   2.146700   1.070000   2.146700
    10  H    3.396345   3.872800   3.396345   2.146700   1.070000
    11  C    4.975106   6.235992   6.558176   5.744200   4.342800
    12  C    4.342800   5.744200   6.558176   6.235992   4.975106
    13  C    5.187469   6.558176   7.145600   6.558176   5.187469
    14  H    5.594774   6.806147   7.039852   6.145994   4.769812
    15  H    4.769810   6.145992   7.039850   6.806146   5.594773
    16  B    2.548270   3.838989   4.342800   3.838989   2.548270
    17  H    5.594775   6.806147   7.039850   6.145992   4.769810
    18  H    4.769812   6.145994   7.039852   6.806148   5.594776
    19  C    6.201782   7.557308   8.150969   7.557307   6.201781
    20  H    6.694433   8.074494   8.803924   8.332987   7.004045
    21  H    7.004045   8.332987   8.803924   8.074494   6.694432
    22  H    5.884155   7.182204   7.750124   7.182203   5.884154
    23  C    6.201785   7.557311   8.150974   7.557312   6.201785
    24  H    7.004047   8.332991   8.803928   8.074498   6.694436
    25  H    6.694435   8.074498   8.803928   8.332991   7.004049
    26  H    5.884160   7.182211   7.750133   7.182212   5.884162
    27  O    3.813607   4.975106   5.187469   4.342800   2.941400
    28  O    2.941400   4.342800   5.187469   4.975106   3.813607
    29  F    3.659226   2.382921   1.350000   2.382921   3.659226
                    6          7          8          9         10
     6  C    0.000000
     7  H    2.146700   0.000000
     8  H    3.396345   2.471400   0.000000
     9  H    3.396345   4.942800   4.280590   0.000000
    10  H    2.146700   4.280590   4.942800   2.471400   0.000000
    11  C    3.838989   5.074276   7.118798   6.347206   3.918930
    12  C    3.838989   3.918930   6.347206   7.118798   5.074276
    13  C    4.342800   4.990735   7.300676   7.300676   4.990735
    14  H    4.417605   5.742363   7.711460   6.662418   4.230358
    15  H    4.417604   4.230356   6.662414   7.711458   5.742363
    16  B    1.540000   2.736837   4.693509   4.693509   2.736837
    17  H    4.417605   5.742365   7.711459   6.662414   4.230355
    18  H    4.417606   4.230357   6.662417   7.711462   5.742365
    19  C    5.397842   5.957000   8.269035   8.269034   5.956998
    20  H    6.061767   6.289605   8.689262   9.109487   6.858469
    21  H    6.061767   6.858471   9.109488   8.689261   6.289603
    22  H    5.113012   5.682625   7.886882   7.886880   5.682621
    23  C    5.397844   5.957001   8.269039   8.269040   5.957003
    24  H    6.061770   6.858472   9.109491   8.689267   6.289608
    25  H    6.061770   6.289607   8.689266   9.109493   6.858474
    26  H    5.113017   5.682627   7.886889   7.886891   5.682631
    27  O    2.548270   4.127917   5.919617   4.965039   2.578650
    28  O    2.548270   2.578650   4.965039   5.919617   4.127917
    29  F    4.152800   4.525244   2.622634   2.622634   4.525244
                   11         12         13         14         15
    11  C    0.000000
    12  C    2.427296   0.000000
    13  C    1.401400   1.401400   0.000000
    14  H    1.070000   3.113728   1.998758   0.000000
    15  H    3.113729   1.070000   1.998758   3.922849   0.000000
    16  B    2.427296   2.427296   2.802800   3.113728   3.113728
    17  H    1.070000   3.113729   1.998758   1.726267   3.522606
    18  H    3.113728   1.070000   1.998758   3.522604   1.726267
    19  C    2.368756   2.368756   1.540000   3.034971   2.218575
    20  H    3.292516   2.568938   2.148263   3.871573   2.140311
    21  H    2.568938   3.292516   2.148263   2.972208   3.276582
    22  H    2.647532   2.647532   2.148263   3.537890   2.275066
    23  C    2.368756   2.368756   1.540000   2.218575   3.034970
    24  H    2.568937   3.292516   2.148263   2.140311   3.871572
    25  H    3.292516   2.568938   2.148263   3.276582   2.972206
    26  H    2.647532   2.647532   2.148263   2.275065   3.537889
    27  O    1.401400   2.802800   2.427296   1.998758   3.541954
    28  O    2.802800   1.401400   2.427296   3.541954   1.998758
    29  F    7.888815   7.888815   8.495600   8.344876   8.344874
                   16         17         18         19         20
    16  B    0.000000
    17  H    3.113729   0.000000
    18  H    3.113728   3.922849   0.000000
    19  C    3.915255   2.218575   3.034971   0.000000
    20  H    4.586404   3.276582   2.972207   1.070000   0.000000
    21  H    4.586404   2.140311   3.871572   1.070000   1.747303
    22  H    3.767307   2.275066   3.537890   1.070000   1.747303
    23  C    3.915256   3.034970   2.218575   2.484534   2.695581
    24  H    4.586405   2.972206   3.276582   2.695582   3.020449
    25  H    4.586405   3.871572   2.140312   2.695581   2.463745
    26  H    3.767308   3.537889   2.275065   3.421999   3.678293
    27  O    1.401400   1.998758   3.541954   3.477041   4.364710
    28  O    1.401400   3.541955   1.998758   3.477041   3.848308
    29  F    5.692800   8.344874   8.344877   9.487429  10.136558
                   21         22         23         24         25
    21  H    0.000000
    22  H    1.747303   0.000000
    23  C    2.695581   3.421999   0.000000
    24  H    2.463745   3.678293   1.070000   0.000000
    25  H    3.020448   3.678293   1.070000   1.747303   0.000000
    26  H    3.678293   4.252378   1.070000   1.747303   1.747303
    27  O    3.848308   3.434852   3.477042   3.848309   4.364711
    28  O    4.364710   3.434852   3.477042   4.364711   3.848309
    29  F   10.136558   9.055904   9.487434  10.136563  10.136563
                   26         27         28         29
    26  H    0.000000
    27  O    3.434854   0.000000
    28  O    3.434853   2.427296   0.000000
    29  F    9.055913   6.507671   6.507671   0.000000
 Symmetry turned off by external request.
 Stoichiometry    C11H14BFO2
 Framework group  C1[X(C11H14BFO2)]
 Deg. of freedom    81
 Full point group                 C1      NOp   1
 Rotational constants (GHZ):      2.0841146      0.2501240      0.2347909
 Standard basis: 6-31G (6D, 7F)
   163 basis functions,   386 primitive gaussians,   163 cartesian basis functions
    55 alpha electrons       55 beta electrons
       nuclear repulsion energy       963.5474975908 Hartrees.
 NAtoms=   29 NActive=   29 NUniq=   29 SFac= 1.00D+00 NAtFMM=   60 NAOKFM=F Big=F
 Integral buffers will be    131072 words long.
 Raffenetti 2 integral format.
 Two-electron integral symmetry is turned off.
 Nuclear repulsion after empirical dispersion term =      963.5219748069 Hartrees.
 One-electron integrals computed using PRISM.
 NBasis=   163 RedAO= T EigKep=  7.17D-04  NBF=   163
 NBsUse=   163 1.00D-06 EigRej= -1.00D+00 NBFU=   163
 ExpMin= 1.27D-01 ExpMax= 7.00D+03 ExpMxC= 1.05D+03 IAcc=1 IRadAn=         1 AccDes= 0.00D+00
 Harris functional with IExCor=  402 and IRadAn=       1 diagonalized for initial guess.
 HarFok:  IExCor=  402 AccDes= 0.00D+00 IRadAn=         1 IDoV= 1 UseB2=F ITyADJ=14
 ICtDFT=  3500011 ScaDFX=  1.000000  1.000000  1.000000  1.000000
 FoFCou: FMM=F IPFlag=           0 FMFlag=      100000 FMFlg1=           0
         NFxFlg=           0 DoJE=T BraDBF=F KetDBF=T FulRan=T
         wScrn=  0.000000 ICntrl=     500 IOpCl=  0 I1Cent=   200000004 NGrid=           0
         NMat0=    1 NMatS0=      1 NMatT0=    0 NMatD0=    1 NMtDS0=    0 NMtDT0=    0
 Symmetry not used in FoFCou.
 Keep R1 ints in memory in canonical form, NReq=91637322.
 Requested convergence on RMS density matrix=1.00D-08 within 128 cycles.
 Requested convergence on MAX density matrix=1.00D-06.
 Requested convergence on             energy=1.00D-06.
 No special actions if energy rises.
 Integral accuracy reduced to 1.0D-05 until final iterations.
 Initial convergence to 1.0D-05 achieved.  Increase integral accuracy.
 SCF Done:  E(RB3LYP) =  -702.630578431     A.U. after   14 cycles
            NFock= 14  Conv=0.62D-08     -V/T= 2.0034

 **********************************************************************

            Population analysis using the SCF density.

 **********************************************************************

 Alpha  occ. eigenvalues --  -24.69725 -19.15591 -19.15589 -10.27119 -10.22505
 Alpha  occ. eigenvalues --  -10.22504 -10.19270 -10.18812 -10.18811 -10.18770
 Alpha  occ. eigenvalues --  -10.18768 -10.17796 -10.17794 -10.16494  -6.79570
 Alpha  occ. eigenvalues --   -1.22148  -1.07019  -1.02595  -0.87573  -0.85613
 Alpha  occ. eigenvalues --   -0.75308  -0.74604  -0.72582  -0.72091  -0.69899
 Alpha  occ. eigenvalues --   -0.62084  -0.61719  -0.59607  -0.54104  -0.53923
 Alpha  occ. eigenvalues --   -0.51306  -0.50964  -0.48172  -0.47919  -0.47881
 Alpha  occ. eigenvalues --   -0.45818  -0.45445  -0.43920  -0.42915  -0.41842
 Alpha  occ. eigenvalues --   -0.41799  -0.40853  -0.40651  -0.39684  -0.38881
 Alpha  occ. eigenvalues --   -0.37153  -0.34956  -0.34790  -0.34017  -0.32178
 Alpha  occ. eigenvalues --   -0.30119  -0.30081  -0.27946  -0.25310  -0.23963
 Alpha virt. eigenvalues --   -0.02146  -0.00130   0.06501   0.08451   0.09486
 Alpha virt. eigenvalues --    0.11177   0.11298   0.12367   0.13844   0.14343
 Alpha virt. eigenvalues --    0.15303   0.15371   0.15919   0.16480   0.17798
 Alpha virt. eigenvalues --    0.18011   0.18362   0.18653   0.21030   0.21190
 Alpha virt. eigenvalues --    0.21245   0.21642   0.25117   0.26753   0.28817
 Alpha virt. eigenvalues --    0.31842   0.32140   0.32766   0.33689   0.35816
 Alpha virt. eigenvalues --    0.38319   0.39725   0.41876   0.47808   0.49440
 Alpha virt. eigenvalues --    0.52252   0.52484   0.57007   0.57367   0.57487
 Alpha virt. eigenvalues --    0.59354   0.60680   0.61404   0.61790   0.62178
 Alpha virt. eigenvalues --    0.62507   0.63090   0.63927   0.64341   0.64593
 Alpha virt. eigenvalues --    0.66066   0.66916   0.67934   0.68209   0.69105
 Alpha virt. eigenvalues --    0.71353   0.74040   0.76662   0.77024   0.79117
 Alpha virt. eigenvalues --    0.81956   0.81991   0.82660   0.84571   0.85168
 Alpha virt. eigenvalues --    0.87432   0.88128   0.89383   0.89384   0.91764
 Alpha virt. eigenvalues --    0.92974   0.93497   0.95154   0.95278   0.95544
 Alpha virt. eigenvalues --    0.96325   0.97561   0.98011   0.99764   1.01319
 Alpha virt. eigenvalues --    1.02004   1.02910   1.04223   1.05889   1.07218
 Alpha virt. eigenvalues --    1.13121   1.18005   1.19408   1.20807   1.23948
 Alpha virt. eigenvalues --    1.28583   1.29487   1.30824   1.37322   1.39695
 Alpha virt. eigenvalues --    1.43119   1.44885   1.45821   1.46610   1.50214
 Alpha virt. eigenvalues --    1.55445   1.64117   1.65627   1.85294   1.88609
 Alpha virt. eigenvalues --    1.97093   2.16740   2.37121
          Condensed to atoms (all electrons):
               1          2          3          4          5          6
     1  C    5.050328   0.394503  -0.004570  -0.036301  -0.053339   0.474774
     2  C    0.394503   5.269955   0.404872  -0.102127  -0.036301  -0.038066
     3  C   -0.004570   0.404872   4.742519   0.404868  -0.004571  -0.037874
     4  C   -0.036301  -0.102127   0.404868   5.269948   0.394505  -0.038065
     5  C   -0.053339  -0.036301  -0.004571   0.394505   5.050332   0.474780
     6  C    0.474774  -0.038066  -0.037874  -0.038065   0.474780   5.057120
     7  H    0.361262  -0.042522   0.003500   0.000131   0.006254  -0.036234
     8  H   -0.033582   0.352478  -0.041558   0.006390   0.000237   0.004783
     9  H    0.000237   0.006390  -0.041558   0.352478  -0.033582   0.004783
    10  H    0.006254   0.000131   0.003500  -0.042522   0.361262  -0.036233
    11  C    0.000087   0.000002   0.000000  -0.000001  -0.000505   0.002057
    12  C   -0.000505  -0.000001   0.000000   0.000002   0.000087   0.002057
    13  C    0.000013   0.000000   0.000000   0.000000   0.000013  -0.000580
    14  H    0.000000   0.000000   0.000000   0.000000   0.000021  -0.000026
    15  H    0.000021   0.000000   0.000000   0.000000   0.000000  -0.000026
    16  B   -0.026749   0.007435   0.000354   0.007435  -0.026753   0.333612
    17  H    0.000000   0.000000   0.000000   0.000000   0.000021  -0.000027
    18  H    0.000021   0.000000   0.000000   0.000000   0.000000  -0.000027
    19  C   -0.000001   0.000000   0.000000   0.000000  -0.000001   0.000008
    20  H    0.000000   0.000000   0.000000   0.000000   0.000000   0.000000
    21  H    0.000000   0.000000   0.000000   0.000000   0.000000   0.000000
    22  H    0.000000   0.000000   0.000000   0.000000   0.000000   0.000001
    23  C   -0.000001   0.000000   0.000000   0.000000  -0.000001   0.000008
    24  H    0.000000   0.000000   0.000000   0.000000   0.000000   0.000000
    25  H    0.000000   0.000000   0.000000   0.000000   0.000000   0.000000
    26  H    0.000000   0.000000   0.000000   0.000000   0.000000   0.000001
    27  O   -0.001480  -0.000045   0.000000   0.000265   0.010015  -0.067587
    28  O    0.010015   0.000265   0.000000  -0.000045  -0.001480  -0.067588
    29  F    0.003542  -0.064223   0.272388  -0.064223   0.003542  -0.000251
               7          8          9         10         11         12
     1  C    0.361262  -0.033582   0.000237   0.006254   0.000087  -0.000505
     2  C   -0.042522   0.352478   0.006390   0.000131   0.000002  -0.000001
     3  C    0.003500  -0.041558  -0.041558   0.003500   0.000000   0.000000
     4  C    0.000131   0.006390   0.352478  -0.042522  -0.000001   0.000002
     5  C    0.006254   0.000237  -0.033582   0.361262  -0.000505   0.000087
     6  C   -0.036234   0.004783   0.004783  -0.036233   0.002057   0.002057
     7  H    0.559796  -0.004298   0.000011  -0.000155   0.000006  -0.000016
     8  H   -0.004298   0.581588  -0.000137   0.000011   0.000000   0.000000
     9  H    0.000011  -0.000137   0.581588  -0.004298   0.000000   0.000000
    10  H   -0.000155   0.000011  -0.004298   0.559795  -0.000016   0.000006
    11  C    0.000006   0.000000   0.000000  -0.000016   5.038699  -0.090947
    12  C   -0.000016   0.000000   0.000000   0.000006  -0.090947   5.038724
    13  C    0.000034   0.000000   0.000000   0.000034   0.219948   0.219929
    14  H    0.000000   0.000000   0.000000  -0.000015   0.398422   0.003859
    15  H   -0.000015   0.000000   0.000000   0.000000   0.003859   0.398420
    16  B   -0.008095  -0.000216  -0.000216  -0.008096  -0.028027  -0.028023
    17  H    0.000000   0.000000   0.000000  -0.000015   0.398413   0.003860
    18  H   -0.000015   0.000000   0.000000   0.000000   0.003860   0.398414
    19  C   -0.000001   0.000000   0.000000  -0.000001  -0.059104  -0.059102
    20  H    0.000000   0.000000   0.000000   0.000000   0.007078  -0.008719
    21  H    0.000000   0.000000   0.000000   0.000000  -0.008716   0.007080
    22  H    0.000000   0.000000   0.000000   0.000000  -0.004134  -0.004144
    23  C   -0.000001   0.000000   0.000000  -0.000001  -0.059100  -0.059108
    24  H    0.000000   0.000000   0.000000   0.000000  -0.008718   0.007079
    25  H    0.000000   0.000000   0.000000   0.000000   0.007080  -0.008716
    26  H    0.000000   0.000000   0.000000   0.000000  -0.004145  -0.004134
    27  O    0.000115   0.000000  -0.000001   0.007746   0.216660  -0.014591
    28  O    0.007745  -0.000001   0.000000   0.000115  -0.014591   0.216660
    29  F   -0.000018  -0.002309  -0.002309  -0.000018   0.000000   0.000000
              13         14         15         16         17         18
     1  C    0.000013   0.000000   0.000021  -0.026749   0.000000   0.000021
     2  C    0.000000   0.000000   0.000000   0.007435   0.000000   0.000000
     3  C    0.000000   0.000000   0.000000   0.000354   0.000000   0.000000
     4  C    0.000000   0.000000   0.000000   0.007435   0.000000   0.000000
     5  C    0.000013   0.000021   0.000000  -0.026753   0.000021   0.000000
     6  C   -0.000580  -0.000026  -0.000026   0.333612  -0.000027  -0.000027
     7  H    0.000034   0.000000  -0.000015  -0.008095   0.000000  -0.000015
     8  H    0.000000   0.000000   0.000000  -0.000216   0.000000   0.000000
     9  H    0.000000   0.000000   0.000000  -0.000216   0.000000   0.000000
    10  H    0.000034  -0.000015   0.000000  -0.008096  -0.000015   0.000000
    11  C    0.219948   0.398422   0.003859  -0.028027   0.398413   0.003860
    12  C    0.219929   0.003859   0.398420  -0.028023   0.003860   0.398414
    13  C    5.532145  -0.081107  -0.081105  -0.024106  -0.081089  -0.081090
    14  H   -0.081107   0.614608  -0.000478  -0.001152  -0.046146   0.000335
    15  H   -0.081105  -0.000478   0.614602  -0.001154   0.000335  -0.046145
    16  B   -0.024106  -0.001152  -0.001154   3.521830  -0.001155  -0.001153
    17  H   -0.081089  -0.046146   0.000335  -0.001155   0.614591  -0.000478
    18  H   -0.081090   0.000335  -0.046145  -0.001153  -0.000478   0.614591
    19  C    0.357529   0.006325  -0.011637   0.001232  -0.011646   0.006324
    20  H   -0.037589  -0.000644   0.002776  -0.000078   0.001339   0.001052
    21  H   -0.037590   0.001051   0.001339  -0.000078   0.002778  -0.000644
    22  H   -0.043153   0.000051   0.002338   0.000420   0.002337   0.000051
    23  C    0.357540  -0.011639   0.006324   0.001232   0.006324  -0.011646
    24  H   -0.037593   0.002776  -0.000644  -0.000078   0.001051   0.001339
    25  H   -0.037588   0.001339   0.001051  -0.000078  -0.000644   0.002778
    26  H   -0.043150   0.002338   0.000051   0.000419   0.000051   0.002338
    27  O   -0.039375  -0.044990  -0.000103   0.351084  -0.044984  -0.000103
    28  O   -0.039372  -0.000103  -0.044987   0.351088  -0.000103  -0.044986
    29  F    0.000000   0.000000   0.000000  -0.000001   0.000000   0.000000
              19         20         21         22         23         24
     1  C   -0.000001   0.000000   0.000000   0.000000  -0.000001   0.000000
     2  C    0.000000   0.000000   0.000000   0.000000   0.000000   0.000000
     3  C    0.000000   0.000000   0.000000   0.000000   0.000000   0.000000
     4  C    0.000000   0.000000   0.000000   0.000000   0.000000   0.000000
     5  C   -0.000001   0.000000   0.000000   0.000000  -0.000001   0.000000
     6  C    0.000008   0.000000   0.000000   0.000001   0.000008   0.000000
     7  H   -0.000001   0.000000   0.000000   0.000000  -0.000001   0.000000
     8  H    0.000000   0.000000   0.000000   0.000000   0.000000   0.000000
     9  H    0.000000   0.000000   0.000000   0.000000   0.000000   0.000000
    10  H   -0.000001   0.000000   0.000000   0.000000  -0.000001   0.000000
    11  C   -0.059104   0.007078  -0.008716  -0.004134  -0.059100  -0.008718
    12  C   -0.059102  -0.008719   0.007080  -0.004144  -0.059108   0.007079
    13  C    0.357529  -0.037589  -0.037590  -0.043153   0.357540  -0.037593
    14  H    0.006325  -0.000644   0.001051   0.000051  -0.011639   0.002776
    15  H   -0.011637   0.002776   0.001339   0.002338   0.006324  -0.000644
    16  B    0.001232  -0.000078  -0.000078   0.000420   0.001232  -0.000078
    17  H   -0.011646   0.001339   0.002778   0.002337   0.006324   0.001051
    18  H    0.006324   0.001052  -0.000644   0.000051  -0.011646   0.001339
    19  C    5.147073   0.368301   0.368286   0.374016  -0.072538  -0.004106
    20  H    0.368301   0.591751  -0.031013  -0.031318  -0.004105   0.000046
    21  H    0.368286  -0.031013   0.591764  -0.031317  -0.004108   0.002939
    22  H    0.374016  -0.031318  -0.031317   0.578385   0.006439   0.000009
    23  C   -0.072538  -0.004105  -0.004108   0.006439   5.147056   0.368304
    24  H   -0.004106   0.000046   0.002939   0.000009   0.368304   0.591752
    25  H   -0.004109   0.002939   0.000046   0.000009   0.368285  -0.031013
    26  H    0.006439   0.000009   0.000009  -0.000280   0.374016  -0.031319
    27  O    0.002028  -0.000149   0.000074   0.000577   0.002027   0.000074
    28  O    0.002027   0.000074  -0.000149   0.000578   0.002028  -0.000149
    29  F    0.000000   0.000000   0.000000   0.000000   0.000000   0.000000
              25         26         27         28         29
     1  C    0.000000   0.000000  -0.001480   0.010015   0.003542
     2  C    0.000000   0.000000  -0.000045   0.000265  -0.064223
     3  C    0.000000   0.000000   0.000000   0.000000   0.272388
     4  C    0.000000   0.000000   0.000265  -0.000045  -0.064223
     5  C    0.000000   0.000000   0.010015  -0.001480   0.003542
     6  C    0.000000   0.000001  -0.067587  -0.067588  -0.000251
     7  H    0.000000   0.000000   0.000115   0.007745  -0.000018
     8  H    0.000000   0.000000   0.000000  -0.000001  -0.002309
     9  H    0.000000   0.000000  -0.000001   0.000000  -0.002309
    10  H    0.000000   0.000000   0.007746   0.000115  -0.000018
    11  C    0.007080  -0.004145   0.216660  -0.014591   0.000000
    12  C   -0.008716  -0.004134  -0.014591   0.216660   0.000000
    13  C   -0.037588  -0.043150  -0.039375  -0.039372   0.000000
    14  H    0.001339   0.002338  -0.044990  -0.000103   0.000000
    15  H    0.001051   0.000051  -0.000103  -0.044987   0.000000
    16  B   -0.000078   0.000419   0.351084   0.351088  -0.000001
    17  H   -0.000644   0.000051  -0.044984  -0.000103   0.000000
    18  H    0.002778   0.002338  -0.000103  -0.044986   0.000000
    19  C   -0.004109   0.006439   0.002028   0.002027   0.000000
    20  H    0.002939   0.000009  -0.000149   0.000074   0.000000
    21  H    0.000046   0.000009   0.000074  -0.000149   0.000000
    22  H    0.000009  -0.000280   0.000577   0.000578   0.000000
    23  C    0.368285   0.374016   0.002027   0.002028   0.000000
    24  H   -0.031013  -0.031319   0.000074  -0.000149   0.000000
    25  H    0.591761  -0.031317  -0.000149   0.000074   0.000000
    26  H   -0.031317   0.578389   0.000578   0.000577   0.000000
    27  O   -0.000149   0.000578   8.215586  -0.048980   0.000000
    28  O    0.000074   0.000577  -0.048980   8.215577   0.000000
    29  F    0.000000   0.000000   0.000000   0.000000   9.173114
 Mulliken charges:
               1
     1  C   -0.144529
     2  C   -0.152744
     3  C    0.298132
     4  C   -0.152736
     5  C   -0.144536
     6  C   -0.031397
     7  H    0.152516
     8  H    0.136613
     9  H    0.136613
    10  H    0.152518
    11  C   -0.018165
    12  C   -0.018170
    13  C   -0.022697
    14  H    0.155175
    15  H    0.155181
    16  B    0.579070
    17  H    0.155185
    18  H    0.155185
    19  C   -0.417344
    20  H    0.138253
    21  H    0.138252
    22  H    0.149137
    23  C   -0.417337
    24  H    0.138253
    25  H    0.138254
    26  H    0.149132
    27  O   -0.544291
    28  O   -0.544288
    29  F   -0.319234
 Sum of Mulliken charges =   0.00000
 Mulliken charges with hydrogens summed into heavy atoms:
               1
     1  C    0.007987
     2  C   -0.016130
     3  C    0.298132
     4  C   -0.016123
     5  C    0.007981
     6  C   -0.031397
    11  C    0.292196
    12  C    0.292195
    13  C   -0.022697
    16  B    0.579070
    19  C    0.008298
    23  C    0.008302
    27  O   -0.544291
    28  O   -0.544288
    29  F   -0.319234
 Electronic spatial extent (au):  <R**2>=           7500.2905
 Charge=              0.0000 electrons
 Dipole moment (field-independent basis, Debye):
    X=             -4.5285    Y=              0.0277    Z=              0.0297  Tot=              4.5287
 Quadrupole moment (field-independent basis, Debye-Ang):
   XX=            -62.7485   YY=            -85.4059   ZZ=            -87.9199
   XY=             -2.6684   XZ=             -0.0979   YZ=             -0.5484
 Traceless Quadrupole moment (field-independent basis, Debye-Ang):
   XX=             15.9430   YY=             -6.7145   ZZ=             -9.2285
   XY=             -2.6684   XZ=             -0.0979   YZ=             -0.5484
 Octapole moment (field-independent basis, Debye-Ang**2):
  XXX=            520.6719  YYY=           -147.5076  ZZZ=             -0.5850  XYY=            247.7505
  XXY=            -35.1629  XXZ=              0.6811  XZZ=            239.5061  YZZ=            -50.4560
  YYZ=             -0.8917  XYZ=             -2.2993
 Hexadecapole moment (field-independent basis, Debye-Ang**3):
 XXXX=          -7798.0537 YYYY=           -728.3199 ZZZZ=           -277.3889 XXXY=            309.6562
 XXXZ=             13.2110 YYYX=            441.6073 YYYZ=             26.6582 ZZZX=             17.0241
 ZZZY=             35.9210 XXYY=          -1578.4536 XXZZ=          -1519.9261 YYZZ=           -173.2668
 XXYZ=              9.2251 YYXZ=              2.8891 ZZXY=            142.1854
 N-N= 9.635219748069D+02 E-N=-3.569387140452D+03  KE= 7.002803859035D+02
 Calling FoFJK, ICntrl=      2127 FMM=F ISym2X=0 I1Cent= 0 IOpClX= 0 NMat=1 NMatS=1 NMatT=0.
 -------------------------------------------------------------------
 Center     Atomic                   Forces (Hartrees/Bohr)
 Number     Number              X              Y              Z
 -------------------------------------------------------------------
      1        6           0.017968429    0.010749496   -0.002465145
      2        6          -0.001502180    0.004032965   -0.000859268
      3        6          -0.048198773    0.000294976    0.000309777
      4        6          -0.001530325   -0.004019977    0.000876181
      5        6           0.017876097   -0.010961843    0.002234708
      6        6          -0.014624612    0.000093593    0.000098540
      7        1          -0.005478556   -0.008164143    0.001816681
      8        1           0.007317476   -0.007829988    0.001641239
      9        1           0.007388021    0.007740090   -0.001736697
     10        1          -0.005405180    0.008228590   -0.001743796
     11        6           0.022467716    0.083052398   -0.018305751
     12        6           0.021661462   -0.083307412    0.018031324
     13        6          -0.101472322    0.000596963    0.000645926
     14        1           0.002694833    0.021509941    0.006911185
     15        1           0.002349836   -0.021542912   -0.006944267
     16        5          -0.002790347    0.000011176    0.000013995
     17        1           0.002510090    0.016680448   -0.015185240
     18        1           0.002497179   -0.016711760    0.015159436
     19        6          -0.002930720    0.002095542    0.009999679
     20        1          -0.012938290   -0.013250944   -0.000527392
     21        1          -0.012880830    0.011913168   -0.006063284
     22        1           0.008735301   -0.003573856   -0.016257140
     23        6          -0.003054554   -0.002049909   -0.009969886
     24        1          -0.012774034    0.013411162    0.000706498
     25        1          -0.012956870   -0.011753286    0.006234690
     26        1           0.008983627    0.003463142    0.016142033
     27        8           0.043053490   -0.019601537    0.003970414
     28        8           0.043244985    0.019076044   -0.004541718
     29        9           0.029789051   -0.000182127   -0.000192721
 -------------------------------------------------------------------
 Cartesian Forces:  Max     0.101472322 RMS     0.021293711

 GradGradGradGradGradGradGradGradGradGradGradGradGradGradGradGradGradGrad
 Berny optimization.
 FormGI is forming the generalized inverse of G from B-inverse, IUseBI=4.
 Internal  Forces:  Max     0.128202117 RMS     0.017702621
 Search for a local minimum.
 Step number   1 out of a maximum of  167
 All quantities printed in internal units (Hartrees-Bohrs-Radians)
 Mixed Optimization -- RFO/linear search
 Second derivative matrix not updated -- first step.
 ITU=  0
     Eigenvalues ---    0.00237   0.00237   0.00766   0.01511   0.01669
     Eigenvalues ---    0.01873   0.02008   0.02070   0.02070   0.02070
     Eigenvalues ---    0.02070   0.02070   0.02070   0.02070   0.02070
     Eigenvalues ---    0.02116   0.04406   0.04585   0.05075   0.05720
     Eigenvalues ---    0.05720   0.05720   0.05720   0.06116   0.06605
     Eigenvalues ---    0.07055   0.07478   0.11983   0.12493   0.12494
     Eigenvalues ---    0.13223   0.14829   0.15920   0.16000   0.16000
     Eigenvalues ---    0.16000   0.16000   0.16000   0.16000   0.16000
     Eigenvalues ---    0.16000   0.16000   0.16000   0.22000   0.22981
     Eigenvalues ---    0.23340   0.24000   0.24832   0.25000   0.25000
     Eigenvalues ---    0.25000   0.28519   0.28519   0.28519   0.37230
     Eigenvalues ---    0.37230   0.37230   0.37230   0.37230   0.37230
     Eigenvalues ---    0.37230   0.37230   0.37230   0.37230   0.37230
     Eigenvalues ---    0.37230   0.37230   0.37230   0.40671   0.41268
     Eigenvalues ---    0.41640   0.42324   0.45389   0.45389   0.45389
     Eigenvalues ---    0.45389   0.45389   0.45389   0.45389   0.45389
     Eigenvalues ---    0.55021
 RFO step:  Lambda=-9.97429584D-02 EMin= 2.36824051D-03
 Linear search not attempted -- first point.
 Maximum step size (   0.300) exceeded in Quadratic search.
    -- Step size scaled by   0.668
 Iteration  1 RMS(Cart)=  0.05937405 RMS(Int)=  0.00077142
 Iteration  2 RMS(Cart)=  0.00103409 RMS(Int)=  0.00025846
 Iteration  3 RMS(Cart)=  0.00000079 RMS(Int)=  0.00025846
 Variable       Old X    -DE/DX   Delta X   Delta X   Delta X     New X
                                 (Linear)    (Quad)   (Total)
    R1        2.64826  -0.00337   0.00000  -0.00406  -0.00406   2.64420
    R2        2.64826   0.00695   0.00000   0.00878   0.00878   2.65704
    R3        2.02201   0.00998   0.00000   0.01412   0.01412   2.03613
    R4        2.64826  -0.00602   0.00000  -0.00766  -0.00766   2.64061
    R5        2.02201   0.01058   0.00000   0.01496   0.01496   2.03697
    R6        2.64826  -0.00603   0.00000  -0.00767  -0.00766   2.64060
    R7        2.55113   0.02979   0.00000   0.03060   0.03060   2.58173
    R8        2.64826  -0.00337   0.00000  -0.00406  -0.00406   2.64420
    R9        2.02201   0.01058   0.00000   0.01496   0.01496   2.03696
   R10        2.64826   0.00696   0.00000   0.00879   0.00879   2.65705
   R11        2.02201   0.00999   0.00000   0.01412   0.01412   2.03613
   R12        2.91018   0.00360   0.00000   0.00624   0.00624   2.91642
   R13        2.64826   0.12820   0.00000   0.16282   0.16326   2.81152
   R14        2.02201   0.01842   0.00000   0.02606   0.02606   2.04806
   R15        2.02201   0.01835   0.00000   0.02596   0.02596   2.04796
   R16        2.64826   0.04354   0.00000   0.05251   0.05249   2.70075
   R17        2.64826   0.12819   0.00000   0.16281   0.16325   2.81151
   R18        2.02201   0.01842   0.00000   0.02606   0.02606   2.04806
   R19        2.02201   0.01836   0.00000   0.02597   0.02597   2.04797
   R20        2.64826   0.04357   0.00000   0.05254   0.05252   2.70078
   R21        2.91018   0.02250   0.00000   0.03903   0.03903   2.94921
   R22        2.91018   0.02250   0.00000   0.03903   0.03903   2.94921
   R23        2.64826  -0.00222   0.00000  -0.01090  -0.01134   2.63692
   R24        2.64826  -0.00222   0.00000  -0.01089  -0.01133   2.63693
   R25        2.02201   0.01791   0.00000   0.02533   0.02533   2.04734
   R26        2.02201   0.01793   0.00000   0.02537   0.02537   2.04737
   R27        2.02201   0.01869   0.00000   0.02643   0.02643   2.04844
   R28        2.02201   0.01791   0.00000   0.02534   0.02534   2.04734
   R29        2.02201   0.01794   0.00000   0.02538   0.02538   2.04738
   R30        2.02201   0.01869   0.00000   0.02643   0.02643   2.04844
    A1        2.09440   0.00370   0.00000   0.00849   0.00849   2.10288
    A2        2.09440  -0.00133   0.00000  -0.00290  -0.00290   2.09149
    A3        2.09440  -0.00237   0.00000  -0.00559  -0.00559   2.08881
    A4        2.09440  -0.00473   0.00000  -0.01052  -0.01051   2.08388
    A5        2.09440   0.00478   0.00000   0.01146   0.01146   2.10585
    A6        2.09440  -0.00005   0.00000  -0.00094  -0.00094   2.09345
    A7        2.09440   0.00950   0.00000   0.01691   0.01692   2.11131
    A8        2.09440  -0.00475   0.00000  -0.00846  -0.00846   2.08594
    A9        2.09440  -0.00475   0.00000  -0.00846  -0.00846   2.08594
   A10        2.09440  -0.00474   0.00000  -0.01052  -0.01052   2.08388
   A11        2.09440  -0.00004   0.00000  -0.00093  -0.00093   2.09346
   A12        2.09440   0.00478   0.00000   0.01145   0.01145   2.10585
   A13        2.09440   0.00370   0.00000   0.00849   0.00849   2.10289
   A14        2.09440  -0.00132   0.00000  -0.00289  -0.00289   2.09150
   A15        2.09440  -0.00238   0.00000  -0.00560  -0.00560   2.08879
   A16        2.09440  -0.00743   0.00000  -0.01286  -0.01286   2.08153
   A17        2.09440   0.00371   0.00000   0.00642   0.00643   2.10082
   A18        2.09440   0.00372   0.00000   0.00643   0.00644   2.10083
   A19        1.87078   0.01754   0.00000   0.04046   0.03993   1.91071
   A20        1.87078   0.01759   0.00000   0.04060   0.04008   1.91086
   A21        2.09440  -0.02311   0.00000  -0.02402  -0.02318   2.07122
   A22        1.87698  -0.00907   0.00000  -0.02187  -0.02306   1.85392
   A23        1.87078  -0.00135   0.00000  -0.01847  -0.01840   1.85238
   A24        1.87078  -0.00136   0.00000  -0.01839  -0.01832   1.85246
   A25        1.87078   0.01755   0.00000   0.04048   0.03996   1.91073
   A26        1.87078   0.01759   0.00000   0.04060   0.04007   1.91085
   A27        2.09440  -0.02312   0.00000  -0.02404  -0.02320   2.07120
   A28        1.87698  -0.00907   0.00000  -0.02187  -0.02306   1.85392
   A29        1.87078  -0.00135   0.00000  -0.01849  -0.01841   1.85236
   A30        1.87078  -0.00135   0.00000  -0.01837  -0.01831   1.85247
   A31        2.09440  -0.02120   0.00000  -0.04106  -0.04066   2.05374
   A32        1.87078   0.00815   0.00000   0.01586   0.01587   1.88665
   A33        1.87078   0.00793   0.00000   0.01525   0.01527   1.88605
   A34        1.87078   0.00794   0.00000   0.01528   0.01530   1.88608
   A35        1.87078   0.00814   0.00000   0.01585   0.01586   1.88664
   A36        1.87698  -0.01119   0.00000  -0.02161  -0.02164   1.85534
   A37        2.09440  -0.00728   0.00000  -0.00398  -0.00355   2.09085
   A38        2.09440  -0.00726   0.00000  -0.00394  -0.00351   2.09088
   A39        2.09440   0.01454   0.00000   0.00792   0.00706   2.10145
   A40        1.91063   0.00524   0.00000   0.01350   0.01344   1.92407
   A41        1.91063   0.00538   0.00000   0.01388   0.01382   1.92445
   A42        1.91063   0.00092   0.00000   0.00230   0.00228   1.91291
   A43        1.91063  -0.00522   0.00000  -0.01328  -0.01339   1.89725
   A44        1.91063  -0.00314   0.00000  -0.00816  -0.00818   1.90245
   A45        1.91063  -0.00319   0.00000  -0.00824  -0.00826   1.90237
   A46        1.91063   0.00526   0.00000   0.01354   0.01348   1.92411
   A47        1.91063   0.00539   0.00000   0.01390   0.01383   1.92446
   A48        1.91063   0.00092   0.00000   0.00231   0.00229   1.91292
   A49        1.91063  -0.00523   0.00000  -0.01332  -0.01342   1.89721
   A50        1.91063  -0.00315   0.00000  -0.00818  -0.00820   1.90243
   A51        1.91063  -0.00319   0.00000  -0.00825  -0.00827   1.90236
   A52        2.09440   0.02644   0.00000   0.04060   0.03998   2.13437
   A53        2.09440   0.02645   0.00000   0.04060   0.03999   2.13438
    D1        0.00000   0.00001   0.00000   0.00008   0.00008   0.00008
    D2       -3.14159   0.00001   0.00000   0.00008   0.00008  -3.14151
    D3       -3.14159   0.00000   0.00000  -0.00002  -0.00002   3.14158
    D4        0.00000   0.00000   0.00000  -0.00002  -0.00002  -0.00001
    D5        0.00000  -0.00001   0.00000  -0.00004  -0.00005  -0.00005
    D6        3.14159  -0.00001   0.00000  -0.00005  -0.00005   3.14154
    D7       -3.14159   0.00001   0.00000   0.00005   0.00005  -3.14155
    D8        0.00000   0.00001   0.00000   0.00004   0.00004   0.00004
    D9        0.00000  -0.00001   0.00000  -0.00003  -0.00003  -0.00003
   D10        3.14159  -0.00001   0.00000  -0.00004  -0.00004   3.14155
   D11        3.14159  -0.00001   0.00000  -0.00003  -0.00003   3.14156
   D12        0.00000  -0.00001   0.00000  -0.00005  -0.00005  -0.00005
   D13        0.00000  -0.00001   0.00000  -0.00004  -0.00004  -0.00004
   D14       -3.14159  -0.00001   0.00000  -0.00005  -0.00005   3.14155
   D15        3.14159  -0.00001   0.00000  -0.00003  -0.00003   3.14156
   D16        0.00000  -0.00001   0.00000  -0.00003  -0.00003  -0.00003
   D17        0.00000   0.00001   0.00000   0.00007   0.00007   0.00007
   D18       -3.14159   0.00000   0.00000  -0.00001  -0.00001   3.14158
   D19        3.14159   0.00001   0.00000   0.00008   0.00008  -3.14152
   D20        0.00000   0.00000   0.00000  -0.00001  -0.00001  -0.00001
   D21        0.00000  -0.00001   0.00000  -0.00003  -0.00003  -0.00003
   D22        3.14159   0.00000   0.00000  -0.00002  -0.00002   3.14157
   D23        3.14159   0.00001   0.00000   0.00006   0.00006  -3.14154
   D24        0.00000   0.00001   0.00000   0.00006   0.00006   0.00006
   D25       -3.14159   0.00006   0.00000   0.00036   0.00036  -3.14123
   D26        0.00000   0.00006   0.00000   0.00037   0.00037   0.00037
   D27        0.00000   0.00006   0.00000   0.00036   0.00036   0.00036
   D28        3.14159   0.00006   0.00000   0.00037   0.00037  -3.14123
   D29       -2.13619   0.00331   0.00000   0.00713   0.00748  -2.12871
   D30        2.01080   0.00082   0.00000   0.00236   0.00279   2.01359
   D31        0.00000   0.00590   0.00000   0.01215   0.01242   0.01242
   D32        2.13620  -0.00333   0.00000  -0.00713  -0.00748   2.12871
   D33        0.00000  -0.00583   0.00000  -0.01191  -0.01217  -0.01217
   D34       -2.01079  -0.00075   0.00000  -0.00212  -0.00254  -2.01334
   D35        0.00000  -0.00003   0.00000  -0.00012  -0.00012  -0.00011
   D36       -2.13619  -0.00252   0.00000  -0.00489  -0.00480  -2.14100
   D37        2.13620   0.00256   0.00000   0.00490   0.00483   2.14102
   D38        0.00000   0.00006   0.00000   0.00027   0.00027   0.00026
   D39        2.13619   0.00593   0.00000   0.02174   0.02175   2.15795
   D40       -2.13620  -0.00587   0.00000  -0.02148  -0.02148  -2.15767
   D41       -2.13620   0.00331   0.00000   0.00712   0.00747  -2.12873
   D42        0.00000   0.00591   0.00000   0.01217   0.01244   0.01244
   D43        2.01080   0.00083   0.00000   0.00239   0.00283   2.01362
   D44        2.13619  -0.00334   0.00000  -0.00716  -0.00751   2.12869
   D45       -2.01080  -0.00074   0.00000  -0.00210  -0.00253  -2.01333
   D46        0.00000  -0.00583   0.00000  -0.01188  -0.01215  -0.01215
   D47        0.00000  -0.00003   0.00000  -0.00015  -0.00014  -0.00014
   D48        2.13619   0.00256   0.00000   0.00490   0.00483   2.14103
   D49       -2.13620  -0.00252   0.00000  -0.00488  -0.00478  -2.14098
   D50        0.00000   0.00006   0.00000   0.00028   0.00028   0.00028
   D51        2.13620   0.00593   0.00000   0.02175   0.02177   2.15796
   D52       -2.13619  -0.00586   0.00000  -0.02146  -0.02146  -2.15766
   D53       -3.05385  -0.00784   0.00000  -0.01535  -0.01514  -3.06899
   D54       -0.95946  -0.00773   0.00000  -0.01485  -0.01459  -0.97405
   D55        1.13494  -0.00777   0.00000  -0.01503  -0.01479   1.12014
   D56        0.95946   0.00775   0.00000   0.01486   0.01460   0.97406
   D57        3.05385   0.00787   0.00000   0.01536   0.01514   3.06900
   D58       -1.13494   0.00783   0.00000   0.01518   0.01494  -1.12000
   D59       -1.04720  -0.00012   0.00000  -0.00045  -0.00047  -1.04767
   D60        1.04720   0.00000   0.00000   0.00005   0.00007   1.04727
   D61        3.14159  -0.00004   0.00000  -0.00013  -0.00013   3.14146
   D62        0.95946   0.00775   0.00000   0.01486   0.01460   0.97405
   D63        3.05385   0.00787   0.00000   0.01535   0.01513   3.06898
   D64       -1.13494   0.00782   0.00000   0.01517   0.01493  -1.12001
   D65       -3.05385  -0.00785   0.00000  -0.01538  -0.01517  -3.06902
   D66       -0.95946  -0.00773   0.00000  -0.01489  -0.01463  -0.97409
   D67        1.13494  -0.00777   0.00000  -0.01507  -0.01483   1.12011
   D68       -1.04720  -0.00012   0.00000  -0.00045  -0.00047  -1.04767
   D69        1.04720   0.00000   0.00000   0.00004   0.00007   1.04726
   D70        3.14159  -0.00004   0.00000  -0.00014  -0.00014   3.14146
   D71        3.14159  -0.00003   0.00000  -0.00013  -0.00013   3.14146
   D72        0.00000  -0.00003   0.00000  -0.00014  -0.00015  -0.00014
   D73       -3.14159  -0.00003   0.00000  -0.00014  -0.00015   3.14145
   D74        0.00000  -0.00003   0.00000  -0.00013  -0.00014  -0.00014
         Item               Value     Threshold  Converged?
 Maximum Force            0.128202     0.000450     NO 
 RMS     Force            0.017703     0.000300     NO 
 Maximum Displacement     0.188542     0.001800     NO 
 RMS     Displacement     0.059646     0.001200     NO 
 Predicted change in Energy=-4.907735D-02
 GradGradGradGradGradGradGradGradGradGradGradGradGradGradGradGradGradGrad

                          Input orientation:                          
 ---------------------------------------------------------------------
 Center     Atomic      Atomic             Coordinates (Angstroms)
 Number     Number       Type             X           Y           Z
 ---------------------------------------------------------------------
      1          6           0       -0.780258   -0.623073    0.246426
      2          6           0        0.618919   -0.634434    0.237829
      3          6           0        1.312872    0.549776   -0.024197
      4          6           0        0.630056    1.742388   -0.277206
      5          6           0       -0.769150    1.748102   -0.267476
      6          6           0       -1.485516    0.566850   -0.005875
      7          1           0       -1.322459   -1.532182    0.447642
      8          1           0        1.162358   -1.545110    0.430818
      9          1           0        1.181987    2.646385   -0.477364
     10          1           0       -1.302815    2.663770   -0.461647
     11          6           0       -5.144087    1.833262   -0.252182
     12          6           0       -5.155783   -0.654826    0.288354
     13          6           0       -5.919835    0.593924    0.023108
     14          1           0       -5.410607    2.594642    0.471604
     15          1           0       -5.441009   -1.412851   -0.431814
     16          5           0       -3.028758    0.576258    0.004214
     17          1           0       -5.423793    2.226757   -1.222444
     18          1           0       -5.427586   -1.044933    1.262230
     19          6           0       -6.865335    0.334090   -1.191041
     20          1           0       -7.500491   -0.521459   -0.995134
     21          1           0       -7.492859    1.199005   -1.369763
     22          1           0       -6.273233    0.138439   -2.077701
     23          6           0       -6.846114    0.865233    1.249503
     24          1           0       -7.473261    1.728517    1.061892
     25          1           0       -7.481816    0.008068    1.436499
     26          1           0       -6.240120    1.053533    2.128332
     27          8           0       -3.716605    1.763822   -0.248161
     28          8           0       -3.727718   -0.602831    0.265661
     29          9           0        2.679011    0.541440   -0.033133
 ---------------------------------------------------------------------
                    Distance matrix (angstroms):
                    1          2          3          4          5
     1  C    0.000000
     2  C    1.399250   0.000000
     3  C    2.414541   1.397348   0.000000
     4  C    2.803317   2.432009   1.397345   0.000000
     5  C    2.426251   2.803310   2.414536   1.399251   0.000000
     6  C    1.406045   2.435389   2.798500   2.435397   1.406049
     7  H    1.077473   2.149168   3.391482   3.880790   3.402618
     8  H    2.158219   1.077916   2.149010   3.404745   3.881183
     9  H    3.881190   3.404749   2.149013   1.077915   2.158217
    10  H    3.402613   3.880783   3.391482   2.149175   1.077474
    11  C    5.032415   6.288233   6.587233   5.774912   4.375793
    12  C    4.375841   5.774959   6.587279   6.288276   5.032451
    13  C    5.286417   6.656596   7.232996   6.656593   5.286409
    14  H    5.643095   6.843739   7.045031   6.146272   4.775562
    15  H    4.775600   6.146306   7.045066   6.843775   5.643128
    16  B    2.559847   3.850442   4.341804   3.850452   2.559857
    17  H    5.642830   6.843478   7.044907   6.146314   4.775645
    18  H    4.775717   6.146391   7.044981   6.843540   5.642878
    19  C    6.325396   7.680740   8.263843   7.681099   6.325810
    20  H    6.834715   8.213269   8.931161   8.470314   7.140823
    21  H    7.140802   8.470348   8.931570   8.214055   6.835555
    22  H    6.012839   7.311687   7.869883   7.312307   6.013556
    23  C    6.325806   7.681093   8.263829   7.680713   6.325360
    24  H    7.140816   8.470301   8.931134   8.213228   6.834670
    25  H    6.835605   8.214106   8.931608   8.470367   7.140808
    26  H    6.013540   7.312294   7.869869   7.311665   6.012806
    27  O    3.816283   4.978412   5.178774   4.346810   2.947560
    28  O    2.947592   4.346841   5.178809   4.978449   3.816314
    29  F    3.660709   2.387484   1.366194   2.387481   3.660705
                    6          7          8          9         10
     6  C    0.000000
     7  H    2.153648   0.000000
     8  H    3.415013   2.484908   0.000000
     9  H    3.415017   4.958660   4.288801   0.000000
    10  H    2.153644   4.293391   4.958654   2.484913   0.000000
    11  C    3.879383   5.140118   7.186873   6.382092   3.935606
    12  C    3.879422   3.935670   6.382147   7.186908   5.140130
    13  C    4.434496   5.082954   7.409396   7.409382   5.082925
    14  H    4.443677   5.808976   7.768080   6.660744   4.213038
    15  H    4.443710   4.213090   6.660786   7.768111   5.808991
    16  B    1.543304   2.748382   4.716741   4.716749   2.748384
    17  H    4.443575   5.808593   7.767731   6.660898   4.213342
    18  H    4.443630   4.213434   6.660989   7.767784   5.808611
    19  C    5.513732   6.073856   8.402718   8.403299   6.074623
    20  H    6.192170   6.424270   8.838900   9.256822   6.988668
    21  H    6.192575   6.988289   9.256622   8.839923   6.425485
    22  H    5.234332   5.803317   8.025896   8.026903   5.804651
    23  C    5.513711   6.074647   8.403310   8.402677   6.073790
    24  H    6.192147   6.988693   9.256825   8.838841   6.424194
    25  H    6.192600   6.425566   8.839995   9.256623   6.988259
    26  H    5.234306   5.804656   8.026903   8.025864   5.803260
    27  O    2.543462   4.132762   5.934166   4.982735   2.584930
    28  O    2.543492   2.584972   4.982771   5.934197   4.132773
    29  F    4.164694   4.532418   2.620912   2.620919   4.532422
                   11         12         13         14         15
    11  C    0.000000
    12  C    2.546153   0.000000
    13  C    1.487793   1.487786   0.000000
    14  H    1.083789   3.264591   2.112660   0.000000
    15  H    3.264610   1.083788   2.112670   4.108173   0.000000
    16  B    2.473947   2.473971   2.891192   3.156822   3.156838
    17  H    1.083735   3.264638   2.112724   1.733583   3.724532
    18  H    3.264632   1.083741   2.112720   3.724498   1.733588
    19  C    2.468130   2.467616   1.560654   3.160809   2.378431
    20  H    3.413111   2.676338   2.186177   4.028526   2.313737
    21  H    2.677312   3.412912   2.186463   3.110339   3.451323
    22  H    2.734943   2.734260   2.178476   3.643626   2.409988
    23  C    2.467597   2.468118   1.560655   2.378374   3.160824
    24  H    2.676343   3.413121   2.186208   2.313689   4.028573
    25  H    3.412910   2.677331   2.186478   3.451275   3.110386
    26  H    2.734248   2.734922   2.178483   2.409949   3.643621
    27  O    1.429176   2.865125   2.509277   2.019397   3.619192
    28  O    2.865103   1.429191   2.509269   3.619166   2.019398
    29  F    7.932065   7.932112   8.599190   8.361358   8.361394
                   16         17         18         19         20
    16  B    0.000000
    17  H    3.156744   0.000000
    18  H    3.156776   4.108233   0.000000
    19  C    4.025742   2.379331   3.160279   0.000000
    20  H    4.711695   3.452106   3.109124   1.083405   0.000000
    21  H    4.712094   2.314954   4.028399   1.083423   1.760795
    22  H    3.879777   2.411241   3.642887   1.083989   1.764534
    23  C    4.025724   3.160264   2.379310   2.497746   2.718367
    24  H    4.711687   3.109140   3.452094   2.718401   3.048686
    25  H    4.712113   4.028401   2.314961   2.718512   2.488692
    26  H    3.879756   3.642875   2.411205   3.453509   3.718222
    27  O    1.395398   2.019413   3.619094   3.584363   4.483110
    28  O    1.395403   3.619074   2.019444   3.583914   3.978699
    29  F    5.707998   8.361232   8.361307   9.616563  10.279954
                   21         22         23         24         25
    21  H    0.000000
    22  H    1.764501   0.000000
    23  C    2.718500   3.453507   0.000000
    24  H    2.488717   3.718260   1.083408   0.000000
    25  H    3.048534   3.718504   1.083428   1.760781   0.000000
    26  H    3.718492   4.304556   1.083986   1.764521   1.764494
    27  O    3.979587   3.539129   3.583893   3.978687   4.483032
    28  O    4.483025   3.538428   3.584347   4.483109   3.979612
    29  F   10.280365   9.191590   9.616548  10.279925  10.280404
                   26         27         28         29
    26  H    0.000000
    27  O    3.538412   0.000000
    28  O    3.539103   2.421814   0.000000
    29  F    9.191576   6.514933   6.514968   0.000000
 Symmetry turned off by external request.
 Stoichiometry    C11H14BFO2
 Framework group  C1[X(C11H14BFO2)]
 Deg. of freedom    81
 Full point group                 C1      NOp   1
 Rotational constants (GHZ):      2.0352305      0.2446115      0.2294797
 Standard basis: 6-31G (6D, 7F)
   163 basis functions,   386 primitive gaussians,   163 cartesian basis functions
    55 alpha electrons       55 beta electrons
       nuclear repulsion energy       950.9877459138 Hartrees.
 NAtoms=   29 NActive=   29 NUniq=   29 SFac= 1.00D+00 NAtFMM=   60 NAOKFM=F Big=F
 Integral buffers will be    131072 words long.
 Raffenetti 2 integral format.
 Two-electron integral symmetry is turned off.
 Nuclear repulsion after empirical dispersion term =      950.9621834053 Hartrees.
 One-electron integrals computed using PRISM.
 NBasis=   163 RedAO= T EigKep=  7.13D-04  NBF=   163
 NBsUse=   163 1.00D-06 EigRej= -1.00D+00 NBFU=   163
 Initial guess from the checkpoint file:  "E:\PROJECT- VIT group\ML\Substrates\molecule_14.chk"
 B after Tr=     0.019413   -0.000117   -0.000173
         Rot=    1.000000   -0.000021    0.000000   -0.000001 Ang=   0.00 deg.
 ExpMin= 1.27D-01 ExpMax= 7.00D+03 ExpMxC= 1.05D+03 IAcc=1 IRadAn=         1 AccDes= 0.00D+00
 Harris functional with IExCor=  402 and IRadAn=       1 diagonalized for initial guess.
 HarFok:  IExCor=  402 AccDes= 0.00D+00 IRadAn=         1 IDoV= 1 UseB2=F ITyADJ=14
 ICtDFT=  3500011 ScaDFX=  1.000000  1.000000  1.000000  1.000000
 FoFCou: FMM=F IPFlag=           0 FMFlag=      100000 FMFlg1=           0
         NFxFlg=           0 DoJE=T BraDBF=F KetDBF=T FulRan=T
         wScrn=  0.000000 ICntrl=     500 IOpCl=  0 I1Cent=   200000004 NGrid=           0
         NMat0=    1 NMatS0=      1 NMatT0=    0 NMatD0=    1 NMtDS0=    0 NMtDT0=    0
 Symmetry not used in FoFCou.
 Keep R1 ints in memory in canonical form, NReq=91637322.
 Requested convergence on RMS density matrix=1.00D-08 within 128 cycles.
 Requested convergence on MAX density matrix=1.00D-06.
 Requested convergence on             energy=1.00D-06.
 No special actions if energy rises.
 Integral accuracy reduced to 1.0D-05 until final iterations.
 Initial convergence to 1.0D-05 achieved.  Increase integral accuracy.
 SCF Done:  E(RB3LYP) =  -702.674749501     A.U. after   12 cycles
            NFock= 12  Conv=0.67D-08     -V/T= 2.0047
 Calling FoFJK, ICntrl=      2127 FMM=F ISym2X=0 I1Cent= 0 IOpClX= 0 NMat=1 NMatS=1 NMatT=0.
 -------------------------------------------------------------------
 Center     Atomic                   Forces (Hartrees/Bohr)
 Number     Number              X              Y              Z
 -------------------------------------------------------------------
      1        6           0.009417994    0.006218577   -0.001419385
      2        6           0.000422912    0.000246959   -0.000049630
      3        6          -0.029186662    0.000177431    0.000186212
      4        6           0.000425596   -0.000256383    0.000042298
      5        6           0.009364341   -0.006329194    0.001299811
      6        6          -0.007595016    0.000050023    0.000052015
      7        1          -0.002901700   -0.003651009    0.000817871
      8        1           0.003634469   -0.002917774    0.000602925
      9        1           0.003660171    0.002873127   -0.000650348
     10        1          -0.002869327    0.003684491   -0.000778539
     11        6           0.006811356    0.032123881   -0.007146499
     12        6           0.006498863   -0.032184694    0.007063678
     13        6          -0.053028792    0.000310597    0.000334790
     14        1           0.000350652    0.007076036    0.005224912
     15        1           0.000191532   -0.007082525   -0.005236348
     16        5          -0.006504511    0.000034708    0.000041984
     17        1           0.000146378    0.004196983   -0.007695171
     18        1           0.000196798   -0.004202958    0.007686084
     19        6           0.007315834    0.001520199    0.007384180
     20        1          -0.005562047   -0.006170811    0.000106839
     21        1          -0.005520075    0.005722512   -0.002523495
     22        1           0.003136013   -0.001816323   -0.008193536
     23        6           0.007220932   -0.001598316   -0.007476834
     24        1          -0.005492264    0.006240377   -0.000029064
     25        1          -0.005567611   -0.005650040    0.002604611
     26        1           0.003254571    0.001770030    0.008150702
     27        8           0.022101306   -0.013463331    0.002778206
     28        8           0.022246192    0.013186652   -0.003063579
     29        9           0.017832093   -0.000109223   -0.000114690
 -------------------------------------------------------------------
 Cartesian Forces:  Max     0.053028792 RMS     0.010177206

 GradGradGradGradGradGradGradGradGradGradGradGradGradGradGradGradGradGrad
 Berny optimization.
 Using GEDIIS/GDIIS optimizer.
 FormGI is forming the generalized inverse of G from B-inverse, IUseBI=4.
 Internal  Forces:  Max     0.045188818 RMS     0.006699029
 Search for a local minimum.
 Step number   2 out of a maximum of  167
 All quantities printed in internal units (Hartrees-Bohrs-Radians)
 Mixed Optimization -- RFO/linear search
 Update second derivatives using D2CorX and points    1    2
 DE= -4.42D-02 DEPred=-4.91D-02 R= 9.00D-01
 TightC=F SS=  1.41D+00  RLast= 3.09D-01 DXNew= 5.0454D-01 9.2672D-01
 Trust test= 9.00D-01 RLast= 3.09D-01 DXMaxT set to 5.05D-01
 ITU=  1  0
 Use linear search instead of GDIIS.
     Eigenvalues ---    0.00237   0.00237   0.00766   0.01515   0.01664
     Eigenvalues ---    0.01868   0.02006   0.02070   0.02070   0.02070
     Eigenvalues ---    0.02070   0.02070   0.02070   0.02070   0.02070
     Eigenvalues ---    0.02117   0.04361   0.04672   0.05145   0.05585
     Eigenvalues ---    0.05585   0.05644   0.05645   0.06098   0.06472
     Eigenvalues ---    0.06883   0.07386   0.11855   0.12515   0.13121
     Eigenvalues ---    0.13200   0.14601   0.15967   0.16000   0.16000
     Eigenvalues ---    0.16000   0.16000   0.16000   0.16000   0.16000
     Eigenvalues ---    0.16000   0.16053   0.16481   0.22000   0.22890
     Eigenvalues ---    0.23334   0.23994   0.24912   0.25000   0.25000
     Eigenvalues ---    0.25000   0.28509   0.28519   0.28936   0.36903
     Eigenvalues ---    0.37230   0.37230   0.37230   0.37230   0.37230
     Eigenvalues ---    0.37230   0.37230   0.37230   0.37230   0.37230
     Eigenvalues ---    0.37230   0.37230   0.37236   0.41215   0.41277
     Eigenvalues ---    0.41691   0.42369   0.44730   0.45389   0.45389
     Eigenvalues ---    0.45389   0.45389   0.45389   0.45389   0.51226
     Eigenvalues ---    0.55104
 RFO step:  Lambda=-4.07328509D-03 EMin= 2.36824086D-03
 Quartic linear search produced a step of  0.80212.
 Iteration  1 RMS(Cart)=  0.04646177 RMS(Int)=  0.00070819
 Iteration  2 RMS(Cart)=  0.00080467 RMS(Int)=  0.00039419
 Iteration  3 RMS(Cart)=  0.00000043 RMS(Int)=  0.00039419
 Variable       Old X    -DE/DX   Delta X   Delta X   Delta X     New X
                                 (Linear)    (Quad)   (Total)
    R1        2.64420  -0.00160  -0.00326  -0.00154  -0.00480   2.63940
    R2        2.65704   0.00320   0.00704   0.00300   0.01002   2.66706
    R3        2.03613   0.00469   0.01133   0.00586   0.01719   2.05332
    R4        2.64061  -0.00350  -0.00614  -0.00546  -0.01158   2.62903
    R5        2.03697   0.00440   0.01200   0.00350   0.01549   2.05246
    R6        2.64060  -0.00350  -0.00615  -0.00546  -0.01158   2.62902
[...]
 54,0.00166755,0.00157564,-0.00040371,0.00120548,-0.00013785,0.00055102
 ,0.00003268,0.00022181,-0.00043563,-0.00117078,0.00040837,-0.00022292,
 -0.00063456,0.00212751,0.01151970,-0.00348339,-0.01550355,0.00039208,-
 0.00015547,-0.00063741,0.00041178,-0.00014795,-0.00051186,-0.00211638,
 -0.00109981,-0.00496215,0.54301701,-0.00006126,-0.00009009,0.00000934,
 -0.00004669,0.00004180,0.00000044,0.00002044,0.00002326,-0.00000332,0.
 00002923,0.00004849,-0.00001861,0.00005385,-0.00006578,0.00001463,-0.0
 0004526,0.00045404,-0.00011354,-0.00004318,0.00004852,-0.00001161,-0.0
 0001200,0.00000124,0.00000129,0.00000446,-0.00000273,0.00000114,0.0000
 6384,0.00005795,-0.00000393,-0.01674497,-0.00061714,0.02144846,0.01922
 134,-0.01223489,-0.01956554,0.00802603,-0.07876423,-0.01245671,-0.0035
 0868,0.00085631,0.00166677,0.00076047,-0.00255429,-0.00013197,0.000251
 72,-0.00381347,0.00094399,-0.00082561,-0.00261646,0.00138568,0.0034223
 7,0.00059265,-0.00158455,0.00320347,0.00031761,-0.00839185,0.00027565,
 -0.00027015,-0.00077286,0.00028404,0.00019746,0.00122726,-0.00069472,0
 .00002305,-0.00082672,0.01441593,0.58329602,-0.00000290,-0.00003640,-0
 .00000477,-0.00003307,-0.00003461,0.00000415,0.00009291,-0.00000438,0.
 00000634,-0.00004994,0.00001376,-0.00000201,-0.00002902,0.00006666,-0.
 00002985,-0.00021699,-0.00011497,-0.00003758,0.00005854,-0.00002907,0.
 00001716,-0.00001532,0.00000961,0.00000238,-0.00001925,-0.00000729,0.0
 0000608,0.00003457,0.00000890,0.00000927,0.00952488,0.00494290,-0.0079
 0621,0.00144001,-0.00298631,0.00354819,0.03688905,-0.01247520,-0.13247
 316,0.00007795,-0.00171991,0.00106635,-0.00023781,0.00153025,0.0000434
 5,0.00124761,0.00094917,0.00025423,0.00010938,-0.00027922,0.00011758,-
 0.00147226,0.00197569,0.00094248,0.01471932,-0.00855992,-0.03597181,0.
 00127122,0.00029123,0.00131671,0.00124527,0.00020727,0.00084898,-0.003
 14818,-0.00083584,-0.00361371,0.06304015,-0.02017908,0.50228100,0.0000
 2794,0.00002501,-0.00000078,0.00000423,-0.00002936,0.00000340,0.000030
 40,-0.00000463,0.00000097,-0.00002346,-0.00001031,-0.00000019,-0.00002
 320,0.00005050,-0.00001145,-0.00005448,-0.00018271,0.00005764,0.000026
 79,-0.00002598,0.00000387,0.00000157,0.00000207,-0.00000091,-0.0000092
 5,-0.00000166,0.00000097,-0.00000684,-0.00000910,0.00000499,-0.0005570
 7,0.00214730,0.00040018,-0.00029965,0.00026051,0.00338230,-0.01212236,
 0.01546142,-0.00334150,-0.00083394,-0.00125121,-0.00030113,-0.00049932
 ,0.00065826,0.00017345,0.00054453,0.00142045,-0.00043992,-0.00010998,-
 0.00014804,-0.00001145,-0.00006303,-0.00042413,0.00017589,0.00038720,-
 0.00029101,-0.00123730,0.00003434,-0.00015730,0.00010497,0.00069923,-0
 .00026096,0.00037314,-0.00002794,-0.00030925,-0.00002493,-0.13625429,0
 .11860290,-0.02558566,0.14866742,-0.00002104,0.00000633,-0.00000509,0.
 00001328,0.00002828,-0.00000622,-0.00006831,0.00000494,0.00000087,0.00
 003167,-0.00000676,-0.00000223,0.00001883,-0.00005001,0.00001187,0.000
 10499,0.00012539,0.00000394,-0.00003009,0.00001990,-0.00000352,0.00000
 444,-0.00000486,0.00000157,0.00001100,0.00000446,-0.00000107,-0.000007
 81,0.00000117,0.00000188,-0.00118634,0.00006718,-0.00036902,0.00015021
 ,0.00074854,-0.00012026,0.00280405,-0.00488949,0.00272064,-0.00036713,
 0.00041099,0.00026090,0.00005822,-0.00021506,-0.00018508,-0.00048078,-
 0.00082450,0.00023620,0.00019577,0.00023637,-0.00005437,-0.00002732,0.
 00062572,-0.00056363,0.00014600,-0.00026691,0.00029148,0.00015652,-0.0
 0003831,-0.00003825,-0.00039988,0.00040668,-0.00075693,-0.00033653,0.0
 0025737,-0.00004734,0.11946521,-0.21460931,0.03454816,-0.13304118,0.23
 355898,-0.00000568,-0.00001031,0.00000599,-0.00000248,0.00001029,0.000
 00004,-0.00000317,0.00000628,-0.00000222,0.00001127,0.00000517,-0.0000
 0233,0.00001599,-0.00001430,0.00000410,0.00003352,0.00009198,-0.000025
 69,-0.00001626,0.00001296,-0.00000809,0.00000091,-0.00000118,-0.000000
 58,0.00000275,0.00000038,0.00000017,0.00000386,0.00000572,0.00000043,-
 0.00008514,-0.00123399,0.00036152,0.00241648,0.00001861,-0.00381331,0.
 01744431,-0.02172950,0.00196944,-0.00023673,0.00029011,0.00026881,0.00
 017770,-0.00079627,0.00033960,-0.00031910,-0.00080530,0.00005996,0.000
 00931,-0.00002647,-0.00010886,0.00026308,-0.00013355,0.00023676,0.0006
 1633,-0.00075883,0.00132465,-0.00010727,-0.00003646,-0.00010038,-0.000
 18566,0.00026083,-0.00072148,-0.00006840,0.00032399,0.00035287,-0.0267
 2222,0.03595396,-0.05674410,0.02527837,-0.03828540,0.06177310,-0.00002
 387,-0.00005097,0.00000880,-0.00002376,0.00000958,-0.00000397,0.000031
 00,0.00000454,-0.00000065,0.00000452,0.00002865,-0.00000821,0.00002822
 ,-0.00002407,0.00000840,-0.00005337,0.00019199,-0.00002423,-0.00000677
 ,0.00001061,0.00000118,-0.00000929,0.00000208,0.00000039,0.00000157,-0
 .00000231,0.00000009,0.00002733,0.00002543,-0.00000619,-0.00028678,0.0
 0121688,0.00317474,-0.00070615,-0.00170014,0.00124805,-0.01212090,-0.0
 1546225,0.00357641,-0.00005828,0.00046183,-0.00002205,-0.00011959,0.00
 014010,-0.00006711,0.00053380,-0.00148800,0.00020041,-0.00050774,-0.00
 051962,0.00043751,-0.00075025,0.00095684,-0.00085194,0.00040152,-0.000
 26959,-0.00124167,0.00069338,0.00039484,0.00016029,0.00003425,0.000182
 97,0.00002784,-0.00002057,0.00027250,-0.00015501,-0.13857336,-0.118910
 64,0.02748328,0.01172935,0.01671994,-0.00406905,0.15119414,-0.00000996
 ,-0.00003904,0.00000739,-0.00002393,-0.00000725,0.00000424,0.00006044,
 0.00000045,-0.00000204,-0.00001297,0.00002174,-0.00000282,0.00001620,0
 .00001184,0.00000184,-0.00008036,0.00005999,-0.00004420,0.00000884,-0.
 00000201,-0.00000097,-0.00000866,0.00000409,-0.00000052,-0.00000368,-0
 .00000420,0.00000007,0.00002025,0.00001102,-0.00000486,0.00090142,-0.0
 0006053,-0.00167976,0.00116485,0.00070878,0.00018841,0.00494179,0.0038
 4886,-0.00360429,0.00014191,0.00082256,0.00028630,-0.00016817,0.000200
 49,-0.00008665,0.00029021,-0.00043294,-0.00000150,0.00002735,0.0002699
 2,0.00021828,0.00010674,0.00025158,-0.00024182,0.00014373,0.00019442,0
 .00020772,0.00025893,0.00040698,0.00026300,-0.00018336,-0.00000310,-0.
 00001135,0.00027712,0.00016355,0.00013480,-0.12022239,-0.21082297,0.03
 850563,-0.01719392,-0.02096920,0.00448415,0.13210360,0.22919569,0.0000
 2270,0.00003468,-0.00000530,0.00002350,-0.00000305,-0.00000241,-0.0000
 3181,-0.00000757,0.00000138,0.00000312,-0.00002048,0.00000585,-0.00001
 382,0.00000717,0.00000129,0.00007359,-0.00013351,0.00003781,0.00000022
 ,-0.00000463,0.00000351,0.00000713,-0.00000222,0.00000056,0.00000275,0
 .00000287,-0.00000114,-0.00002748,-0.00002171,-0.00000122,0.00223758,-
 0.00180819,-0.00302868,-0.00055399,0.00104873,-0.00031336,0.01679470,0
 .02065106,-0.00645845,0.00022712,-0.00014307,0.00003461,0.00008205,-0.
 00012230,-0.00007083,-0.00048146,0.00104702,-0.00031562,0.00019690,0.0
 0083339,-0.00014100,-0.00025194,-0.00031422,0.00062846,0.00055257,0.00
 124478,0.00086387,-0.00040370,-0.00075813,-0.00075051,-0.00003161,-0.0
 0001849,-0.00013138,-0.00021134,-0.00023462,0.00044542,0.02712379,0.03
 720429,-0.05840762,0.00349966,0.00476998,-0.00124052,-0.03383626,-0.04
 101730,0.06342822,0.00000066,0.00001898,-0.00000243,0.00001263,0.00000
 942,-0.00000001,-0.00003659,-0.00000018,-0.00000101,0.00001225,-0.0000
 0891,0.00000368,0.00000037,-0.00001800,0.00000563,0.00006068,-0.000002
 25,-0.00000426,-0.00001036,0.00000491,-0.00000342,0.00000508,-0.000002
 96,-0.00000100,0.00000510,0.00000229,-0.00000208,-0.00001053,-0.000006
 03,-0.00000145,0.00123408,0.00050285,0.00043238,0.00121735,-0.00033588
 ,0.00051705,0.00878300,0.00415893,0.01876997,0.00010320,-0.00009031,-0
 .00024874,0.00002435,-0.00020763,0.00000487,-0.00032690,0.00003668,0.0
 0010453,0.00003178,0.00018953,-0.00008746,0.00012702,-0.00003684,-0.00
 025838,-0.00198279,0.00070766,0.00311498,-0.00001760,0.00034008,0.0000
 7769,-0.00002304,-0.00027216,0.00021445,0.00093174,0.00020497,0.000921
 89,-0.13551880,-0.02658592,-0.12109689,-0.01094596,-0.00486786,-0.0153
 1944,-0.01109855,-0.00206784,-0.01619904,0.14685437,0.00001420,0.00002
 270,0.00000372,0.00000713,-0.00001419,0.00000528,0.00000811,-0.0000011
 3,-0.00000166,-0.00001123,-0.00001020,0.00000142,-0.00001020,0.0000295
 0,-0.00000731,-0.00000965,-0.00009025,0.00002131,0.00000915,-0.0000138
 0,-0.00000672,0.00000326,-0.00000019,-0.00000234,-0.00000455,-0.000000
 54,0.00000031,-0.00000808,-0.00001031,0.00000561,0.00009509,0.00034783
 ,0.00115443,-0.00041076,0.00049666,-0.00122928,-0.00359512,-0.00200772
 ,-0.00508468,-0.00008370,-0.00053993,0.00043425,-0.00009046,0.00007089
 ,0.00036639,0.00004892,0.00080406,-0.00028189,-0.00002663,-0.00007423,
 -0.00016671,0.00012098,-0.00110564,0.00010049,0.00111087,0.00000051,-0
 .00089441,0.00031844,0.00024992,0.00031959,-0.00027311,0.00017005,-0.0
 0023394,-0.00021614,0.00048575,-0.00045921,-0.02609389,-0.05818533,-0.
 03584086,0.01602848,0.00481298,0.02252592,-0.01551287,-0.00456985,-0.0
 2212817,0.02843389,0.05987679,0.00000596,-0.00002035,0.00001854,-0.000
 01110,-0.00000639,0.00000496,0.00003569,-0.00000166,-0.00000761,-0.000
 00667,0.00001422,0.00000167,0.00001185,0.00001352,0.00001339,-0.000040
 22,0.00002169,-0.00000140,0.00000070,-0.00000124,-0.00001155,-0.000003
 54,0.00000124,-0.00000461,-0.00000165,-0.00000296,-0.00000430,0.000004
 93,0.00000158,-0.00001548,-0.00079478,-0.00160231,0.00029747,-0.000645
 89,0.00149454,0.00016078,-0.01568323,-0.00486426,-0.02296283,0.0001673
 2,0.00130032,0.00001918,-0.00026226,0.00013972,0.00035709,0.00019234,-
 0.00028411,-0.00038960,-0.00027883,0.00006299,0.00049670,0.00008966,-0
 .00082056,0.00063098,0.00493024,-0.00089927,-0.00372170,0.00003012,-0.
 00005136,0.00035299,0.00016194,0.00013716,0.00043827,-0.00095996,-0.00
 044959,-0.00144625,-0.11903739,-0.03581755,-0.21407442,-0.00254053,-0.
 00191963,-0.00414308,0.00448872,0.00215133,0.00538830,0.12944749,0.041
 04024,0.23785248,-0.00318832,-0.00451623,0.00094871,-0.00228484,0.0005
 1111,-0.00006139,0.00235003,0.00106483,-0.00023332,-0.00009758,0.00116
 688,-0.00021681,-0.00085250,0.00213004,-0.00049032,-0.01921224,0.02867
 448,-0.00614028,0.00026070,0.00019914,-0.00005746,-0.00070481,0.000139
 80,-0.00002206,-0.00027406,-0.00019682,0.00003922,-0.00035000,0.000894
 94,-0.00020941,-0.17209911,0.01467090,-0.00261066,-0.01115975,0.004795
 52,-0.00089050,-0.02190886,0.00041453,0.00001287,-0.03374051,0.0063309
 9,0.00092887,0.00138002,-0.00053056,0.00028272,-0.13038222,0.10982993,
 -0.02388432,-0.03406769,0.00545105,-0.00307828,0.00136864,-0.00062302,
 -0.00005664,-0.00169210,-0.00318687,0.00347290,-0.00127367,-0.00092352
 ,-0.00123876,0.00096603,0.00010510,0.00036701,0.00026968,0.00044389,-0
 .00047102,-0.00171374,-0.00431482,-0.00175545,0.00095981,-0.00006520,-
 0.00039143,-0.00124301,-0.00030090,0.00153051,0.00026447,0.00060079,0.
 00026005,0.41051048,-0.00087506,0.00221451,-0.00019870,0.00089917,0.00
 077141,-0.00022705,-0.00153558,-0.00030703,0.00004760,0.00091862,0.000
 34133,-0.00016342,-0.00162588,-0.00486757,0.00117744,0.00989813,-0.003
 16278,0.00191583,-0.00071889,0.00055259,-0.00008548,0.00018691,-0.0000
 8294,-0.00001367,0.00034100,0.00008950,-0.00002627,-0.00010539,0.00092
 654,-0.00033440,0.02737807,-0.07851692,0.00369611,0.02163685,0.0029676
 8,-0.00105707,-0.02184122,0.01034280,-0.00209584,0.03196352,0.00008997
 ,0.00272842,-0.00213203,0.00052500,-0.00061797,0.08407258,-0.22763110,
 0.04114406,0.01981916,0.00102917,0.00057693,-0.00215191,0.00061277,0.0
 0038811,-0.00111443,-0.00058972,0.00077853,0.00015862,0.00014257,-0.00
 047244,-0.00103284,0.00023123,-0.00034225,0.00027077,-0.00036428,0.000
 03907,-0.00090708,-0.00068446,-0.00074764,-0.00116090,0.00042197,0.000
 32463,0.00019326,0.00051609,0.00024669,0.00016220,-0.00037894,0.000329
 07,-0.16318967,0.35958133,0.00021375,-0.00022690,0.00120613,-0.0001895
 7,-0.00021694,-0.00020951,0.00031587,0.00004165,-0.00015020,-0.0001875
 1,-0.00014988,-0.00034653,0.00035746,0.00118002,0.00056190,-0.00202380
 ,0.00175437,0.00520439,0.00015624,-0.00011118,0.00004846,-0.00003906,-
 0.00001101,-0.00013423,-0.00007165,-0.00002535,-0.00002280,0.00005059,
 -0.00030712,-0.00050480,-0.00567177,0.00382776,-0.06261729,-0.00474517
 ,-0.00108147,-0.00093527,0.00503150,-0.00217813,0.00120915,0.02137636,
 -0.00137380,0.00863776,0.00052377,0.00020568,0.00001414,-0.01810668,0.
 04107933,-0.04742524,-0.03240380,0.00489901,0.00800674,0.00040074,-0.0
 0047135,-0.00005330,-0.00020452,-0.00047099,-0.00069208,-0.00008621,-0
 .00053078,0.00006830,0.00054116,-0.00008917,0.00034097,0.00019172,0.00
 033974,0.00040185,0.00066061,0.00053618,-0.00054481,-0.00006150,0.0000
 5582,0.00016248,0.00001998,0.00032498,-0.00032487,-0.00020622,0.000012
 56,0.00034950,0.03414329,-0.06595087,0.07114454,-0.00086356,-0.0021639
 5,0.00052057,-0.00011705,-0.00116344,0.00021175,0.00235328,-0.00109783
 ,0.00020147,-0.00229857,-0.00047543,0.00008680,-0.00313562,0.00457824,
 -0.00089612,-0.01957697,-0.02845613,0.00647478,-0.00036793,-0.00087483
 ,0.00021102,-0.00027529,0.00020099,-0.00003629,-0.00070774,-0.00013208
 ,0.00002970,0.00026560,-0.00019723,0.00005349,-0.01137727,-0.00463471,
 0.00103126,-0.17237216,-0.01355214,0.00399939,-0.02173489,-0.00006298,
 0.00020445,0.00139936,0.00052575,-0.00030926,-0.03445476,-0.00593104,-
 0.00036462,-0.13216363,-0.11045579,0.02538314,0.00139724,0.00060791,0.
 00004165,-0.03392525,-0.00498694,0.00360093,-0.00163299,0.00434732,0.0
 0176297,0.00098028,0.00005627,0.00038321,-0.00126514,0.00032456,-0.001
 51489,0.00025177,-0.00061162,-0.00025461,-0.00167895,0.00318693,-0.003
 43922,-0.00124370,0.00093459,0.00124967,0.00096216,-0.00011419,-0.0003
 7888,0.00025593,-0.00044359,0.00048002,0.02092149,-0.00124599,0.000375
 01,0.41342588,0.00159341,-0.00486202,0.00115007,-0.00091480,0.00036716
 ,-0.00015388,0.00150389,-0.00031300,0.00002516,-0.00086461,0.00078811,
 -0.00021632,0.00093649,0.00214895,-0.00020017,-0.00967465,-0.00270120,
 0.00196284,0.00012439,0.00093182,-0.00034157,-0.00033693,0.00009126,-0
 .00002146,-0.00017961,-0.00007901,-0.00001159,0.00072113,0.00054615,-0
 .00009528,-0.02146995,0.00325298,-0.00076493,-0.02633500,-0.07798702,0
 .00395316,0.02222849,0.01009240,-0.00234288,0.00211307,0.00049690,-0.0
 0064280,-0.03148809,0.00054190,0.00312509,-0.08467114,-0.22531695,0.04
 190597,0.00214738,0.00057730,0.00036225,-0.01942626,0.00131489,0.00077
 906,0.00091536,-0.00075350,-0.00078112,0.00115835,0.00040553,0.0003030
 1,-0.00016780,0.00051450,0.00026944,-0.00016719,-0.00036690,0.00033728
 ,0.00113262,-0.00063385,0.00080294,-0.00014996,0.00013477,-0.00048352,
 0.00101896,0.00021987,-0.00035139,-0.00026956,-0.00036086,0.00003128,0
 .00045893,-0.06497647,0.01895730,0.16176230,0.35569983,-0.00032577,0.0
 0121201,0.00056083,0.00018196,-0.00013723,-0.00035176,-0.00034742,0.00
 005994,-0.00014883,0.00021374,-0.00021426,-0.00021302,-0.00016303,-0.0
 0028204,0.00122104,0.00236871,0.00208146,0.00509933,-0.00005215,-0.000
 29284,-0.00050981,0.00007438,-0.00002874,-0.00002319,0.00004597,-0.000
 00981,-0.00013513,-0.00016004,-0.00010651,0.00005015,0.00486547,-0.001
 07210,-0.00100017,0.00702785,0.00392968,-0.06278367,-0.00474317,-0.002
 09312,0.00128042,-0.00053873,0.00020521,0.00002422,-0.02087404,-0.0010
 5204,0.00891699,0.01962224,0.04221426,-0.04796671,-0.00042518,-0.00047
 288,-0.00004884,0.03297528,0.00457172,0.00756028,-0.00064514,0.0004925
 2,-0.00055656,0.00005193,0.00005345,0.00015604,-0.00000561,0.00032056,
 -0.00030552,0.00020806,0.00001638,0.00034905,0.00020750,-0.00051352,-0
 .00065210,0.00009580,-0.00054361,0.00005062,-0.00054891,-0.00008035,0.
 00035361,-0.00018349,0.00034357,0.00039624,-0.00020495,0.01897217,0.01
 648155,-0.03912151,-0.06754897,0.07207676,0.00448828,-0.00489954,0.001
 03427,-0.04146149,0.00121730,0.00009704,-0.29084789,0.00142898,0.00171
 509,-0.04107421,-0.00063292,0.00050856,0.00450124,0.00479801,-0.000961
 75,-0.00548589,0.00005041,0.00002111,-0.00143141,0.00019583,-0.0000299
 0,0.00212723,0.00004346,-0.00003865,0.00211223,-0.00005209,-0.00005236
 ,-0.00142007,-0.00017652,0.00004642,0.00139914,-0.00033025,0.00006993,
 0.00140221,0.00031380,-0.00008716,-0.00019716,0.00000110,0.00000075,-0
 .00026485,0.00008033,0.00008080,-0.00026666,-0.00007690,-0.00007753,0.
 00709274,-0.00004484,-0.00005340,-0.00026502,0.00003758,-0.00010484,-0
 .00026405,-0.00003469,0.00010810,-0.00005072,0.00002968,0.00013294,-0.
 00003960,-0.00008429,-0.00000788,-0.00003866,0.00007355,-0.00004297,0.
 00004763,0.00000868,0.00004028,-0.00005280,-0.00002893,-0.00013217,-0.
 00003837,0.00008475,0.00000845,-0.00003901,-0.00007306,0.00004344,0.00
 004706,-0.00000932,-0.00004097,-0.00300634,0.00173799,-0.00036061,-0.0
 0302150,-0.00169922,0.00040027,0.36604794,0.00340008,-0.00680055,0.002
 96012,-0.04033467,0.00628201,0.00005085,0.00142891,-0.06751624,0.00643
 308,0.04092421,0.00578839,-0.00049191,-0.00350100,-0.00681813,0.003018
 05,0.00005039,0.00375405,-0.00107571,-0.00136603,0.00021160,-0.0000606
 6,0.00142447,0.00253650,-0.00136582,-0.00143853,0.00255789,-0.00134365
 ,0.00138539,0.00019680,-0.00007962,-0.00003577,0.00001898,-0.00000385,
 0.00001852,0.00001470,-0.00000325,0.00000119,-0.00000166,-0.00000150,-
 0.00001279,0.00000319,0.00000584,0.00001621,0.00000398,0.00000665,-0.0
 0004576,-0.00006219,-0.00019782,-0.00000885,-0.00000151,-0.00000468,0.
 00001207,-0.00000118,-0.00000614,0.00000068,0.00000638,-0.00000315,0.0
 0000581,0.00000337,0.00000012,-0.00000534,0.00000234,-0.00000102,-0.00
 000054,-0.00000460,0.00000183,0.00000002,0.00000674,-0.00000149,-0.000
 00529,0.00000240,0.00000009,0.00000584,0.00000318,-0.00000163,-0.00000
 008,-0.00000451,0.00000232,-0.00003525,0.00020575,-0.00001948,0.000075
 04,0.00022648,-0.00002492,-0.00195891,0.05938582,-0.00066607,0.0030252
 4,0.00716197,0.00861783,-0.00029250,0.00484836,0.00171416,0.00640717,-
 0.03748295,-0.00800912,-0.00017848,0.00495365,0.00073789,0.00295107,0.
 00716609,0.00002059,-0.00108447,-0.00125730,0.00028821,-0.00007263,-0.
 00012705,-0.00033532,-0.00132246,-0.00366331,0.00024304,-0.00132728,-0
 .00366643,-0.00027168,-0.00006660,-0.00012376,-0.00000242,-0.00000011,
 0.00000058,-0.00001603,-0.00000433,0.00000167,0.00000123,-0.00000158,-
 0.00000951,-0.00000452,0.00000458,0.00000007,0.00000808,0.00000555,0.0
 0000105,-0.00005418,-0.00019844,-0.00100727,0.00001255,-0.00000453,0.0
 0000588,-0.00000906,-0.00000392,0.00000460,0.00000152,-0.00000248,-0.0
 0000398,-0.00000115,-0.00000052,0.00000021,0.00000136,-0.00000068,0.00
 000057,-0.00000126,0.00000198,0.00000378,-0.00000092,-0.00000207,-0.00
 000222,0.00000165,-0.00000165,0.00000008,-0.00000085,0.00000030,0.0000
 0001,0.00000072,0.00000208,0.00000430,0.00002688,-0.00003161,0.0001230
 9,0.00001411,-0.00000897,0.00011821,-0.00231726,-0.00779267,0.02294958
 ||-0.00001265,0.00000915,-0.00001126,0.00000546,0.00000673,-0.00001227
 ,0.00002867,-0.00000035,-0.00000039,0.00000555,-0.00000678,0.00001260,
 -0.00001255,-0.00000978,0.00000966,0.00001522,-0.00000050,-0.00000284,
 0.00000069,-0.00000948,-0.00001459,0.00000162,-0.00001168,-0.00001453,
 0.00000204,0.00001143,0.00001435,0.00000104,0.00000947,0.00001476,0.00
 004163,0.00002604,0.00001900,0.00004178,-0.00002068,-0.00000178,-0.000
 08139,-0.00000195,-0.00000807,0.00000715,-0.00000962,0.00003199,-0.000
 00331,0.00000486,-0.00002265,-0.00000730,0.00000275,0.00001278,-0.0000
 1148,0.00002321,0.00002017,-0.00000052,-0.00001433,-0.00001338,0.00005
 081,0.00000563,0.00001821,-0.00001285,-0.00000213,-0.00001056,-0.00001
 484,0.00001732,0.00000062,0.00000257,0.00001512,-0.00001901,0.00003771
 ,-0.00000820,-0.00002755,-0.00001167,0.00000334,0.00001115,-0.00001657
 ,-0.00001630,-0.00000122,0.00000254,-0.00001745,0.00001933,-0.00001633
 ,-0.00002760,-0.00003784,-0.00001501,0.00002175,0.00001345,-0.00002802
 ,0.00000001,-0.00000011|||@


 QED = W**5 (WHICH WAS WHAT WE WANTED)
 Job cpu time:       0 days  0 hours 27 minutes  0.0 seconds.
 File lengths (MBytes):  RWF=    116 Int=      0 D2E=      0 Chk=      4 Scr=      1
 Normal termination of Gaussian 09 at Wed Sep 13 18:54:20 2023.
