 Entering Gaussian System, Link 0=/home/ubuntu/g16/g16
 Input=/home/ubuntu/Downloads/MOLECULE_3-vol.gjf
 Output=/home/ubuntu/Downloads/MOLECULE_3-vol.log
 Initial command:
 /home/ubuntu/g16/l1.exe "/home/ubuntu/Scratch/Gau-8986.inp" -scrdir="/home/ubuntu/Scratch/"
 Entering Link 1 = /home/ubuntu/g16/l1.exe PID=      8988.
  
 Copyright (c) 1988-2017, Gaussian, Inc.  All Rights Reserved.
  
 This is part of the Gaussian(R) 16 program.  It is based on
 the Gaussian(R) 09 system (copyright 2009, Gaussian, Inc.),
 the Gaussian(R) 03 system (copyright 2003, Gaussian, Inc.),
 the Gaussian(R) 98 system (copyright 1998, Gaussian, Inc.),
 the Gaussian(R) 94 system (copyright 1995, Gaussian, Inc.),
 the Gaussian 92(TM) system (copyright 1992, Gaussian, Inc.),
 the Gaussian 90(TM) system (copyright 1990, Gaussian, Inc.),
 the Gaussian 88(TM) system (copyright 1988, Gaussian, Inc.),
 the Gaussian 86(TM) system (copyright 1986, Carnegie Mellon
 University), and the Gaussian 82(TM) system (copyright 1983,
 Carnegie Mellon University). Gaussian is a federally registered
 trademark of Gaussian, Inc.
  
 This software contains proprietary and confidential information,
 including trade secrets, belonging to Gaussian, Inc.
  
 This software is provided under written license and may be
 used, copied, transmitted, or stored only in accord with that
 written license.
  
 The following legend is applicable only to US Government
 contracts under FAR:
  
                    RESTRICTED RIGHTS LEGEND
  
 Use, reproduction and disclosure by the US Government is
 subject to restrictions as set forth in subparagraphs (a)
 and (c) of the Commercial Computer Software - Restricted
 Rights clause in FAR 52.227-19.
  
 Gaussian, Inc.
 340 Quinnipiac St., Bldg. 40, Wallingford CT 06492
  
  
 ---------------------------------------------------------------
 Warning -- This program may not be used in any manner that
 competes with the business of Gaussian, Inc. or will provide
 assistance to any competitor of Gaussian, Inc.  The licensee
 of this program is prohibited from giving any competitor of
 Gaussian, Inc. access to this program.  By using this program,
 the user acknowledges that Gaussian, Inc. is engaged in the
 business of creating and licensing software in the field of
 computational chemistry and represents and warrants to the
 licensee that it is not a competitor of Gaussian, Inc. and that
 it will not use this program in any manner prohibited above.
 ---------------------------------------------------------------
  

 Cite this work as:
 Gaussian 16, Revision B.01,
 M. J. Frisch, G. W. Trucks, H. B. Schlegel, G. E. Scuseria, 
 M. A. Robb, J. R. Cheeseman, G. Scalmani, V. Barone, 
 G. A. Petersson, H. Nakatsuji, X. Li, M. Caricato, A. V. Marenich, 
 J. Bloino, B. G. Janesko, R. Gomperts, B. Mennucci, H. P. Hratchian, 
 J. V. Ortiz, A. F. Izmaylov, J. L. Sonnenberg, D. Williams-Young, 
 F. Ding, F. Lipparini, F. Egidi, J. Goings, B. Peng, A. Petrone, 
 T. Henderson, D. Ranasinghe, V. G. Zakrzewski, J. Gao, N. Rega, 
 G. Zheng, W. Liang, M. Hada, M. Ehara, K. Toyota, R. Fukuda, 
 J. Hasegawa, M. Ishida, T. Nakajima, Y. Honda, O. Kitao, H. Nakai, 
 T. Vreven, K. Throssell, J. A. Montgomery, Jr., J. E. Peralta, 
 F. Ogliaro, M. J. Bearpark, J. J. Heyd, E. N. Brothers, K. N. Kudin, 
 V. N. Staroverov, T. A. Keith, R. Kobayashi, J. Normand, 
 K. Raghavachari, A. P. Rendell, J. C. Burant, S. S. Iyengar, 
 J. Tomasi, M. Cossi, J. M. Millam, M. Klene, C. Adamo, R. Cammi, 
 J. W. Ochterski, R. L. Martin, K. Morokuma, O. Farkas, 
 J. B. Foresman, and D. J. Fox, Gaussian, Inc., Wallingford CT, 2016.
 
 ******************************************
 Gaussian 16:  EM64L-G16RevB.01 20-Dec-2017
                15-Sep-2023 
 ******************************************
 %nprocshared=32
 Will use up to   32 processors via shared memory.
 %mem=62GB
 %chk=MOLECULE_3-vol.chk
 ----------------------------------------------------------------------
 # opt freq b3lyp/6-31+g(d) empiricaldispersion=gd3 scf=maxcycle=1000 v
 olume
 ----------------------------------------------------------------------
 1/18=20,19=15,26=3,38=1/1,3;
 2/9=110,12=2,17=6,18=5,40=1/2;
 3/5=1,6=6,7=11,11=2,25=1,30=1,71=1,74=-5,124=31/1,2,3;
 4//1;
 5/5=2,7=1000,38=5/2;
 6/7=2,8=2,9=2,10=2,28=1,44=1/1,4;
 7//1,2,3,16;
 1/18=20,19=15,26=3/3(2);
 2/9=110/2;
 99//99;
 2/9=110/2;
 3/5=1,6=6,7=11,11=2,25=1,30=1,71=1,74=-5,124=31/1,2,3;
 4/5=5,16=3,69=1/1;
 5/5=2,7=1000,38=5/2;
 7//1,2,3,16;
 1/18=20,19=15,26=3/3(-5);
 2/9=110/2;
 6/7=2,8=2,9=2,10=2,19=2,28=1,44=1/1,4;
 99/9=1/99;
 -------------------
 Title Card Required
 -------------------
 Symbolic Z-matrix:
 Charge =  0 Multiplicity = 1
 C                     0.68814   1.26668  -0.51037 
 C                    -0.00529  -0.00002   0.01212 
 H                     0.20276   2.15958  -0.10183 
 H                     1.74541   1.28313  -0.21283 
 H                     0.64884   1.31551  -1.60533 
 C                     0.69528  -1.26248  -0.51107 
 C                    -1.48908  -0.00404  -0.35981 
 H                     0.2152   -2.15836  -0.10279 
 H                     0.65597  -1.31107  -1.60604 
 H                     1.75273  -1.27294  -0.21388 
 H                    -1.61506  -0.00369  -1.44832 
 H                    -1.97989  -0.89317   0.05053 
 H                    -1.98492   0.88177   0.05169 
 O                     0.01127  -0.00035   1.45589 
 H                     0.9345    0.00122   1.75644 
 

 GradGradGradGradGradGradGradGradGradGradGradGradGradGradGradGradGradGrad
 Berny optimization.
 Initialization pass.
                           ----------------------------
                           !    Initial Parameters    !
                           ! (Angstroms and Degrees)  !
 --------------------------                            --------------------------
 ! Name  Definition              Value          Derivative Info.                !
 --------------------------------------------------------------------------------
 ! R1    R(1,2)                  1.5357         estimate D2E/DX2                !
 ! R2    R(1,3)                  1.0953         estimate D2E/DX2                !
 ! R3    R(1,4)                  1.0985         estimate D2E/DX2                !
 ! R4    R(1,5)                  1.0968         estimate D2E/DX2                !
 ! R5    R(2,6)                  1.5357         estimate D2E/DX2                !
 ! R6    R(2,7)                  1.5297         estimate D2E/DX2                !
 ! R7    R(2,14)                 1.4439         estimate D2E/DX2                !
 ! R8    R(6,8)                  1.0953         estimate D2E/DX2                !
 ! R9    R(6,9)                  1.0967         estimate D2E/DX2                !
 ! R10   R(6,10)                 1.0985         estimate D2E/DX2                !
 ! R11   R(7,11)                 1.0958         estimate D2E/DX2                !
 ! R12   R(7,12)                 1.0954         estimate D2E/DX2                !
 ! R13   R(7,13)                 1.0954         estimate D2E/DX2                !
 ! R14   R(14,15)                0.9709         estimate D2E/DX2                !
 ! A1    A(2,1,3)              110.2064         estimate D2E/DX2                !
 ! A2    A(2,1,4)              110.7812         estimate D2E/DX2                !
 ! A3    A(2,1,5)              111.113          estimate D2E/DX2                !
 ! A4    A(3,1,4)              108.2569         estimate D2E/DX2                !
 ! A5    A(3,1,5)              108.675          estimate D2E/DX2                !
 ! A6    A(4,1,5)              107.7134         estimate D2E/DX2                !
 ! A7    A(1,2,6)              110.8662         estimate D2E/DX2                !
 ! A8    A(1,2,7)              110.9428         estimate D2E/DX2                !
 ! A9    A(1,2,14)             109.5855         estimate D2E/DX2                !
 ! A10   A(6,2,7)              110.9471         estimate D2E/DX2                !
 ! A11   A(6,2,14)             109.5874         estimate D2E/DX2                !
 ! A12   A(7,2,14)             104.7288         estimate D2E/DX2                !
 ! A13   A(2,6,8)              110.2093         estimate D2E/DX2                !
 ! A14   A(2,6,9)              111.1128         estimate D2E/DX2                !
 ! A15   A(2,6,10)             110.7814         estimate D2E/DX2                !
 ! A16   A(8,6,9)              108.6747         estimate D2E/DX2                !
 ! A17   A(8,6,10)             108.258          estimate D2E/DX2                !
 ! A18   A(9,6,10)             107.7096         estimate D2E/DX2                !
 ! A19   A(2,7,11)             110.6737         estimate D2E/DX2                !
 ! A20   A(2,7,12)             110.2233         estimate D2E/DX2                !
 ! A21   A(2,7,13)             110.2196         estimate D2E/DX2                !
 ! A22   A(11,7,12)            108.7158         estimate D2E/DX2                !
 ! A23   A(11,7,13)            108.716          estimate D2E/DX2                !
 ! A24   A(12,7,13)            108.2317         estimate D2E/DX2                !
 ! A25   A(2,14,15)            108.6892         estimate D2E/DX2                !
 ! D1    D(3,1,2,6)           -177.9446         estimate D2E/DX2                !
 ! D2    D(3,1,2,7)             58.3068         estimate D2E/DX2                !
 ! D3    D(3,1,2,14)           -56.8513         estimate D2E/DX2                !
 ! D4    D(4,1,2,6)            -58.1611         estimate D2E/DX2                !
 ! D5    D(4,1,2,7)            178.0903         estimate D2E/DX2                !
 ! D6    D(4,1,2,14)            62.9322         estimate D2E/DX2                !
 ! D7    D(5,1,2,6)             61.5335         estimate D2E/DX2                !
 ! D8    D(5,1,2,7)            -62.2151         estimate D2E/DX2                !
 ! D9    D(5,1,2,14)          -177.3732         estimate D2E/DX2                !
 ! D10   D(1,2,6,8)            177.9254         estimate D2E/DX2                !
 ! D11   D(1,2,6,9)            -61.5514         estimate D2E/DX2                !
 ! D12   D(1,2,6,10)            58.1384         estimate D2E/DX2                !
 ! D13   D(7,2,6,8)            -58.3285         estimate D2E/DX2                !
 ! D14   D(7,2,6,9)             62.1947         estimate D2E/DX2                !
 ! D15   D(7,2,6,10)          -178.1155         estimate D2E/DX2                !
 ! D16   D(14,2,6,8)            56.8332         estimate D2E/DX2                !
 ! D17   D(14,2,6,9)           177.3565         estimate D2E/DX2                !
 ! D18   D(14,2,6,10)          -62.9538         estimate D2E/DX2                !
 ! D19   D(1,2,7,11)            61.8302         estimate D2E/DX2                !
 ! D20   D(1,2,7,12)          -177.8717         estimate D2E/DX2                !
 ! D21   D(1,2,7,13)           -58.4657         estimate D2E/DX2                !
 ! D22   D(6,2,7,11)           -61.872          estimate D2E/DX2                !
 ! D23   D(6,2,7,12)            58.426          estimate D2E/DX2                !
 ! D24   D(6,2,7,13)           177.832          estimate D2E/DX2                !
 ! D25   D(14,2,7,11)          179.9769         estimate D2E/DX2                !
 ! D26   D(14,2,7,12)          -59.7251         estimate D2E/DX2                !
 ! D27   D(14,2,7,13)           59.6809         estimate D2E/DX2                !
 ! D28   D(1,2,14,15)          -60.9911         estimate D2E/DX2                !
 ! D29   D(6,2,14,15)           60.8718         estimate D2E/DX2                !
 ! D30   D(7,2,14,15)          179.9434         estimate D2E/DX2                !
 --------------------------------------------------------------------------------
 Trust Radius=3.00D-01 FncErr=1.00D-07 GrdErr=1.00D-06 EigMax=2.50D+02 EigMin=1.00D-04
 Number of steps in this run=     79 maximum allowed number of steps=    100.
 GradGradGradGradGradGradGradGradGradGradGradGradGradGradGradGradGradGrad

                          Input orientation:                          
 ---------------------------------------------------------------------
 Center     Atomic      Atomic             Coordinates (Angstroms)
 Number     Number       Type             X           Y           Z
 ---------------------------------------------------------------------
      1          6           0        0.688143    1.266681   -0.510368
      2          6           0       -0.005289   -0.000020    0.012116
      3          1           0        0.202764    2.159583   -0.101829
      4          1           0        1.745406    1.283127   -0.212825
      5          1           0        0.648840    1.315506   -1.605329
      6          6           0        0.695276   -1.262484   -0.511073
      7          6           0       -1.489080   -0.004038   -0.359809
      8          1           0        0.215197   -2.158364   -0.102793
      9          1           0        0.655970   -1.311073   -1.606039
     10          1           0        1.752727   -1.272937   -0.213879
     11          1           0       -1.615064   -0.003690   -1.448319
     12          1           0       -1.979890   -0.893170    0.050534
     13          1           0       -1.984917    0.881766    0.051688
     14          8           0        0.011271   -0.000350    1.455894
     15          1           0        0.934504    0.001223    1.756442
 ---------------------------------------------------------------------
                    Distance matrix (angstroms):
                    1          2          3          4          5
     1  C    0.000000
     2  C    1.535698   0.000000
     3  H    1.095341   2.172592   0.000000
     4  H    1.098457   2.182200   1.777706   0.000000
     5  H    1.096753   2.185091   1.781000   1.772730   0.000000
     6  C    2.529175   1.535687   3.481464   2.769812   2.800997
     7  C    2.525410   1.529699   2.758649   3.484293   2.804143
     8  H    3.481484   2.172618   4.317965   3.767958   3.809650
     9  H    2.801133   2.185074   3.809658   3.139712   2.626589
    10  H    2.769640   2.182203   3.767908   2.556075   3.139226
    11  H    2.792554   2.173536   3.130061   3.804616   2.624917
    12  H    3.478213   2.167543   3.755861   4.322436   3.811870
    13  H    2.758499   2.167496   2.538175   3.761166   3.141737
    14  O    2.435099   1.443873   2.669922   2.727482   3.392500
    15  H    2.607778   1.981385   2.940601   2.485730   3.620835
                    6          7          8          9         10
     6  C    0.000000
     7  C    2.525466   0.000000
     8  H    1.095340   2.758938   0.000000
     9  H    1.096748   2.804045   1.780992   0.000000
    10  H    1.098470   3.484353   1.777729   1.772693   0.000000
    11  H    2.792967   1.095776   3.130961   2.625209   3.804845
    12  H    2.758316   1.095368   2.538234   3.141120   3.761192
    13  H    3.478210   1.095369   3.755896   3.811940   4.322413
    14  O    2.435119   2.355386   2.669853   3.392501   2.727689
    15  H    2.606877   3.217500   2.939043   3.620218   2.484982
                   11         12         13         14         15
    11  H    0.000000
    12  H    1.780683   0.000000
    13  H    1.780687   1.774943   0.000000
    14  O    3.328578   2.595551   2.595128   0.000000
    15  H    4.095218   3.493387   3.493503   0.970923   0.000000
 Stoichiometry    C4H10O
 Framework group  C1[X(C4H10O)]
 Deg. of freedom    39
 Full point group                 C1      NOp   1
 Largest Abelian subgroup         C1      NOp   1
 Largest concise Abelian subgroup C1      NOp   1
                         Standard orientation:                         
 ---------------------------------------------------------------------
 Center     Atomic      Atomic             Coordinates (Angstroms)
 Number     Number       Type             X           Y           Z
 ---------------------------------------------------------------------
      1          6           0        0.688141    1.266682   -0.510368
      2          6           0       -0.005289   -0.000020    0.012116
      3          1           0        0.202761    2.159583   -0.101829
      4          1           0        1.745404    1.283129   -0.212825
      5          1           0        0.648838    1.315507   -1.605329
      6          6           0        0.695278   -1.262483   -0.511073
      7          6           0       -1.489080   -0.004040   -0.359809
      8          1           0        0.215200   -2.158364   -0.102793
      9          1           0        0.655972   -1.311072   -1.606039
     10          1           0        1.752729   -1.272935   -0.213879
     11          1           0       -1.615064   -0.003692   -1.448319
     12          1           0       -1.979889   -0.893173    0.050534
     13          1           0       -1.984918    0.881763    0.051688
     14          8           0        0.011271   -0.000350    1.455894
     15          1           0        0.934504    0.001224    1.756442
 ---------------------------------------------------------------------
 Rotational constants (GHZ):           4.6761858           4.6478748           4.4754537
 Standard basis: 6-31+G(d) (6D, 7F)
 There are   115 symmetry adapted cartesian basis functions of A   symmetry.
 There are   115 symmetry adapted basis functions of A   symmetry.
   115 basis functions,   200 primitive gaussians,   115 cartesian basis functions
    21 alpha electrons       21 beta electrons
       nuclear repulsion energy       198.6527683888 Hartrees.
 NAtoms=   15 NActive=   15 NUniq=   15 SFac= 1.00D+00 NAtFMM=   60 NAOKFM=F Big=F
 Integral buffers will be    131072 words long.
 Raffenetti 2 integral format.
 Two-electron integral symmetry is turned on.
 Nuclear repulsion after empirical dispersion term =      198.6422358938 Hartrees.
 One-electron integrals computed using PRISM.
 NBasis=   115 RedAO= T EigKep=  5.82D-05  NBF=   115
 NBsUse=   115 1.00D-06 EigRej= -1.00D+00 NBFU=   115
 ExpMin= 4.38D-02 ExpMax= 5.48D+03 ExpMxC= 8.25D+02 IAcc=3 IRadAn=         5 AccDes= 0.00D+00
 Harris functional with IExCor=  402 and IRadAn=       5 diagonalized for initial guess.
 HarFok:  IExCor=  402 AccDes= 0.00D+00 IRadAn=         5 IDoV= 1 UseB2=F ITyADJ=14
 ICtDFT=  3500011 ScaDFX=  1.000000  1.000000  1.000000  1.000000
 FoFCou: FMM=F IPFlag=           0 FMFlag=      100000 FMFlg1=           0
         NFxFlg=           0 DoJE=T BraDBF=F KetDBF=T FulRan=T
         wScrn=  0.000000 ICntrl=       500 IOpCl=  0 I1Cent=   200000004 NGrid=           0
         NMat0=    1 NMatS0=      1 NMatT0=    0 NMatD0=    1 NMtDS0=    0 NMtDT0=    0
 Petite list used in FoFCou.
 Requested convergence on RMS density matrix=1.00D-08 within1000 cycles.
 Requested convergence on MAX density matrix=1.00D-06.
 Requested convergence on             energy=1.00D-06.
 No special actions if energy rises.
 SCF Done:  E(RB3LYP) =  -233.694423646     A.U. after   11 cycles
            NFock= 11  Conv=0.60D-08     -V/T= 2.0100

 **********************************************************************

            Population analysis using the SCF Density.

 **********************************************************************

 Orbital symmetries:
       Occupied  (A) (A) (A) (A) (A) (A) (A) (A) (A) (A) (A) (A)
                 (A) (A) (A) (A) (A) (A) (A) (A) (A)
       Virtual   (A) (A) (A) (A) (A) (A) (A) (A) (A) (A) (A) (A)
                 (A) (A) (A) (A) (A) (A) (A) (A) (A) (A) (A) (A)
                 (A) (A) (A) (A) (A) (A) (A) (A) (A) (A) (A) (A)
                 (A) (A) (A) (A) (A) (A) (A) (A) (A) (A) (A) (A)
                 (A) (A) (A) (A) (A) (A) (A) (A) (A) (A) (A) (A)
                 (A) (A) (A) (A) (A) (A) (A) (A) (A) (A) (A) (A)
                 (A) (A) (A) (A) (A) (A) (A) (A) (A) (A) (A) (A)
                 (A) (A) (A) (A) (A) (A) (A) (A) (A) (A)
 The electronic state is 1-A.
 Alpha  occ. eigenvalues --  -19.15211 -10.24935 -10.18185 -10.18182 -10.17611
 Alpha  occ. eigenvalues --   -1.02116  -0.79242  -0.69567  -0.69443  -0.57421
 Alpha  occ. eigenvalues --   -0.49308  -0.45517  -0.45179  -0.41682  -0.40240
 Alpha  occ. eigenvalues --   -0.38480  -0.37154  -0.35886  -0.35227  -0.32332
 Alpha  occ. eigenvalues --   -0.27502
 Alpha virt. eigenvalues --   -0.00120   0.02904   0.03288   0.03641   0.04875
 Alpha virt. eigenvalues --    0.06189   0.06369   0.07355   0.07357   0.08035
 Alpha virt. eigenvalues --    0.10887   0.11467   0.11955   0.13672   0.13935
 Alpha virt. eigenvalues --    0.15925   0.19429   0.19776   0.19916   0.22416
 Alpha virt. eigenvalues --    0.23484   0.24443   0.24694   0.25200   0.27004
 Alpha virt. eigenvalues --    0.27345   0.27424   0.31301   0.31408   0.33531
 Alpha virt. eigenvalues --    0.34466   0.35001   0.38577   0.43989   0.61098
 Alpha virt. eigenvalues --    0.61401   0.64669   0.67875   0.68603   0.71617
 Alpha virt. eigenvalues --    0.74264   0.76034   0.79242   0.80483   0.80656
 Alpha virt. eigenvalues --    0.85284   0.96047   0.96138   0.99707   1.00858
 Alpha virt. eigenvalues --    1.01251   1.02762   1.06884   1.11051   1.12922
 Alpha virt. eigenvalues --    1.13624   1.15172   1.22456   1.23894   1.33098
 Alpha virt. eigenvalues --    1.41337   1.44464   1.45133   1.55463   1.61215
 Alpha virt. eigenvalues --    1.72123   1.73947   1.76615   1.83633   1.84144
 Alpha virt. eigenvalues --    1.89015   1.91220   1.92661   2.11322   2.12832
 Alpha virt. eigenvalues --    2.15845   2.23480   2.24372   2.24843   2.25361
 Alpha virt. eigenvalues --    2.27826   2.28752   2.38855   2.47753   2.59912
 Alpha virt. eigenvalues --    2.65237   2.73458   2.73820   2.95220   4.14652
 Alpha virt. eigenvalues --    4.27593   4.33829   4.36923   4.64760
          Condensed to atoms (all electrons):
               1          2          3          4          5          6
     1  C    5.693513   0.108657   0.403706   0.381522   0.389801  -0.035966
     2  C    0.108657   5.848072  -0.055904  -0.028918  -0.041667   0.108293
     3  H    0.403706  -0.055904   0.493168  -0.027398  -0.027946   0.015607
     4  H    0.381522  -0.028918  -0.027398   0.525723  -0.030377  -0.023690
     5  H    0.389801  -0.041667  -0.027946  -0.030377   0.510688  -0.015511
     6  C   -0.035966   0.108293   0.015607  -0.023690  -0.015511   5.693875
     7  C   -0.263696   0.135591  -0.018058   0.016165  -0.002839  -0.263801
     8  H    0.015597  -0.055922  -0.000135  -0.000005   0.000029   0.403729
     9  H   -0.015483  -0.041729   0.000029   0.000219   0.000269   0.389881
    10  H   -0.023659  -0.028878  -0.000005   0.002463   0.000219   0.381443
    11  H   -0.008707  -0.033230   0.000091   0.000030   0.000644  -0.008682
    12  H    0.011174  -0.047399   0.000018  -0.000139   0.000007  -0.009510
    13  H   -0.009562  -0.047337   0.002568   0.000001   0.000140   0.011171
    14  O   -0.039820   0.126336  -0.003221  -0.010726   0.008597  -0.039419
    15  H   -0.054060   0.091282  -0.000628   0.003207  -0.000064  -0.054017
               7          8          9         10         11         12
     1  C   -0.263696   0.015597  -0.015483  -0.023659  -0.008707   0.011174
     2  C    0.135591  -0.055922  -0.041729  -0.028878  -0.033230  -0.047399
     3  H   -0.018058  -0.000135   0.000029  -0.000005   0.000091   0.000018
     4  H    0.016165  -0.000005   0.000219   0.002463   0.000030  -0.000139
     5  H   -0.002839   0.000029   0.000269   0.000219   0.000644   0.000007
     6  C   -0.263801   0.403729   0.389881   0.381443  -0.008682  -0.009510
     7  C    5.887822  -0.018062  -0.002873   0.016162   0.380353   0.390901
     8  H   -0.018062   0.493166  -0.027940  -0.027408   0.000091   0.002568
     9  H   -0.002873  -0.027940   0.510639  -0.030375   0.000646   0.000139
    10  H    0.016162  -0.027408  -0.030375   0.525752   0.000029   0.000001
    11  H    0.380353   0.000091   0.000646   0.000029   0.515800  -0.029196
    12  H    0.390901   0.002568   0.000139   0.000001  -0.029196   0.493941
    13  H    0.390918   0.000017   0.000007  -0.000139  -0.029195  -0.025060
    14  O   -0.107845  -0.003220   0.008594  -0.010736   0.008205  -0.001802
    15  H    0.034265  -0.000631  -0.000063   0.003212  -0.000281  -0.000124
              13         14         15
     1  C   -0.009562  -0.039820  -0.054060
     2  C   -0.047337   0.126336   0.091282
     3  H    0.002568  -0.003221  -0.000628
     4  H    0.000001  -0.010726   0.003207
     5  H    0.000140   0.008597  -0.000064
     6  C    0.011171  -0.039419  -0.054017
     7  C    0.390918  -0.107845   0.034265
     8  H    0.000017  -0.003220  -0.000631
     9  H    0.000007   0.008594  -0.000063
    10  H   -0.000139  -0.010736   0.003212
    11  H   -0.029195   0.008205  -0.000281
    12  H   -0.025060  -0.001802  -0.000124
    13  H    0.493902  -0.001818  -0.000124
    14  O   -0.001818   8.514095   0.155378
    15  H   -0.000124   0.155378   0.369911
 Mulliken charges:
               1
     1  C   -0.553016
     2  C   -0.037246
     3  H    0.218109
     4  H    0.191925
     5  H    0.208012
     6  C   -0.553404
     7  C   -0.575004
     8  H    0.218126
     9  H    0.208042
    10  H    0.191920
    11  H    0.203402
    12  H    0.214484
    13  H    0.214513
    14  O   -0.602599
    15  H    0.452737
 Sum of Mulliken charges =   0.00000
 Mulliken charges with hydrogens summed into heavy atoms:
               1
     1  C    0.065029
     2  C   -0.037246
     6  C    0.064684
     7  C    0.057394
    14  O   -0.149862
 Electronic spatial extent (au):  <R**2>=            452.7811
 Charge=              0.0000 electrons
 Dipole moment (field-independent basis, Debye):
    X=              1.2819    Y=              0.0023    Z=             -1.1918  Tot=              1.7503
 Quadrupole moment (field-independent basis, Debye-Ang):
   XX=            -32.2888   YY=            -34.2531   ZZ=            -35.3854
   XY=              0.0024   XZ=              3.0781   YZ=              0.0062
 Traceless Quadrupole moment (field-independent basis, Debye-Ang):
   XX=              1.6870   YY=             -0.2774   ZZ=             -1.4096
   XY=              0.0024   XZ=              3.0781   YZ=              0.0062
 Octapole moment (field-independent basis, Debye-Ang**2):
  XXX=              2.7383  YYY=             -0.0177  ZZZ=              2.1090  XYY=             -1.6724
  XXY=              0.0141  XXZ=              5.9811  XZZ=              5.9494  YZZ=              0.0108
  YYZ=              2.2902  XYZ=              0.0046
 Hexadecapole moment (field-independent basis, Debye-Ang**3):
 XXXX=           -223.4949 YYYY=           -223.6354 ZZZZ=           -171.9304 XXXY=              0.0063
 XXXZ=              4.5826 YYYX=             -0.0023 YYYZ=              0.0006 ZZZX=             14.0040
 ZZZY=              0.0199 XXYY=            -75.1912 XXZZ=            -63.3779 YYZZ=            -70.1615
 XXYZ=              0.0084 YYXZ=              0.1235 ZZXY=              0.0083
 N-N= 1.986422358938D+02 E-N=-9.402774081980D+02  KE= 2.313863239256D+02
 Evaluate density.
 Using the total density.
 Monte-Carlo method of calculating molar volume:
 based on  0.001 e/bohr**3 density envelope.
 Number of points per bohr**3 =   20 CutOff= 1.00D-04
 Using the SCF density.
 There are       333 points.  Will hold       333 in memory.
 LenV=  8321446169 MDV=  8321499136.
 Box volume = 4642.452 fraction occupied=0.180
 Integrated density= 3.6602993640927373D+01 error=-5.3970063590726269D+00
 Molar volume =  836.478 bohr**3/mol ( 74.646 cm**3/mol)
 Recommended a0 for SCRF calculation =  3.90 angstrom (  7.38 bohr)
 Calling FoFJK, ICntrl=      2127 FMM=F ISym2X=0 I1Cent= 0 IOpClX= 0 NMat=1 NMatS=1 NMatT=0.
 ***** Axes restored to original set *****
 -------------------------------------------------------------------
 Center     Atomic                   Forces (Hartrees/Bohr)
 Number     Number              X              Y              Z
 -------------------------------------------------------------------
      1        6          -0.000014891   -0.000052935    0.000014401
      2        6           0.000019071    0.000005452   -0.000115231
      3        1           0.000005855    0.000014083   -0.000007275
      4        1          -0.000027351    0.000013777   -0.000010526
      5        1          -0.000003674    0.000024207    0.000012015
      6        6          -0.000008411    0.000052405    0.000012041
      7        6           0.000029355   -0.000003498    0.000099045
      8        1           0.000002592   -0.000013128   -0.000006778
      9        1          -0.000006037   -0.000023814    0.000009498
     10        1          -0.000031726   -0.000015275   -0.000009295
     11        1           0.000002375   -0.000000102   -0.000037398
     12        1           0.000018911    0.000004346   -0.000020699
     13        1           0.000018862   -0.000004201   -0.000023775
     14        8           0.000012700   -0.000006445    0.000079062
     15        1          -0.000017630    0.000005128    0.000004915
 -------------------------------------------------------------------
 Cartesian Forces:  Max     0.000115231 RMS     0.000031565

 GradGradGradGradGradGradGradGradGradGradGradGradGradGradGradGradGradGrad
 Berny optimization.
 FormGI is forming the generalized inverse of G from B-inverse, IUseBI=4.
 Internal  Forces:  Max     0.000084237 RMS     0.000020302
 Search for a local minimum.
 Step number   1 out of a maximum of   79
 All quantities printed in internal units (Hartrees-Bohrs-Radians)
 Mixed Optimization -- En-DIIS/RFO-DIIS
 Second derivative matrix not updated -- first step.
 ITU=  0
     Eigenvalues ---    0.00294   0.00294   0.00373   0.01111   0.04280
     Eigenvalues ---    0.05495   0.05495   0.05564   0.05564   0.05606
     Eigenvalues ---    0.05680   0.05887   0.06626   0.16000   0.16000
     Eigenvalues ---    0.16000   0.16000   0.16000   0.16000   0.16000
     Eigenvalues ---    0.16000   0.16000   0.16000   0.16066   0.16547
     Eigenvalues ---    0.28903   0.28904   0.29451   0.33852   0.33853
     Eigenvalues ---    0.34044   0.34044   0.34154   0.34200   0.34200
     Eigenvalues ---    0.34203   0.34203   0.39059   0.53189
 RFO step:  Lambda=-1.67411524D-07 EMin= 2.93729076D-03
 Linear search not attempted -- first point.
 Iteration  1 RMS(Cart)=  0.00042098 RMS(Int)=  0.00000009
 Iteration  2 RMS(Cart)=  0.00000010 RMS(Int)=  0.00000001
 Variable       Old X    -DE/DX   Delta X   Delta X   Delta X     New X
                                 (Linear)    (Quad)   (Total)
    R1        2.90205  -0.00002   0.00000  -0.00008  -0.00008   2.90197
    R2        2.06989   0.00001   0.00000   0.00002   0.00002   2.06991
    R3        2.07578  -0.00003   0.00000  -0.00009  -0.00009   2.07570
    R4        2.07256  -0.00001   0.00000  -0.00003  -0.00003   2.07253
    R5        2.90203  -0.00002   0.00000  -0.00008  -0.00008   2.90195
    R6        2.89071  -0.00007   0.00000  -0.00024  -0.00024   2.89047
    R7        2.72852   0.00008   0.00000   0.00022   0.00022   2.72874
    R8        2.06989   0.00001   0.00000   0.00002   0.00002   2.06991
    R9        2.07255  -0.00001   0.00000  -0.00002  -0.00002   2.07253
   R10        2.07581  -0.00003   0.00000  -0.00010  -0.00010   2.07571
   R11        2.07072   0.00004   0.00000   0.00011   0.00011   2.07083
   R12        2.06995  -0.00002   0.00000  -0.00006  -0.00006   2.06989
   R13        2.06995  -0.00002   0.00000  -0.00006  -0.00006   2.06989
   R14        1.83478  -0.00002   0.00000  -0.00003  -0.00003   1.83475
    A1        1.92346   0.00001   0.00000   0.00004   0.00004   1.92350
    A2        1.93350   0.00001   0.00000   0.00011   0.00011   1.93361
    A3        1.93929   0.00002   0.00000   0.00015   0.00015   1.93944
    A4        1.88944  -0.00002   0.00000  -0.00012  -0.00012   1.88932
    A5        1.89674  -0.00002   0.00000  -0.00019  -0.00019   1.89654
    A6        1.87995  -0.00001   0.00000  -0.00001  -0.00001   1.87995
    A7        1.93498   0.00004   0.00000   0.00034   0.00034   1.93532
    A8        1.93632  -0.00002   0.00000  -0.00016  -0.00016   1.93615
    A9        1.91263  -0.00001   0.00000   0.00004   0.00004   1.91267
   A10        1.93639  -0.00003   0.00000  -0.00022  -0.00022   1.93617
   A11        1.91266   0.00000   0.00000   0.00005   0.00005   1.91271
   A12        1.82786   0.00001   0.00000  -0.00006  -0.00006   1.82780
   A13        1.92352   0.00001   0.00000   0.00000   0.00000   1.92351
   A14        1.93928   0.00002   0.00000   0.00014   0.00014   1.93943
   A15        1.93350   0.00002   0.00000   0.00013   0.00013   1.93363
   A16        1.89673  -0.00002   0.00000  -0.00020  -0.00020   1.89653
   A17        1.88946  -0.00001   0.00000  -0.00011  -0.00011   1.88935
   A18        1.87989  -0.00001   0.00000   0.00003   0.00003   1.87991
   A19        1.93162  -0.00001   0.00000  -0.00015  -0.00015   1.93147
   A20        1.92376   0.00000   0.00000   0.00001   0.00001   1.92377
   A21        1.92369   0.00000   0.00000   0.00002   0.00002   1.92372
   A22        1.89745   0.00000   0.00000  -0.00005  -0.00005   1.89739
   A23        1.89745   0.00000   0.00000  -0.00006  -0.00006   1.89739
   A24        1.88900   0.00002   0.00000   0.00024   0.00024   1.88924
   A25        1.89698   0.00002   0.00000   0.00012   0.00012   1.89711
    D1       -3.10572  -0.00001   0.00000   0.00041   0.00041  -3.10531
    D2        1.01765   0.00001   0.00000   0.00058   0.00058   1.01822
    D3       -0.99224   0.00001   0.00000   0.00072   0.00072  -0.99152
    D4       -1.01510  -0.00001   0.00000   0.00036   0.00036  -1.01474
    D5        3.10826   0.00000   0.00000   0.00053   0.00053   3.10879
    D6        1.09837   0.00000   0.00000   0.00067   0.00067   1.09905
    D7        1.07396   0.00000   0.00000   0.00053   0.00053   1.07449
    D8       -1.08586   0.00001   0.00000   0.00069   0.00069  -1.08517
    D9       -3.09575   0.00001   0.00000   0.00084   0.00084  -3.09491
   D10        3.10538   0.00001   0.00000  -0.00022  -0.00022   3.10516
   D11       -1.07427   0.00000   0.00000  -0.00038  -0.00038  -1.07465
   D12        1.01471   0.00001   0.00000  -0.00016  -0.00016   1.01454
   D13       -1.01802   0.00000   0.00000  -0.00035  -0.00035  -1.01837
   D14        1.08550  -0.00001   0.00000  -0.00051  -0.00051   1.08500
   D15       -3.10870   0.00000   0.00000  -0.00029  -0.00029  -3.10899
   D16        0.99193  -0.00001   0.00000  -0.00053  -0.00053   0.99140
   D17        3.09545  -0.00001   0.00000  -0.00068  -0.00068   3.09477
   D18       -1.09875   0.00000   0.00000  -0.00047  -0.00047  -1.09922
   D19        1.07914   0.00001   0.00000   0.00023   0.00023   1.07937
   D20       -3.10445   0.00000   0.00000   0.00007   0.00007  -3.10438
   D21       -1.02042   0.00002   0.00000   0.00039   0.00039  -1.02003
   D22       -1.07987  -0.00001   0.00000   0.00007   0.00007  -1.07980
   D23        1.01973  -0.00002   0.00000  -0.00009  -0.00009   1.01964
   D24        3.10375   0.00000   0.00000   0.00024   0.00024   3.10399
   D25        3.14119   0.00000   0.00000   0.00016   0.00016   3.14135
   D26       -1.04240  -0.00001   0.00000   0.00000   0.00000  -1.04239
   D27        1.04163   0.00001   0.00000   0.00033   0.00033   1.04196
   D28       -1.06450  -0.00002   0.00000   0.00004   0.00004  -1.06445
   D29        1.06241   0.00003   0.00000   0.00052   0.00052   1.06293
   D30        3.14060   0.00000   0.00000   0.00024   0.00024   3.14085
         Item               Value     Threshold  Converged?
 Maximum Force            0.000084     0.000450     YES
 RMS     Force            0.000020     0.000300     YES
 Maximum Displacement     0.001254     0.001800     YES
 RMS     Displacement     0.000421     0.001200     YES
 Predicted change in Energy=-8.371186D-08
 Optimization completed.
    -- Stationary point found.
                           ----------------------------
                           !   Optimized Parameters   !
                           ! (Angstroms and Degrees)  !
 --------------------------                            --------------------------
 ! Name  Definition              Value          Derivative Info.                !
 --------------------------------------------------------------------------------
 ! R1    R(1,2)                  1.5357         -DE/DX =    0.0                 !
 ! R2    R(1,3)                  1.0953         -DE/DX =    0.0                 !
 ! R3    R(1,4)                  1.0985         -DE/DX =    0.0                 !
 ! R4    R(1,5)                  1.0968         -DE/DX =    0.0                 !
 ! R5    R(2,6)                  1.5357         -DE/DX =    0.0                 !
 ! R6    R(2,7)                  1.5297         -DE/DX =   -0.0001              !
 ! R7    R(2,14)                 1.4439         -DE/DX =    0.0001              !
 ! R8    R(6,8)                  1.0953         -DE/DX =    0.0                 !
 ! R9    R(6,9)                  1.0967         -DE/DX =    0.0                 !
 ! R10   R(6,10)                 1.0985         -DE/DX =    0.0                 !
 ! R11   R(7,11)                 1.0958         -DE/DX =    0.0                 !
 ! R12   R(7,12)                 1.0954         -DE/DX =    0.0                 !
 ! R13   R(7,13)                 1.0954         -DE/DX =    0.0                 !
 ! R14   R(14,15)                0.9709         -DE/DX =    0.0                 !
 ! A1    A(2,1,3)              110.2064         -DE/DX =    0.0                 !
 ! A2    A(2,1,4)              110.7812         -DE/DX =    0.0                 !
 ! A3    A(2,1,5)              111.113          -DE/DX =    0.0                 !
 ! A4    A(3,1,4)              108.2569         -DE/DX =    0.0                 !
 ! A5    A(3,1,5)              108.675          -DE/DX =    0.0                 !
 ! A6    A(4,1,5)              107.7134         -DE/DX =    0.0                 !
 ! A7    A(1,2,6)              110.8662         -DE/DX =    0.0                 !
 ! A8    A(1,2,7)              110.9428         -DE/DX =    0.0                 !
 ! A9    A(1,2,14)             109.5855         -DE/DX =    0.0                 !
 ! A10   A(6,2,7)              110.9471         -DE/DX =    0.0                 !
 ! A11   A(6,2,14)             109.5874         -DE/DX =    0.0                 !
 ! A12   A(7,2,14)             104.7288         -DE/DX =    0.0                 !
 ! A13   A(2,6,8)              110.2093         -DE/DX =    0.0                 !
 ! A14   A(2,6,9)              111.1128         -DE/DX =    0.0                 !
 ! A15   A(2,6,10)             110.7814         -DE/DX =    0.0                 !
 ! A16   A(8,6,9)              108.6747         -DE/DX =    0.0                 !
 ! A17   A(8,6,10)             108.258          -DE/DX =    0.0                 !
 ! A18   A(9,6,10)             107.7096         -DE/DX =    0.0                 !
 ! A19   A(2,7,11)             110.6737         -DE/DX =    0.0                 !
 ! A20   A(2,7,12)             110.2233         -DE/DX =    0.0                 !
 ! A21   A(2,7,13)             110.2196         -DE/DX =    0.0                 !
 ! A22   A(11,7,12)            108.7158         -DE/DX =    0.0                 !
 ! A23   A(11,7,13)            108.716          -DE/DX =    0.0                 !
 ! A24   A(12,7,13)            108.2317         -DE/DX =    0.0                 !
 ! A25   A(2,14,15)            108.6892         -DE/DX =    0.0                 !
 ! D1    D(3,1,2,6)           -177.9446         -DE/DX =    0.0                 !
 ! D2    D(3,1,2,7)             58.3068         -DE/DX =    0.0                 !
 ! D3    D(3,1,2,14)           -56.8513         -DE/DX =    0.0                 !
 ! D4    D(4,1,2,6)            -58.1611         -DE/DX =    0.0                 !
 ! D5    D(4,1,2,7)            178.0903         -DE/DX =    0.0                 !
 ! D6    D(4,1,2,14)            62.9322         -DE/DX =    0.0                 !
 ! D7    D(5,1,2,6)             61.5335         -DE/DX =    0.0                 !
 ! D8    D(5,1,2,7)            -62.2151         -DE/DX =    0.0                 !
 ! D9    D(5,1,2,14)          -177.3732         -DE/DX =    0.0                 !
 ! D10   D(1,2,6,8)            177.9254         -DE/DX =    0.0                 !
 ! D11   D(1,2,6,9)            -61.5514         -DE/DX =    0.0                 !
 ! D12   D(1,2,6,10)            58.1384         -DE/DX =    0.0                 !
 ! D13   D(7,2,6,8)            -58.3285         -DE/DX =    0.0                 !
 ! D14   D(7,2,6,9)             62.1947         -DE/DX =    0.0                 !
 ! D15   D(7,2,6,10)          -178.1155         -DE/DX =    0.0                 !
 ! D16   D(14,2,6,8)            56.8332         -DE/DX =    0.0                 !
 ! D17   D(14,2,6,9)           177.3565         -DE/DX =    0.0                 !
 ! D18   D(14,2,6,10)          -62.9538         -DE/DX =    0.0                 !
 ! D19   D(1,2,7,11)            61.8302         -DE/DX =    0.0                 !
 ! D20   D(1,2,7,12)          -177.8717         -DE/DX =    0.0                 !
 ! D21   D(1,2,7,13)           -58.4657         -DE/DX =    0.0                 !
 ! D22   D(6,2,7,11)           -61.872          -DE/DX =    0.0                 !
 ! D23   D(6,2,7,12)            58.426          -DE/DX =    0.0                 !
 ! D24   D(6,2,7,13)           177.832          -DE/DX =    0.0                 !
 ! D25   D(14,2,7,11)          179.9769         -DE/DX =    0.0                 !
 ! D26   D(14,2,7,12)          -59.7251         -DE/DX =    0.0                 !
 ! D27   D(14,2,7,13)           59.6809         -DE/DX =    0.0                 !
 ! D28   D(1,2,14,15)          -60.9911         -DE/DX =    0.0                 !
 ! D29   D(6,2,14,15)           60.8718         -DE/DX =    0.0                 !
 ! D30   D(7,2,14,15)          179.9434         -DE/DX =    0.0                 !
 --------------------------------------------------------------------------------
 GradGradGradGradGradGradGradGradGradGradGradGradGradGradGradGradGradGrad

                          Input orientation:                          
 ---------------------------------------------------------------------
 Center     Atomic      Atomic             Coordinates (Angstroms)
 Number     Number       Type             X           Y           Z
 ---------------------------------------------------------------------
      1          6           0        0.688143    1.266681   -0.510368
      2          6           0       -0.005289   -0.000020    0.012116
      3          1           0        0.202764    2.159583   -0.101829
      4          1           0        1.745406    1.283127   -0.212825
      5          1           0        0.648840    1.315506   -1.605329
      6          6           0        0.695276   -1.262484   -0.511073
      7          6           0       -1.489080   -0.004038   -0.359809
      8          1           0        0.215197   -2.158364   -0.102793
      9          1           0        0.655970   -1.311073   -1.606039
     10          1           0        1.752727   -1.272937   -0.213879
     11          1           0       -1.615064   -0.003690   -1.448319
     12          1           0       -1.979890   -0.893170    0.050534
     13          1           0       -1.984917    0.881766    0.051688
     14          8           0        0.011271   -0.000350    1.455894
     15          1           0        0.934504    0.001223    1.756442
 ---------------------------------------------------------------------
                    Distance matrix (angstroms):
                    1          2          3          4          5
     1  C    0.000000
     2  C    1.535698   0.000000
     3  H    1.095341   2.172592   0.000000
     4  H    1.098457   2.182200   1.777706   0.000000
     5  H    1.096753   2.185091   1.781000   1.772730   0.000000
     6  C    2.529175   1.535687   3.481464   2.769812   2.800997
     7  C    2.525410   1.529699   2.758649   3.484293   2.804143
     8  H    3.481484   2.172618   4.317965   3.767958   3.809650
     9  H    2.801133   2.185074   3.809658   3.139712   2.626589
    10  H    2.769640   2.182203   3.767908   2.556075   3.139226
    11  H    2.792554   2.173536   3.130061   3.804616   2.624917
    12  H    3.478213   2.167543   3.755861   4.322436   3.811870
    13  H    2.758499   2.167496   2.538175   3.761166   3.141737
    14  O    2.435099   1.443873   2.669922   2.727482   3.392500
    15  H    2.607778   1.981385   2.940601   2.485730   3.620835
                    6          7          8          9         10
     6  C    0.000000
     7  C    2.525466   0.000000
     8  H    1.095340   2.758938   0.000000
     9  H    1.096748   2.804045   1.780992   0.000000
    10  H    1.098470   3.484353   1.777729   1.772693   0.000000
    11  H    2.792967   1.095776   3.130961   2.625209   3.804845
    12  H    2.758316   1.095368   2.538234   3.141120   3.761192
    13  H    3.478210   1.095369   3.755896   3.811940   4.322413
    14  O    2.435119   2.355386   2.669853   3.392501   2.727689
    15  H    2.606877   3.217500   2.939043   3.620218   2.484982
                   11         12         13         14         15
    11  H    0.000000
    12  H    1.780683   0.000000
    13  H    1.780687   1.774943   0.000000
    14  O    3.328578   2.595551   2.595128   0.000000
    15  H    4.095218   3.493387   3.493503   0.970923   0.000000
 Stoichiometry    C4H10O
 Framework group  C1[X(C4H10O)]
 Deg. of freedom    39
 Full point group                 C1      NOp   1
 Largest Abelian subgroup         C1      NOp   1
 Largest concise Abelian subgroup C1      NOp   1
                         Standard orientation:                         
 ---------------------------------------------------------------------
 Center     Atomic      Atomic             Coordinates (Angstroms)
 Number     Number       Type             X           Y           Z
 ---------------------------------------------------------------------
      1          6           0        0.688141    1.266682   -0.510368
      2          6           0       -0.005289   -0.000020    0.012116
      3          1           0        0.202761    2.159583   -0.101829
      4          1           0        1.745404    1.283129   -0.212825
      5          1           0        0.648838    1.315507   -1.605329
      6          6           0        0.695278   -1.262483   -0.511073
      7          6           0       -1.489080   -0.004040   -0.359809
      8          1           0        0.215200   -2.158364   -0.102793
      9          1           0        0.655972   -1.311072   -1.606039
     10          1           0        1.752729   -1.272935   -0.213879
     11          1           0       -1.615064   -0.003692   -1.448319
     12          1           0       -1.979889   -0.893173    0.050534
     13          1           0       -1.984918    0.881763    0.051688
     14          8           0        0.011271   -0.000350    1.455894
     15          1           0        0.934504    0.001224    1.756442
 ---------------------------------------------------------------------
 Rotational constants (GHZ):           4.6761858           4.6478748           4.4754537
 1\1\GINC-IP-172-31-1-231\FOpt\RB3LYP\6-31+G(d)\C4H10O1\UBUNTU\15-Sep-2
 023\0\\# opt freq b3lyp/6-31+g(d) empiricaldispersion=gd3 scf=maxcycle
 =1000 volume\\Title Card Required\\0,1\C,0.688143,1.266681,-0.510368\C
 ,-0.005289,-0.00002,0.012116\H,0.202764,2.159583,-0.101829\H,1.745406,
 1.283127,-0.212825\H,0.64884,1.315506,-1.605329\C,0.695276,-1.262484,-
 0.511073\C,-1.48908,-0.004038,-0.359809\H,0.215197,-2.158364,-0.102793
 \H,0.65597,-1.311073,-1.606039\H,1.752727,-1.272937,-0.213879\H,-1.615
 064,-0.00369,-1.448319\H,-1.97989,-0.89317,0.050534\H,-1.984917,0.8817
 66,0.051688\O,0.011271,-0.00035,1.455894\H,0.934504,0.001223,1.756442\
 \Version=EM64L-G16RevB.01\State=1-A\HF=-233.6944236\RMSD=5.978e-09\RMS
 F=3.156e-05\Dipole=0.5043263,0.0009215,-0.4688858\Quadrupole=1.2542231
 ,-0.2062254,-1.0479977,0.0017704,2.2884652,0.0045936\PG=C01 [X(C4H10O1
 )]\\@


 Discoveries are often made by not following instructions,
 by going off the main road, by trying the untried.
 -- Frank Tyger
 Job cpu time:       0 days  0 hours  2 minutes 54.7 seconds.
 Elapsed time:       0 days  0 hours  0 minutes  5.5 seconds.
 File lengths (MBytes):  RWF=     10 Int=      0 D2E=      0 Chk=      2 Scr=      1
 Normal termination of Gaussian 16 at Fri Sep 15 07:30:02 2023.
 Link1:  Proceeding to internal job step number  2.
 ---------------------------------------------------------------------
 #N Geom=AllCheck Guess=TCheck SCRF=Check GenChk RB3LYP/6-31+G(d) Freq
 ---------------------------------------------------------------------
 1/10=4,29=7,30=1,38=1,40=1/1,3;
 2/12=2,40=1/2;
 3/5=1,6=6,7=11,11=2,14=-4,25=1,30=1,70=2,71=2,74=-5,116=1,124=31,140=1/1,2,3;
 4/5=101/1;
 5/5=2,7=1000,38=6,98=1/2;
 8/6=4,10=90,11=11/1;
 11/6=1,8=1,9=11,15=111,16=1/1,2,10;
 10/6=1/2;
 6/7=2,8=2,9=2,10=2,28=1/1;
 7/8=1,10=1,25=1/1,2,3,16;
 1/10=4,30=1/3;
 99//99;
 Structure from the checkpoint file:  "MOLECULE_3-vol.chk"
 -------------------
 Title Card Required
 -------------------
 Charge =  0 Multiplicity = 1
 Redundant internal coordinates found in file.  (old form).
 C,0,0.688143,1.266681,-0.510368
 C,0,-0.005289,-0.00002,0.012116
 H,0,0.202764,2.159583,-0.101829
 H,0,1.745406,1.283127,-0.212825
 H,0,0.64884,1.315506,-1.605329
 C,0,0.695276,-1.262484,-0.511073
 C,0,-1.48908,-0.004038,-0.359809
 H,0,0.215197,-2.158364,-0.102793
 H,0,0.65597,-1.311073,-1.606039
 H,0,1.752727,-1.272937,-0.213879
 H,0,-1.615064,-0.00369,-1.448319
 H,0,-1.97989,-0.89317,0.050534
 H,0,-1.984917,0.881766,0.051688
 O,0,0.011271,-0.00035,1.455894
 H,0,0.934504,0.001223,1.756442
 Recover connectivity data from disk.

 GradGradGradGradGradGradGradGradGradGradGradGradGradGradGradGradGradGrad
 Berny optimization.
 Initialization pass.
                           ----------------------------
                           !    Initial Parameters    !
                           ! (Angstroms and Degrees)  !
 --------------------------                            --------------------------
 ! Name  Definition              Value          Derivative Info.                !
 --------------------------------------------------------------------------------
 ! R1    R(1,2)                  1.5357         calculate D2E/DX2 analytically  !
 ! R2    R(1,3)                  1.0953         calculate D2E/DX2 analytically  !
 ! R3    R(1,4)                  1.0985         calculate D2E/DX2 analytically  !
 ! R4    R(1,5)                  1.0968         calculate D2E/DX2 analytically  !
 ! R5    R(2,6)                  1.5357         calculate D2E/DX2 analytically  !
 ! R6    R(2,7)                  1.5297         calculate D2E/DX2 analytically  !
 ! R7    R(2,14)                 1.4439         calculate D2E/DX2 analytically  !
 ! R8    R(6,8)                  1.0953         calculate D2E/DX2 analytically  !
 ! R9    R(6,9)                  1.0967         calculate D2E/DX2 analytically  !
 ! R10   R(6,10)                 1.0985         calculate D2E/DX2 analytically  !
 ! R11   R(7,11)                 1.0958         calculate D2E/DX2 analytically  !
 ! R12   R(7,12)                 1.0954         calculate D2E/DX2 analytically  !
 ! R13   R(7,13)                 1.0954         calculate D2E/DX2 analytically  !
 ! R14   R(14,15)                0.9709         calculate D2E/DX2 analytically  !
 ! A1    A(2,1,3)              110.2064         calculate D2E/DX2 analytically  !
 ! A2    A(2,1,4)              110.7812         calculate D2E/DX2 analytically  !
 ! A3    A(2,1,5)              111.113          calculate D2E/DX2 analytically  !
 ! A4    A(3,1,4)              108.2569         calculate D2E/DX2 analytically  !
 ! A5    A(3,1,5)              108.675          calculate D2E/DX2 analytically  !
 ! A6    A(4,1,5)              107.7134         calculate D2E/DX2 analytically  !
 ! A7    A(1,2,6)              110.8662         calculate D2E/DX2 analytically  !
 ! A8    A(1,2,7)              110.9428         calculate D2E/DX2 analytically  !
 ! A9    A(1,2,14)             109.5855         calculate D2E/DX2 analytically  !
 ! A10   A(6,2,7)              110.9471         calculate D2E/DX2 analytically  !
 ! A11   A(6,2,14)             109.5874         calculate D2E/DX2 analytically  !
 ! A12   A(7,2,14)             104.7288         calculate D2E/DX2 analytically  !
 ! A13   A(2,6,8)              110.2093         calculate D2E/DX2 analytically  !
 ! A14   A(2,6,9)              111.1128         calculate D2E/DX2 analytically  !
 ! A15   A(2,6,10)             110.7814         calculate D2E/DX2 analytically  !
 ! A16   A(8,6,9)              108.6747         calculate D2E/DX2 analytically  !
 ! A17   A(8,6,10)             108.258          calculate D2E/DX2 analytically  !
 ! A18   A(9,6,10)             107.7096         calculate D2E/DX2 analytically  !
 ! A19   A(2,7,11)             110.6737         calculate D2E/DX2 analytically  !
 ! A20   A(2,7,12)             110.2233         calculate D2E/DX2 analytically  !
 ! A21   A(2,7,13)             110.2196         calculate D2E/DX2 analytically  !
 ! A22   A(11,7,12)            108.7158         calculate D2E/DX2 analytically  !
 ! A23   A(11,7,13)            108.716          calculate D2E/DX2 analytically  !
 ! A24   A(12,7,13)            108.2317         calculate D2E/DX2 analytically  !
 ! A25   A(2,14,15)            108.6892         calculate D2E/DX2 analytically  !
 ! D1    D(3,1,2,6)           -177.9446         calculate D2E/DX2 analytically  !
 ! D2    D(3,1,2,7)             58.3068         calculate D2E/DX2 analytically  !
 ! D3    D(3,1,2,14)           -56.8513         calculate D2E/DX2 analytically  !
 ! D4    D(4,1,2,6)            -58.1611         calculate D2E/DX2 analytically  !
 ! D5    D(4,1,2,7)            178.0903         calculate D2E/DX2 analytically  !
 ! D6    D(4,1,2,14)            62.9322         calculate D2E/DX2 analytically  !
 ! D7    D(5,1,2,6)             61.5335         calculate D2E/DX2 analytically  !
 ! D8    D(5,1,2,7)            -62.2151         calculate D2E/DX2 analytically  !
 ! D9    D(5,1,2,14)          -177.3732         calculate D2E/DX2 analytically  !
 ! D10   D(1,2,6,8)            177.9254         calculate D2E/DX2 analytically  !
 ! D11   D(1,2,6,9)            -61.5514         calculate D2E/DX2 analytically  !
 ! D12   D(1,2,6,10)            58.1384         calculate D2E/DX2 analytically  !
 ! D13   D(7,2,6,8)            -58.3285         calculate D2E/DX2 analytically  !
 ! D14   D(7,2,6,9)             62.1947         calculate D2E/DX2 analytically  !
 ! D15   D(7,2,6,10)          -178.1155         calculate D2E/DX2 analytically  !
 ! D16   D(14,2,6,8)            56.8332         calculate D2E/DX2 analytically  !
 ! D17   D(14,2,6,9)           177.3565         calculate D2E/DX2 analytically  !
 ! D18   D(14,2,6,10)          -62.9538         calculate D2E/DX2 analytically  !
 ! D19   D(1,2,7,11)            61.8302         calculate D2E/DX2 analytically  !
 ! D20   D(1,2,7,12)          -177.8717         calculate D2E/DX2 analytically  !
 ! D21   D(1,2,7,13)           -58.4657         calculate D2E/DX2 analytically  !
 ! D22   D(6,2,7,11)           -61.872          calculate D2E/DX2 analytically  !
 ! D23   D(6,2,7,12)            58.426          calculate D2E/DX2 analytically  !
 ! D24   D(6,2,7,13)           177.832          calculate D2E/DX2 analytically  !
 ! D25   D(14,2,7,11)          179.9769         calculate D2E/DX2 analytically  !
 ! D26   D(14,2,7,12)          -59.7251         calculate D2E/DX2 analytically  !
 ! D27   D(14,2,7,13)           59.6809         calculate D2E/DX2 analytically  !
 ! D28   D(1,2,14,15)          -60.9911         calculate D2E/DX2 analytically  !
 ! D29   D(6,2,14,15)           60.8718         calculate D2E/DX2 analytically  !
 ! D30   D(7,2,14,15)          179.9434         calculate D2E/DX2 analytically  !
 --------------------------------------------------------------------------------
 Trust Radius=3.00D-01 FncErr=1.00D-07 GrdErr=1.00D-07 EigMax=2.50D+02 EigMin=1.00D-04
 Number of steps in this run=      2 maximum allowed number of steps=      2.
 GradGradGradGradGradGradGradGradGradGradGradGradGradGradGradGradGradGrad

                          Input orientation:                          
 ---------------------------------------------------------------------
 Center     Atomic      Atomic             Coordinates (Angstroms)
 Number     Number       Type             X           Y           Z
 ---------------------------------------------------------------------
      1          6           0        0.688143    1.266681   -0.510368
      2          6           0       -0.005289   -0.000020    0.012116
      3          1           0        0.202764    2.159583   -0.101829
      4          1           0        1.745406    1.283127   -0.212825
      5          1           0        0.648840    1.315506   -1.605329
      6          6           0        0.695276   -1.262484   -0.511073
      7          6           0       -1.489080   -0.004038   -0.359809
      8          1           0        0.215197   -2.158364   -0.102793
      9          1           0        0.655970   -1.311073   -1.606039
     10          1           0        1.752727   -1.272937   -0.213879
     11          1           0       -1.615064   -0.003690   -1.448319
     12          1           0       -1.979890   -0.893170    0.050534
     13          1           0       -1.984917    0.881766    0.051688
     14          8           0        0.011271   -0.000350    1.455894
     15          1           0        0.934504    0.001223    1.756442
 ---------------------------------------------------------------------
                    Distance matrix (angstroms):
                    1          2          3          4          5
     1  C    0.000000
     2  C    1.535698   0.000000
     3  H    1.095341   2.172592   0.000000
     4  H    1.098457   2.182200   1.777706   0.000000
     5  H    1.096753   2.185091   1.781000   1.772730   0.000000
     6  C    2.529175   1.535687   3.481464   2.769812   2.800997
     7  C    2.525410   1.529699   2.758649   3.484293   2.804143
     8  H    3.481484   2.172618   4.317965   3.767958   3.809650
     9  H    2.801133   2.185074   3.809658   3.139712   2.626589
    10  H    2.769640   2.182203   3.767908   2.556075   3.139226
    11  H    2.792554   2.173536   3.130061   3.804616   2.624917
    12  H    3.478213   2.167543   3.755861   4.322436   3.811870
    13  H    2.758499   2.167496   2.538175   3.761166   3.141737
    14  O    2.435099   1.443873   2.669922   2.727482   3.392500
    15  H    2.607778   1.981385   2.940601   2.485730   3.620835
                    6          7          8          9         10
     6  C    0.000000
     7  C    2.525466   0.000000
     8  H    1.095340   2.758938   0.000000
     9  H    1.096748   2.804045   1.780992   0.000000
    10  H    1.098470   3.484353   1.777729   1.772693   0.000000
    11  H    2.792967   1.095776   3.130961   2.625209   3.804845
    12  H    2.758316   1.095368   2.538234   3.141120   3.761192
    13  H    3.478210   1.095369   3.755896   3.811940   4.322413
    14  O    2.435119   2.355386   2.669853   3.392501   2.727689
    15  H    2.606877   3.217500   2.939043   3.620218   2.484982
                   11         12         13         14         15
    11  H    0.000000
    12  H    1.780683   0.000000
    13  H    1.780687   1.774943   0.000000
    14  O    3.328578   2.595551   2.595128   0.000000
    15  H    4.095218   3.493387   3.493503   0.970923   0.000000
 Stoichiometry    C4H10O
 Framework group  C1[X(C4H10O)]
 Deg. of freedom    39
 Full point group                 C1      NOp   1
 Largest Abelian subgroup         C1      NOp   1
 Largest concise Abelian subgroup C1      NOp   1
                         Standard orientation:                         
 ---------------------------------------------------------------------
 Center     Atomic      Atomic             Coordinates (Angstroms)
 Number     Number       Type             X           Y           Z
 ---------------------------------------------------------------------
      1          6           0        0.688141    1.266682   -0.510368
      2          6           0       -0.005289   -0.000020    0.012116
      3          1           0        0.202761    2.159583   -0.101829
      4          1           0        1.745404    1.283129   -0.212825
      5          1           0        0.648838    1.315507   -1.605329
      6          6           0        0.695278   -1.262483   -0.511073
      7          6           0       -1.489080   -0.004040   -0.359809
      8          1           0        0.215200   -2.158364   -0.102793
      9          1           0        0.655972   -1.311072   -1.606039
     10          1           0        1.752729   -1.272935   -0.213879
     11          1           0       -1.615064   -0.003692   -1.448319
     12          1           0       -1.979889   -0.893173    0.050534
     13          1           0       -1.984918    0.881763    0.051688
     14          8           0        0.011271   -0.000350    1.455894
     15          1           0        0.934504    0.001224    1.756442
 ---------------------------------------------------------------------
 Rotational constants (GHZ):           4.6761858           4.6478748           4.4754537
 Standard basis: 6-31+G(d) (6D, 7F)
 There are   115 symmetry adapted cartesian basis functions of A   symmetry.
 There are   115 symmetry adapted basis functions of A   symmetry.
   115 basis functions,   200 primitive gaussians,   115 cartesian basis functions
    21 alpha electrons       21 beta electrons
       nuclear repulsion energy       198.6527683888 Hartrees.
 NAtoms=   15 NActive=   15 NUniq=   15 SFac= 1.00D+00 NAtFMM=   60 NAOKFM=F Big=F
 Integral buffers will be    131072 words long.
 Raffenetti 2 integral format.
 Two-electron integral symmetry is turned on.
 Nuclear repulsion after empirical dispersion term =      198.6422358938 Hartrees.
 One-electron integrals computed using PRISM.
 NBasis=   115 RedAO= T EigKep=  5.82D-05  NBF=   115
 NBsUse=   115 1.00D-06 EigRej= -1.00D+00 NBFU=   115
 Initial guess from the checkpoint file:  "MOLECULE_3-vol.chk"
 B after Tr=     0.000000    0.000000    0.000000
         Rot=    1.000000    0.000000    0.000000    0.000000 Ang=   0.00 deg.
 Requested convergence on RMS density matrix=1.00D-08 within1000 cycles.
 Requested convergence on MAX density matrix=1.00D-06.
 Requested convergence on             energy=1.00D-06.
 No special actions if energy rises.
 SCF Done:  E(RB3LYP) =  -233.694423646     A.U. after    1 cycles
            NFock=  1  Conv=0.18D-08     -V/T= 2.0100
 DoSCS=F DFT=T ScalE2(SS,OS)=  1.000000  1.000000
 Range of M.O.s used for correlation:     1   115
 NBasis=   115 NAE=    21 NBE=    21 NFC=     0 NFV=     0
 NROrb=    115 NOA=    21 NOB=    21 NVA=    94 NVB=    94

 **** Warning!!: The largest alpha MO coefficient is  0.46415837D+02

 Symmetrizing basis deriv contribution to polar:
 IMax=3 JMax=2 DiffMx= 0.00D+00
 G2DrvN: will do    16 centers at a time, making    1 passes.
 Calling FoFCou, ICntrl=  3107 FMM=F I1Cent=   0 AccDes= 0.00D+00.
 End of G2Drv F.D. properties file   721 does not exist.
 End of G2Drv F.D. properties file   722 does not exist.
 End of G2Drv F.D. properties file   788 does not exist.
          IDoAtm=111111111111111
          Differentiating once with respect to electric field.
                with respect to dipole field.
          Differentiating once with respect to nuclear coordinates.
 Keep R1 ints in memory in canonical form, NReq=52208145.
          There are    48 degrees of freedom in the 1st order CPHF.  IDoFFX=6 NUNeed=     3.
     45 vectors produced by pass  0 Test12= 4.11D-15 2.08D-09 XBig12= 3.30D+01 1.63D+00.
 AX will form    45 AO Fock derivatives at one time.
     45 vectors produced by pass  1 Test12= 4.11D-15 2.08D-09 XBig12= 1.93D+00 3.64D-01.
     45 vectors produced by pass  2 Test12= 4.11D-15 2.08D-09 XBig12= 8.82D-03 1.77D-02.
     45 vectors produced by pass  3 Test12= 4.11D-15 2.08D-09 XBig12= 1.37D-05 8.08D-04.
     45 vectors produced by pass  4 Test12= 4.11D-15 2.08D-09 XBig12= 9.01D-09 1.52D-05.
     17 vectors produced by pass  5 Test12= 4.11D-15 2.08D-09 XBig12= 5.29D-12 4.25D-07.
      3 vectors produced by pass  6 Test12= 4.11D-15 2.08D-09 XBig12= 3.60D-15 1.30D-08.
 InvSVY:  IOpt=1 It=  1 EMax= 4.44D-15
 Solved reduced A of dimension   245 with    48 vectors.
 Isotropic polarizability for W=    0.000000       53.99 Bohr**3.
 End of Minotr F.D. properties file   721 does not exist.
 End of Minotr F.D. properties file   722 does not exist.
 End of Minotr F.D. properties file   788 does not exist.

 **********************************************************************

            Population analysis using the SCF Density.

 **********************************************************************

 Orbital symmetries:
       Occupied  (A) (A) (A) (A) (A) (A) (A) (A) (A) (A) (A) (A)
                 (A) (A) (A) (A) (A) (A) (A) (A) (A)
       Virtual   (A) (A) (A) (A) (A) (A) (A) (A) (A) (A) (A) (A)
                 (A) (A) (A) (A) (A) (A) (A) (A) (A) (A) (A) (A)
                 (A) (A) (A) (A) (A) (A) (A) (A) (A) (A) (A) (A)
                 (A) (A) (A) (A) (A) (A) (A) (A) (A) (A) (A) (A)
                 (A) (A) (A) (A) (A) (A) (A) (A) (A) (A) (A) (A)
                 (A) (A) (A) (A) (A) (A) (A) (A) (A) (A) (A) (A)
                 (A) (A) (A) (A) (A) (A) (A) (A) (A) (A) (A) (A)
                 (A) (A) (A) (A) (A) (A) (A) (A) (A) (A)
 The electronic state is 1-A.
 Alpha  occ. eigenvalues --  -19.15211 -10.24935 -10.18185 -10.18182 -10.17611
 Alpha  occ. eigenvalues --   -1.02116  -0.79242  -0.69567  -0.69443  -0.57421
 Alpha  occ. eigenvalues --   -0.49308  -0.45517  -0.45179  -0.41682  -0.40240
 Alpha  occ. eigenvalues --   -0.38480  -0.37154  -0.35886  -0.35227  -0.32332
 Alpha  occ. eigenvalues --   -0.27502
 Alpha virt. eigenvalues --   -0.00120   0.02904   0.03288   0.03641   0.04875
 Alpha virt. eigenvalues --    0.06189   0.06369   0.07355   0.07357   0.08035
 Alpha virt. eigenvalues --    0.10887   0.11467   0.11955   0.13672   0.13935
 Alpha virt. eigenvalues --    0.15925   0.19429   0.19776   0.19916   0.22416
 Alpha virt. eigenvalues --    0.23484   0.24443   0.24694   0.25200   0.27004
 Alpha virt. eigenvalues --    0.27345   0.27424   0.31301   0.31408   0.33531
 Alpha virt. eigenvalues --    0.34466   0.35001   0.38577   0.43989   0.61098
 Alpha virt. eigenvalues --    0.61401   0.64669   0.67875   0.68603   0.71617
 Alpha virt. eigenvalues --    0.74264   0.76034   0.79242   0.80483   0.80656
 Alpha virt. eigenvalues --    0.85284   0.96047   0.96138   0.99707   1.00858
 Alpha virt. eigenvalues --    1.01251   1.02762   1.06884   1.11051   1.12922
 Alpha virt. eigenvalues --    1.13624   1.15172   1.22456   1.23894   1.33098
 Alpha virt. eigenvalues --    1.41337   1.44464   1.45133   1.55463   1.61215
 Alpha virt. eigenvalues --    1.72123   1.73947   1.76615   1.83633   1.84144
 Alpha virt. eigenvalues --    1.89015   1.91220   1.92661   2.11322   2.12832
 Alpha virt. eigenvalues --    2.15845   2.23480   2.24372   2.24843   2.25361
 Alpha virt. eigenvalues --    2.27826   2.28752   2.38855   2.47753   2.59912
 Alpha virt. eigenvalues --    2.65237   2.73458   2.73820   2.95220   4.14652
 Alpha virt. eigenvalues --    4.27593   4.33829   4.36923   4.64760
          Condensed to atoms (all electrons):
               1          2          3          4          5          6
     1  C    5.693513   0.108656   0.403706   0.381522   0.389801  -0.035966
     2  C    0.108656   5.848072  -0.055904  -0.028918  -0.041667   0.108293
     3  H    0.403706  -0.055904   0.493168  -0.027398  -0.027946   0.015607
     4  H    0.381522  -0.028918  -0.027398   0.525723  -0.030377  -0.023690
     5  H    0.389801  -0.041667  -0.027946  -0.030377   0.510688  -0.015511
     6  C   -0.035966   0.108293   0.015607  -0.023690  -0.015511   5.693875
     7  C   -0.263696   0.135591  -0.018058   0.016165  -0.002839  -0.263801
     8  H    0.015597  -0.055922  -0.000135  -0.000005   0.000029   0.403729
     9  H   -0.015483  -0.041729   0.000029   0.000219   0.000269   0.389881
    10  H   -0.023659  -0.028878  -0.000005   0.002463   0.000219   0.381443
    11  H   -0.008707  -0.033230   0.000091   0.000030   0.000644  -0.008682
    12  H    0.011174  -0.047399   0.000018  -0.000139   0.000007  -0.009510
    13  H   -0.009562  -0.047337   0.002568   0.000001   0.000140   0.011171
    14  O   -0.039820   0.126336  -0.003221  -0.010726   0.008597  -0.039419
    15  H   -0.054060   0.091282  -0.000628   0.003207  -0.000064  -0.054017
               7          8          9         10         11         12
     1  C   -0.263696   0.015597  -0.015483  -0.023659  -0.008707   0.011174
     2  C    0.135591  -0.055922  -0.041729  -0.028878  -0.033230  -0.047399
     3  H   -0.018058  -0.000135   0.000029  -0.000005   0.000091   0.000018
     4  H    0.016165  -0.000005   0.000219   0.002463   0.000030  -0.000139
     5  H   -0.002839   0.000029   0.000269   0.000219   0.000644   0.000007
     6  C   -0.263801   0.403729   0.389881   0.381443  -0.008682  -0.009510
     7  C    5.887822  -0.018062  -0.002873   0.016162   0.380353   0.390901
     8  H   -0.018062   0.493166  -0.027940  -0.027408   0.000091   0.002568
     9  H   -0.002873  -0.027940   0.510639  -0.030375   0.000646   0.000139
    10  H    0.016162  -0.027408  -0.030375   0.525752   0.000029   0.000001
    11  H    0.380353   0.000091   0.000646   0.000029   0.515800  -0.029196
    12  H    0.390901   0.002568   0.000139   0.000001  -0.029196   0.493941
    13  H    0.390918   0.000017   0.000007  -0.000139  -0.029195  -0.025060
    14  O   -0.107845  -0.003220   0.008594  -0.010736   0.008205  -0.001802
    15  H    0.034265  -0.000631  -0.000063   0.003212  -0.000281  -0.000124
              13         14         15
     1  C   -0.009562  -0.039820  -0.054060
     2  C   -0.047337   0.126336   0.091282
     3  H    0.002568  -0.003221  -0.000628
     4  H    0.000001  -0.010726   0.003207
     5  H    0.000140   0.008597  -0.000064
     6  C    0.011171  -0.039419  -0.054017
     7  C    0.390918  -0.107845   0.034265
     8  H    0.000017  -0.003220  -0.000631
     9  H    0.000007   0.008594  -0.000063
    10  H   -0.000139  -0.010736   0.003212
    11  H   -0.029195   0.008205  -0.000281
    12  H   -0.025060  -0.001802  -0.000124
    13  H    0.493902  -0.001818  -0.000124
    14  O   -0.001818   8.514095   0.155378
    15  H   -0.000124   0.155378   0.369911
 Mulliken charges:
               1
     1  C   -0.553016
     2  C   -0.037246
     3  H    0.218109
     4  H    0.191925
     5  H    0.208012
     6  C   -0.553404
     7  C   -0.575004
     8  H    0.218126
     9  H    0.208042
    10  H    0.191920
    11  H    0.203402
    12  H    0.214484
    13  H    0.214513
    14  O   -0.602599
    15  H    0.452737
 Sum of Mulliken charges =   0.00000
 Mulliken charges with hydrogens summed into heavy atoms:
               1
     1  C    0.065029
     2  C   -0.037246
     6  C    0.064684
     7  C    0.057394
    14  O   -0.149862
 APT charges:
               1
     1  C    0.007009
     2  C    0.544615
     3  H   -0.015815
     4  H   -0.036033
     5  H   -0.014879
     6  C    0.007010
     7  C    0.029180
     8  H   -0.015820
     9  H   -0.014845
    10  H   -0.036043
    11  H   -0.011414
    12  H   -0.014374
    13  H   -0.014344
    14  O   -0.639605
    15  H    0.225360
 Sum of APT charges =   0.00000
 APT charges with hydrogens summed into heavy atoms:
               1
     1  C   -0.059718
     2  C    0.544615
     6  C   -0.059698
     7  C   -0.010953
    14  O   -0.414246
 Electronic spatial extent (au):  <R**2>=            452.7811
 Charge=              0.0000 electrons
 Dipole moment (field-independent basis, Debye):
    X=              1.2819    Y=              0.0023    Z=             -1.1918  Tot=              1.7503
 Quadrupole moment (field-independent basis, Debye-Ang):
   XX=            -32.2888   YY=            -34.2531   ZZ=            -35.3854
   XY=              0.0024   XZ=              3.0781   YZ=              0.0062
 Traceless Quadrupole moment (field-independent basis, Debye-Ang):
   XX=              1.6870   YY=             -0.2774   ZZ=             -1.4096
   XY=              0.0024   XZ=              3.0781   YZ=              0.0062
 Octapole moment (field-independent basis, Debye-Ang**2):
  XXX=              2.7383  YYY=             -0.0177  ZZZ=              2.1090  XYY=             -1.6724
  XXY=              0.0141  XXZ=              5.9811  XZZ=              5.9494  YZZ=              0.0108
  YYZ=              2.2902  XYZ=              0.0046
 Hexadecapole moment (field-independent basis, Debye-Ang**3):
 XXXX=           -223.4949 YYYY=           -223.6354 ZZZZ=           -171.9304 XXXY=              0.0063
 XXXZ=              4.5826 YYYX=             -0.0023 YYYZ=              0.0006 ZZZX=             14.0040
 ZZZY=              0.0199 XXYY=            -75.1912 XXZZ=            -63.3779 YYZZ=            -70.1615
 XXYZ=              0.0084 YYXZ=              0.1235 ZZXY=              0.0083
 N-N= 1.986422358938D+02 E-N=-9.402774077616D+02  KE= 2.313863237687D+02
  Exact polarizability:  55.086   0.001  54.298   0.458   0.001  52.581
 Approx polarizability:  70.581   0.005  68.106   0.815   0.000  71.837
 Calling FoFJK, ICntrl=    100127 FMM=F ISym2X=0 I1Cent= 0 IOpClX= 0 NMat=1 NMatS=1 NMatT=0.
 Full mass-weighted force constant matrix:
 Low frequencies ---   -3.1327    0.0005    0.0007    0.0007    3.5644    8.6033
 Low frequencies ---  213.5764  275.2516  285.0042
 Diagonal vibrational polarizability:
        1.2693925      40.7003681       5.6963668
 Harmonic frequencies (cm**-1), IR intensities (KM/Mole), Raman scattering
 activities (A**4/AMU), depolarization ratios for plane and unpolarized
 incident light, reduced masses (AMU), force constants (mDyne/A),
 and normal coordinates:
                      1                      2                      3
                      A                      A                      A
 Frequencies --    213.5760               275.2514               285.0041
 Red. masses --      1.0137                 1.0603                 1.0492
 Frc consts  --      0.0272                 0.0473                 0.0502
 IR Inten    --      5.2914                10.1125                 0.0358
  Atom  AN      X      Y      Z        X      Y      Z        X      Y      Z
     1   6     0.00   0.00  -0.01    -0.02  -0.01  -0.04     0.00   0.01   0.02
     2   6     0.00   0.00   0.00     0.00   0.00   0.00     0.00   0.00   0.00
     3   1    -0.16   0.01  -0.24     0.14  -0.02   0.18     0.22  -0.02   0.36
     4   1    -0.07   0.12   0.24     0.06  -0.11  -0.30     0.10  -0.16  -0.31
     5   1     0.26  -0.16  -0.03    -0.29   0.11  -0.02    -0.35   0.24   0.05
     6   6     0.00   0.00   0.01     0.02  -0.01   0.04     0.00  -0.01   0.02
     7   6     0.00   0.01   0.00     0.00   0.00   0.00     0.01   0.00  -0.04
     8   1     0.16   0.01   0.24    -0.14  -0.02  -0.18     0.22   0.02   0.36
     9   1    -0.26  -0.16   0.03     0.29   0.11   0.02    -0.35  -0.24   0.05
    10   1     0.07   0.12  -0.24    -0.06  -0.12   0.30     0.09   0.16  -0.31
    11   1     0.00   0.40   0.00     0.00   0.39   0.00     0.05   0.00  -0.05
    12   1     0.06  -0.17  -0.33     0.05  -0.17  -0.32     0.00   0.00  -0.06
    13   1    -0.05  -0.18   0.33    -0.05  -0.17   0.32     0.00   0.00  -0.06
    14   8     0.00   0.01   0.00     0.00   0.03   0.00    -0.01   0.00   0.00
    15   1     0.00  -0.20   0.00     0.00  -0.27   0.00    -0.01   0.00   0.01
                      4                      5                      6
                      A                      A                      A
 Frequencies --    306.9036               349.0922               349.8789
 Red. masses --      1.0309                 2.5951                 2.3720
 Frc consts  --      0.0572                 0.1863                 0.1711
 IR Inten    --    107.9660                 5.9663                 1.5440
  Atom  AN      X      Y      Z        X      Y      Z        X      Y      Z
     1   6     0.01  -0.01   0.01     0.12   0.01   0.11    -0.13   0.11   0.07
     2   6     0.00  -0.01   0.00     0.00   0.03   0.00     0.03   0.00   0.00
     3   1     0.03  -0.01   0.03     0.20   0.01   0.21    -0.35  -0.02   0.10
     4   1     0.02  -0.04  -0.02     0.10  -0.16   0.19    -0.16   0.32   0.16
     5   1     0.00   0.00   0.02     0.20   0.16   0.11    -0.06   0.18   0.07
     6   6    -0.01  -0.01  -0.01    -0.12   0.00  -0.11    -0.12  -0.11   0.08
     7   6     0.00   0.00   0.00     0.00  -0.21   0.00     0.06   0.01  -0.13
     8   1    -0.03  -0.01  -0.03    -0.22   0.01  -0.21    -0.34   0.02   0.11
     9   1     0.00   0.00  -0.02    -0.21   0.15  -0.11    -0.05  -0.19   0.08
    10   1    -0.02  -0.04   0.02    -0.11  -0.18  -0.18    -0.15  -0.31   0.17
    11   1     0.00   0.21   0.00     0.01  -0.22   0.00     0.24   0.01  -0.15
    12   1     0.03  -0.10  -0.18     0.22  -0.34  -0.03    -0.02   0.01  -0.23
    13   1    -0.03  -0.10   0.18    -0.22  -0.34   0.02    -0.01   0.01  -0.23
    14   8     0.00  -0.03   0.00     0.00   0.19   0.00     0.16   0.00  -0.01
    15   1     0.00   0.93   0.00     0.01  -0.06   0.00     0.20   0.00  -0.13
                      7                      8                      9
                      A                      A                      A
 Frequencies --    428.3688               471.8326               471.8678
 Red. masses --      2.2247                 2.8966                 2.5661
 Frc consts  --      0.2405                 0.3799                 0.3366
 IR Inten    --      0.4271                 7.9157                 9.3548
  Atom  AN      X      Y      Z        X      Y      Z        X      Y      Z
     1   6    -0.05  -0.08  -0.08    -0.11  -0.14   0.12     0.05  -0.09   0.03
     2   6     0.01   0.00   0.16    -0.04  -0.16   0.00    -0.15   0.03   0.01
     3   1    -0.01   0.02  -0.24    -0.21  -0.25   0.26     0.26   0.04  -0.01
     4   1     0.00   0.01  -0.25    -0.14  -0.09   0.22     0.03  -0.36   0.12
     5   1    -0.21  -0.34  -0.08    -0.03   0.05   0.13     0.18  -0.09   0.03
     6   6    -0.05   0.07  -0.08     0.12  -0.08  -0.10     0.00   0.14   0.08
     7   6     0.09   0.00  -0.09    -0.04   0.09  -0.02    -0.17  -0.02  -0.10
     8   1    -0.01  -0.02  -0.24     0.31  -0.25  -0.24     0.15   0.06   0.09
     9   1    -0.21   0.34  -0.08     0.11   0.09  -0.10     0.15   0.06   0.08
    10   1     0.00  -0.01  -0.25     0.14   0.08  -0.14    -0.03   0.36   0.20
    11   1     0.39   0.00  -0.13     0.00   0.18  -0.03     0.01  -0.04  -0.12
    12   1    -0.04  -0.01  -0.25    -0.32   0.22  -0.07    -0.18  -0.06  -0.19
    13   1    -0.04   0.01  -0.25     0.20   0.23  -0.02    -0.29  -0.04  -0.20
    14   8     0.01   0.00   0.17     0.04   0.20   0.00     0.17  -0.04   0.00
    15   1     0.02   0.00   0.16     0.06   0.03  -0.07     0.26   0.00  -0.29
                     10                     11                     12
                      A                      A                      A
 Frequencies --    754.3434               920.8208               928.1001
 Red. masses --      3.9391                 1.6789                 2.5030
 Frc consts  --      1.3206                 0.8387                 1.2703
 IR Inten    --      3.3953                 0.0653                37.5202
[...]
 ! D22   D(6,2,7,11)           -61.872          -DE/DX =    0.0                 !
 ! D23   D(6,2,7,12)            58.426          -DE/DX =    0.0                 !
 ! D24   D(6,2,7,13)           177.832          -DE/DX =    0.0                 !
 ! D25   D(14,2,7,11)          179.9769         -DE/DX =    0.0                 !
 ! D26   D(14,2,7,12)          -59.7251         -DE/DX =    0.0                 !
 ! D27   D(14,2,7,13)           59.6809         -DE/DX =    0.0                 !
 ! D28   D(1,2,14,15)          -60.9911         -DE/DX =    0.0                 !
 ! D29   D(6,2,14,15)           60.8718         -DE/DX =    0.0                 !
 ! D30   D(7,2,14,15)         -180.0566         -DE/DX =    0.0                 !
 --------------------------------------------------------------------------------
 GradGradGradGradGradGradGradGradGradGradGradGradGradGradGradGradGradGrad


 ----------------------------------------------------------------------

 Electric dipole moment (input orientation):
 (Debye = 10**-18 statcoulomb cm , SI units = C m)
                  (au)            (Debye)         (10**-30 SI)
   Tot        0.688622D+00      0.175030D+01      0.583838D+01
   x          0.504326D+00      0.128187D+01      0.427585D+01
   y          0.921528D-03      0.234229D-02      0.781304D-02
   z         -0.468886D+00     -0.119179D+01     -0.397538D+01

 Dipole polarizability, Alpha (input orientation).
 (esu units = cm**3 , SI units = C**2 m**2 J**-1)
 Alpha(0;0):
               (au)            (10**-24 esu)      (10**-40 SI)
   iso        0.539886D+02      0.800028D+01      0.890151D+01
   aniso      0.235674D+01      0.349233D+00      0.388574D+00
   xx         0.550864D+02      0.816296D+01      0.908251D+01
   yx         0.135430D-02      0.200686D-03      0.223293D-03
   yy         0.542984D+02      0.804620D+01      0.895260D+01
   zx         0.458370D+00      0.679234D-01      0.755749D-01
   zy         0.543750D-03      0.805755D-04      0.896523D-04
   zz         0.525809D+02      0.779169D+01      0.866942D+01

 ----------------------------------------------------------------------

 Dipole orientation:
     6          0.17771701         -2.39162875          1.61228195
     6          0.00996282          0.00000133         -0.02290987
     1          0.11759299         -4.08053514          0.41710838
     1          1.94990025         -2.42229468          2.69269820
     1         -1.38831265         -2.48116882          2.96692359
     6          0.18870624          2.38780497          1.61666508
     6         -2.41400200          0.00689990         -1.59789162
     1          0.13701434          4.07920955          0.42463626
     1         -1.37722688          2.48235049          2.97106266
     1          1.96067801          2.40797182          2.69772256
     1         -4.08258490          0.00885617         -0.37163796
     1         -2.47665404          1.68553559         -2.80740937
     1         -2.48348098         -1.66861222         -2.81136293
     8          2.02943065         -0.00300795         -1.85773596
     1          3.63332923         -0.00572329         -0.96671872

 Electric dipole moment (dipole orientation):
 (Debye = 10**-18 statcoulomb cm , SI units = C m)
                  (au)            (Debye)         (10**-30 SI)
   Tot        0.688622D+00      0.175030D+01      0.583838D+01
   x          0.000000D+00      0.000000D+00      0.000000D+00
   y          0.000000D+00      0.000000D+00      0.000000D+00
   z          0.688622D+00      0.175030D+01      0.583838D+01

 Dipole polarizability, Alpha (dipole orientation).
 (esu units = cm**3 , SI units = C**2 m**2 J**-1)
 Alpha(0;0):
               (au)            (10**-24 esu)      (10**-40 SI)
   iso        0.539886D+02      0.800028D+01      0.890151D+01
   aniso      0.235674D+01      0.349233D+00      0.388574D+00
   xx         0.541997D+02      0.803156D+01      0.893632D+01
   yx         0.453782D-03      0.672435D-04      0.748185D-04
   yy         0.542984D+02      0.804620D+01      0.895260D+01
   zx         0.128274D+01      0.190082D+00      0.211495D+00
   zy        -0.248134D-02     -0.367696D-03     -0.409117D-03
   zz         0.534676D+02      0.792308D+01      0.881562D+01

 ----------------------------------------------------------------------
 1\1\GINC-IP-172-31-1-231\Freq\RB3LYP\6-31+G(d)\C4H10O1\UBUNTU\15-Sep-2
 023\0\\#N Geom=AllCheck Guess=TCheck SCRF=Check GenChk RB3LYP/6-31+G(d
 ) Freq\\Title Card Required\\0,1\C,0.688143,1.266681,-0.510368\C,-0.00
 5289,-0.00002,0.012116\H,0.202764,2.159583,-0.101829\H,1.745406,1.2831
 27,-0.212825\H,0.64884,1.315506,-1.605329\C,0.695276,-1.262484,-0.5110
 73\C,-1.48908,-0.004038,-0.359809\H,0.215197,-2.158364,-0.102793\H,0.6
 5597,-1.311073,-1.606039\H,1.752727,-1.272937,-0.213879\H,-1.615064,-0
 .00369,-1.448319\H,-1.97989,-0.89317,0.050534\H,-1.984917,0.881766,0.0
 51688\O,0.011271,-0.00035,1.455894\H,0.934504,0.001223,1.756442\\Versi
 on=EM64L-G16RevB.01\State=1-A\HF=-233.6944236\RMSD=1.825e-09\RMSF=3.15
 7e-05\ZeroPoint=0.136121\Thermal=0.1427344\Dipole=0.5043261,0.0009215,
 -0.4688859\DipoleDeriv=0.0527263,-0.0581701,0.0632408,-0.0551665,-0.06
 76313,0.0834786,0.0055418,0.0218853,0.0359316,0.3635011,-0.0002884,0.0
 368194,-0.0002734,0.4665603,-0.0001034,-0.0104175,-0.0002804,0.8037835
 ,0.0156078,0.0910795,0.0432403,0.0435385,-0.1021187,-0.0345368,0.04003
 57,-0.0746202,0.0390664,-0.1778378,-0.0391586,-0.0522948,0.0184674,0.0
 353331,0.0289385,-0.0851702,0.0067068,0.0344051,0.0659521,-0.0103484,-
 0.0241291,-0.0128525,0.0511033,-0.0148555,0.0085543,0.0438975,-0.16169
 28,0.0521524,0.0588021,0.0637215,0.0558276,-0.0668713,-0.0831691,0.005
 6564,-0.0218962,0.035748,-0.0464603,-0.0002278,-0.0572936,-0.0002628,0
 .056832,-0.0001827,0.0069304,-0.0000095,0.0771686,0.0163937,-0.0903806
 ,0.0430081,-0.0428495,-0.1029523,0.0347374,0.0395915,0.074816,0.039099
 1,0.0658428,0.0104251,-0.0242568,0.0129313,0.0512733,0.014815,0.008747
 1,-0.0437447,-0.1616513,-0.1779901,0.0379554,-0.0520773,-0.0196542,0.0
 354541,-0.0292363,-0.0851194,-0.0071951,0.0344073,0.0434175,-0.0000893
 ,0.017025,-0.0000554,0.0727749,0.0001853,-0.0514461,-0.0000022,-0.1504
 357,-0.0105768,-0.0559698,0.0094533,-0.1077477,-0.0801152,0.0607667,0.
 0420172,0.0703398,0.0475698,-0.0114808,0.0563221,0.0098617,0.1080527,-
 0.0789947,-0.0608526,0.0425465,-0.0702319,0.0474424,-0.2916937,0.00066
 79,-0.0362805,0.0007276,-0.6195151,0.0000602,0.0155546,0.0002665,-1.00
 76073,0.0404458,-0.0006189,-0.040038,-0.0006833,0.3488675,-0.0000453,0
 .0169776,0.0000683,0.2867653\Polar=55.0863612,0.0013543,54.2984216,0.4
 583696,0.0005438,52.5809277\Quadrupole=1.2542225,-0.2062252,-1.0479973
 ,0.0017704,2.2884648,0.0045936\PG=C01 [X(C4H10O1)]\NImag=0\\0.55378222
 ,-0.04544593,0.50550475,0.01429225,0.03632104,0.56909654,-0.10122870,-
 0.03713419,0.00756772,0.53429438,-0.03909854,-0.15093280,0.01810696,0.
 00006316,0.49523649,0.01485884,0.02519264,-0.07809349,0.00840966,0.000
 03183,0.44669744,-0.10321299,0.09805272,0.04511703,0.00597724,-0.01294
 026,-0.00593254,0.10966123,0.09644236,-0.22111574,-0.08051265,0.013518
 47,-0.02419736,-0.01254776,-0.10453871,0.24189024,0.04485431,-0.082789
 41,-0.08676664,-0.00488811,0.01000335,0.00265916,-0.05029755,0.0888415
 6,0.08934970,-0.28477761,-0.00066082,-0.06811407,-0.01646372,0.0014612
 3,-0.00639024,-0.01315088,-0.00050819,-0.00434721,0.31111757,0.0002006
 9,-0.04883373,0.00022696,-0.02774600,-0.00065351,-0.00876830,0.0253965
 0,0.00115404,0.00900408,0.00276527,0.05171330,-0.06802355,-0.00083195,
 -0.06815248,0.01138342,0.00048762,0.00096453,0.01257207,0.00099201,0.0
 0344693,0.07504768,-0.00139133,0.06991762,-0.04875201,0.00004691,-0.01
 115992,0.00034380,0.00240260,0.01325010,0.00039760,-0.00187656,0.01516
 155,-0.00004666,0.00140469,-0.03252974,0.04894007,-0.00003162,-0.05031
 629,0.00873276,0.00428179,0.00246843,0.02458686,-0.00269578,0.00260621
 ,-0.02677171,0.00023550,-0.00088332,0.00000414,0.00127067,0.05057397,-
 0.01004569,0.01071250,-0.30892417,-0.00229903,-0.00337690,-0.01084523,
 -0.00096210,0.00083497,-0.01050464,-0.00024896,0.00000480,-0.00779895,
 0.01152049,-0.01118976,0.33686507,0.00710628,-0.01147347,-0.00482419,-
 0.10165991,0.03937057,0.01503268,-0.00105374,-0.00417242,0.00076608,0.
 00028462,-0.00130276,-0.00020238,0.00005331,0.00033863,-0.00011698,0.5
 5322595,0.01170232,-0.03247463,-0.00711525,0.03741297,-0.15048305,-0.0
 2515924,-0.00208340,-0.00376100,0.00169583,0.00112231,0.00123471,-0.00
 063581,0.00049762,0.00013773,-0.00054985,0.04570478,0.50608385,-0.0048
 5909,0.00706712,0.00794065,0.00768888,-0.01810881,-0.07813583,0.000986
 18,0.00332930,-0.00063891,0.00020150,-0.00034959,-0.00016918,-0.000242
 64,-0.00012404,-0.00011327,0.01450177,-0.03626854,0.56907150,-0.021697
 44,-0.00646261,-0.00115179,-0.18369656,-0.00028804,-0.02537776,0.00094
 894,0.00146133,-0.00037534,0.00013843,-0.00146432,0.00098274,-0.000016
 02,0.00056120,-0.00055119,-0.02189617,0.00634975,-0.00118225,0.4817783
 5,-0.02912819,-0.00228756,-0.00613769,-0.00029367,-0.07898788,-0.00007
 583,-0.00102140,0.00044454,-0.00026839,-0.00385447,-0.00462788,0.00151
 763,0.00023142,0.00063410,-0.00047235,0.02900943,-0.00208951,0.0061260
 8,-0.00026818,0.58692995,0.00998367,-0.00075345,0.00556505,-0.01253054
 ,-0.00003686,-0.07542913,-0.00056331,-0.00036213,-0.00004183,0.0022430
 5,0.00242993,-0.00064091,0.00041585,-0.00007272,-0.00016580,0.01000515
 ,0.00080560,0.00556828,-0.02473476,-0.00006920,0.58538440,-0.00108874,
 0.00209725,0.00100585,0.00597480,0.01311507,-0.00600134,0.00077087,0.0
 0079870,-0.00005942,0.00031986,0.00030109,0.00016404,-0.00016561,-0.00
 008236,0.00006603,-0.10206660,-0.09735670,0.04461108,0.00095355,0.0010
 2309,-0.00056581,0.10842360,0.00418811,-0.00372258,-0.00332524,-0.0133
 3788,-0.02420126,0.01250619,-0.00078482,-0.00171650,0.00057843,-0.0000
 1466,0.00034297,-0.00013388,0.00011197,0.00039108,0.00010256,-0.095747
 77,-0.22231283,0.08074083,-0.00145902,0.00044170,0.00035840,0.10376281
 ,0.24317622,0.00077818,-0.00169345,-0.00064204,-0.00483761,-0.01004679
 ,0.00266258,-0.00005673,-0.00058004,0.00061221,0.00019592,0.00012654,-
 0.00008912,0.00002045,-0.00023634,0.00030577,0.04433601,0.08301579,-0.
 08671913,-0.00037726,0.00026719,-0.00004286,-0.04974060,-0.08909384,0.
 08929964,0.00005716,-0.00049756,-0.00024427,0.00038438,-0.00241714,0.0
 1339345,-0.00016525,-0.00011513,0.00001921,0.00001261,0.00001074,-0.00
 014726,0.00033185,0.00001092,-0.00005973,-0.04874997,-0.00003691,-0.01
 117873,-0.00001090,-0.00023481,0.00041497,0.00037611,0.00185635,0.0150
 0474,0.04895587,-0.00033903,0.00013263,0.00012305,-0.00429886,0.002438
 31,-0.02450622,0.00007930,0.00039047,0.00023666,0.00002989,-0.00009038
 ,0.00000529,-0.00000392,-0.00109906,0.00021216,0.00004156,-0.05030591,
 -0.00868901,-0.00056423,0.00063046,0.00007519,0.00269033,0.00262129,0.
 02686425,-0.00128103,0.05054830,-0.00011987,0.00054888,-0.00011321,-0.
 00231951,0.00336907,-0.01085745,0.00006674,-0.00010226,0.00030585,0.00
 013377,-0.00002520,-0.00002143,-0.00005836,-0.00021265,0.00087522,-0.0
 1005473,-0.01066173,-0.30894178,-0.00055398,0.00047065,-0.00016410,-0.
 00095923,-0.00083530,-0.01049658,0.01152965,0.01113528,0.33687924,0.00
 028465,-0.00112807,0.00019796,-0.01661203,-0.00154933,-0.00643736,0.00
 032156,0.00001422,0.00019676,0.00098781,0.00053404,-0.00001326,0.00001
 260,-0.00002889,0.00013338,-0.28479182,-0.00067713,-0.06803302,0.00010
 891,0.00387862,0.00226039,-0.01300306,0.00042799,-0.00428946,-0.000049
 32,-0.00023058,-0.00025244,0.31116643,0.00129693,0.00123417,0.00035157
 ,0.02765132,-0.00050571,0.00872224,-0.00030104,0.00034153,-0.00012505,
 -0.00052382,-0.00072943,-0.00022045,-0.00001022,-0.00009044,0.00002641
 ,-0.00153805,-0.04884411,-0.00061225,0.00149045,-0.00459571,-0.0024209
 5,-0.02548550,0.00101458,-0.00902238,-0.00138607,-0.00089224,-0.000002
 85,-0.00129509,0.05169225,-0.00020497,0.00063576,-0.00016766,0.0113994
 1,-0.00041943,0.00096536,0.00016304,0.00013513,-0.00008938,-0.00001492
 ,0.00021905,0.00020725,-0.00014737,-0.00000624,-0.00002182,-0.06794308
 ,0.00044495,-0.06810847,0.00099216,-0.00151296,-0.00064206,0.01257171,
 -0.00092102,0.00344034,-0.03253431,-0.00018957,-0.00779064,0.07495067,
 0.00181932,0.06987438,0.00070728,0.00007611,-0.00029858,0.00150518,0.0
 0002969,-0.03005659,-0.00006371,-0.00005168,0.00007241,0.00028042,0.00
 029360,0.00022634,-0.00060808,-0.00054681,0.00035076,0.00070683,-0.000
 07177,-0.00030005,-0.05321136,0.00000413,-0.02631365,-0.00006455,0.000
 05107,0.00007111,-0.00061026,0.00054267,0.00035269,0.00028232,-0.00029
 157,0.00022696,0.05588169,-0.00026515,-0.00022639,-0.00035565,0.000010
 13,-0.00232786,-0.00008031,-0.00001198,-0.00000554,-0.00014164,0.00015
 870,-0.00006339,0.00011259,-0.00053333,-0.00000517,0.00008845,0.000268
 17,-0.00022602,0.00035491,0.00000619,-0.04865651,0.00009573,0.00001196
 ,-0.00000465,0.00014182,0.00052867,0.00000081,-0.00008793,-0.00015628,
 -0.00006554,-0.00011210,0.00000495,0.04748808,0.00055530,0.00021290,-0
 .00022507,0.00315899,0.00001244,-0.00822403,-0.00006784,0.00007718,-0.
 00004019,-0.00010713,-0.00006350,0.00034340,-0.00008494,-0.00018055,0.
 00076326,0.00055479,-0.00020977,-0.00022542,-0.02989721,0.00008398,-0.
 30881342,-0.00006658,-0.00007827,-0.00003936,-0.00008621,0.00018018,0.
 00076308,-0.00010800,0.00006269,0.00034299,0.03169790,-0.00009898,0.33
 667244,-0.00600272,0.00160968,-0.00276909,-0.01562738,-0.02826102,0.01
 395820,0.00013474,-0.00001571,-0.00018862,-0.00113660,-0.00187461,0.00
 052522,0.00017647,0.00032238,0.00007265,0.00082741,-0.00157245,0.00045
 031,-0.09877941,-0.09299185,0.04315714,-0.00045419,0.00121023,-0.00011
 506,-0.00005045,0.00007794,-0.00002818,0.00045918,0.00019369,-0.000238
 29,0.00148324,0.00445829,-0.00115383,0.10938396,-0.00046119,0.00101503
 ,-0.00063908,0.00052123,-0.00143775,0.00037979,0.00024652,0.00041526,0
 .00008682,-0.00026653,0.00019022,0.00019207,0.00016962,-0.00001311,0.0
 0007372,0.00089124,0.00065847,-0.00040592,-0.09522014,-0.22558438,0.08
 153114,0.00026551,0.00041197,0.00010240,0.00000886,-0.00002068,-0.0001
 0009,-0.00009988,0.00013274,-0.00011350,0.00170364,0.00142229,-0.00070
 317,0.10375133,0.24267384,-0.00126030,-0.00022157,-0.00032615,-0.00412
 164,-0.00690259,0.00160681,0.00000182,0.00024833,-0.00005759,-0.000335
 87,-0.00020885,0.00058704,-0.00019469,-0.00014594,0.00030466,0.0003881
 3,-0.00002005,-0.00018158,0.04519729,0.08208560,-0.08673907,0.00025142
 ,-0.00017584,0.00025337,0.00008671,0.00011191,-0.00004772,-0.00005873,
 -0.00022158,-0.00005476,0.01473906,0.02699486,-0.01059803,-0.04812058,
 -0.09030091,0.08912879,0.00082321,0.00157300,0.00044804,-0.01578476,0.
 02816675,0.01399316,-0.00044693,-0.00121522,-0.00011436,0.00045939,-0.
 00019200,-0.00023934,-0.00004992,-0.00007813,-0.00002952,-0.00599498,-
 0.00164791,-0.00277292,-0.09985029,0.09364603,0.04374255,0.00013578,0.
 00001456,-0.00018807,0.00017931,-0.00032162,0.00007261,-0.00114856,0.0
 0186676,0.00052683,0.00151913,-0.00445585,-0.00116429,0.00712162,-0.01
 184813,-0.00672402,0.11056427,-0.00088948,0.00066135,0.00040964,-0.000
 59535,-0.00128912,-0.00030191,-0.00027132,0.00040288,-0.00010256,0.000
 10192,0.00013175,0.00011208,-0.00000984,-0.00002116,0.00010003,0.00042
 376,0.00100796,0.00062435,0.09587376,-0.22430170,-0.08146534,-0.000248
 25,0.00041398,-0.00008765,-0.00016873,-0.00001595,-0.00007332,0.000259
 49,0.00020193,-0.00018943,-0.00172225,0.00142264,0.00071262,0.01201219
 ,-0.02034585,-0.01078552,-0.10443922,0.24125930,0.00038818,0.00002260,
 -0.00018247,-0.00416498,0.00687389,0.00161637,0.00025071,0.00017867,0.
 00025346,-0.00005992,0.00022154,-0.00005416,0.00008750,-0.00011101,-0.
 00004716,-0.00126320,0.00021536,-0.00032656,0.04578943,-0.08200745,-0.
 08694852,0.00000338,-0.00024790,-0.00005749,-0.00019524,0.00014455,0.0
 0030436,-0.00033723,0.00020738,0.00058692,0.01488978,-0.02689558,-0.01
 063169,-0.00676972,0.01071499,0.00513859,-0.04876588,0.09022301,0.0893
 6296,0.00178061,-0.00126828,0.01806708,-0.09387613,-0.00004459,-0.0185
 6206,0.00009060,0.00018391,-0.00059839,0.00225985,0.00131475,0.0004291
 9,-0.00030605,-0.00310052,0.00177813,0.00176982,0.00126050,0.01825801,
 -0.00647818,-0.00000762,-0.04513425,0.00009577,-0.00020435,-0.00060057
 ,-0.00034473,0.00312163,0.00180058,0.00227021,-0.00130606,0.00042424,-
 0.00764736,-0.00002158,-0.00306930,0.00214219,0.00019467,-0.00011413,0
 .00214809,-0.00018377,-0.00011842,0.55021901,-0.00005991,0.00119117,0.
 03368497,-0.00005612,-0.06380739,0.00001161,0.00056581,0.00367677,-0.0
 0055565,0.00096290,0.00105649,-0.00087142,-0.00329040,-0.00437339,0.00
 402364,0.00006220,0.00121092,-0.03356650,-0.00001937,0.00239292,-0.000
 10462,-0.00058527,0.00367445,0.00055284,0.00331453,-0.00433094,-0.0040
 1539,-0.00095383,0.00104001,0.00087157,-0.00001739,0.00044855,-0.00000
 636,0.00093392,0.00038568,-0.00045366,-0.00092399,0.00037748,0.0004537
 9,0.00083198,0.05912315,-0.00008395,0.00524593,-0.04003921,0.02987645,
 0.00008617,-0.18098458,-0.00154679,-0.00047763,0.00152298,0.00046701,-
 0.00246769,0.00204329,0.00361239,0.00628931,-0.00128832,-0.00006435,-0
 .00521989,-0.04005908,-0.01007397,-0.00001378,-0.02857472,-0.00154956,
 0.00047045,0.00152451,0.00365078,-0.00626922,-0.00129293,0.00045253,0.
 00247069,0.00204635,-0.00338947,-0.00000993,0.00024979,0.00094224,-0.0
 0061196,0.00084603,0.00093808,0.00061603,0.00084560,0.12231245,0.00012
 400,0.36298904,0.00221880,0.00061527,0.00186597,-0.00353060,-0.0000101
 6,0.00586178,-0.00020927,0.00007462,-0.00020132,-0.00028509,0.00035831
 ,-0.00017517,-0.00031135,-0.00045696,0.00039179,0.00223897,-0.00060400
 ,0.00187097,0.00170814,0.00000747,-0.00238045,-0.00020759,-0.00007458,
 -0.00020103,-0.00031640,0.00045595,0.00039026,-0.00028886,-0.00036174,
 -0.00017207,-0.00016076,-0.00000289,-0.00016164,0.00032195,0.00014326,
 0.00026554,0.00032464,-0.00014289,0.00026562,-0.45412368,-0.00076506,-
 0.14554386,0.45262110,0.00188863,0.00017062,0.00012862,0.00000298,-0.0
 0131954,0.00000841,0.00030784,-0.00052580,0.00030768,-0.00100922,0.000
 05816,0.00066141,-0.00041123,-0.00000957,-0.00059037,-0.00187587,0.000
 16342,-0.00011795,0.00000323,-0.00034254,-0.00001071,-0.00030773,-0.00
 053042,-0.00031034,0.00040732,-0.00000711,0.00059283,0.00100472,0.0000
 6598,-0.00066152,-0.00000439,0.00079870,-0.00000139,0.00014600,0.00009
 626,-0.00000420,-0.00014504,0.00009452,0.00000616,-0.00077066,-0.00206
 587,-0.00023248,0.00076340,0.00335320,-0.00111330,0.00033047,0.0010303
 6,-0.04432309,-0.00007995,-0.01460251,0.00026929,-0.00005467,-0.000011
 10,0.00132939,0.00104157,-0.00058382,0.00034933,-0.00056211,0.00059538
 ,-0.00111571,-0.00033742,0.00103878,0.00131389,0.00000651,-0.00831531,
 0.00026902,0.00005443,-0.00001184,0.00034624,0.00056550,0.00059809,0.0
 0133781,-0.00103480,-0.00058879,-0.00226867,-0.00000624,-0.00033775,0.
 00027761,-0.00020630,0.00013964,0.00027716,0.00020798,0.00013979,-0.09
 487256,-0.00014883,-0.07982874,0.13792359,0.00022386,0.10073782\\0.000
 01490,0.00005293,-0.00001439,-0.00001907,-0.00000545,0.00011524,-0.000
 00586,-0.00001408,0.00000728,0.00002734,-0.00001378,0.00001052,0.00000
 367,-0.00002421,-0.00001202,0.00000842,-0.00005240,-0.00001203,-0.0000
 2936,0.00000350,-0.00009905,-0.00000259,0.00001313,0.00000678,0.000006
 04,0.00002381,-0.00000950,0.00003172,0.00001528,0.00000929,-0.00000237
 ,0.00000010,0.00003740,-0.00001891,-0.00000435,0.00002070,-0.00001886,
 0.00000420,0.00002378,-0.00001268,0.00000645,-0.00007907,0.00001762,-0
 .00000513,-0.00000492\\\@


 CHRISTMAS IS ON TOP OF A STEEP HILL.
 THE CLOSER YOU GET, THE STEEPER THE HILL IS.
          -- LINUS, OF PEANUTS
 Job cpu time:       0 days  0 hours 13 minutes 56.0 seconds.
 Elapsed time:       0 days  0 hours  0 minutes 26.2 seconds.
 File lengths (MBytes):  RWF=     26 Int=      0 D2E=      0 Chk=      2 Scr=      1
 Normal termination of Gaussian 16 at Fri Sep 15 07:30:29 2023.
