 Entering Gaussian System, Link 0=/home/ubuntu/g16/g16
 Input=/home/ubuntu/Downloads/MOLECULE_9-vol.gjf
 Output=/home/ubuntu/Downloads/MOLECULE_9-vol.log
 Initial command:
 /home/ubuntu/g16/l1.exe "/home/ubuntu/Scratch/Gau-17465.inp" -scrdir="/home/ubuntu/Scratch/"
 Entering Link 1 = /home/ubuntu/g16/l1.exe PID=     17467.
  
 Copyright (c) 1988-2017, Gaussian, Inc.  All Rights Reserved.
  
 This is part of the Gaussian(R) 16 program.  It is based on
 the Gaussian(R) 09 system (copyright 2009, Gaussian, Inc.),
 the Gaussian(R) 03 system (copyright 2003, Gaussian, Inc.),
 the Gaussian(R) 98 system (copyright 1998, Gaussian, Inc.),
 the Gaussian(R) 94 system (copyright 1995, Gaussian, Inc.),
 the Gaussian 92(TM) system (copyright 1992, Gaussian, Inc.),
 the Gaussian 90(TM) system (copyright 1990, Gaussian, Inc.),
 the Gaussian 88(TM) system (copyright 1988, Gaussian, Inc.),
 the Gaussian 86(TM) system (copyright 1986, Carnegie Mellon
 University), and the Gaussian 82(TM) system (copyright 1983,
 Carnegie Mellon University). Gaussian is a federally registered
 trademark of Gaussian, Inc.
  
 This software contains proprietary and confidential information,
 including trade secrets, belonging to Gaussian, Inc.
  
 This software is provided under written license and may be
 used, copied, transmitted, or stored only in accord with that
 written license.
  
 The following legend is applicable only to US Government
 contracts under FAR:
  
                    RESTRICTED RIGHTS LEGEND
  
 Use, reproduction and disclosure by the US Government is
 subject to restrictions as set forth in subparagraphs (a)
 and (c) of the Commercial Computer Software - Restricted
 Rights clause in FAR 52.227-19.
  
 Gaussian, Inc.
 340 Quinnipiac St., Bldg. 40, Wallingford CT 06492
  
  
 ---------------------------------------------------------------
 Warning -- This program may not be used in any manner that
 competes with the business of Gaussian, Inc. or will provide
 assistance to any competitor of Gaussian, Inc.  The licensee
 of this program is prohibited from giving any competitor of
 Gaussian, Inc. access to this program.  By using this program,
 the user acknowledges that Gaussian, Inc. is engaged in the
 business of creating and licensing software in the field of
 computational chemistry and represents and warrants to the
 licensee that it is not a competitor of Gaussian, Inc. and that
 it will not use this program in any manner prohibited above.
 ---------------------------------------------------------------
  

 Cite this work as:
 Gaussian 16, Revision B.01,
 M. J. Frisch, G. W. Trucks, H. B. Schlegel, G. E. Scuseria, 
 M. A. Robb, J. R. Cheeseman, G. Scalmani, V. Barone, 
 G. A. Petersson, H. Nakatsuji, X. Li, M. Caricato, A. V. Marenich, 
 J. Bloino, B. G. Janesko, R. Gomperts, B. Mennucci, H. P. Hratchian, 
 J. V. Ortiz, A. F. Izmaylov, J. L. Sonnenberg, D. Williams-Young, 
 F. Ding, F. Lipparini, F. Egidi, J. Goings, B. Peng, A. Petrone, 
 T. Henderson, D. Ranasinghe, V. G. Zakrzewski, J. Gao, N. Rega, 
 G. Zheng, W. Liang, M. Hada, M. Ehara, K. Toyota, R. Fukuda, 
 J. Hasegawa, M. Ishida, T. Nakajima, Y. Honda, O. Kitao, H. Nakai, 
 T. Vreven, K. Throssell, J. A. Montgomery, Jr., J. E. Peralta, 
 F. Ogliaro, M. J. Bearpark, J. J. Heyd, E. N. Brothers, K. N. Kudin, 
 V. N. Staroverov, T. A. Keith, R. Kobayashi, J. Normand, 
 K. Raghavachari, A. P. Rendell, J. C. Burant, S. S. Iyengar, 
 J. Tomasi, M. Cossi, J. M. Millam, M. Klene, C. Adamo, R. Cammi, 
 J. W. Ochterski, R. L. Martin, K. Morokuma, O. Farkas, 
 J. B. Foresman, and D. J. Fox, Gaussian, Inc., Wallingford CT, 2016.
 
 ******************************************
 Gaussian 16:  EM64L-G16RevB.01 20-Dec-2017
                15-Sep-2023 
 ******************************************
 %nprocshared=32
 Will use up to   32 processors via shared memory.
 %mem=62GB
 %chk=MOLECULE_9-vol.chk
 ----------------------------------------------------------------------
 # opt freq b3lyp/6-31+g(d) empiricaldispersion=gd3 scf=maxcycle=1000 v
 olume
 ----------------------------------------------------------------------
 1/18=20,19=15,26=3,38=1/1,3;
 2/9=110,12=2,17=6,18=5,40=1/2;
 3/5=1,6=6,7=11,11=2,25=1,30=1,71=1,74=-5,124=31/1,2,3;
 4//1;
 5/5=2,7=1000,38=5/2;
 6/7=2,8=2,9=2,10=2,28=1,44=1/1,4;
 7//1,2,3,16;
 1/18=20,19=15,26=3/3(2);
 2/9=110/2;
 99//99;
 2/9=110/2;
 3/5=1,6=6,7=11,11=2,25=1,30=1,71=1,74=-5,124=31/1,2,3;
 4/5=5,16=3,69=1/1;
 5/5=2,7=1000,38=5/2;
 7//1,2,3,16;
 1/18=20,19=15,26=3/3(-5);
 2/9=110/2;
 6/7=2,8=2,9=2,10=2,19=2,28=1,44=1/1,4;
 99/9=1/99;
 -------------------
 Title Card Required
 -------------------
 Symbolic Z-matrix:
 Charge =  0 Multiplicity = 1
 C                    -0.86952  -0.64518   0.00001 
 O                    -1.95999  -0.08834  -0.00001 
 H                    -0.77535  -1.748     0.00011 
 N                     0.34369  -0.02224  -0.00003 
 C                     0.43399   1.43004   0.00001 
 H                     0.97147   1.77875   0.89167 
 H                     0.97165   1.77877  -0.89153 
 H                    -0.57557   1.84372  -0.00006 
 C                     1.59002  -0.76721  0. 
 H                     2.18634  -0.52766   0.8907 
 H                     1.38223  -1.84137  -0.00001 
 H                     2.18636  -0.52766  -0.89068 
 

 GradGradGradGradGradGradGradGradGradGradGradGradGradGradGradGradGradGrad
 Berny optimization.
 Initialization pass.
                           ----------------------------
                           !    Initial Parameters    !
                           ! (Angstroms and Degrees)  !
 --------------------------                            --------------------------
 ! Name  Definition              Value          Derivative Info.                !
 --------------------------------------------------------------------------------
 ! R1    R(1,2)                  1.2244         estimate D2E/DX2                !
 ! R2    R(1,3)                  1.1068         estimate D2E/DX2                !
 ! R3    R(1,4)                  1.3638         estimate D2E/DX2                !
 ! R4    R(4,5)                  1.4551         estimate D2E/DX2                !
 ! R5    R(4,9)                  1.452          estimate D2E/DX2                !
 ! R6    R(5,6)                  1.098          estimate D2E/DX2                !
 ! R7    R(5,7)                  1.098          estimate D2E/DX2                !
 ! R8    R(5,8)                  1.091          estimate D2E/DX2                !
 ! R9    R(9,10)                 1.0983         estimate D2E/DX2                !
 ! R10   R(9,11)                 1.0941         estimate D2E/DX2                !
 ! R11   R(9,12)                 1.0983         estimate D2E/DX2                !
 ! A1    A(2,1,3)              121.9319         estimate D2E/DX2                !
 ! A2    A(2,1,4)              125.7704         estimate D2E/DX2                !
 ! A3    A(3,1,4)              112.2977         estimate D2E/DX2                !
 ! A4    A(1,4,5)              120.7363         estimate D2E/DX2                !
 ! A5    A(1,4,9)              121.9534         estimate D2E/DX2                !
 ! A6    A(5,4,9)              117.3104         estimate D2E/DX2                !
 ! A7    A(4,5,6)              110.3274         estimate D2E/DX2                !
 ! A8    A(4,5,7)              110.3263         estimate D2E/DX2                !
 ! A9    A(4,5,8)              108.7246         estimate D2E/DX2                !
 ! A10   A(6,5,7)              108.5916         estimate D2E/DX2                !
 ! A11   A(6,5,8)              109.4267         estimate D2E/DX2                !
 ! A12   A(7,5,8)              109.4293         estimate D2E/DX2                !
 ! A13   A(4,9,10)             110.7412         estimate D2E/DX2                !
 ! A14   A(4,9,11)             109.9198         estimate D2E/DX2                !
 ! A15   A(4,9,12)             110.74           estimate D2E/DX2                !
 ! A16   A(10,9,11)            108.4968         estimate D2E/DX2                !
 ! A17   A(10,9,12)            108.378          estimate D2E/DX2                !
 ! A18   A(11,9,12)            108.4965         estimate D2E/DX2                !
 ! D1    D(2,1,4,5)              0.0052         estimate D2E/DX2                !
 ! D2    D(2,1,4,9)           -180.0            estimate D2E/DX2                !
 ! D3    D(3,1,4,5)           -179.9925         estimate D2E/DX2                !
 ! D4    D(3,1,4,9)              0.0023         estimate D2E/DX2                !
 ! D5    D(1,4,5,6)            119.9981         estimate D2E/DX2                !
 ! D6    D(1,4,5,7)           -120.0151         estimate D2E/DX2                !
 ! D7    D(1,4,5,8)             -0.0072         estimate D2E/DX2                !
 ! D8    D(9,4,5,6)            -59.9969         estimate D2E/DX2                !
 ! D9    D(9,4,5,7)             59.9899         estimate D2E/DX2                !
 ! D10   D(9,4,5,8)            179.9978         estimate D2E/DX2                !
 ! D11   D(1,4,9,10)          -119.8682         estimate D2E/DX2                !
 ! D12   D(1,4,9,11)             0.0035         estimate D2E/DX2                !
 ! D13   D(1,4,9,12)           119.8739         estimate D2E/DX2                !
 ! D14   D(5,4,9,10)            60.1268         estimate D2E/DX2                !
 ! D15   D(5,4,9,11)           179.9985         estimate D2E/DX2                !
 ! D16   D(5,4,9,12)           -60.1311         estimate D2E/DX2                !
 --------------------------------------------------------------------------------
 Trust Radius=3.00D-01 FncErr=1.00D-07 GrdErr=1.00D-06 EigMax=2.50D+02 EigMin=1.00D-04
 Number of steps in this run=     55 maximum allowed number of steps=    100.
 GradGradGradGradGradGradGradGradGradGradGradGradGradGradGradGradGradGrad

                          Input orientation:                          
 ---------------------------------------------------------------------
 Center     Atomic      Atomic             Coordinates (Angstroms)
 Number     Number       Type             X           Y           Z
 ---------------------------------------------------------------------
      1          6           0       -0.869521   -0.645181    0.000010
      2          8           0       -1.959987   -0.088340   -0.000011
      3          1           0       -0.775345   -1.747999    0.000106
      4          7           0        0.343694   -0.022244   -0.000030
      5          6           0        0.433985    1.430038    0.000009
      6          1           0        0.971472    1.778752    0.891665
      7          1           0        0.971647    1.778767   -0.891525
      8          1           0       -0.575572    1.843721   -0.000059
      9          6           0        1.590020   -0.767209   -0.000001
     10          1           0        2.186342   -0.527662    0.890695
     11          1           0        1.382232   -1.841374   -0.000008
     12          1           0        2.186357   -0.527661   -0.890682
 ---------------------------------------------------------------------
                    Distance matrix (angstroms):
                    1          2          3          4          5
     1  C    0.000000
     2  O    1.224413   0.000000
     3  H    1.106832   2.039079   0.000000
     4  N    1.363797   2.304629   2.056813   0.000000
     5  C    2.450645   2.834885   3.400353   1.455086   0.000000
     6  H    3.171712   3.588115   4.035371   2.105424   1.097973
     7  H    3.171791   3.588226   4.035476   2.105405   1.097964
     8  H    2.506200   2.376860   3.597271   2.080114   1.091027
     9  C    2.462566   3.614334   2.560645   1.451999   2.482803
    10  H    3.185189   4.263614   3.324750   2.108125   2.774287
    11  H    2.549759   3.774064   2.159597   2.094706   3.406069
    12  H    3.185205   4.263621   3.324817   2.108107   2.774297
                    6          7          8          9         10
     6  H    0.000000
     7  H    1.783190   0.000000
     8  H    1.786823   1.786846   0.000000
     9  C    2.767596   2.767525   3.392159   0.000000
    10  H    2.606809   3.157753   3.747675   1.098327   0.000000
    11  H    3.750882   3.750840   4.172879   1.094078   1.779265
    12  H    3.157887   2.606747   3.747654   1.098323   1.781377
                   11         12
    11  H    0.000000
    12  H    1.779258   0.000000
 Stoichiometry    C3H7NO
 Framework group  C1[X(C3H7NO)]
 Deg. of freedom    30
 Full point group                 C1      NOp   1
 Largest Abelian subgroup         C1      NOp   1
 Largest concise Abelian subgroup C1      NOp   1
                         Standard orientation:                         
 ---------------------------------------------------------------------
 Center     Atomic      Atomic             Coordinates (Angstroms)
 Number     Number       Type             X           Y           Z
 ---------------------------------------------------------------------
      1          6           0       -0.869521   -0.645181    0.000010
      2          8           0       -1.959987   -0.088340   -0.000011
      3          1           0       -0.775345   -1.747999    0.000106
      4          7           0        0.343694   -0.022244   -0.000030
      5          6           0        0.433985    1.430038    0.000009
      6          1           0        0.971472    1.778752    0.891665
      7          1           0        0.971647    1.778767   -0.891525
      8          1           0       -0.575572    1.843721   -0.000059
      9          6           0        1.590020   -0.767209   -0.000001
     10          1           0        2.186342   -0.527662    0.890695
     11          1           0        1.382232   -1.841374   -0.000008
     12          1           0        2.186357   -0.527661   -0.890682
 ---------------------------------------------------------------------
 Rotational constants (GHZ):           8.9023882           4.1475553           2.9345649
 Standard basis: 6-31+G(d) (6D, 7F)
 There are   109 symmetry adapted cartesian basis functions of A   symmetry.
 There are   109 symmetry adapted basis functions of A   symmetry.
   109 basis functions,   188 primitive gaussians,   109 cartesian basis functions
    20 alpha electrons       20 beta electrons
       nuclear repulsion energy       180.9244845850 Hartrees.
 NAtoms=   12 NActive=   12 NUniq=   12 SFac= 1.00D+00 NAtFMM=   60 NAOKFM=F Big=F
 Integral buffers will be    131072 words long.
 Raffenetti 2 integral format.
 Two-electron integral symmetry is turned on.
 Nuclear repulsion after empirical dispersion term =      180.9182324652 Hartrees.
 One-electron integrals computed using PRISM.
 NBasis=   109 RedAO= T EigKep=  5.99D-04  NBF=   109
 NBsUse=   109 1.00D-06 EigRej= -1.00D+00 NBFU=   109
 ExpMin= 4.38D-02 ExpMax= 5.48D+03 ExpMxC= 8.25D+02 IAcc=3 IRadAn=         5 AccDes= 0.00D+00
 Harris functional with IExCor=  402 and IRadAn=       5 diagonalized for initial guess.
 HarFok:  IExCor=  402 AccDes= 0.00D+00 IRadAn=         5 IDoV= 1 UseB2=F ITyADJ=14
 ICtDFT=  3500011 ScaDFX=  1.000000  1.000000  1.000000  1.000000
 FoFCou: FMM=F IPFlag=           0 FMFlag=      100000 FMFlg1=           0
         NFxFlg=           0 DoJE=T BraDBF=F KetDBF=T FulRan=T
         wScrn=  0.000000 ICntrl=       500 IOpCl=  0 I1Cent=   200000004 NGrid=           0
         NMat0=    1 NMatS0=      1 NMatT0=    0 NMatD0=    1 NMtDS0=    0 NMtDT0=    0
 Petite list used in FoFCou.
 Keep R1 ints in memory in canonical form, NReq=47890854.
 Requested convergence on RMS density matrix=1.00D-08 within1000 cycles.
 Requested convergence on MAX density matrix=1.00D-06.
 Requested convergence on             energy=1.00D-06.
 No special actions if energy rises.
 SCF Done:  E(RB3LYP) =  -248.530464720     A.U. after   12 cycles
            NFock= 12  Conv=0.63D-08     -V/T= 2.0098

 **********************************************************************

            Population analysis using the SCF Density.

 **********************************************************************

 Orbital symmetries:
       Occupied  (A) (A) (A) (A) (A) (A) (A) (A) (A) (A) (A) (A)
                 (A) (A) (A) (A) (A) (A) (A) (A)
       Virtual   (A) (A) (A) (A) (A) (A) (A) (A) (A) (A) (A) (A)
                 (A) (A) (A) (A) (A) (A) (A) (A) (A) (A) (A) (A)
                 (A) (A) (A) (A) (A) (A) (A) (A) (A) (A) (A) (A)
                 (A) (A) (A) (A) (A) (A) (A) (A) (A) (A) (A) (A)
                 (A) (A) (A) (A) (A) (A) (A) (A) (A) (A) (A) (A)
                 (A) (A) (A) (A) (A) (A) (A) (A) (A) (A) (A) (A)
                 (A) (A) (A) (A) (A) (A) (A) (A) (A) (A) (A) (A)
                 (A) (A) (A) (A) (A)
 The electronic state is 1-A.
 Alpha  occ. eigenvalues --  -19.12686 -14.38329 -10.29023 -10.24002 -10.22610
 Alpha  occ. eigenvalues --   -1.03955  -0.94965  -0.74257  -0.71328  -0.57944
 Alpha  occ. eigenvalues --   -0.52490  -0.48853  -0.47575  -0.42232  -0.41998
 Alpha  occ. eigenvalues --   -0.41206  -0.39688  -0.38348  -0.26402  -0.25448
 Alpha virt. eigenvalues --   -0.00315   0.00428   0.02067   0.02925   0.04386
 Alpha virt. eigenvalues --    0.04681   0.05799   0.07150   0.07620   0.08337
 Alpha virt. eigenvalues --    0.10419   0.11844   0.12807   0.14046   0.16921
 Alpha virt. eigenvalues --    0.18942   0.19333   0.20669   0.21063   0.22517
 Alpha virt. eigenvalues --    0.24045   0.24391   0.26163   0.26824   0.28054
 Alpha virt. eigenvalues --    0.28096   0.31798   0.32882   0.34673   0.38564
 Alpha virt. eigenvalues --    0.40548   0.46347   0.64082   0.65205   0.65435
 Alpha virt. eigenvalues --    0.68855   0.70392   0.70568   0.76085   0.82025
 Alpha virt. eigenvalues --    0.84467   0.86206   0.89895   0.92147   0.92355
 Alpha virt. eigenvalues --    0.98035   0.99226   1.05690   1.08653   1.11543
 Alpha virt. eigenvalues --    1.14931   1.17893   1.23445   1.28598   1.32719
 Alpha virt. eigenvalues --    1.33357   1.34401   1.40701   1.41617   1.54437
 Alpha virt. eigenvalues --    1.54995   1.68603   1.78077   1.78911   1.88983
 Alpha virt. eigenvalues --    1.90818   1.96134   1.97840   1.98516   2.05598
 Alpha virt. eigenvalues --    2.10616   2.17032   2.20610   2.27239   2.31799
 Alpha virt. eigenvalues --    2.36254   2.41753   2.44618   2.56326   2.64846
 Alpha virt. eigenvalues --    2.66569   2.86687   3.04951   3.16322   4.09415
 Alpha virt. eigenvalues --    4.17852   4.32625   4.36178   4.42055
          Condensed to atoms (all electrons):
               1          2          3          4          5          6
     1  C    4.879589   0.425215   0.446658   0.139950  -0.047261  -0.000546
     2  O    0.425215   8.248906  -0.043573  -0.151025  -0.020314   0.001490
     3  H    0.446658  -0.043573   0.632664  -0.186580   0.008027  -0.000140
     4  N    0.139950  -0.151025  -0.186580   7.274444   0.168997  -0.051807
     5  C   -0.047261  -0.020314   0.008027   0.168997   5.359910   0.391382
     6  H   -0.000546   0.001490  -0.000140  -0.051807   0.391382   0.524185
     7  H   -0.000538   0.001490  -0.000140  -0.051798   0.391364  -0.042480
     8  H   -0.007664   0.009498   0.000402  -0.048273   0.399561  -0.022402
     9  C   -0.052326   0.029294  -0.006437   0.182843  -0.127862  -0.004792
    10  H   -0.002390  -0.000117  -0.000131  -0.051920  -0.003417   0.005535
    11  H   -0.000503   0.001790   0.008747  -0.060384   0.004861   0.000013
    12  H   -0.002386  -0.000117  -0.000131  -0.051917  -0.003431  -0.001665
               7          8          9         10         11         12
     1  C   -0.000538  -0.007664  -0.052326  -0.002390  -0.000503  -0.002386
     2  O    0.001490   0.009498   0.029294  -0.000117   0.001790  -0.000117
     3  H   -0.000140   0.000402  -0.006437  -0.000131   0.008747  -0.000131
     4  N   -0.051798  -0.048273   0.182843  -0.051920  -0.060384  -0.051917
     5  C    0.391364   0.399561  -0.127862  -0.003417   0.004861  -0.003431
     6  H   -0.042480  -0.022402  -0.004792   0.005535   0.000013  -0.001665
     7  H    0.524183  -0.022398  -0.004789  -0.001665   0.000013   0.005535
     8  H   -0.022398   0.436241   0.003248  -0.000004  -0.000162  -0.000004
     9  C   -0.004789   0.003248   5.305184   0.389112   0.397855   0.389122
    10  H   -0.001665  -0.000004   0.389112   0.526769  -0.025113  -0.046055
    11  H    0.000013  -0.000162   0.397855  -0.025113   0.496707  -0.025113
    12  H    0.005535  -0.000004   0.389122  -0.046055  -0.025113   0.526764
 Mulliken charges:
               1
     1  C    0.222202
     2  O   -0.502536
     3  H    0.140635
     4  N   -0.112531
     5  C   -0.521817
     6  H    0.201228
     7  H    0.201225
     8  H    0.251958
     9  C   -0.500450
    10  H    0.209397
    11  H    0.201289
    12  H    0.209400
 Sum of Mulliken charges =   0.00000
 Mulliken charges with hydrogens summed into heavy atoms:
               1
     1  C    0.362837
     2  O   -0.502536
     4  N   -0.112531
     5  C    0.132594
     9  C    0.119637
 Electronic spatial extent (au):  <R**2>=            447.3890
 Charge=              0.0000 electrons
 Dipole moment (field-independent basis, Debye):
    X=              4.2792    Y=             -0.4421    Z=              0.0001  Tot=              4.3019
 Quadrupole moment (field-independent basis, Debye-Ang):
   XX=            -38.1313   YY=            -27.9062   ZZ=            -31.5823
   XY=              0.0215   XZ=             -0.0001   YZ=             -0.0001
 Traceless Quadrupole moment (field-independent basis, Debye-Ang):
   XX=             -5.5914   YY=              4.6337   ZZ=              0.9576
   XY=              0.0215   XZ=             -0.0001   YZ=             -0.0001
 Octapole moment (field-independent basis, Debye-Ang**2):
  XXX=             18.0727  YYY=             -1.5396  ZZZ=              0.0001  XYY=             -1.5708
  XXY=             -0.4475  XXZ=             -0.0002  XZZ=             -0.0690  YZZ=              0.5847
  YYZ=              0.0001  XYZ=              0.0000
 Hexadecapole moment (field-independent basis, Debye-Ang**3):
 XXXX=           -383.4748 YYYY=           -193.8639 ZZZZ=            -46.6272 XXXY=             -4.3517
 XXXZ=             -0.0006 YYYX=             -0.3427 YYYZ=             -0.0003 ZZZX=              0.0000
 ZZZY=              0.0002 XXYY=            -89.1894 XXZZ=            -63.0378 YYZZ=            -41.8869
 XXYZ=             -0.0004 YYXZ=             -0.0003 ZZXY=              1.4431
 N-N= 1.809182324652D+02 E-N=-9.403844946376D+02  KE= 2.461267359735D+02
 Evaluate density.
 Using the total density.
 Monte-Carlo method of calculating molar volume:
 based on  0.001 e/bohr**3 density envelope.
 Number of points per bohr**3 =   20 CutOff= 1.00D-04
 Using the SCF density.
 There are       319 points.  Will hold       319 in memory.
 LenV=  8321451099 MDV=  8321499136.
 Box volume = 4070.440 fraction occupied=0.147
 Integrated density= 1.5860165326747619D+01 error=-2.4139834673252381D+01
 Molar volume =  599.720 bohr**3/mol ( 53.518 cm**3/mol)
 Recommended a0 for SCRF calculation =  3.55 angstrom (  6.70 bohr)
 Calling FoFJK, ICntrl=      2127 FMM=F ISym2X=0 I1Cent= 0 IOpClX= 0 NMat=1 NMatS=1 NMatT=0.
 ***** Axes restored to original set *****
 -------------------------------------------------------------------
 Center     Atomic                   Forces (Hartrees/Bohr)
 Number     Number              X              Y              Z
 -------------------------------------------------------------------
      1        6           0.000022019   -0.000010719    0.000004125
      2        8           0.000005496    0.000013294   -0.000000429
      3        1          -0.000014746   -0.000000501   -0.000003122
      4        7          -0.000038026   -0.000018978    0.000002589
      5        6           0.000004377   -0.000004342    0.000003129
      6        1          -0.000004725    0.000000399   -0.000007412
      7        1          -0.000005350    0.000004599    0.000003894
      8        1           0.000006367    0.000002470   -0.000002382
      9        6           0.000018180    0.000013335    0.000000419
     10        1           0.000000691   -0.000003067   -0.000007167
     11        1           0.000002750    0.000006671    0.000000276
     12        1           0.000002966   -0.000003159    0.000006080
 -------------------------------------------------------------------
 Cartesian Forces:  Max     0.000038026 RMS     0.000010253

 GradGradGradGradGradGradGradGradGradGradGradGradGradGradGradGradGradGrad
 Berny optimization.
 FormGI is forming the generalized inverse of G from B-inverse, IUseBI=4.
 Internal  Forces:  Max     0.000038293 RMS     0.000010758
 Search for a local minimum.
 Step number   1 out of a maximum of   55
 All quantities printed in internal units (Hartrees-Bohrs-Radians)
 Mixed Optimization -- En-DIIS/RFO-DIIS
 Second derivative matrix not updated -- first step.
 ITU=  0
     Eigenvalues ---    0.00963   0.01004   0.01298   0.02171   0.02171
     Eigenvalues ---    0.07431   0.07510   0.07522   0.07656   0.16000
     Eigenvalues ---    0.16000   0.16000   0.16000   0.16000   0.16000
     Eigenvalues ---    0.16000   0.22000   0.25000   0.25000   0.32938
     Eigenvalues ---    0.33868   0.33868   0.33907   0.33908   0.34346
     Eigenvalues ---    0.34694   0.37586   0.37984   0.52187   0.93454
 RFO step:  Lambda=-2.35463454D-08 EMin= 9.63097277D-03
 Linear search not attempted -- first point.
 Iteration  1 RMS(Cart)=  0.00013843 RMS(Int)=  0.00000001
 Iteration  2 RMS(Cart)=  0.00000001 RMS(Int)=  0.00000000
 Variable       Old X    -DE/DX   Delta X   Delta X   Delta X     New X
                                 (Linear)    (Quad)   (Total)
    R1        2.31381   0.00000   0.00000   0.00000   0.00000   2.31381
    R2        2.09161   0.00000   0.00000   0.00000   0.00000   2.09161
    R3        2.57720  -0.00001   0.00000  -0.00002  -0.00002   2.57718
    R4        2.74971   0.00000   0.00000   0.00001   0.00001   2.74972
    R5        2.74388   0.00001   0.00000   0.00004   0.00004   2.74392
    R6        2.07487  -0.00001   0.00000  -0.00002  -0.00002   2.07484
    R7        2.07485   0.00000   0.00000  -0.00001  -0.00001   2.07484
    R8        2.06174  -0.00001   0.00000  -0.00001  -0.00001   2.06173
    R9        2.07554  -0.00001   0.00000  -0.00002  -0.00002   2.07552
   R10        2.06751  -0.00001   0.00000  -0.00002  -0.00002   2.06749
   R11        2.07553   0.00000   0.00000  -0.00001  -0.00001   2.07552
    A1        2.12811   0.00000   0.00000  -0.00002  -0.00002   2.12809
    A2        2.19511  -0.00003   0.00000  -0.00015  -0.00015   2.19496
    A3        1.95996   0.00003   0.00000   0.00017   0.00017   1.96014
    A4        2.10725  -0.00002   0.00000  -0.00007  -0.00007   2.10717
    A5        2.12849   0.00004   0.00000   0.00015   0.00015   2.12864
    A6        2.04745  -0.00002   0.00000  -0.00008  -0.00008   2.04737
    A7        1.92558   0.00000   0.00000   0.00002   0.00002   1.92560
    A8        1.92556   0.00001   0.00000   0.00004   0.00004   1.92560
    A9        1.89760   0.00000   0.00000   0.00003   0.00003   1.89763
   A10        1.89528   0.00000   0.00000  -0.00002  -0.00002   1.89526
   A11        1.90986   0.00000   0.00000  -0.00002  -0.00002   1.90984
   A12        1.90990  -0.00001   0.00000  -0.00005  -0.00005   1.90985
   A13        1.93280   0.00000   0.00000   0.00003   0.00003   1.93283
   A14        1.91846   0.00000   0.00000   0.00000   0.00000   1.91846
   A15        1.93278   0.00001   0.00000   0.00005   0.00005   1.93283
   A16        1.89363   0.00000   0.00000  -0.00002  -0.00002   1.89361
   A17        1.89155  -0.00001   0.00000  -0.00004  -0.00004   1.89151
   A18        1.89362   0.00000   0.00000  -0.00002  -0.00002   1.89361
    D1        0.00009   0.00000   0.00000   0.00000   0.00000   0.00010
    D2       -3.14159   0.00000   0.00000   0.00003   0.00003  -3.14156
    D3       -3.14146   0.00000   0.00000  -0.00015  -0.00015   3.14157
    D4        0.00004   0.00000   0.00000  -0.00013  -0.00013  -0.00009
    D5        2.09436   0.00000   0.00000   0.00001   0.00001   2.09437
    D6       -2.09466   0.00000   0.00000   0.00003   0.00003  -2.09463
    D7       -0.00012   0.00000   0.00000   0.00001   0.00001  -0.00012
    D8       -1.04714   0.00000   0.00000  -0.00001  -0.00001  -1.04716
    D9        1.04702   0.00000   0.00000   0.00001   0.00001   1.04703
   D10        3.14155   0.00000   0.00000  -0.00002  -0.00002   3.14154
   D11       -2.09209   0.00000   0.00000  -0.00001  -0.00001  -2.09210
   D12        0.00006   0.00000   0.00000  -0.00001  -0.00001   0.00005
   D13        2.09219   0.00000   0.00000  -0.00001  -0.00001   2.09219
   D14        1.04941   0.00000   0.00000   0.00002   0.00002   1.04943
   D15        3.14157   0.00000   0.00000   0.00001   0.00001   3.14158
   D16       -1.04949   0.00000   0.00000   0.00002   0.00002  -1.04946
         Item               Value     Threshold  Converged?
 Maximum Force            0.000038     0.000450     YES
 RMS     Force            0.000011     0.000300     YES
 Maximum Displacement     0.000549     0.001800     YES
 RMS     Displacement     0.000138     0.001200     YES
 Predicted change in Energy=-1.177312D-08
 Optimization completed.
    -- Stationary point found.
                           ----------------------------
                           !   Optimized Parameters   !
                           ! (Angstroms and Degrees)  !
 --------------------------                            --------------------------
 ! Name  Definition              Value          Derivative Info.                !
 --------------------------------------------------------------------------------
 ! R1    R(1,2)                  1.2244         -DE/DX =    0.0                 !
 ! R2    R(1,3)                  1.1068         -DE/DX =    0.0                 !
 ! R3    R(1,4)                  1.3638         -DE/DX =    0.0                 !
 ! R4    R(4,5)                  1.4551         -DE/DX =    0.0                 !
 ! R5    R(4,9)                  1.452          -DE/DX =    0.0                 !
 ! R6    R(5,6)                  1.098          -DE/DX =    0.0                 !
 ! R7    R(5,7)                  1.098          -DE/DX =    0.0                 !
 ! R8    R(5,8)                  1.091          -DE/DX =    0.0                 !
 ! R9    R(9,10)                 1.0983         -DE/DX =    0.0                 !
 ! R10   R(9,11)                 1.0941         -DE/DX =    0.0                 !
 ! R11   R(9,12)                 1.0983         -DE/DX =    0.0                 !
 ! A1    A(2,1,3)              121.9319         -DE/DX =    0.0                 !
 ! A2    A(2,1,4)              125.7704         -DE/DX =    0.0                 !
 ! A3    A(3,1,4)              112.2977         -DE/DX =    0.0                 !
 ! A4    A(1,4,5)              120.7363         -DE/DX =    0.0                 !
 ! A5    A(1,4,9)              121.9534         -DE/DX =    0.0                 !
 ! A6    A(5,4,9)              117.3104         -DE/DX =    0.0                 !
 ! A7    A(4,5,6)              110.3274         -DE/DX =    0.0                 !
 ! A8    A(4,5,7)              110.3263         -DE/DX =    0.0                 !
 ! A9    A(4,5,8)              108.7246         -DE/DX =    0.0                 !
 ! A10   A(6,5,7)              108.5916         -DE/DX =    0.0                 !
 ! A11   A(6,5,8)              109.4267         -DE/DX =    0.0                 !
 ! A12   A(7,5,8)              109.4293         -DE/DX =    0.0                 !
 ! A13   A(4,9,10)             110.7412         -DE/DX =    0.0                 !
 ! A14   A(4,9,11)             109.9198         -DE/DX =    0.0                 !
 ! A15   A(4,9,12)             110.74           -DE/DX =    0.0                 !
 ! A16   A(10,9,11)            108.4968         -DE/DX =    0.0                 !
 ! A17   A(10,9,12)            108.378          -DE/DX =    0.0                 !
 ! A18   A(11,9,12)            108.4965         -DE/DX =    0.0                 !
 ! D1    D(2,1,4,5)              0.0052         -DE/DX =    0.0                 !
 ! D2    D(2,1,4,9)           -180.0            -DE/DX =    0.0                 !
 ! D3    D(3,1,4,5)            180.0075         -DE/DX =    0.0                 !
 ! D4    D(3,1,4,9)              0.0023         -DE/DX =    0.0                 !
 ! D5    D(1,4,5,6)            119.9981         -DE/DX =    0.0                 !
 ! D6    D(1,4,5,7)           -120.0151         -DE/DX =    0.0                 !
 ! D7    D(1,4,5,8)             -0.0072         -DE/DX =    0.0                 !
 ! D8    D(9,4,5,6)            -59.9969         -DE/DX =    0.0                 !
 ! D9    D(9,4,5,7)             59.9899         -DE/DX =    0.0                 !
 ! D10   D(9,4,5,8)            179.9978         -DE/DX =    0.0                 !
 ! D11   D(1,4,9,10)          -119.8682         -DE/DX =    0.0                 !
 ! D12   D(1,4,9,11)             0.0035         -DE/DX =    0.0                 !
 ! D13   D(1,4,9,12)           119.8739         -DE/DX =    0.0                 !
 ! D14   D(5,4,9,10)            60.1268         -DE/DX =    0.0                 !
 ! D15   D(5,4,9,11)           179.9985         -DE/DX =    0.0                 !
 ! D16   D(5,4,9,12)           -60.1311         -DE/DX =    0.0                 !
 --------------------------------------------------------------------------------
 GradGradGradGradGradGradGradGradGradGradGradGradGradGradGradGradGradGrad

                          Input orientation:                          
 ---------------------------------------------------------------------
 Center     Atomic      Atomic             Coordinates (Angstroms)
 Number     Number       Type             X           Y           Z
 ---------------------------------------------------------------------
      1          6           0       -0.869521   -0.645181    0.000010
      2          8           0       -1.959987   -0.088340   -0.000011
      3          1           0       -0.775345   -1.747999    0.000106
      4          7           0        0.343694   -0.022244   -0.000030
      5          6           0        0.433985    1.430038    0.000009
      6          1           0        0.971472    1.778752    0.891665
      7          1           0        0.971647    1.778767   -0.891525
      8          1           0       -0.575572    1.843721   -0.000059
      9          6           0        1.590020   -0.767209   -0.000001
     10          1           0        2.186342   -0.527662    0.890695
     11          1           0        1.382232   -1.841374   -0.000008
     12          1           0        2.186357   -0.527661   -0.890682
 ---------------------------------------------------------------------
                    Distance matrix (angstroms):
                    1          2          3          4          5
     1  C    0.000000
     2  O    1.224413   0.000000
     3  H    1.106832   2.039079   0.000000
     4  N    1.363797   2.304629   2.056813   0.000000
     5  C    2.450645   2.834885   3.400353   1.455086   0.000000
     6  H    3.171712   3.588115   4.035371   2.105424   1.097973
     7  H    3.171791   3.588226   4.035476   2.105405   1.097964
     8  H    2.506200   2.376860   3.597271   2.080114   1.091027
     9  C    2.462566   3.614334   2.560645   1.451999   2.482803
    10  H    3.185189   4.263614   3.324750   2.108125   2.774287
    11  H    2.549759   3.774064   2.159597   2.094706   3.406069
    12  H    3.185205   4.263621   3.324817   2.108107   2.774297
                    6          7          8          9         10
     6  H    0.000000
     7  H    1.783190   0.000000
     8  H    1.786823   1.786846   0.000000
     9  C    2.767596   2.767525   3.392159   0.000000
    10  H    2.606809   3.157753   3.747675   1.098327   0.000000
    11  H    3.750882   3.750840   4.172879   1.094078   1.779265
    12  H    3.157887   2.606747   3.747654   1.098323   1.781377
                   11         12
    11  H    0.000000
    12  H    1.779258   0.000000
 Stoichiometry    C3H7NO
 Framework group  C1[X(C3H7NO)]
 Deg. of freedom    30
 Full point group                 C1      NOp   1
 Largest Abelian subgroup         C1      NOp   1
 Largest concise Abelian subgroup C1      NOp   1
                         Standard orientation:                         
 ---------------------------------------------------------------------
 Center     Atomic      Atomic             Coordinates (Angstroms)
 Number     Number       Type             X           Y           Z
 ---------------------------------------------------------------------
      1          6           0       -0.869521   -0.645181    0.000010
      2          8           0       -1.959987   -0.088340   -0.000011
      3          1           0       -0.775345   -1.747999    0.000106
      4          7           0        0.343694   -0.022244   -0.000030
      5          6           0        0.433985    1.430038    0.000009
      6          1           0        0.971472    1.778752    0.891665
      7          1           0        0.971647    1.778767   -0.891525
      8          1           0       -0.575572    1.843721   -0.000059
      9          6           0        1.590020   -0.767209   -0.000001
     10          1           0        2.186342   -0.527662    0.890695
     11          1           0        1.382232   -1.841374   -0.000008
     12          1           0        2.186357   -0.527661   -0.890682
 ---------------------------------------------------------------------
 Rotational constants (GHZ):           8.9023882           4.1475553           2.9345649
 1\1\GINC-IP-172-31-1-231\FOpt\RB3LYP\6-31+G(d)\C3H7N1O1\UBUNTU\15-Sep-
 2023\0\\# opt freq b3lyp/6-31+g(d) empiricaldispersion=gd3 scf=maxcycl
 e=1000 volume\\Title Card Required\\0,1\C,-0.869521,-0.645181,0.00001\
 O,-1.959987,-0.08834,-0.000011\H,-0.775345,-1.747999,0.000106\N,0.3436
 94,-0.022244,-0.00003\C,0.433985,1.430038,0.000009\H,0.971472,1.778752
 ,0.891665\H,0.971647,1.778767,-0.891525\H,-0.575572,1.843721,-0.000059
 \C,1.59002,-0.767209,-0.000001\H,2.186342,-0.527662,0.890695\H,1.38223
 2,-1.841374,-0.000008\H,2.186357,-0.527661,-0.890682\\Version=EM64L-G1
 6RevB.01\State=1-A\HF=-248.5304647\RMSD=6.291e-09\RMSF=1.025e-05\Dipol
 e=1.6835542,-0.1739346,0.0000457\Quadrupole=-4.1570646,3.4450771,0.711
 9874,0.0160179,-0.0001033,-0.000041\PG=C01 [X(C3H7N1O1)]\\@


 WE STILL HAVE JUDGEMENT HERE,
 THAT WE TEACH BUT BLOODY INSTRUCTIONS,
 WHICH, BEING TAUGHT,
 RETURN TO PLAGUE THE INVENTOR.
           MACBETH ACT I, SCENE VII
 Job cpu time:       0 days  0 hours  2 minutes 13.4 seconds.
 Elapsed time:       0 days  0 hours  0 minutes  4.2 seconds.
 File lengths (MBytes):  RWF=     10 Int=      0 D2E=      0 Chk=      2 Scr=      1
 Normal termination of Gaussian 16 at Fri Sep 15 07:32:59 2023.
 Link1:  Proceeding to internal job step number  2.
 ---------------------------------------------------------------------
 #N Geom=AllCheck Guess=TCheck SCRF=Check GenChk RB3LYP/6-31+G(d) Freq
 ---------------------------------------------------------------------
 1/10=4,29=7,30=1,38=1,40=1/1,3;
 2/12=2,40=1/2;
 3/5=1,6=6,7=11,11=2,14=-4,25=1,30=1,70=2,71=2,74=-5,116=1,124=31,140=1/1,2,3;
 4/5=101/1;
 5/5=2,7=1000,38=6,98=1/2;
 8/6=4,10=90,11=11/1;
 11/6=1,8=1,9=11,15=111,16=1/1,2,10;
 10/6=1/2;
 6/7=2,8=2,9=2,10=2,28=1/1;
 7/8=1,10=1,25=1/1,2,3,16;
 1/10=4,30=1/3;
 99//99;
 Structure from the checkpoint file:  "MOLECULE_9-vol.chk"
 -------------------
 Title Card Required
 -------------------
 Charge =  0 Multiplicity = 1
 Redundant internal coordinates found in file.  (old form).
 C,0,-0.869521,-0.645181,0.00001
 O,0,-1.959987,-0.08834,-0.000011
 H,0,-0.775345,-1.747999,0.000106
 N,0,0.343694,-0.022244,-0.00003
 C,0,0.433985,1.430038,0.000009
 H,0,0.971472,1.778752,0.891665
 H,0,0.971647,1.778767,-0.891525
 H,0,-0.575572,1.843721,-0.000059
 C,0,1.59002,-0.767209,-0.000001
 H,0,2.186342,-0.527662,0.890695
 H,0,1.382232,-1.841374,-0.000008
 H,0,2.186357,-0.527661,-0.890682
 Recover connectivity data from disk.

 GradGradGradGradGradGradGradGradGradGradGradGradGradGradGradGradGradGrad
 Berny optimization.
 Initialization pass.
                           ----------------------------
                           !    Initial Parameters    !
                           ! (Angstroms and Degrees)  !
 --------------------------                            --------------------------
 ! Name  Definition              Value          Derivative Info.                !
 --------------------------------------------------------------------------------
 ! R1    R(1,2)                  1.2244         calculate D2E/DX2 analytically  !
 ! R2    R(1,3)                  1.1068         calculate D2E/DX2 analytically  !
 ! R3    R(1,4)                  1.3638         calculate D2E/DX2 analytically  !
 ! R4    R(4,5)                  1.4551         calculate D2E/DX2 analytically  !
 ! R5    R(4,9)                  1.452          calculate D2E/DX2 analytically  !
 ! R6    R(5,6)                  1.098          calculate D2E/DX2 analytically  !
 ! R7    R(5,7)                  1.098          calculate D2E/DX2 analytically  !
 ! R8    R(5,8)                  1.091          calculate D2E/DX2 analytically  !
 ! R9    R(9,10)                 1.0983         calculate D2E/DX2 analytically  !
 ! R10   R(9,11)                 1.0941         calculate D2E/DX2 analytically  !
 ! R11   R(9,12)                 1.0983         calculate D2E/DX2 analytically  !
 ! A1    A(2,1,3)              121.9319         calculate D2E/DX2 analytically  !
 ! A2    A(2,1,4)              125.7704         calculate D2E/DX2 analytically  !
 ! A3    A(3,1,4)              112.2977         calculate D2E/DX2 analytically  !
 ! A4    A(1,4,5)              120.7363         calculate D2E/DX2 analytically  !
 ! A5    A(1,4,9)              121.9534         calculate D2E/DX2 analytically  !
 ! A6    A(5,4,9)              117.3104         calculate D2E/DX2 analytically  !
 ! A7    A(4,5,6)              110.3274         calculate D2E/DX2 analytically  !
 ! A8    A(4,5,7)              110.3263         calculate D2E/DX2 analytically  !
 ! A9    A(4,5,8)              108.7246         calculate D2E/DX2 analytically  !
 ! A10   A(6,5,7)              108.5916         calculate D2E/DX2 analytically  !
 ! A11   A(6,5,8)              109.4267         calculate D2E/DX2 analytically  !
 ! A12   A(7,5,8)              109.4293         calculate D2E/DX2 analytically  !
 ! A13   A(4,9,10)             110.7412         calculate D2E/DX2 analytically  !
 ! A14   A(4,9,11)             109.9198         calculate D2E/DX2 analytically  !
 ! A15   A(4,9,12)             110.74           calculate D2E/DX2 analytically  !
 ! A16   A(10,9,11)            108.4968         calculate D2E/DX2 analytically  !
 ! A17   A(10,9,12)            108.378          calculate D2E/DX2 analytically  !
 ! A18   A(11,9,12)            108.4965         calculate D2E/DX2 analytically  !
 ! D1    D(2,1,4,5)              0.0052         calculate D2E/DX2 analytically  !
 ! D2    D(2,1,4,9)           -180.0            calculate D2E/DX2 analytically  !
 ! D3    D(3,1,4,5)           -179.9925         calculate D2E/DX2 analytically  !
 ! D4    D(3,1,4,9)              0.0023         calculate D2E/DX2 analytically  !
 ! D5    D(1,4,5,6)            119.9981         calculate D2E/DX2 analytically  !
 ! D6    D(1,4,5,7)           -120.0151         calculate D2E/DX2 analytically  !
 ! D7    D(1,4,5,8)             -0.0072         calculate D2E/DX2 analytically  !
 ! D8    D(9,4,5,6)            -59.9969         calculate D2E/DX2 analytically  !
 ! D9    D(9,4,5,7)             59.9899         calculate D2E/DX2 analytically  !
 ! D10   D(9,4,5,8)            179.9978         calculate D2E/DX2 analytically  !
 ! D11   D(1,4,9,10)          -119.8682         calculate D2E/DX2 analytically  !
 ! D12   D(1,4,9,11)             0.0035         calculate D2E/DX2 analytically  !
 ! D13   D(1,4,9,12)           119.8739         calculate D2E/DX2 analytically  !
 ! D14   D(5,4,9,10)            60.1268         calculate D2E/DX2 analytically  !
 ! D15   D(5,4,9,11)           179.9985         calculate D2E/DX2 analytically  !
 ! D16   D(5,4,9,12)           -60.1311         calculate D2E/DX2 analytically  !
 --------------------------------------------------------------------------------
 Trust Radius=3.00D-01 FncErr=1.00D-07 GrdErr=1.00D-07 EigMax=2.50D+02 EigMin=1.00D-04
 Number of steps in this run=      2 maximum allowed number of steps=      2.
 GradGradGradGradGradGradGradGradGradGradGradGradGradGradGradGradGradGrad

                          Input orientation:                          
 ---------------------------------------------------------------------
 Center     Atomic      Atomic             Coordinates (Angstroms)
 Number     Number       Type             X           Y           Z
 ---------------------------------------------------------------------
      1          6           0       -0.869521   -0.645181    0.000010
      2          8           0       -1.959987   -0.088340   -0.000011
      3          1           0       -0.775345   -1.747999    0.000106
      4          7           0        0.343694   -0.022244   -0.000030
      5          6           0        0.433985    1.430038    0.000009
      6          1           0        0.971472    1.778752    0.891665
      7          1           0        0.971647    1.778767   -0.891525
      8          1           0       -0.575572    1.843721   -0.000059
      9          6           0        1.590020   -0.767209   -0.000001
     10          1           0        2.186342   -0.527662    0.890695
     11          1           0        1.382232   -1.841374   -0.000008
     12          1           0        2.186357   -0.527661   -0.890682
 ---------------------------------------------------------------------
                    Distance matrix (angstroms):
                    1          2          3          4          5
     1  C    0.000000
     2  O    1.224413   0.000000
     3  H    1.106832   2.039079   0.000000
     4  N    1.363797   2.304629   2.056813   0.000000
     5  C    2.450645   2.834885   3.400353   1.455086   0.000000
     6  H    3.171712   3.588115   4.035371   2.105424   1.097973
     7  H    3.171791   3.588226   4.035476   2.105405   1.097964
     8  H    2.506200   2.376860   3.597271   2.080114   1.091027
     9  C    2.462566   3.614334   2.560645   1.451999   2.482803
    10  H    3.185189   4.263614   3.324750   2.108125   2.774287
    11  H    2.549759   3.774064   2.159597   2.094706   3.406069
    12  H    3.185205   4.263621   3.324817   2.108107   2.774297
                    6          7          8          9         10
     6  H    0.000000
     7  H    1.783190   0.000000
     8  H    1.786823   1.786846   0.000000
     9  C    2.767596   2.767525   3.392159   0.000000
    10  H    2.606809   3.157753   3.747675   1.098327   0.000000
    11  H    3.750882   3.750840   4.172879   1.094078   1.779265
    12  H    3.157887   2.606747   3.747654   1.098323   1.781377
                   11         12
    11  H    0.000000
    12  H    1.779258   0.000000
 Stoichiometry    C3H7NO
 Framework group  C1[X(C3H7NO)]
 Deg. of freedom    30
 Full point group                 C1      NOp   1
 Largest Abelian subgroup         C1      NOp   1
 Largest concise Abelian subgroup C1      NOp   1
                         Standard orientation:                         
 ---------------------------------------------------------------------
 Center     Atomic      Atomic             Coordinates (Angstroms)
 Number     Number       Type             X           Y           Z
 ---------------------------------------------------------------------
      1          6           0       -0.869521   -0.645181    0.000010
      2          8           0       -1.959987   -0.088340   -0.000011
      3          1           0       -0.775345   -1.747999    0.000106
      4          7           0        0.343694   -0.022244   -0.000030
      5          6           0        0.433985    1.430038    0.000009
      6          1           0        0.971472    1.778752    0.891665
      7          1           0        0.971647    1.778767   -0.891525
      8          1           0       -0.575572    1.843721   -0.000059
      9          6           0        1.590020   -0.767209   -0.000001
     10          1           0        2.186342   -0.527662    0.890695
     11          1           0        1.382232   -1.841374   -0.000008
     12          1           0        2.186357   -0.527661   -0.890682
 ---------------------------------------------------------------------
 Rotational constants (GHZ):           8.9023882           4.1475553           2.9345649
 Standard basis: 6-31+G(d) (6D, 7F)
 There are   109 symmetry adapted cartesian basis functions of A   symmetry.
 There are   109 symmetry adapted basis functions of A   symmetry.
   109 basis functions,   188 primitive gaussians,   109 cartesian basis functions
    20 alpha electrons       20 beta electrons
       nuclear repulsion energy       180.9244845850 Hartrees.
 NAtoms=   12 NActive=   12 NUniq=   12 SFac= 1.00D+00 NAtFMM=   60 NAOKFM=F Big=F
 Integral buffers will be    131072 words long.
 Raffenetti 2 integral format.
 Two-electron integral symmetry is turned on.
 Nuclear repulsion after empirical dispersion term =      180.9182324652 Hartrees.
 One-electron integrals computed using PRISM.
 NBasis=   109 RedAO= T EigKep=  5.99D-04  NBF=   109
 NBsUse=   109 1.00D-06 EigRej= -1.00D+00 NBFU=   109
 Initial guess from the checkpoint file:  "MOLECULE_9-vol.chk"
 B after Tr=     0.000000    0.000000    0.000000
         Rot=    1.000000    0.000000    0.000000    0.000000 Ang=   0.00 deg.
 Keep R1 ints in memory in canonical form, NReq=47890854.
 Requested convergence on RMS density matrix=1.00D-08 within1000 cycles.
 Requested convergence on MAX density matrix=1.00D-06.
 Requested convergence on             energy=1.00D-06.
 No special actions if energy rises.
 SCF Done:  E(RB3LYP) =  -248.530464720     A.U. after    1 cycles
            NFock=  1  Conv=0.19D-08     -V/T= 2.0098
 DoSCS=F DFT=T ScalE2(SS,OS)=  1.000000  1.000000
 Range of M.O.s used for correlation:     1   109
 NBasis=   109 NAE=    20 NBE=    20 NFC=     0 NFV=     0
 NROrb=    109 NOA=    20 NOB=    20 NVA=    89 NVB=    89

 **** Warning!!: The largest alpha MO coefficient is  0.15661077D+02

 Symmetrizing basis deriv contribution to polar:
 IMax=3 JMax=2 DiffMx= 0.00D+00
 G2DrvN: will do    13 centers at a time, making    1 passes.
 Calling FoFCou, ICntrl=  3107 FMM=F I1Cent=   0 AccDes= 0.00D+00.
 End of G2Drv F.D. properties file   721 does not exist.
 End of G2Drv F.D. properties file   722 does not exist.
 End of G2Drv F.D. properties file   788 does not exist.
          IDoAtm=111111111111
          Differentiating once with respect to electric field.
                with respect to dipole field.
          Differentiating once with respect to nuclear coordinates.
 Keep R1 ints in memory in canonical form, NReq=47790619.
          There are    39 degrees of freedom in the 1st order CPHF.  IDoFFX=6 NUNeed=     3.
     36 vectors produced by pass  0 Test12= 4.56D-15 2.56D-09 XBig12= 5.36D+01 4.89D+00.
 AX will form    36 AO Fock derivatives at one time.
     36 vectors produced by pass  1 Test12= 4.56D-15 2.56D-09 XBig12= 1.80D+01 9.05D-01.
     36 vectors produced by pass  2 Test12= 4.56D-15 2.56D-09 XBig12= 1.50D-01 5.60D-02.
     36 vectors produced by pass  3 Test12= 4.56D-15 2.56D-09 XBig12= 5.24D-04 5.34D-03.
     36 vectors produced by pass  4 Test12= 4.56D-15 2.56D-09 XBig12= 6.36D-07 1.35D-04.
     21 vectors produced by pass  5 Test12= 4.56D-15 2.56D-09 XBig12= 5.28D-10 3.27D-06.
      5 vectors produced by pass  6 Test12= 4.56D-15 2.56D-09 XBig12= 3.86D-13 9.26D-08.
 InvSVY:  IOpt=1 It=  1 EMax= 2.66D-15
 Solved reduced A of dimension   206 with    39 vectors.
 Isotropic polarizability for W=    0.000000       48.24 Bohr**3.
 End of Minotr F.D. properties file   721 does not exist.
 End of Minotr F.D. properties file   722 does not exist.
 End of Minotr F.D. properties file   788 does not exist.

 **********************************************************************

            Population analysis using the SCF Density.

 **********************************************************************

 Orbital symmetries:
       Occupied  (A) (A) (A) (A) (A) (A) (A) (A) (A) (A) (A) (A)
                 (A) (A) (A) (A) (A) (A) (A) (A)
       Virtual   (A) (A) (A) (A) (A) (A) (A) (A) (A) (A) (A) (A)
                 (A) (A) (A) (A) (A) (A) (A) (A) (A) (A) (A) (A)
                 (A) (A) (A) (A) (A) (A) (A) (A) (A) (A) (A) (A)
                 (A) (A) (A) (A) (A) (A) (A) (A) (A) (A) (A) (A)
                 (A) (A) (A) (A) (A) (A) (A) (A) (A) (A) (A) (A)
                 (A) (A) (A) (A) (A) (A) (A) (A) (A) (A) (A) (A)
                 (A) (A) (A) (A) (A) (A) (A) (A) (A) (A) (A) (A)
                 (A) (A) (A) (A) (A)
 The electronic state is 1-A.
 Alpha  occ. eigenvalues --  -19.12686 -14.38329 -10.29023 -10.24002 -10.22610
 Alpha  occ. eigenvalues --   -1.03955  -0.94965  -0.74257  -0.71328  -0.57944
 Alpha  occ. eigenvalues --   -0.52490  -0.48853  -0.47575  -0.42232  -0.41998
 Alpha  occ. eigenvalues --   -0.41206  -0.39688  -0.38348  -0.26402  -0.25448
 Alpha virt. eigenvalues --   -0.00315   0.00428   0.02067   0.02925   0.04386
 Alpha virt. eigenvalues --    0.04681   0.05799   0.07150   0.07620   0.08337
 Alpha virt. eigenvalues --    0.10419   0.11844   0.12807   0.14046   0.16921
 Alpha virt. eigenvalues --    0.18942   0.19333   0.20669   0.21063   0.22517
 Alpha virt. eigenvalues --    0.24045   0.24391   0.26163   0.26824   0.28054
 Alpha virt. eigenvalues --    0.28096   0.31798   0.32882   0.34673   0.38564
 Alpha virt. eigenvalues --    0.40548   0.46347   0.64082   0.65205   0.65435
 Alpha virt. eigenvalues --    0.68855   0.70392   0.70568   0.76085   0.82025
 Alpha virt. eigenvalues --    0.84467   0.86206   0.89895   0.92147   0.92355
 Alpha virt. eigenvalues --    0.98035   0.99226   1.05690   1.08653   1.11543
 Alpha virt. eigenvalues --    1.14931   1.17893   1.23445   1.28598   1.32719
 Alpha virt. eigenvalues --    1.33357   1.34401   1.40701   1.41617   1.54437
 Alpha virt. eigenvalues --    1.54995   1.68603   1.78077   1.78911   1.88983
 Alpha virt. eigenvalues --    1.90818   1.96134   1.97840   1.98516   2.05598
 Alpha virt. eigenvalues --    2.10616   2.17032   2.20610   2.27239   2.31799
 Alpha virt. eigenvalues --    2.36254   2.41753   2.44618   2.56326   2.64846
 Alpha virt. eigenvalues --    2.66569   2.86687   3.04951   3.16322   4.09415
 Alpha virt. eigenvalues --    4.17852   4.32625   4.36178   4.42055
          Condensed to atoms (all electrons):
               1          2          3          4          5          6
     1  C    4.879589   0.425215   0.446658   0.139951  -0.047261  -0.000546
     2  O    0.425215   8.248907  -0.043573  -0.151025  -0.020314   0.001490
     3  H    0.446658  -0.043573   0.632664  -0.186580   0.008027  -0.000140
     4  N    0.139951  -0.151025  -0.186580   7.274444   0.168997  -0.051807
     5  C   -0.047261  -0.020314   0.008027   0.168997   5.359910   0.391382
     6  H   -0.000546   0.001490  -0.000140  -0.051807   0.391382   0.524185
     7  H   -0.000538   0.001490  -0.000140  -0.051798   0.391364  -0.042480
     8  H   -0.007664   0.009498   0.000402  -0.048273   0.399561  -0.022402
     9  C   -0.052326   0.029294  -0.006437   0.182843  -0.127862  -0.004792
    10  H   -0.002390  -0.000117  -0.000131  -0.051920  -0.003417   0.005535
    11  H   -0.000503   0.001790   0.008747  -0.060384   0.004861   0.000013
    12  H   -0.002386  -0.000117  -0.000131  -0.051917  -0.003431  -0.001665
               7          8          9         10         11         12
     1  C   -0.000538  -0.007664  -0.052326  -0.002390  -0.000503  -0.002386
     2  O    0.001490   0.009498   0.029294  -0.000117   0.001790  -0.000117
     3  H   -0.000140   0.000402  -0.006437  -0.000131   0.008747  -0.000131
     4  N   -0.051798  -0.048273   0.182843  -0.051920  -0.060384  -0.051917
     5  C    0.391364   0.399561  -0.127862  -0.003417   0.004861  -0.003431
     6  H   -0.042480  -0.022402  -0.004792   0.005535   0.000013  -0.001665
     7  H    0.524183  -0.022398  -0.004789  -0.001665   0.000013   0.005535
     8  H   -0.022398   0.436241   0.003248  -0.000004  -0.000162  -0.000004
     9  C   -0.004789   0.003248   5.305183   0.389112   0.397855   0.389122
    10  H   -0.001665  -0.000004   0.389112   0.526769  -0.025113  -0.046055
    11  H    0.000013  -0.000162   0.397855  -0.025113   0.496707  -0.025113
    12  H    0.005535  -0.000004   0.389122  -0.046055  -0.025113   0.526764
 Mulliken charges:
               1
     1  C    0.222202
     2  O   -0.502537
     3  H    0.140635
     4  N   -0.112531
     5  C   -0.521817
     6  H    0.201228
     7  H    0.201225
     8  H    0.251958
     9  C   -0.500450
    10  H    0.209397
    11  H    0.201289
    12  H    0.209400
 Sum of Mulliken charges =   0.00000
 Mulliken charges with hydrogens summed into heavy atoms:
               1
     1  C    0.362837
     2  O   -0.502537
     4  N   -0.112531
     5  C    0.132594
     9  C    0.119637
 APT charges:
               1
     1  C    1.061953
     2  O   -0.833440
     3  H   -0.044244
     4  N   -0.753494
     5  C    0.289869
     6  H   -0.034239
     7  H   -0.034227
     8  H    0.057222
     9  C    0.371613
    10  H   -0.044001
    11  H    0.006984
    12  H   -0.043997
 Sum of APT charges =   0.00000
 APT charges with hydrogens summed into heavy atoms:
               1
     1  C    1.017709
     2  O   -0.833440
     4  N   -0.753494
     5  C    0.278626
     9  C    0.290599
 Electronic spatial extent (au):  <R**2>=            447.3890
 Charge=              0.0000 electrons
 Dipole moment (field-independent basis, Debye):
    X=              4.2792    Y=             -0.4421    Z=              0.0001  Tot=              4.3019
 Quadrupole moment (field-independent basis, Debye-Ang):
   XX=            -38.1313   YY=            -27.9062   ZZ=            -31.5823
   XY=              0.0215   XZ=             -0.0001   YZ=             -0.0001
 Traceless Quadrupole moment (field-independent basis, Debye-Ang):
   XX=             -5.5914   YY=              4.6337   ZZ=              0.9576
   XY=              0.0215   XZ=             -0.0001   YZ=             -0.0001
 Octapole moment (field-independent basis, Debye-Ang**2):
  XXX=             18.0727  YYY=             -1.5396  ZZZ=              0.0001  XYY=             -1.5708
  XXY=             -0.4475  XXZ=             -0.0002  XZZ=             -0.0690  YZZ=              0.5847
  YYZ=              0.0001  XYZ=              0.0000
 Hexadecapole moment (field-independent basis, Debye-Ang**3):
 XXXX=           -383.4748 YYYY=           -193.8639 ZZZZ=            -46.6272 XXXY=             -4.3517
 XXXZ=             -0.0006 YYYX=             -0.3427 YYYZ=             -0.0003 ZZZX=              0.0000
 ZZZY=              0.0002 XXYY=            -89.1894 XXZZ=            -63.0378 YYZZ=            -41.8869
 XXYZ=             -0.0004 YYXZ=             -0.0003 ZZXY=              1.4431
 N-N= 1.809182324652D+02 E-N=-9.403844949253D+02  KE= 2.461267362620D+02
  Exact polarizability:  60.535   0.987  48.627   0.000   0.000  35.554
 Approx polarizability:  86.273   0.022  61.610   0.000   0.000  48.355
 Calling FoFJK, ICntrl=    100127 FMM=F ISym2X=0 I1Cent= 0 IOpClX= 0 NMat=1 NMatS=1 NMatT=0.
 Full mass-weighted force constant matrix:
 Low frequencies ---   -4.3327   -0.0004    0.0003    0.0005    4.1108    7.7277
 Low frequencies ---   96.3886  166.4917  243.9088
 Diagonal vibrational polarizability:
        9.5950021       4.4675496       6.0475308
 Harmonic frequencies (cm**-1), IR intensities (KM/Mole), Raman scattering
 activities (A**4/AMU), depolarization ratios for plane and unpolarized
 incident light, reduced masses (AMU), force constants (mDyne/A),
 and normal coordinates:
                      1                      2                      3
                      A                      A                      A
 Frequencies --     96.3871               166.4914               243.9087
 Red. masses --      1.4813                 1.1611                 1.5016
 Frc consts  --      0.0081                 0.0190                 0.0526
 IR Inten    --      0.1153                 0.0764                 1.0325
  Atom  AN      X      Y      Z        X      Y      Z        X      Y      Z
     1   6     0.00   0.00   0.02     0.00   0.00  -0.02     0.00   0.00  -0.07
     2   8     0.00   0.00  -0.10     0.00   0.00   0.03     0.00   0.00   0.06
     3   1     0.00   0.00   0.07     0.00   0.00  -0.03     0.00   0.00  -0.14
     4   7     0.00   0.00   0.15     0.00   0.00  -0.08     0.00   0.00  -0.15
     5   6     0.00   0.00   0.01     0.00   0.00  -0.02     0.00   0.00   0.05
     6   1     0.44   0.04  -0.28     0.33  -0.07  -0.20     0.16  -0.15   0.01
     7   1    -0.44  -0.04  -0.28    -0.33   0.07  -0.20    -0.16   0.15   0.01
     8   1     0.00   0.00   0.47     0.00   0.00   0.37     0.00   0.00   0.30
     9   6     0.00   0.00  -0.05     0.00   0.00   0.07     0.00   0.00   0.07
    10   1     0.19   0.10  -0.20    -0.24  -0.27   0.30     0.05   0.43  -0.07
    11   1     0.00   0.00   0.12     0.00   0.00  -0.32     0.00   0.00   0.61
    12   1    -0.19  -0.10  -0.20     0.24   0.27   0.30    -0.05  -0.43  -0.07
                      4                      5                      6
                      A                      A                      A
 Frequencies --    327.3998               331.0340               404.0758
 Red. masses --      4.0116                 2.3580                 2.4098
 Frc consts  --      0.2534                 0.1522                 0.2318
 IR Inten    --     11.3281                18.8536                 1.6099
  Atom  AN      X      Y      Z        X      Y      Z        X      Y      Z
     1   6     0.00  -0.03   0.00     0.00   0.00   0.24    -0.12  -0.04   0.00
     2   8     0.14   0.27   0.00     0.00   0.00  -0.14    -0.08   0.04   0.00
     3   1    -0.22  -0.05   0.00     0.00   0.00   0.86    -0.17  -0.05   0.00
     4   7     0.04  -0.15   0.00     0.00   0.00  -0.16    -0.07  -0.10   0.00
     5   6    -0.29  -0.14   0.00     0.00   0.00   0.08     0.14  -0.13   0.00
     6   1    -0.38   0.00   0.00     0.00  -0.19   0.16     0.23  -0.25  -0.01
     7   1    -0.38   0.00   0.00     0.00   0.19   0.16     0.23  -0.25   0.01
     8   1    -0.39  -0.40   0.00     0.00   0.00   0.16     0.24   0.10   0.00
     9   6     0.13   0.01   0.00     0.00   0.00  -0.05     0.09   0.19   0.00
    10   1     0.10   0.09   0.00    -0.04   0.02  -0.02     0.02   0.41  -0.01
    11   1     0.27  -0.02   0.00     0.00   0.00  -0.05     0.45   0.13   0.00
    12   1     0.10   0.09   0.00     0.04  -0.02  -0.02     0.02   0.41   0.01
                      7                      8                      9
                      A                      A                      A
 Frequencies --    658.5353               874.3543              1010.8641
 Red. masses --      5.1562                 3.9794                 1.6069
 Frc consts  --      1.3175                 1.7924                 0.9674
 IR Inten    --      7.9001                 1.5031                 0.0467
  Atom  AN      X      Y      Z        X      Y      Z        X      Y      Z
     1   6     0.12  -0.21   0.00    -0.13  -0.28   0.00     0.00   0.00  -0.22
     2   8     0.32   0.06   0.00     0.05   0.06   0.00     0.00   0.00   0.06
     3   1     0.12  -0.21   0.00    -0.29  -0.30   0.00     0.00   0.00   0.96
     4   7    -0.16   0.01   0.00    -0.10  -0.07   0.00     0.00   0.00   0.05
     5   6     0.02  -0.05   0.00     0.00   0.35   0.00     0.00   0.00  -0.01
     6   1     0.16  -0.23  -0.01     0.11   0.19  -0.01    -0.02  -0.08   0.03
     7   1     0.16  -0.23   0.01     0.11   0.19   0.01     0.02   0.08   0.03
     8   1     0.14   0.24   0.00     0.10   0.58   0.00     0.00   0.00   0.03
     9   6    -0.35   0.16   0.00     0.13  -0.10   0.00     0.00   0.00   0.01
    10   1    -0.32   0.14   0.00     0.12  -0.07   0.00     0.02  -0.01   0.00
    11   1    -0.32   0.16   0.00     0.25  -0.13   0.00     0.00   0.00  -0.02
    12   1    -0.32   0.14   0.00     0.12  -0.07   0.00    -0.02   0.01   0.00
                     10                     11                     12
                      A                      A                      A
 Frequencies --   1092.3091              1105.4830              1137.3265
 Red. masses --      1.3725                 1.7484                 1.2215
 Frc consts  --      0.9648                 1.2589                 0.9309
 IR Inten    --      5.5116               116.7936                 0.0503
  Atom  AN      X      Y      Z        X      Y      Z        X      Y      Z
     1   6     0.00   0.00   0.00     0.09   0.13   0.00     0.00   0.00   0.01
     2   8     0.00   0.00   0.00     0.03  -0.02   0.00     0.00   0.00   0.00
     3   1     0.01   0.00   0.00     0.22   0.14   0.00     0.00   0.00  -0.12
     4   7    -0.03   0.06   0.00    -0.10  -0.01   0.00     0.00   0.00   0.00
     5   6    -0.10  -0.06   0.00    -0.10   0.01   0.00     0.00   0.00  -0.10
     6   1     0.16  -0.32  -0.05     0.14  -0.25  -0.04    -0.09  -0.43   0.13
     7   1     0.16  -0.32   0.05     0.14  -0.25   0.04     0.09   0.43   0.13
     8   1     0.12   0.45   0.00     0.08   0.44   0.00     0.00   0.00   0.20
     9   6     0.11   0.05   0.00     0.01  -0.14   0.00     0.00   0.00   0.10
    10   1     0.18  -0.32   0.05    -0.10   0.27  -0.04     0.43  -0.17  -0.14
    11   1    -0.44   0.15   0.00     0.52  -0.23   0.00     0.00   0.00  -0.21
    12   1     0.18  -0.32  -0.05    -0.10   0.27   0.04    -0.43   0.17  -0.14
                     13                     14                     15
                      A                      A                      A
 Frequencies --   1184.8349              1280.4715              1425.4788
 Red. masses --      1.3637                 4.2676                 1.6259
 Frc consts  --      1.1280                 4.1226                 1.9465
 IR Inten    --      3.1632                35.5631                79.5958
  Atom  AN      X      Y      Z        X      Y      Z        X      Y      Z
     1   6     0.00   0.00  -0.02    -0.07  -0.11   0.00     0.03   0.04   0.00
     2   8     0.00   0.00   0.01     0.05   0.04   0.00    -0.02   0.03   0.00
     3   1     0.00   0.00   0.09     0.49  -0.06   0.00     0.83   0.09   0.00
     4   7     0.00   0.00  -0.10    -0.24   0.33   0.00    -0.11  -0.15   0.00
     5   6     0.00   0.00   0.10     0.10  -0.17   0.00     0.05   0.07   0.00
     6   1     0.11   0.44  -0.14    -0.23   0.19   0.07    -0.12  -0.03   0.12
     7   1    -0.11  -0.44  -0.14    -0.23   0.19  -0.07    -0.12  -0.03  -0.12
     8   1     0.00   0.00  -0.22    -0.02  -0.44   0.00    -0.05  -0.15   0.00
     9   6     0.00   0.00   0.10     0.14  -0.12   0.00     0.04   0.06   0.00
    10   1     0.41  -0.14  -0.14     0.10  -0.02  -0.02    -0.05  -0.24   0.13
    11   1     0.00   0.00  -0.22     0.26  -0.14   0.00    -0.09   0.07   0.00
    12   1    -0.41   0.14  -0.14     0.10  -0.02   0.02    -0.05  -0.24  -0.13
                     16                     17                     18
                      A                      A                      A
 Frequencies --   1443.2569              1459.1001              1487.6967
 Red. masses --      1.8083                 1.1552                 1.1930
 Frc consts  --      2.2192                 1.4491                 1.5556
 IR Inten    --     23.5648                 5.6707                 9.8459
  Atom  AN      X      Y      Z        X      Y      Z        X      Y      Z
     1   6    -0.05  -0.12   0.00    -0.02  -0.01   0.00     0.00   0.04   0.00
     2   8    -0.08   0.07   0.00    -0.01   0.01   0.00     0.03  -0.02   0.00
     3   1     0.71  -0.06   0.00     0.26   0.01   0.00    -0.18   0.04   0.00
     4   7     0.14   0.05   0.00     0.03  -0.03   0.00    -0.02  -0.01   0.00
     5   6    -0.07   0.00   0.00    -0.01  -0.10   0.00     0.02  -0.03   0.00
     6   1     0.25  -0.10  -0.14    -0.12   0.45  -0.13    -0.19   0.10   0.07
     7   1     0.25  -0.10   0.14    -0.12   0.45   0.13    -0.19   0.10  -0.07
     8   1    -0.06  -0.01   0.00     0.26   0.56   0.00     0.13   0.24   0.00
     9   6    -0.11   0.01   0.00     0.01  -0.01   0.00    -0.08   0.07   0.00
    10   1     0.17  -0.05  -0.15    -0.12   0.11   0.05     0.26  -0.39  -0.09
    11   1     0.36  -0.09   0.00    -0.16   0.02   0.00     0.56  -0.07   0.00
    12   1     0.17  -0.05   0.15    -0.12   0.11  -0.05     0.26  -0.39   0.09
                     19                     20                     21
                      A                      A                      A
 Frequencies --   1500.1764              1521.7672              1522.3684
 Red. masses --      1.0405                 1.0420                 1.0663
 Frc consts  --      1.3797                 1.4217                 1.4560
 IR Inten    --      3.2829                20.3845                13.7442
  Atom  AN      X      Y      Z        X      Y      Z        X      Y      Z
     1   6     0.00   0.00   0.00     0.00   0.00   0.00     0.00   0.02   0.00
     2   8     0.00   0.00   0.00     0.00   0.00   0.00     0.02  -0.01   0.00
     3   1     0.00   0.00   0.00     0.00   0.00   0.02    -0.10   0.02   0.00
     4   7     0.00   0.00  -0.01     0.00   0.00  -0.02    -0.03   0.00   0.00
     5   6     0.00   0.00   0.02     0.00   0.00  -0.05    -0.04  -0.01   0.00
     6   1     0.12  -0.11  -0.02    -0.32   0.32   0.05     0.36   0.21  -0.31
     7   1    -0.12   0.11  -0.02     0.33  -0.31   0.05     0.36   0.21   0.31
     8   1     0.00   0.00  -0.25     0.00   0.00   0.68    -0.11  -0.21  -0.01
     9   6     0.00   0.00  -0.05     0.00   0.00  -0.02     0.03   0.03   0.00
    10   1     0.07  -0.46   0.05     0.03  -0.17   0.02    -0.24  -0.23   0.23
    11   1     0.00   0.00   0.67     0.00   0.00   0.24     0.24  -0.02   0.00
    12   1    -0.07   0.46   0.05    -0.03   0.16   0.01    -0.24  -0.23  -0.23
                     22                     23                     24
                      A                      A                      A
 Frequencies --   1554.9711              1762.3488              2973.1843
 Red. masses --      1.1825                 7.8564                 1.0845
 Frc consts  --      1.6846                14.3766                 5.6483
 IR Inten    --     20.9627               520.2188                89.8279
  Atom  AN      X      Y      Z        X      Y      Z        X      Y      Z
     1   6     0.00   0.05   0.00     0.60  -0.21   0.00     0.00  -0.08   0.00
     2   8     0.03  -0.02   0.00    -0.34   0.17   0.00     0.00   0.00   0.00
     3   1     0.03   0.05   0.00    -0.47  -0.27   0.00    -0.06   0.99   0.00
     4   7    -0.08  -0.06   0.00    -0.12   0.01   0.00     0.00   0.00   0.00
     5   6    -0.01   0.00   0.00     0.03  -0.03   0.00     0.00   0.00   0.00
     6   1     0.22   0.21  -0.21    -0.03   0.20  -0.07     0.02   0.01   0.03
     7   1     0.22   0.21   0.21    -0.03   0.20   0.07     0.02   0.01  -0.03
     8   1    -0.07  -0.17   0.00     0.07   0.04   0.00    -0.02   0.01   0.00
     9   6    -0.02  -0.01   0.00    -0.01   0.00   0.00     0.00   0.00   0.00
    10   1     0.43   0.12  -0.32     0.09  -0.07  -0.07     0.02   0.01   0.04
    11   1    -0.25   0.05   0.00     0.02   0.02   0.00    -0.02  -0.06   0.00
    12   1     0.43   0.12   0.32     0.09  -0.07   0.07     0.02   0.01  -0.04
                     25                     26                     27
                      A                      A                      A
 Frequencies --   3023.0495              3031.5251              3070.9871
 Red. masses --      1.0356                 1.0377                 1.1050
 Frc consts  --      5.5759                 5.6190                 6.1398
 IR Inten    --     53.6235                66.3697                53.6576
  Atom  AN      X      Y      Z        X      Y      Z        X      Y      Z
     1   6     0.00   0.00   0.00     0.00   0.01   0.00     0.00   0.00   0.00
     2   8     0.00   0.00   0.00     0.00   0.00   0.00     0.00   0.00   0.00
     3   1     0.00  -0.05   0.00     0.00  -0.07   0.00     0.00   0.00   0.00
     4   7     0.00   0.00   0.00     0.00   0.00   0.00     0.00   0.00   0.00
     5   6     0.01   0.02   0.00    -0.03  -0.04   0.00     0.00   0.00  -0.03
     6   1    -0.13  -0.08  -0.22     0.29   0.19   0.51     0.10   0.06   0.15
     7   1    -0.13  -0.08   0.22     0.29   0.19  -0.51    -0.10  -0.06   0.15
     8   1     0.11  -0.04   0.00    -0.25   0.10   0.00     0.00   0.00   0.00
     9   6    -0.05   0.00   0.00    -0.02   0.00   0.00     0.00   0.00  -0.09
    10   1     0.31   0.13   0.50     0.14   0.05   0.21     0.37   0.16   0.54
    11   1    -0.07  -0.32   0.00    -0.03  -0.14   0.00     0.00   0.00  -0.02
    12   1     0.31   0.13  -0.50     0.14   0.05  -0.21    -0.37  -0.16   0.55
                     28                     29                     30
                      A                      A                      A
 Frequencies --   3078.9980              3128.6240              3168.8872
 Red. masses --      1.1051                 1.0996                 1.0980
 Frc consts  --      6.1726                 6.3417                 6.4961
 IR Inten    --     17.6552                18.5356                 1.1571
  Atom  AN      X      Y      Z        X      Y      Z        X      Y      Z
     1   6     0.00   0.00   0.00     0.00   0.00   0.00     0.00   0.00   0.00
     2   8     0.00   0.00   0.00     0.00   0.00   0.00     0.00   0.00   0.00
     3   1     0.00   0.00   0.00     0.00   0.03   0.00     0.00   0.00   0.00
     4   7     0.00   0.00   0.00     0.00   0.00   0.00     0.00   0.00   0.00
     5   6     0.00   0.00  -0.09     0.00   0.00   0.00    -0.09   0.02   0.00
     6   1     0.34   0.21   0.55     0.00   0.00   0.01     0.09   0.06   0.17
     7   1    -0.34  -0.21   0.55     0.00   0.00  -0.01     0.09   0.06  -0.17
     8   1     0.00   0.00  -0.02     0.03  -0.01   0.00     0.88  -0.37   0.00
     9   6     0.00   0.00   0.03    -0.04  -0.08   0.00     0.00   0.00   0.00
    10   1    -0.10  -0.05  -0.16     0.12   0.04   0.21     0.00   0.00   0.00
    11   1     0.00   0.00   0.01     0.18   0.91   0.00    -0.01  -0.03   0.00
    12   1     0.10   0.05  -0.16     0.12   0.04  -0.21     0.00   0.00   0.00

 -------------------
 - Thermochemistry -
 -------------------
 Temperature   298.150 Kelvin.  Pressure   1.00000 Atm.
 Atom     1 has atomic number  6 and mass  12.00000
 Atom     2 has atomic number  8 and mass  15.99491
 Atom     3 has atomic number  1 and mass   1.00783
 Atom     4 has atomic number  7 and mass  14.00307
 Atom     5 has atomic number  6 and mass  12.00000
 Atom     6 has atomic number  1 and mass   1.00783
 Atom     7 has atomic number  1 and mass   1.00783
 Atom     8 has atomic number  1 and mass   1.00783
 Atom     9 has atomic number  6 and mass  12.00000
 Atom    10 has atomic number  1 and mass   1.00783
 Atom    11 has atomic number  1 and mass   1.00783
 Atom    12 has atomic number  1 and mass   1.00783
 Molecular mass:    73.05276 amu.
 Principal axes and moments of inertia in atomic units:
                           1         2         3
     Eigenvalues --   202.72551 435.13373 614.99448
           X            0.99988  -0.01580   0.00000
           Y            0.01580   0.99988   0.00000
           Z            0.00000   0.00000   1.00000
 This molecule is an asymmetric top.
 Rotational symmetry number  1.
 Rotational temperatures (Kelvin)      0.42725     0.19905     0.14084
 Rotational constants (GHZ):           8.90239     4.14756     2.93456
 Zero-point vibrational energy     269553.9 (Joules/Mol)
                                   64.42493 (Kcal/Mol)
 Warning -- explicit consideration of   6 degrees of freedom as
           vibrations may cause significant error
 Vibrational temperatures:    138.68   239.54   350.93   471.06   476.28
          (Kelvin)            581.37   947.49  1258.00  1454.41  1571.59
                             1590.54  1636.36  1704.71  1842.31  2050.95
                             2076.52  2099.32  2140.46  2158.42  2189.48
                             2190.35  2237.26  2535.63  4277.75  4349.49
                             4361.69  4418.47  4429.99  4501.39  4559.32
 
 Zero-point correction=                           0.102668 (Hartree/Particle)
 Thermal correction to Energy=                    0.108797
 Thermal correction to Enthalpy=                  0.109742
 Thermal correction to Gibbs Free Energy=         0.073398
 Sum of electronic and zero-point Energies=           -248.427797
 Sum of electronic and thermal Energies=              -248.421667
 Sum of electronic and thermal Enthalpies=            -248.420723
 Sum of electronic and thermal Free Energies=         -248.457066
 
                     E (Thermal)             CV                S
                      KCal/Mol        Cal/Mol-Kelvin    Cal/Mol-Kelvin
 Total                   68.271             19.920             76.491
 Electronic               0.000              0.000              0.000
 Translational            0.889              2.981             38.782
 Rotational               0.889              2.981             25.498
 Vibrational             66.494             13.959             12.210
 Vibration     1          0.603              1.952              3.526
 Vibration     2          0.624              1.884              2.475
 Vibration     3          0.659              1.773              1.774
 Vibration     4          0.711              1.621              1.273
 Vibration     5          0.713              1.614              1.255
 Vibration     6          0.769              1.461              0.948
                       Q            Log10(Q)             Ln(Q)
 Total Bot       0.173422D-33        -33.760896        -77.737336
 Total V=0       0.290341D+14         13.462909         30.999494
 Vib (Bot)       0.847517D-46        -46.071852       -106.084359
 Vib (Bot)    1  0.213066D+01          0.328514          0.756432
 Vib (Bot)    2  0.121180D+01          0.083431          0.192107
 Vib (Bot)    3  0.802468D+00         -0.095572         -0.220063
 Vib (Bot)    4  0.571607D+00         -0.242903         -0.559304
 Vib (Bot)    5  0.564072D+00         -0.248665         -0.572573
 Vib (Bot)    6  0.439776D+00         -0.356769         -0.821490
 Vib (V=0)       0.141891D+02          1.151953          2.652471
 Vib (V=0)    1  0.268854D+01          0.429517          0.988999
 Vib (V=0)    2  0.181090D+01          0.257895          0.593824
 Vib (V=0)    3  0.144549D+01          0.160016          0.368450
 Vib (V=0)    4  0.125943D+01          0.100174          0.230659
 Vib (V=0)    5  0.125378D+01          0.098220          0.226159
 Vib (V=0)    6  0.116589D+01          0.066656          0.153480
 Electronic      0.100000D+01          0.000000          0.000000
 Translational   0.245419D+08          7.389909         17.015894
 Rotational      0.833771D+05          4.921047         11.331129
 ***** Axes restored to original set *****
 -------------------------------------------------------------------
 Center     Atomic                   Forces (Hartrees/Bohr)
[...]
   A16        1.89363   0.00000   0.00000  -0.00001  -0.00001   1.89361
   A17        1.89155  -0.00001   0.00000  -0.00003  -0.00003   1.89152
   A18        1.89362   0.00000   0.00000  -0.00001  -0.00001   1.89361
    D1        0.00009   0.00000   0.00000  -0.00009  -0.00009   0.00000
    D2       -3.14159   0.00000   0.00000   0.00000   0.00000   3.14159
    D3       -3.14146   0.00000   0.00000  -0.00013  -0.00013  -3.14159
    D4        0.00004   0.00000   0.00000  -0.00004  -0.00004   0.00000
    D5        2.09436   0.00000   0.00000   0.00014   0.00014   2.09450
    D6       -2.09466   0.00000   0.00000   0.00015   0.00015  -2.09451
    D7       -0.00012   0.00000   0.00000   0.00012   0.00012   0.00000
    D8       -1.04714   0.00000   0.00000   0.00006   0.00006  -1.04709
    D9        1.04702   0.00000   0.00000   0.00007   0.00007   1.04709
   D10        3.14155   0.00000   0.00000   0.00004   0.00004   3.14159
   D11       -2.09209   0.00000   0.00000  -0.00005  -0.00005  -2.09215
   D12        0.00006   0.00000   0.00000  -0.00006  -0.00006   0.00000
   D13        2.09219   0.00000   0.00000  -0.00005  -0.00005   2.09215
   D14        1.04941   0.00000   0.00000   0.00003   0.00003   1.04945
   D15        3.14157   0.00000   0.00000   0.00003   0.00003   3.14159
   D16       -1.04949   0.00000   0.00000   0.00004   0.00004  -1.04945
         Item               Value     Threshold  Converged?
 Maximum Force            0.000038     0.000450     YES
 RMS     Force            0.000011     0.000300     YES
 Maximum Displacement     0.000514     0.001800     YES
 RMS     Displacement     0.000136     0.001200     YES
 Predicted change in Energy=-1.096037D-08
 Optimization completed.
    -- Stationary point found.
                           ----------------------------
                           !   Optimized Parameters   !
                           ! (Angstroms and Degrees)  !
 --------------------------                            --------------------------
 ! Name  Definition              Value          Derivative Info.                !
 --------------------------------------------------------------------------------
 ! R1    R(1,2)                  1.2244         -DE/DX =    0.0                 !
 ! R2    R(1,3)                  1.1068         -DE/DX =    0.0                 !
 ! R3    R(1,4)                  1.3638         -DE/DX =    0.0                 !
 ! R4    R(4,5)                  1.4551         -DE/DX =    0.0                 !
 ! R5    R(4,9)                  1.452          -DE/DX =    0.0                 !
 ! R6    R(5,6)                  1.098          -DE/DX =    0.0                 !
 ! R7    R(5,7)                  1.098          -DE/DX =    0.0                 !
 ! R8    R(5,8)                  1.091          -DE/DX =    0.0                 !
 ! R9    R(9,10)                 1.0983         -DE/DX =    0.0                 !
 ! R10   R(9,11)                 1.0941         -DE/DX =    0.0                 !
 ! R11   R(9,12)                 1.0983         -DE/DX =    0.0                 !
 ! A1    A(2,1,3)              121.9319         -DE/DX =    0.0                 !
 ! A2    A(2,1,4)              125.7704         -DE/DX =    0.0                 !
 ! A3    A(3,1,4)              112.2977         -DE/DX =    0.0                 !
 ! A4    A(1,4,5)              120.7363         -DE/DX =    0.0                 !
 ! A5    A(1,4,9)              121.9534         -DE/DX =    0.0                 !
 ! A6    A(5,4,9)              117.3104         -DE/DX =    0.0                 !
 ! A7    A(4,5,6)              110.3274         -DE/DX =    0.0                 !
 ! A8    A(4,5,7)              110.3263         -DE/DX =    0.0                 !
 ! A9    A(4,5,8)              108.7246         -DE/DX =    0.0                 !
 ! A10   A(6,5,7)              108.5916         -DE/DX =    0.0                 !
 ! A11   A(6,5,8)              109.4267         -DE/DX =    0.0                 !
 ! A12   A(7,5,8)              109.4293         -DE/DX =    0.0                 !
 ! A13   A(4,9,10)             110.7412         -DE/DX =    0.0                 !
 ! A14   A(4,9,11)             109.9198         -DE/DX =    0.0                 !
 ! A15   A(4,9,12)             110.74           -DE/DX =    0.0                 !
 ! A16   A(10,9,11)            108.4968         -DE/DX =    0.0                 !
 ! A17   A(10,9,12)            108.378          -DE/DX =    0.0                 !
 ! A18   A(11,9,12)            108.4965         -DE/DX =    0.0                 !
 ! D1    D(2,1,4,5)              0.0052         -DE/DX =    0.0                 !
 ! D2    D(2,1,4,9)            180.0            -DE/DX =    0.0                 !
 ! D3    D(3,1,4,5)           -179.9925         -DE/DX =    0.0                 !
 ! D4    D(3,1,4,9)              0.0023         -DE/DX =    0.0                 !
 ! D5    D(1,4,5,6)            119.9981         -DE/DX =    0.0                 !
 ! D6    D(1,4,5,7)           -120.0151         -DE/DX =    0.0                 !
 ! D7    D(1,4,5,8)             -0.0072         -DE/DX =    0.0                 !
 ! D8    D(9,4,5,6)            -59.9969         -DE/DX =    0.0                 !
 ! D9    D(9,4,5,7)             59.9899         -DE/DX =    0.0                 !
 ! D10   D(9,4,5,8)            179.9978         -DE/DX =    0.0                 !
 ! D11   D(1,4,9,10)          -119.8682         -DE/DX =    0.0                 !
 ! D12   D(1,4,9,11)             0.0035         -DE/DX =    0.0                 !
 ! D13   D(1,4,9,12)           119.8739         -DE/DX =    0.0                 !
 ! D14   D(5,4,9,10)            60.1268         -DE/DX =    0.0                 !
 ! D15   D(5,4,9,11)           179.9985         -DE/DX =    0.0                 !
 ! D16   D(5,4,9,12)           -60.1311         -DE/DX =    0.0                 !
 --------------------------------------------------------------------------------
 GradGradGradGradGradGradGradGradGradGradGradGradGradGradGradGradGradGrad


 ----------------------------------------------------------------------

 Electric dipole moment (input orientation):
 (Debye = 10**-18 statcoulomb cm , SI units = C m)
                  (au)            (Debye)         (10**-30 SI)
   Tot        0.169252D+01      0.430195D+01      0.143497D+02
   x          0.168355D+01      0.427917D+01      0.142738D+02
   y         -0.173935D+00     -0.442098D+00     -0.147468D+01
   z          0.456807D-04      0.116109D-03      0.387297D-03

 Dipole polarizability, Alpha (input orientation).
 (esu units = cm**3 , SI units = C**2 m**2 J**-1)
 Alpha(0;0):
               (au)            (10**-24 esu)      (10**-40 SI)
   iso        0.482385D+02      0.714822D+01      0.795346D+01
   aniso      0.217100D+02      0.321709D+01      0.357950D+01
   xx         0.605351D+02      0.897038D+01      0.998089D+01
   yx         0.987337D+00      0.146308D+00      0.162790D+00
   yy         0.486270D+02      0.720578D+01      0.801751D+01
   zx         0.198629D-03      0.294338D-04      0.327495D-04
   zy        -0.550019D-04     -0.815044D-05     -0.906858D-05
   zz         0.355535D+02      0.526849D+01      0.586198D+01

 ----------------------------------------------------------------------

 Dipole orientation:
     6         -0.14204441         -1.37430119         -1.50916177
     8         -0.05625909         -0.54378419         -3.66707278
     1         -0.35336967         -3.41810588         -1.11796841
     7          0.00263617          0.02479369          0.65036861
     6          0.28490372          2.75767472          0.53805535
     1         -1.31304632          3.68667548          1.48070564
     1          2.03885959          3.34043941          1.48094073
     1          0.34474268          3.33613920         -1.43996784
     6         -0.11638527         -1.12736306          3.13778685
     1         -1.73244118         -0.39130079          4.21223085
     1         -0.32802376         -3.17594301          2.95580771
     1          1.61605089         -0.73724186          4.21216800

 Electric dipole moment (dipole orientation):
 (Debye = 10**-18 statcoulomb cm , SI units = C m)
                  (au)            (Debye)         (10**-30 SI)
   Tot        0.169252D+01      0.430195D+01      0.143497D+02
   x          0.000000D+00      0.000000D+00      0.000000D+00
   y          0.000000D+00      0.000000D+00      0.000000D+00
   z          0.169252D+01      0.430195D+01      0.143497D+02

 Dipole polarizability, Alpha (dipole orientation).
 (esu units = cm**3 , SI units = C**2 m**2 J**-1)
 Alpha(0;0):
               (au)            (10**-24 esu)      (10**-40 SI)
   iso        0.482385D+02      0.714822D+01      0.795346D+01
   aniso      0.217100D+02      0.321709D+01      0.357950D+01
   xx         0.356951D+02      0.528946D+01      0.588532D+01
   yx         0.136999D+01      0.203012D+00      0.225881D+00
   yy         0.488131D+02      0.723335D+01      0.804819D+01
   zx         0.224878D+00      0.333235D-01      0.370774D-01
   zy         0.217215D+01      0.321880D+00      0.358140D+00
   zz         0.602075D+02      0.892183D+01      0.992688D+01

 ----------------------------------------------------------------------
 1\1\GINC-IP-172-31-1-231\Freq\RB3LYP\6-31+G(d)\C3H7N1O1\UBUNTU\15-Sep-
 2023\0\\#N Geom=AllCheck Guess=TCheck SCRF=Check GenChk RB3LYP/6-31+G(
 d) Freq\\Title Card Required\\0,1\C,-0.869521,-0.645181,0.00001\O,-1.9
 59987,-0.08834,-0.000011\H,-0.775345,-1.747999,0.000106\N,0.343694,-0.
 022244,-0.00003\C,0.433985,1.430038,0.000009\H,0.971472,1.778752,0.891
 665\H,0.971647,1.778767,-0.891525\H,-0.575572,1.843721,-0.000059\C,1.5
 9002,-0.767209,-0.000001\H,2.186342,-0.527662,0.890695\H,1.382232,-1.8
 41374,-0.000008\H,2.186357,-0.527661,-0.890682\\Version=EM64L-G16RevB.
 01\State=1-A\HF=-248.5304647\RMSD=1.918e-09\RMSF=1.026e-05\ZeroPoint=0
 .1026677\Thermal=0.1087974\Dipole=1.6835549,-0.1739347,0.0000457\Dipol
 eDeriv=2.2446625,0.1986611,0.0000033,0.0766753,0.7869397,-0.0000506,-0
 .0000255,-0.0000519,0.1542562,-1.5452966,0.0219928,-0.0000149,0.442841
 ,-0.5576628,0.0000136,-0.0000067,0.0000072,-0.397361,0.0300965,0.07286
 98,-0.000005,0.0504182,-0.2491506,0.0000186,-0.0000132,0.0000304,0.086
 3235,-1.2693489,-0.1355176,0.0000012,-0.4387736,-0.6751216,-0.0000022,
 0.0000816,0.0000169,-0.3160115,0.0202419,0.0919999,0.0000046,0.2113439
 ,0.5291417,0.0000284,-0.0000297,0.000015,0.3202236,0.0156241,-0.085272
 2,-0.0955391,-0.0539774,-0.0266806,0.0017493,-0.104453,-0.0832354,-0.0
 916604,0.015597,-0.0852885,0.0955519,-0.0539652,-0.0266643,-0.0017548,
 0.1044612,0.0832143,-0.0916126,0.024425,0.0988227,-0.0000133,0.0124395
 ,0.049498,-0.0000011,-0.000008,0.0000027,0.0977436,0.6144732,-0.159681
 ,0.0000134,-0.2412423,0.1727726,0.0000016,0.0000085,-0.0000017,0.32759
 26,-0.097198,0.0283413,-0.052591,-0.0173396,0.0549037,-0.0725447,-0.13
 86711,-0.0272193,-0.0897076,0.0439192,-0.0752668,-0.000002,0.0289284,-
 0.1128799,-0.0000008,-0.0000045,0.0000007,0.0899121,-0.097196,0.028338
 4,0.0525909,-0.0173483,0.0549039,0.0725427,0.1386604,0.0272211,-0.0896
 984\Polar=60.5351294,0.9873372,48.6270151,0.0001986,-0.000055,35.55350
 41\Quadrupole=-4.1570656,3.4450775,0.7119881,0.0160186,-0.0001033,-0.0
 00041\PG=C01 [X(C3H7N1O1)]\NImag=0\\0.88049913,-0.15230206,0.74659214,
 0.00000514,-0.00003371,0.18068783,-0.53805126,0.25141465,-0.00001098,0
 .65170592,0.24262902,-0.25119781,0.00000924,-0.27800648,0.23096048,-0.
 00001065,0.00000783,-0.07028421,0.00001124,-0.00000999,0.03107157,-0.0
 5520999,0.01075009,-0.00000044,-0.01095044,0.04143166,-0.00000280,0.07
 356281,-0.00286817,-0.27423299,0.00001843,0.02462613,-0.01713277,0.000
 00224,-0.01554599,0.31317028,0.00000043,0.00001978,-0.05752401,-0.0000
 0177,0.00000182,0.01798441,0.00000131,-0.00002308,0.02492147,-0.261112
 47,-0.10344020,0.00000784,-0.09652979,0.00202681,0.00000148,-0.0020735
 8,-0.00503616,-0.00000021,0.71966126,-0.07697105,-0.19807408,0.0000068
 1,0.00497092,0.03477179,-0.00000067,-0.03127348,-0.02555286,0.00000206
 ,0.03846824,0.63078763,0.00000097,0.00000532,-0.03951545,0.00000306,-0
 .00000232,0.01674331,0.00000104,0.00000150,0.00895851,-0.00000280,-0.0
 0000064,0.10799421,0.00787513,-0.03457363,-0.00000016,-0.00186323,0.00
 130145,0.00000008,-0.00398679,-0.00255559,0.00000022,-0.10983620,-0.01
 243719,-0.00000042,0.62426671,-0.02692435,-0.02509114,-0.00000026,0.01
 096024,-0.00511662,0.00000042,-0.00052131,0.00259999,-0.00000043,-0.00
 082373,-0.21470837,-0.00000305,-0.01215677,0.47738550,0.00000281,0.000
 00168,-0.00142340,-0.00000130,0.00000106,-0.00245132,0.00000085,0.0000
 0135,0.00725754,-0.00000151,-0.00000672,-0.06617222,-0.00001335,-0.000
 00820,0.56359020,0.00050449,0.00046904,-0.00133783,-0.00025607,-0.0009
 4006,0.00093506,-0.00006227,-0.00015161,-0.00033579,-0.00138235,-0.003
 86745,0.00033309,-0.11270326,-0.03464894,-0.10301170,0.11515175,0.0076
 3021,-0.00320898,-0.00276111,-0.00225752,0.00236445,-0.00062150,-0.000
 83303,-0.00066413,0.00173170,-0.02359567,-0.02705155,-0.02756386,-0.03
 237065,-0.06655011,-0.05649584,0.04323303,0.08477926,0.00218582,0.0014
 2097,-0.00070239,-0.00060170,0.00010124,-0.00003949,0.00014467,-0.0000
 4209,-0.00028421,0.00067013,-0.00381807,0.00827956,-0.10369591,-0.0597
 9718,-0.22445692,0.11378625,0.06777566,0.23805052,0.00050389,0.0004693
 3,0.00133780,-0.00025571,-0.00094062,-0.00093477,-0.00006222,-0.000151
 57,0.00033586,-0.00138236,-0.00386718,-0.00033416,-0.11274769,-0.03466
 715,0.10304134,0.00858267,0.00542840,-0.01397655,0.11519900,0.00762940
 ,-0.00321068,0.00276106,-0.00225672,0.00236448,0.00062154,-0.00083365,
 -0.00066474,-0.00173160,-0.02360130,-0.02705078,0.02755970,-0.03238678
 ,-0.06655442,0.05649826,0.00542905,0.00411624,-0.00674235,0.04325289,0
 .08478498,-0.00218587,-0.00142084,-0.00070215,0.00060140,-0.00010159,-
 0.00003957,-0.00014470,0.00004196,-0.00028401,-0.00067172,0.00381495,0
 .00827915,0.10372567,0.05980147,-0.22442487,0.01398229,0.00674443,-0.0
 2256010,-0.11381678,-0.06777639,0.23801370,-0.00025227,-0.00137894,-0.
 00000007,-0.00203293,-0.00270904,0.00000017,-0.00012582,0.00051942,-0.
 00000022,0.00524987,0.00106778,0.00000098,-0.29020181,0.10036029,-0.00
 001702,-0.01114150,0.00401203,0.00093345,-0.01114421,0.00401372,-0.000
 93651,0.30950361,0.00616499,-0.00181789,0.00000004,-0.00296732,0.00206
 955,-0.00000009,0.00007171,0.00050716,-0.00000018,0.03523198,-0.019779
 60,0.00000264,0.08719521,-0.08644163,0.00000660,-0.00940365,0.00477133
 ,0.00148816,-0.00940496,0.00477179,-0.00149038,-0.10478834,0.10246555,
 -0.00000031,0.00000017,0.00146787,0.00000024,-0.00000013,-0.00150420,0
 .,-0.00000001,0.00015900,0.00000147,-0.00000061,-0.00142675,-0.0000166
 5,0.00000762,-0.05153473,-0.02550417,0.01139099,0.00162954,0.02550010,
 -0.01139072,0.00163443,0.00001927,-0.00000696,0.04884163,-0.03962300,0
 .01375500,-0.00000059,0.00400973,-0.00390185,-0.00000002,-0.00038667,0
 .00251841,0.00000011,-0.19634479,0.05732790,-0.00000143,0.00376201,0.0
 0278673,0.00000008,0.00084332,-0.00271529,-0.00009195,0.00084333,-0.00
 271514,0.00009175,0.00028367,-0.00345070,-0.00000002,0.51748311,0.0047
 8006,0.01719685,-0.00000095,-0.01116887,-0.00036175,0.00000031,-0.0039
 7195,-0.00050150,0.00000016,0.04629771,-0.14098342,0.00000086,0.031451
 59,-0.02035117,0.00000111,0.00074347,0.00128375,0.00031672,0.00074373,
 0.00128364,-0.00031661,-0.00032462,-0.00570229,-0.00000024,0.05540368,
 0.58518583,0.00000137,-0.00000111,-0.01194119,0.00000020,0.00000053,0.
 00947187,0.,-0.00000036,-0.00127893,-0.00000337,0.00000201,-0.05923315
 ,0.00000045,-0.00000036,-0.00168384,0.00158084,-0.00150254,0.00059605,
 -0.00158078,0.00150242,0.00059609,0.00000004,0.00000018,-0.00020507,-0
 .00000398,-0.00000009,0.56230866,0.00279573,0.00517307,-0.00469649,-0.
 00329295,0.00004643,0.00182141,0.00011479,-0.00036246,-0.00013686,-0.0
 3106844,-0.00358705,-0.02158518,0.00033882,-0.00235234,-0.00027376,0.0
 0038226,0.00106392,0.00045199,0.00006092,0.00043841,0.00004557,-0.0000
 3077,-0.00014667,0.00029204,-0.11327917,-0.03148315,-0.10433218,0.1360
 8981,-0.00198061,-0.00275938,0.00141886,0.00171373,0.00028560,-0.00054
 292,0.00014204,0.00047084,-0.00046253,0.01678754,0.00378526,0.01479297
 ,0.00102659,0.00213964,0.00193818,-0.00062676,0.00007152,-0.00082628,-
 0.00005947,-0.00017598,-0.00015540,-0.00010041,0.00017364,-0.00012741,
 -0.03412068,-0.06662244,-0.05080347,0.02923918,0.06532484,0.00259096,0
 .00074884,-0.00035186,-0.00063920,0.00030956,-0.00036449,0.00007385,-0
 .00004066,0.00000466,-0.00288369,0.00253292,0.00886358,0.00023516,-0.0
 0014600,0.00053498,-0.00042085,0.00079530,-0.00020222,0.00008753,-0.00
 012199,-0.00056924,0.00006479,0.00017649,0.00021335,-0.10731891,-0.050
 52906,-0.22442901,0.11969135,0.05387019,0.23750246,-0.00072464,0.00449
 017,-0.00000021,0.00080964,-0.00098354,0.00000007,-0.00093472,-0.00063
 003,0.00000008,0.00588923,0.03375535,0.00000037,-0.00524239,0.00033953
 ,-0.00000014,0.00002002,-0.00003384,0.00023932,0.00002005,-0.00003384,
 -0.00023934,-0.00007711,0.00164445,0.00000004,-0.06430715,-0.06098622,
 -0.00000064,-0.00274557,-0.01596705,0.00193174,0.07003835,-0.00580704,
 -0.00143629,0.00000009,0.00125754,0.00070683,-0.00000003,0.00044175,0.
 00152973,-0.00000013,0.00089603,-0.01992885,-0.00000016,0.00447880,0.0
 0054861,0.00000045,-0.00017654,0.00026419,-0.00003224,-0.00017658,0.00
 026424,0.00003220,-0.00057149,-0.00119127,-0.00000007,-0.05076462,-0.3
 0380598,-0.00000162,-0.00197547,-0.00513620,0.00009332,0.05437315,0.33
 332163,0.00000011,-0.00000026,0.00064054,-0.00000010,0.00000010,-0.000
 22332,0.00000008,0.00000006,0.00008086,0.00000019,0.00000077,-0.001634
 99,0.00000008,-0.00000002,0.00022991,0.00008029,0.00038472,0.00025878,
 -0.00008043,-0.00038468,0.00025870,-0.00000003,0.,0.00051154,-0.000000
 68,-0.00000212,-0.04977177,-0.00469125,-0.02679095,0.00170524,0.000000
 62,0.00000162,0.04623901,0.00279527,0.00517349,0.00469601,-0.00329292,
 0.00004622,-0.00182127,0.00011490,-0.00036238,0.00013684,-0.03107038,-
 0.00358680,0.02158448,0.00033870,-0.00235221,0.00027370,0.00006095,0.0
 0043841,-0.00004551,0.00038233,0.00106395,-0.00045177,-0.00003074,-0.0
 0014669,-0.00029202,-0.11328439,-0.03148544,0.10433804,0.01063455,0.00
 394590,-0.01341273,-0.00274573,-0.00197553,0.00469112,0.13609746,-0.00
 198041,-0.00275975,-0.00141849,0.00171369,0.00028578,0.00054285,0.0001
 4216,0.00047098,0.00046243,0.01678875,0.00378484,-0.01479297,0.0010269
 7,0.00213972,-0.00193793,-0.00005958,-0.00017597,0.00015549,-0.0006268
 2,0.00007123,0.00082620,-0.00010041,0.00017367,0.00012738,-0.03412344,
 -0.06662152,0.05080441,0.00394614,0.00244268,-0.00768891,-0.01596813,-
 0.00513664,0.02679075,0.02924107,0.06532498,-0.00259076,-0.00074868,-0
 .00035158,0.00063892,-0.00030953,-0.00036458,-0.00007387,0.00004068,0.
 00000471,0.00288220,-0.00253280,0.00886425,-0.00023516,0.00014600,0.00
 053466,-0.00008748,0.00012205,-0.00056914,0.00042084,-0.00079524,-0.00
 020215,-0.00006484,-0.00017653,0.00021338,0.10732563,0.05052990,-0.224
 42971,0.01341335,0.00768877,-0.02290745,-0.00193191,-0.00009341,0.0017
 0548,-0.11969690,-0.05387120,0.23750212\\-0.00002209,0.00001073,-0.000
 00413,-0.00000547,-0.00001331,0.00000043,0.00001475,0.00000050,0.00000
 312,0.00003805,0.00001899,-0.00000259,-0.00000440,0.00000434,-0.000003
 13,0.00000473,-0.00000040,0.00000742,0.00000536,-0.00000460,-0.0000039
 0,-0.00000636,-0.00000247,0.00000238,-0.00001818,-0.00001334,-0.000000
 42,-0.00000069,0.00000307,0.00000717,-0.00000275,-0.00000667,-0.000000
 28,-0.00000296,0.00000316,-0.00000609\\\@


 A warm smile is the universal language of kindness.
                             -- William Arthur Ward
 Job cpu time:       0 days  0 hours  9 minutes 10.7 seconds.
 Elapsed time:       0 days  0 hours  0 minutes 17.3 seconds.
 File lengths (MBytes):  RWF=     20 Int=      0 D2E=      0 Chk=      2 Scr=      1
 Normal termination of Gaussian 16 at Fri Sep 15 07:33:16 2023.
