 Entering Gaussian System, Link 0=/home/ubuntu/g16/g16
 Input=/home/ubuntu/Downloads/MOLECULE_14-vol.gjf
 Output=/home/ubuntu/Downloads/MOLECULE_14-vol.log
 Initial command:
 /home/ubuntu/g16/l1.exe "/home/ubuntu/Scratch/Gau-24594.inp" -scrdir="/home/ubuntu/Scratch/"
 Entering Link 1 = /home/ubuntu/g16/l1.exe PID=     24596.
  
 Copyright (c) 1988-2017, Gaussian, Inc.  All Rights Reserved.
  
 This is part of the Gaussian(R) 16 program.  It is based on
 the Gaussian(R) 09 system (copyright 2009, Gaussian, Inc.),
 the Gaussian(R) 03 system (copyright 2003, Gaussian, Inc.),
 the Gaussian(R) 98 system (copyright 1998, Gaussian, Inc.),
 the Gaussian(R) 94 system (copyright 1995, Gaussian, Inc.),
 the Gaussian 92(TM) system (copyright 1992, Gaussian, Inc.),
 the Gaussian 90(TM) system (copyright 1990, Gaussian, Inc.),
 the Gaussian 88(TM) system (copyright 1988, Gaussian, Inc.),
 the Gaussian 86(TM) system (copyright 1986, Carnegie Mellon
 University), and the Gaussian 82(TM) system (copyright 1983,
 Carnegie Mellon University). Gaussian is a federally registered
 trademark of Gaussian, Inc.
  
 This software contains proprietary and confidential information,
 including trade secrets, belonging to Gaussian, Inc.
  
 This software is provided under written license and may be
 used, copied, transmitted, or stored only in accord with that
 written license.
  
 The following legend is applicable only to US Government
 contracts under FAR:
  
                    RESTRICTED RIGHTS LEGEND
  
 Use, reproduction and disclosure by the US Government is
 subject to restrictions as set forth in subparagraphs (a)
 and (c) of the Commercial Computer Software - Restricted
 Rights clause in FAR 52.227-19.
  
 Gaussian, Inc.
 340 Quinnipiac St., Bldg. 40, Wallingford CT 06492
  
  
 ---------------------------------------------------------------
 Warning -- This program may not be used in any manner that
 competes with the business of Gaussian, Inc. or will provide
 assistance to any competitor of Gaussian, Inc.  The licensee
 of this program is prohibited from giving any competitor of
 Gaussian, Inc. access to this program.  By using this program,
 the user acknowledges that Gaussian, Inc. is engaged in the
 business of creating and licensing software in the field of
 computational chemistry and represents and warrants to the
 licensee that it is not a competitor of Gaussian, Inc. and that
 it will not use this program in any manner prohibited above.
 ---------------------------------------------------------------
  

 Cite this work as:
 Gaussian 16, Revision B.01,
 M. J. Frisch, G. W. Trucks, H. B. Schlegel, G. E. Scuseria, 
 M. A. Robb, J. R. Cheeseman, G. Scalmani, V. Barone, 
 G. A. Petersson, H. Nakatsuji, X. Li, M. Caricato, A. V. Marenich, 
 J. Bloino, B. G. Janesko, R. Gomperts, B. Mennucci, H. P. Hratchian, 
 J. V. Ortiz, A. F. Izmaylov, J. L. Sonnenberg, D. Williams-Young, 
 F. Ding, F. Lipparini, F. Egidi, J. Goings, B. Peng, A. Petrone, 
 T. Henderson, D. Ranasinghe, V. G. Zakrzewski, J. Gao, N. Rega, 
 G. Zheng, W. Liang, M. Hada, M. Ehara, K. Toyota, R. Fukuda, 
 J. Hasegawa, M. Ishida, T. Nakajima, Y. Honda, O. Kitao, H. Nakai, 
 T. Vreven, K. Throssell, J. A. Montgomery, Jr., J. E. Peralta, 
 F. Ogliaro, M. J. Bearpark, J. J. Heyd, E. N. Brothers, K. N. Kudin, 
 V. N. Staroverov, T. A. Keith, R. Kobayashi, J. Normand, 
 K. Raghavachari, A. P. Rendell, J. C. Burant, S. S. Iyengar, 
 J. Tomasi, M. Cossi, J. M. Millam, M. Klene, C. Adamo, R. Cammi, 
 J. W. Ochterski, R. L. Martin, K. Morokuma, O. Farkas, 
 J. B. Foresman, and D. J. Fox, Gaussian, Inc., Wallingford CT, 2016.
 
 ******************************************
 Gaussian 16:  EM64L-G16RevB.01 20-Dec-2017
                15-Sep-2023 
 ******************************************
 %nprocshared=32
 Will use up to   32 processors via shared memory.
 %mem=62GB
 %chk=MOLECULE_14-vol.chk
 ----------------------------------------------------------------------
 # opt freq b3lyp/6-31+g(d) empiricaldispersion=gd3 scf=maxcycle=1000 v
 olume
 ----------------------------------------------------------------------
 1/18=20,19=15,26=3,38=1/1,3;
 2/9=110,12=2,17=6,18=5,40=1/2;
 3/5=1,6=6,7=11,11=2,25=1,30=1,71=1,74=-5,124=31/1,2,3;
 4//1;
 5/5=2,7=1000,38=5/2;
 6/7=2,8=2,9=2,10=2,28=1,44=1/1,4;
 7//1,2,3,16;
 1/18=20,19=15,26=3/3(2);
 2/9=110/2;
 99//99;
 2/9=110/2;
 3/5=1,6=6,7=11,11=2,25=1,30=1,71=1,74=-5,124=31/1,2,3;
 4/5=5,16=3,69=1/1;
 5/5=2,7=1000,38=5/2;
 7//1,2,3,16;
 1/18=20,19=15,26=3/3(-5);
 2/9=110/2;
 6/7=2,8=2,9=2,10=2,19=2,28=1,44=1/1,4;
 99/9=1/99;
 -------------------
 Title Card Required
 -------------------
 Symbolic Z-matrix:
 Charge =  0 Multiplicity = 1
 O                     0.        0.        0.11728 
 H                     0.        0.77135  -0.46913 
 H                     0.       -0.77135  -0.46913 
 

 GradGradGradGradGradGradGradGradGradGradGradGradGradGradGradGradGradGrad
 Berny optimization.
 Initialization pass.
                           ----------------------------
                           !    Initial Parameters    !
                           ! (Angstroms and Degrees)  !
 --------------------------                            --------------------------
 ! Name  Definition              Value          Derivative Info.                !
 --------------------------------------------------------------------------------
 ! R1    R(1,2)                  0.9689         estimate D2E/DX2                !
 ! R2    R(1,3)                  0.9689         estimate D2E/DX2                !
 ! A1    A(2,1,3)              105.513          estimate D2E/DX2                !
 --------------------------------------------------------------------------------
 Trust Radius=3.00D-01 FncErr=1.00D-07 GrdErr=1.00D-06 EigMax=2.50D+02 EigMin=1.00D-04
 Number of steps in this run=     20 maximum allowed number of steps=    100.
 GradGradGradGradGradGradGradGradGradGradGradGradGradGradGradGradGradGrad

                          Input orientation:                          
 ---------------------------------------------------------------------
 Center     Atomic      Atomic             Coordinates (Angstroms)
 Number     Number       Type             X           Y           Z
 ---------------------------------------------------------------------
      1          8           0        0.000000    0.000000    0.117282
      2          1           0        0.000000    0.771352   -0.469130
      3          1           0        0.000000   -0.771352   -0.469130
 ---------------------------------------------------------------------
                    Distance matrix (angstroms):
                    1          2          3
     1  O    0.000000
     2  H    0.968949   0.000000
     3  H    0.968949   1.542704   0.000000
 Stoichiometry    H2O
 Framework group  C2V[C2(O),SGV(H2)]
 Deg. of freedom     2
 Full point group                 C2V     NOp   4
 Largest Abelian subgroup         C2V     NOp   4
 Largest concise Abelian subgroup C2      NOp   2
                         Standard orientation:                         
 ---------------------------------------------------------------------
 Center     Atomic      Atomic             Coordinates (Angstroms)
 Number     Number       Type             X           Y           Z
 ---------------------------------------------------------------------
      1          8           0        0.000000    0.000000    0.117282
      2          1           0        0.000000    0.771352   -0.469130
      3          1           0        0.000000   -0.771352   -0.469130
 ---------------------------------------------------------------------
 Rotational constants (GHZ):         820.9973712         421.4022411         278.4692854
 Standard basis: 6-31+G(d) (6D, 7F)
 There are    12 symmetry adapted cartesian basis functions of A1  symmetry.
 There are     1 symmetry adapted cartesian basis functions of A2  symmetry.
 There are     4 symmetry adapted cartesian basis functions of B1  symmetry.
 There are     6 symmetry adapted cartesian basis functions of B2  symmetry.
 There are    12 symmetry adapted basis functions of A1  symmetry.
 There are     1 symmetry adapted basis functions of A2  symmetry.
 There are     4 symmetry adapted basis functions of B1  symmetry.
 There are     6 symmetry adapted basis functions of B2  symmetry.
    23 basis functions,    40 primitive gaussians,    23 cartesian basis functions
     5 alpha electrons        5 beta electrons
       nuclear repulsion energy         9.0811797695 Hartrees.
 NAtoms=    3 NActive=    3 NUniq=    2 SFac= 2.25D+00 NAtFMM=   60 NAOKFM=F Big=F
 Integral buffers will be    131072 words long.
 Raffenetti 2 integral format.
 Two-electron integral symmetry is turned on.
 Nuclear repulsion after empirical dispersion term =        9.0811706787 Hartrees.
 One-electron integrals computed using PRISM.
 NBasis=    23 RedAO= T EigKep=  1.82D-02  NBF=    12     1     4     6
 NBsUse=    23 1.00D-06 EigRej= -1.00D+00 NBFU=    12     1     4     6
 ExpMin= 8.45D-02 ExpMax= 5.48D+03 ExpMxC= 8.25D+02 IAcc=3 IRadAn=         5 AccDes= 0.00D+00
 Harris functional with IExCor=  402 and IRadAn=       5 diagonalized for initial guess.
 HarFok:  IExCor=  402 AccDes= 0.00D+00 IRadAn=         5 IDoV= 1 UseB2=F ITyADJ=14
 ICtDFT=  3500011 ScaDFX=  1.000000  1.000000  1.000000  1.000000
 FoFCou: FMM=F IPFlag=           0 FMFlag=      100000 FMFlg1=           0
         NFxFlg=           0 DoJE=T BraDBF=F KetDBF=T FulRan=T
         wScrn=  0.000000 ICntrl=       500 IOpCl=  0 I1Cent=   200000004 NGrid=           0
         NMat0=    1 NMatS0=      1 NMatT0=    0 NMatD0=    1 NMtDS0=    0 NMtDT0=    0
 Petite list used in FoFCou.
 Initial guess orbital symmetries:
       Occupied  (A1) (A1) (B2) (A1) (B1)
       Virtual   (A1) (B2) (A1) (B1) (B2) (A1) (B2) (A1) (B1) (B2)
                 (A1) (A1) (A1) (A2) (B1) (A1) (B2) (A1)
 The electronic state of the initial guess is 1-A1.
 Keep R1 ints in memory in symmetry-blocked form, NReq=27662155.
 Requested convergence on RMS density matrix=1.00D-08 within1000 cycles.
 Requested convergence on MAX density matrix=1.00D-06.
 Requested convergence on             energy=1.00D-06.
 No special actions if energy rises.
 Integral accuracy reduced to 1.0D-05 until final iterations.
 Initial convergence to 1.0D-05 achieved.  Increase integral accuracy.
 SCF Done:  E(RB3LYP) =  -76.4225825001     A.U. after   10 cycles
            NFock= 10  Conv=0.16D-08     -V/T= 2.0092

 **********************************************************************

            Population analysis using the SCF Density.

 **********************************************************************

 Orbital symmetries:
       Occupied  (A1) (A1) (B2) (A1) (B1)
       Virtual   (A1) (B2) (B1) (A1) (B2) (A1) (B2) (A1) (B2) (B1)
                 (A1) (A1) (A1) (A2) (B1) (A1) (B2) (A1)
 The electronic state is 1-A1.
 Alpha  occ. eigenvalues --  -19.16895  -1.02226  -0.54355  -0.39488  -0.31925
 Alpha virt. eigenvalues --    0.02489   0.11343   0.15547   0.15557   0.20367
 Alpha virt. eigenvalues --    0.23940   0.94705   1.03180   1.11172   1.11382
 Alpha virt. eigenvalues --    1.14371   1.24351   1.71237   1.72084   1.75829
 Alpha virt. eigenvalues --    2.27092   2.63637   3.67478
          Condensed to atoms (all electrons):
               1          2          3
     1  O    8.471981   0.227801   0.227801
     2  H    0.227801   0.330809  -0.022402
     3  H    0.227801  -0.022402   0.330809
 Mulliken charges:
               1
     1  O   -0.927584
     2  H    0.463792
     3  H    0.463792
 Sum of Mulliken charges =   0.00000
 Mulliken charges with hydrogens summed into heavy atoms:
               1
     1  O    0.000000
 Electronic spatial extent (au):  <R**2>=             20.2154
 Charge=              0.0000 electrons
 Dipole moment (field-independent basis, Debye):
    X=              0.0000    Y=              0.0000    Z=             -2.2490  Tot=              2.2490
 Quadrupole moment (field-independent basis, Debye-Ang):
   XX=             -7.9452   YY=             -4.3529   ZZ=             -6.5339
   XY=              0.0000   XZ=              0.0000   YZ=              0.0000
 Traceless Quadrupole moment (field-independent basis, Debye-Ang):
   XX=             -1.6679   YY=              1.9244   ZZ=             -0.2565
   XY=              0.0000   XZ=              0.0000   YZ=              0.0000
 Octapole moment (field-independent basis, Debye-Ang**2):
  XXX=              0.0000  YYY=              0.0000  ZZZ=             -1.6500  XYY=              0.0000
  XXY=              0.0000  XXZ=             -0.4918  XZZ=              0.0000  YZZ=              0.0000
  YYZ=             -1.4314  XYZ=              0.0000
 Hexadecapole moment (field-independent basis, Debye-Ang**3):
 XXXX=             -7.9822 YYYY=             -6.4200 ZZZZ=             -8.1094 XXXY=              0.0000
 XXXZ=              0.0000 YYYX=              0.0000 YYYZ=              0.0000 ZZZX=              0.0000
 ZZZY=              0.0000 XXYY=             -2.6732 XXZZ=             -2.7313 YYZZ=             -2.1127
 XXYZ=              0.0000 YYXZ=              0.0000 ZZXY=              0.0000
 N-N= 9.081170678740D+00 E-N=-1.984300867920D+02  KE= 7.572394890493D+01
 Symmetry A1   KE= 6.763533008052D+01
 Symmetry A2   KE= 5.425199459099D-35
 Symmetry B1   KE= 4.476303707810D+00
 Symmetry B2   KE= 3.612315116600D+00
 Evaluate density.
 Using the total density.
 Monte-Carlo method of calculating molar volume:
 based on  0.001 e/bohr**3 density envelope.
 Number of points per bohr**3 =   20 CutOff= 1.00D-04
 Using the SCF density.
 There are       198 points.  Will hold       198 in memory.
 LenV=  8321493238 MDV=  8321499136.
 Box volume =  982.544 fraction occupied=0.157
 Integrated density= 2.0135429493843823D+01 error= 1.0135429493843823D+01
 Molar volume =  153.833 bohr**3/mol ( 13.728 cm**3/mol)
 Recommended a0 for SCRF calculation =  2.44 angstrom (  4.60 bohr)
 Calling FoFJK, ICntrl=      2127 FMM=F ISym2X=1 I1Cent= 0 IOpClX= 0 NMat=1 NMatS=1 NMatT=0.
 ***** Axes restored to original set *****
 -------------------------------------------------------------------
 Center     Atomic                   Forces (Hartrees/Bohr)
 Number     Number              X              Y              Z
 -------------------------------------------------------------------
      1        8           0.000000000    0.000000000    0.000013200
      2        1           0.000000000   -0.000033796   -0.000006600
      3        1           0.000000000    0.000033796   -0.000006600
 -------------------------------------------------------------------
 Cartesian Forces:  Max     0.000033796 RMS     0.000016818

 GradGradGradGradGradGradGradGradGradGradGradGradGradGradGradGradGradGrad
 Berny optimization.
 FormGI is forming the generalized inverse of G from B-inverse, IUseBI=4.
 Internal  Forces:  Max     0.000047072 RMS     0.000032993
 Search for a local minimum.
 Step number   1 out of a maximum of   20
 All quantities printed in internal units (Hartrees-Bohrs-Radians)
 Mixed Optimization -- En-DIIS/RFO-DIIS
 Second derivative matrix not updated -- first step.
 The second derivative matrix:
                          R1        R2        A1
           R1           0.53592
           R2           0.00000   0.53592
           A1           0.00000   0.00000   0.16000
 ITU=  0
     Eigenvalues ---    0.16000   0.53592   0.53592
 RFO step:  Lambda=-1.58074906D-08 EMin= 1.60000000D-01
 Linear search not attempted -- first point.
 Iteration  1 RMS(Cart)=  0.00018380 RMS(Int)=  0.00000002
 Iteration  2 RMS(Cart)=  0.00000001 RMS(Int)=  0.00000000
 ClnCor:  largest displacement from symmetrization is 1.11D-16 for atom     3.
 Variable       Old X    -DE/DX   Delta X   Delta X   Delta X     New X
                                 (Linear)    (Quad)   (Total)
    R1        1.83105  -0.00002   0.00000  -0.00004  -0.00004   1.83101
    R2        1.83105  -0.00002   0.00000  -0.00004  -0.00004   1.83101
    A1        1.84155  -0.00005   0.00000  -0.00029  -0.00029   1.84125
         Item               Value     Threshold  Converged?
 Maximum Force            0.000047     0.000450     YES
 RMS     Force            0.000033     0.000300     YES
 Maximum Displacement     0.000197     0.001800     YES
 RMS     Displacement     0.000184     0.001200     YES
 Predicted change in Energy=-7.903745D-09
 Optimization completed.
    -- Stationary point found.
                           ----------------------------
                           !   Optimized Parameters   !
                           ! (Angstroms and Degrees)  !
 --------------------------                            --------------------------
 ! Name  Definition              Value          Derivative Info.                !
 --------------------------------------------------------------------------------
 ! R1    R(1,2)                  0.9689         -DE/DX =    0.0                 !
 ! R2    R(1,3)                  0.9689         -DE/DX =    0.0                 !
 ! A1    A(2,1,3)              105.513          -DE/DX =    0.0                 !
 --------------------------------------------------------------------------------
 GradGradGradGradGradGradGradGradGradGradGradGradGradGradGradGradGradGrad

                          Input orientation:                          
 ---------------------------------------------------------------------
 Center     Atomic      Atomic             Coordinates (Angstroms)
 Number     Number       Type             X           Y           Z
 ---------------------------------------------------------------------
      1          8           0        0.000000    0.000000    0.117282
      2          1           0        0.000000    0.771352   -0.469130
      3          1           0        0.000000   -0.771352   -0.469130
 ---------------------------------------------------------------------
                    Distance matrix (angstroms):
                    1          2          3
     1  O    0.000000
     2  H    0.968949   0.000000
     3  H    0.968949   1.542704   0.000000
 Stoichiometry    H2O
 Framework group  C2V[C2(O),SGV(H2)]
 Deg. of freedom     2
 Full point group                 C2V     NOp   4
 Largest Abelian subgroup         C2V     NOp   4
 Largest concise Abelian subgroup C2      NOp   2
                         Standard orientation:                         
 ---------------------------------------------------------------------
 Center     Atomic      Atomic             Coordinates (Angstroms)
 Number     Number       Type             X           Y           Z
 ---------------------------------------------------------------------
      1          8           0        0.000000    0.000000    0.117282
      2          1           0        0.000000    0.771352   -0.469130
      3          1           0        0.000000   -0.771352   -0.469130
 ---------------------------------------------------------------------
 Rotational constants (GHZ):         820.9973712         421.4022411         278.4692854
 1\1\GINC-IP-172-31-1-231\FOpt\RB3LYP\6-31+G(d)\H2O1\UBUNTU\15-Sep-2023
 \0\\# opt freq b3lyp/6-31+g(d) empiricaldispersion=gd3 scf=maxcycle=10
 00 volume\\Title Card Required\\0,1\O,0.,0.,0.117282\H,0.,0.771352,-0.
 46913\H,0.,-0.771352,-0.46913\\Version=EM64L-G16RevB.01\State=1-A1\HF=
 -76.4225825\RMSD=1.616e-09\RMSF=1.682e-05\Dipole=0.,0.,-0.8848239\Quad
 rupole=-1.2400214,1.4307455,-0.1907241,0.,0.,0.\PG=C02V [C2(O1),SGV(H2
 )]\\@


 MARY HAD A LITTLE LAMB
      HIS FEET WERE BLACK AS SOOT,
           AND EVERYWHERE THAT MARY WENT
                HIS SOOTY FOOT HE PUT.

                    -- NONAME
 Job cpu time:       0 days  0 hours  0 minutes 47.7 seconds.
 Elapsed time:       0 days  0 hours  0 minutes  1.6 seconds.
 File lengths (MBytes):  RWF=      6 Int=      0 D2E=      0 Chk=      1 Scr=      1
 Normal termination of Gaussian 16 at Fri Sep 15 07:34:47 2023.
 Link1:  Proceeding to internal job step number  2.
 ---------------------------------------------------------------------
 #N Geom=AllCheck Guess=TCheck SCRF=Check GenChk RB3LYP/6-31+G(d) Freq
 ---------------------------------------------------------------------
 1/10=4,29=7,30=1,38=1,40=1/1,3;
 2/12=2,40=1/2;
 3/5=1,6=6,7=11,11=2,14=-4,25=1,30=1,70=2,71=2,74=-5,116=1,124=31,140=1/1,2,3;
 4/5=101/1;
 5/5=2,7=1000,38=6,98=1/2;
 8/6=4,10=90,11=11/1;
 11/6=1,8=1,9=11,15=111,16=1/1,2,10;
 10/6=1/2;
 6/7=2,8=2,9=2,10=2,28=1/1;
 7/8=1,10=1,25=1/1,2,3,16;
 1/10=4,30=1/3;
 99//99;
 Structure from the checkpoint file:  "MOLECULE_14-vol.chk"
 -------------------
 Title Card Required
 -------------------
 Charge =  0 Multiplicity = 1
 Redundant internal coordinates found in file.  (old form).
 O,0,0.,0.,0.117282
 H,0,0.,0.771352,-0.46913
 H,0,0.,-0.771352,-0.46913
 Recover connectivity data from disk.

 GradGradGradGradGradGradGradGradGradGradGradGradGradGradGradGradGradGrad
 Berny optimization.
 Initialization pass.
                           ----------------------------
                           !    Initial Parameters    !
                           ! (Angstroms and Degrees)  !
 --------------------------                            --------------------------
 ! Name  Definition              Value          Derivative Info.                !
 --------------------------------------------------------------------------------
 ! R1    R(1,2)                  0.9689         calculate D2E/DX2 analytically  !
 ! R2    R(1,3)                  0.9689         calculate D2E/DX2 analytically  !
 ! A1    A(2,1,3)              105.513          calculate D2E/DX2 analytically  !
 --------------------------------------------------------------------------------
 Trust Radius=3.00D-01 FncErr=1.00D-07 GrdErr=1.00D-07 EigMax=2.50D+02 EigMin=1.00D-04
 Number of steps in this run=      2 maximum allowed number of steps=      2.
 GradGradGradGradGradGradGradGradGradGradGradGradGradGradGradGradGradGrad

                          Input orientation:                          
 ---------------------------------------------------------------------
 Center     Atomic      Atomic             Coordinates (Angstroms)
 Number     Number       Type             X           Y           Z
 ---------------------------------------------------------------------
      1          8           0        0.000000    0.000000    0.117282
      2          1           0        0.000000    0.771352   -0.469130
      3          1           0        0.000000   -0.771352   -0.469130
 ---------------------------------------------------------------------
                    Distance matrix (angstroms):
                    1          2          3
     1  O    0.000000
     2  H    0.968949   0.000000
     3  H    0.968949   1.542704   0.000000
 Stoichiometry    H2O
 Framework group  C2V[C2(O),SGV(H2)]
 Deg. of freedom     2
 Full point group                 C2V     NOp   4
 Largest Abelian subgroup         C2V     NOp   4
 Largest concise Abelian subgroup C2      NOp   2
                         Standard orientation:                         
 ---------------------------------------------------------------------
 Center     Atomic      Atomic             Coordinates (Angstroms)
 Number     Number       Type             X           Y           Z
 ---------------------------------------------------------------------
      1          8           0        0.000000    0.000000    0.117282
      2          1           0        0.000000    0.771352   -0.469130
      3          1           0        0.000000   -0.771352   -0.469130
 ---------------------------------------------------------------------
 Rotational constants (GHZ):         820.9973712         421.4022411         278.4692854
 Standard basis: 6-31+G(d) (6D, 7F)
 There are    12 symmetry adapted cartesian basis functions of A1  symmetry.
 There are     1 symmetry adapted cartesian basis functions of A2  symmetry.
 There are     4 symmetry adapted cartesian basis functions of B1  symmetry.
 There are     6 symmetry adapted cartesian basis functions of B2  symmetry.
 There are    12 symmetry adapted basis functions of A1  symmetry.
 There are     1 symmetry adapted basis functions of A2  symmetry.
 There are     4 symmetry adapted basis functions of B1  symmetry.
 There are     6 symmetry adapted basis functions of B2  symmetry.
    23 basis functions,    40 primitive gaussians,    23 cartesian basis functions
     5 alpha electrons        5 beta electrons
       nuclear repulsion energy         9.0811797695 Hartrees.
 NAtoms=    3 NActive=    3 NUniq=    2 SFac= 2.25D+00 NAtFMM=   60 NAOKFM=F Big=F
 Integral buffers will be    131072 words long.
 Raffenetti 2 integral format.
 Two-electron integral symmetry is turned on.
 Nuclear repulsion after empirical dispersion term =        9.0811706787 Hartrees.
 One-electron integrals computed using PRISM.
 NBasis=    23 RedAO= T EigKep=  1.82D-02  NBF=    12     1     4     6
 NBsUse=    23 1.00D-06 EigRej= -1.00D+00 NBFU=    12     1     4     6
 Initial guess from the checkpoint file:  "MOLECULE_14-vol.chk"
 B after Tr=     0.000000    0.000000    0.000000
         Rot=    1.000000    0.000000    0.000000    0.000000 Ang=   0.00 deg.
 Initial guess orbital symmetries:
       Occupied  (A1) (A1) (B2) (A1) (B1)
       Virtual   (A1) (B2) (B1) (A1) (B2) (A1) (B2) (A1) (B2) (B1)
                 (A1) (A1) (A1) (A2) (B1) (A1) (B2) (A1)
 Keep R1 ints in memory in symmetry-blocked form, NReq=27662155.
 Requested convergence on RMS density matrix=1.00D-08 within1000 cycles.
 Requested convergence on MAX density matrix=1.00D-06.
 Requested convergence on             energy=1.00D-06.
 No special actions if energy rises.
 SCF Done:  E(RB3LYP) =  -76.4225825001     A.U. after    1 cycles
            NFock=  1  Conv=0.70D-09     -V/T= 2.0092
 DoSCS=F DFT=T ScalE2(SS,OS)=  1.000000  1.000000
 Range of M.O.s used for correlation:     1    23
 NBasis=    23 NAE=     5 NBE=     5 NFC=     0 NFV=     0
 NROrb=     23 NOA=     5 NOB=     5 NVA=    18 NVB=    18
 Symmetrizing basis deriv contribution to polar:
 IMax=3 JMax=2 DiffMx= 0.00D+00
 G2DrvN: will do     4 centers at a time, making    1 passes.
 Calling FoFCou, ICntrl=  3107 FMM=F I1Cent=   0 AccDes= 0.00D+00.
 End of G2Drv F.D. properties file   721 does not exist.
 End of G2Drv F.D. properties file   722 does not exist.
 End of G2Drv F.D. properties file   788 does not exist.
          IDoAtm=111
          Differentiating once with respect to electric field.
                with respect to dipole field.
          Differentiating once with respect to nuclear coordinates.
 Keep R1 ints in memory in symmetry-blocked form, NReq=27552688.
          There are     9 degrees of freedom in the 1st order CPHF.  IDoFFX=4 NUNeed=     9.
      9 vectors produced by pass  0 Test12= 1.00D-15 1.11D-08 XBig12= 3.46D+00 1.36D+00.
 AX will form     9 AO Fock derivatives at one time.
      9 vectors produced by pass  1 Test12= 1.00D-15 1.11D-08 XBig12= 4.00D-01 2.33D-01.
      9 vectors produced by pass  2 Test12= 1.00D-15 1.11D-08 XBig12= 3.59D-03 2.75D-02.
      9 vectors produced by pass  3 Test12= 1.00D-15 1.11D-08 XBig12= 7.21D-06 1.34D-03.
      8 vectors produced by pass  4 Test12= 1.00D-15 1.11D-08 XBig12= 8.90D-09 3.72D-05.
      4 vectors produced by pass  5 Test12= 1.00D-15 1.11D-08 XBig12= 4.96D-12 1.04D-06.
      1 vectors produced by pass  6 Test12= 1.00D-15 1.11D-08 XBig12= 2.55D-15 2.04D-08.
 InvSVY:  IOpt=1 It=  1 EMax= 2.22D-16
 Solved reduced A of dimension    49 with     9 vectors.
 Isotropic polarizability for W=    0.000000        6.91 Bohr**3.
 End of Minotr F.D. properties file   721 does not exist.
 End of Minotr F.D. properties file   722 does not exist.
 End of Minotr F.D. properties file   788 does not exist.

 **********************************************************************

            Population analysis using the SCF Density.

 **********************************************************************

 Orbital symmetries:
       Occupied  (A1) (A1) (B2) (A1) (B1)
       Virtual   (A1) (B2) (B1) (A1) (B2) (A1) (B2) (A1) (B2) (B1)
                 (A1) (A1) (A1) (A2) (B1) (A1) (B2) (A1)
 The electronic state is 1-A1.
 Alpha  occ. eigenvalues --  -19.16895  -1.02226  -0.54355  -0.39488  -0.31925
 Alpha virt. eigenvalues --    0.02489   0.11343   0.15547   0.15557   0.20367
 Alpha virt. eigenvalues --    0.23940   0.94705   1.03180   1.11172   1.11382
 Alpha virt. eigenvalues --    1.14371   1.24351   1.71237   1.72084   1.75829
 Alpha virt. eigenvalues --    2.27092   2.63637   3.67478
          Condensed to atoms (all electrons):
               1          2          3
     1  O    8.471981   0.227801   0.227801
     2  H    0.227801   0.330809  -0.022402
     3  H    0.227801  -0.022402   0.330809
 Mulliken charges:
               1
     1  O   -0.927584
     2  H    0.463792
     3  H    0.463792
 Sum of Mulliken charges =   0.00000
 Mulliken charges with hydrogens summed into heavy atoms:
               1
     1  O    0.000000
 APT charges:
               1
     1  O   -0.576227
     2  H    0.288114
     3  H    0.288114
 Sum of APT charges =   0.00000
 APT charges with hydrogens summed into heavy atoms:
               1
     1  O    0.000000
 Electronic spatial extent (au):  <R**2>=             20.2154
 Charge=              0.0000 electrons
 Dipole moment (field-independent basis, Debye):
    X=              0.0000    Y=              0.0000    Z=             -2.2490  Tot=              2.2490
 Quadrupole moment (field-independent basis, Debye-Ang):
   XX=             -7.9452   YY=             -4.3529   ZZ=             -6.5339
   XY=              0.0000   XZ=              0.0000   YZ=              0.0000
 Traceless Quadrupole moment (field-independent basis, Debye-Ang):
   XX=             -1.6679   YY=              1.9244   ZZ=             -0.2565
   XY=              0.0000   XZ=              0.0000   YZ=              0.0000
 Octapole moment (field-independent basis, Debye-Ang**2):
  XXX=              0.0000  YYY=              0.0000  ZZZ=             -1.6500  XYY=              0.0000
  XXY=              0.0000  XXZ=             -0.4918  XZZ=              0.0000  YZZ=              0.0000
  YYZ=             -1.4314  XYZ=              0.0000
 Hexadecapole moment (field-independent basis, Debye-Ang**3):
 XXXX=             -7.9822 YYYY=             -6.4200 ZZZZ=             -8.1094 XXXY=              0.0000
 XXXZ=              0.0000 YYYX=              0.0000 YYYZ=              0.0000 ZZZX=              0.0000
 ZZZY=              0.0000 XXYY=             -2.6732 XXZZ=             -2.7313 YYZZ=             -2.1127
 XXYZ=              0.0000 YYXZ=              0.0000 ZZXY=              0.0000
 N-N= 9.081170678740D+00 E-N=-1.984300865025D+02  KE= 7.572394877092D+01
 Symmetry A1   KE= 6.763533002976D+01
 Symmetry A2   KE= 5.425199335884D-35
 Symmetry B1   KE= 4.476303653646D+00
 Symmetry B2   KE= 3.612315087517D+00
  Exact polarizability:   6.516   0.000   7.750   0.000   0.000   6.455
 Approx polarizability:   6.602   0.000   9.510   0.000   0.000   7.456
 Calling FoFJK, ICntrl=    100127 FMM=F ISym2X=1 I1Cent= 0 IOpClX= 0 NMat=1 NMatS=1 NMatT=0.
 Full mass-weighted force constant matrix:
 Low frequencies ---    0.0013    0.0016    0.0020   17.1478   25.3198   31.9572
 Low frequencies --- 1662.4598 3735.4484 3860.0854
 Diagonal vibrational polarizability:
        0.0000000       0.0956665       0.9598501
 Harmonic frequencies (cm**-1), IR intensities (KM/Mole), Raman scattering
 activities (A**4/AMU), depolarization ratios for plane and unpolarized
 incident light, reduced masses (AMU), force constants (mDyne/A),
 and normal coordinates:
                      1                      2                      3
                     A1                     A1                     B2
 Frequencies --   1662.4598              3735.4484              3860.0854
 Red. masses --      1.0834                 1.0445                 1.0829
 Frc consts  --      1.7642                 8.5868                 9.5064
 IR Inten    --     97.3790                 6.0450                52.9688
  Atom  AN      X      Y      Z        X      Y      Z        X      Y      Z
     1   8     0.00   0.00  -0.07     0.00   0.00   0.05     0.00  -0.07   0.00
     2   1     0.00   0.42   0.56     0.00   0.59  -0.39     0.00   0.56  -0.43
     3   1     0.00  -0.42   0.56     0.00  -0.59  -0.39     0.00   0.56   0.43

 -------------------
 - Thermochemistry -
 -------------------
 Temperature   298.150 Kelvin.  Pressure   1.00000 Atm.
 Atom     1 has atomic number  8 and mass  15.99491
 Atom     2 has atomic number  1 and mass   1.00783
 Atom     3 has atomic number  1 and mass   1.00783
 Molecular mass:    18.01056 amu.
 Principal axes and moments of inertia in atomic units:
                           1         2         3
     Eigenvalues --     2.19823   4.28270   6.48093
           X            0.00000   0.00000   1.00000
           Y            1.00000   0.00000   0.00000
           Z            0.00000   1.00000   0.00000
 This molecule is an asymmetric top.
 Rotational symmetry number  2.
 Rotational temperatures (Kelvin)     39.40166    20.22412    13.36442
 Rotational constants (GHZ):         820.99737   421.40224   278.46929
 Zero-point vibrational energy      55375.1 (Joules/Mol)
                                   13.23497 (Kcal/Mol)
 Vibrational temperatures:   2391.91  5374.48  5553.80
          (Kelvin)
 
 Zero-point correction=                           0.021091 (Hartree/Particle)
 Thermal correction to Energy=                    0.023926
 Thermal correction to Enthalpy=                  0.024870
 Thermal correction to Gibbs Free Energy=         0.003430
 Sum of electronic and zero-point Energies=            -76.401491
 Sum of electronic and thermal Energies=               -76.398656
 Sum of electronic and thermal Enthalpies=             -76.397712
 Sum of electronic and thermal Free Energies=          -76.419152
 
                     E (Thermal)             CV                S
                      KCal/Mol        Cal/Mol-Kelvin    Cal/Mol-Kelvin
 Total                   15.014              6.004             45.124
 Electronic               0.000              0.000              0.000
 Translational            0.889              2.981             34.608
 Rotational               0.889              2.981             10.510
 Vibrational             13.237              0.042              0.006
                       Q            Log10(Q)             Ln(Q)
 Total Bot       0.264313D-01         -1.577881         -3.633205
 Total V=0       0.132867D+09          8.123417         18.704860
 Vib (Bot)       0.198996D-09         -9.701156        -22.337737
 Vib (V=0)       0.100033D+01          0.000142          0.000328
 Electronic      0.100000D+01          0.000000          0.000000
 Translational   0.300431D+07          6.477745         14.915559
 Rotational      0.442110D+02          1.645530          3.788973
 ***** Axes restored to original set *****
 -------------------------------------------------------------------
 Center     Atomic                   Forces (Hartrees/Bohr)
 Number     Number              X              Y              Z
 -------------------------------------------------------------------
      1        8           0.000000000    0.000000000    0.000013204
      2        1           0.000000000   -0.000033795   -0.000006602
      3        1           0.000000000    0.000033795   -0.000006602
 -------------------------------------------------------------------
 Cartesian Forces:  Max     0.000033795 RMS     0.000016819
 FormGI is forming the generalized inverse of G from B-inverse, IUseBI=4.

 GradGradGradGradGradGradGradGradGradGradGradGradGradGradGradGradGradGrad
 Berny optimization.
 Internal  Forces:  Max     0.000047074 RMS     0.000032993
 Search for a local minimum.
 Step number   1 out of a maximum of    2
 All quantities printed in internal units (Hartrees-Bohrs-Radians)
 Second derivative matrix not updated -- analytic derivatives used.
 The second derivative matrix:
                          R1        R2        A1
           R1           0.51831
           R2          -0.00795   0.51831
           A1           0.02806   0.02806   0.16670
 ITU=  0
     Eigenvalues ---    0.16218   0.51488   0.52627
 Angle between quadratic step and forces=  25.71 degrees.
 Linear search not attempted -- first point.
 Iteration  1 RMS(Cart)=  0.00016606 RMS(Int)=  0.00000001
 Iteration  2 RMS(Cart)=  0.00000001 RMS(Int)=  0.00000000
 ClnCor:  largest displacement from symmetrization is 8.01D-16 for atom     3.
 Variable       Old X    -DE/DX   Delta X   Delta X   Delta X     New X
                                 (Linear)    (Quad)   (Total)
    R1        1.83105  -0.00002   0.00000  -0.00003  -0.00003   1.83102
    R2        1.83105  -0.00002   0.00000  -0.00003  -0.00003   1.83102
    A1        1.84155  -0.00005   0.00000  -0.00027  -0.00027   1.84128
         Item               Value     Threshold  Converged?
 Maximum Force            0.000047     0.000450     YES
 RMS     Force            0.000033     0.000300     YES
 Maximum Displacement     0.000175     0.001800     YES
 RMS     Displacement     0.000166     0.001200     YES
 Predicted change in Energy=-7.094682D-09
 Optimization completed.
    -- Stationary point found.
                           ----------------------------
                           !   Optimized Parameters   !
                           ! (Angstroms and Degrees)  !
 --------------------------                            --------------------------
 ! Name  Definition              Value          Derivative Info.                !
 --------------------------------------------------------------------------------
 ! R1    R(1,2)                  0.9689         -DE/DX =    0.0                 !
 ! R2    R(1,3)                  0.9689         -DE/DX =    0.0                 !
 ! A1    A(2,1,3)              105.513          -DE/DX =    0.0                 !
 --------------------------------------------------------------------------------
 GradGradGradGradGradGradGradGradGradGradGradGradGradGradGradGradGradGrad


 ----------------------------------------------------------------------

 Electric dipole moment (input orientation):
 (Debye = 10**-18 statcoulomb cm , SI units = C m)
                  (au)            (Debye)         (10**-30 SI)
   Tot        0.884824D+00      0.224900D+01      0.750185D+01
   x          0.000000D+00      0.000000D+00      0.000000D+00
   y          0.000000D+00      0.000000D+00      0.000000D+00
   z         -0.884824D+00     -0.224900D+01     -0.750185D+01

 Dipole polarizability, Alpha (input orientation).
 (esu units = cm**3 , SI units = C**2 m**2 J**-1)
 Alpha(0;0):
               (au)            (10**-24 esu)      (10**-40 SI)
   iso        0.690680D+01      0.102348D+01      0.113878D+01
   aniso      0.126555D+01      0.187535D+00      0.208661D+00
   xx         0.651572D+01      0.965531D+00      0.107430D+01
   yx         0.000000D+00      0.000000D+00      0.000000D+00
   yy         0.774977D+01      0.114840D+01      0.127776D+01
   zx         0.000000D+00      0.000000D+00      0.000000D+00
   zy         0.000000D+00      0.000000D+00      0.000000D+00
   zz         0.645490D+01      0.956518D+00      0.106427D+01

 ----------------------------------------------------------------------

 Dipole orientation:
     8          0.00000000          0.00000000         -0.22163086
     1          0.00000000         -1.45764403          0.88652722
     1          0.00000000          1.45764403          0.88652722

 Electric dipole moment (dipole orientation):
 (Debye = 10**-18 statcoulomb cm , SI units = C m)
                  (au)            (Debye)         (10**-30 SI)
   Tot        0.884824D+00      0.224900D+01      0.750185D+01
   x          0.000000D+00      0.000000D+00      0.000000D+00
   y          0.000000D+00      0.000000D+00      0.000000D+00
   z          0.884824D+00      0.224900D+01      0.750185D+01

 Dipole polarizability, Alpha (dipole orientation).
 (esu units = cm**3 , SI units = C**2 m**2 J**-1)
 Alpha(0;0):
               (au)            (10**-24 esu)      (10**-40 SI)
   iso        0.690680D+01      0.102348D+01      0.113878D+01
   aniso      0.126555D+01      0.187535D+00      0.208661D+00
   xx         0.651572D+01      0.965531D+00      0.107430D+01
   yx         0.000000D+00      0.000000D+00      0.000000D+00
   yy         0.774977D+01      0.114840D+01      0.127776D+01
   zx         0.000000D+00      0.000000D+00      0.000000D+00
   zy         0.000000D+00      0.000000D+00      0.000000D+00
   zz         0.645490D+01      0.956518D+00      0.106427D+01

 ----------------------------------------------------------------------
 1\1\GINC-IP-172-31-1-231\Freq\RB3LYP\6-31+G(d)\H2O1\UBUNTU\15-Sep-2023
 \0\\#N Geom=AllCheck Guess=TCheck SCRF=Check GenChk RB3LYP/6-31+G(d) F
 req\\Title Card Required\\0,1\O,0.,0.,0.117282\H,0.,0.771352,-0.46913\
 H,0.,-0.771352,-0.46913\\Version=EM64L-G16RevB.01\State=1-A1\HF=-76.42
 25825\RMSD=6.998e-10\RMSF=1.682e-05\ZeroPoint=0.0210913\Thermal=0.0239
 263\Dipole=0.,0.,-0.8848238\DipoleDeriv=-0.7984657,0.,0.,0.,-0.5243442
 ,0.,0.,0.,-0.4058721,0.3992328,0.,0.,0.,0.2621721,0.0841823,0.,0.10419
 76,0.2029361,0.3992328,0.,0.,0.,0.2621721,-0.0841823,0.,-0.1041976,0.2
 029361\Polar=6.5157235,0.,7.7497666,0.,0.,6.4549019\Quadrupole=-1.2400
 214,1.4307455,-0.1907241,0.,0.,0.\PG=C02V [C2(O1),SGV(H2)]\NImag=0\\0.
 00001992,0.,0.66700740,0.,0.,0.44086931,-0.00000996,0.,0.,0.00002446,0
 .,-0.33350370,0.18977308,0.,0.36144194,0.,0.25353847,-0.22043466,0.,-0
 .22165577,0.20660921,-0.00000996,0.,0.,-0.00001450,0.,0.,0.00002446,0.
 ,-0.33350370,-0.18977308,0.,-0.02793824,-0.03188270,0.,0.36144194,0.,-
 0.25353847,-0.22043466,0.,0.03188270,0.01382545,0.,0.22165577,0.206609
 21\\0.,0.,-0.00001320,0.,0.00003380,0.00000660,0.,-0.00003380,0.000006
 60\\\@


 At the touch of love, everyone becomes a poet.
                                -- Plato
 Job cpu time:       0 days  0 hours  0 minutes 54.5 seconds.
 Elapsed time:       0 days  0 hours  0 minutes  1.8 seconds.
 File lengths (MBytes):  RWF=      6 Int=      0 D2E=      0 Chk=      1 Scr=      1
 Normal termination of Gaussian 16 at Fri Sep 15 07:34:49 2023.
