 Entering Gaussian System, Link 0=g16
 Input=/home/ubuntu/Downloads/Nah-vol.gjf
 Output=/home/ubuntu/Downloads/Nah-vol.log
 Initial command:
 /home/ubuntu/g16/l1.exe "/home/ubuntu/Scratch/Gau-7331.inp" -scrdir="/home/ubuntu/Scratch/"
 Entering Link 1 = /home/ubuntu/g16/l1.exe PID=      7335.
  
 Copyright (c) 1988-2017, Gaussian, Inc.  All Rights Reserved.
  
 This is part of the Gaussian(R) 16 program.  It is based on
 the Gaussian(R) 09 system (copyright 2009, Gaussian, Inc.),
 the Gaussian(R) 03 system (copyright 2003, Gaussian, Inc.),
 the Gaussian(R) 98 system (copyright 1998, Gaussian, Inc.),
 the Gaussian(R) 94 system (copyright 1995, Gaussian, Inc.),
 the Gaussian 92(TM) system (copyright 1992, Gaussian, Inc.),
 the Gaussian 90(TM) system (copyright 1990, Gaussian, Inc.),
 the Gaussian 88(TM) system (copyright 1988, Gaussian, Inc.),
 the Gaussian 86(TM) system (copyright 1986, Carnegie Mellon
 University), and the Gaussian 82(TM) system (copyright 1983,
 Carnegie Mellon University). Gaussian is a federally registered
 trademark of Gaussian, Inc.
  
 This software contains proprietary and confidential information,
 including trade secrets, belonging to Gaussian, Inc.
  
 This software is provided under written license and may be
 used, copied, transmitted, or stored only in accord with that
 written license.
  
 The following legend is applicable only to US Government
 contracts under FAR:
  
                    RESTRICTED RIGHTS LEGEND
  
 Use, reproduction and disclosure by the US Government is
 subject to restrictions as set forth in subparagraphs (a)
 and (c) of the Commercial Computer Software - Restricted
 Rights clause in FAR 52.227-19.
  
 Gaussian, Inc.
 340 Quinnipiac St., Bldg. 40, Wallingford CT 06492
  
  
 ---------------------------------------------------------------
 Warning -- This program may not be used in any manner that
 competes with the business of Gaussian, Inc. or will provide
 assistance to any competitor of Gaussian, Inc.  The licensee
 of this program is prohibited from giving any competitor of
 Gaussian, Inc. access to this program.  By using this program,
 the user acknowledges that Gaussian, Inc. is engaged in the
 business of creating and licensing software in the field of
 computational chemistry and represents and warrants to the
 licensee that it is not a competitor of Gaussian, Inc. and that
 it will not use this program in any manner prohibited above.
 ---------------------------------------------------------------
  

 Cite this work as:
 Gaussian 16, Revision B.01,
 M. J. Frisch, G. W. Trucks, H. B. Schlegel, G. E. Scuseria, 
 M. A. Robb, J. R. Cheeseman, G. Scalmani, V. Barone, 
 G. A. Petersson, H. Nakatsuji, X. Li, M. Caricato, A. V. Marenich, 
 J. Bloino, B. G. Janesko, R. Gomperts, B. Mennucci, H. P. Hratchian, 
 J. V. Ortiz, A. F. Izmaylov, J. L. Sonnenberg, D. Williams-Young, 
 F. Ding, F. Lipparini, F. Egidi, J. Goings, B. Peng, A. Petrone, 
 T. Henderson, D. Ranasinghe, V. G. Zakrzewski, J. Gao, N. Rega, 
 G. Zheng, W. Liang, M. Hada, M. Ehara, K. Toyota, R. Fukuda, 
 J. Hasegawa, M. Ishida, T. Nakajima, Y. Honda, O. Kitao, H. Nakai, 
 T. Vreven, K. Throssell, J. A. Montgomery, Jr., J. E. Peralta, 
 F. Ogliaro, M. J. Bearpark, J. J. Heyd, E. N. Brothers, K. N. Kudin, 
 V. N. Staroverov, T. A. Keith, R. Kobayashi, J. Normand, 
 K. Raghavachari, A. P. Rendell, J. C. Burant, S. S. Iyengar, 
 J. Tomasi, M. Cossi, J. M. Millam, M. Klene, C. Adamo, R. Cammi, 
 J. W. Ochterski, R. L. Martin, K. Morokuma, O. Farkas, 
 J. B. Foresman, and D. J. Fox, Gaussian, Inc., Wallingford CT, 2016.
 
 ******************************************
 Gaussian 16:  EM64L-G16RevB.01 20-Dec-2017
                14-Sep-2023 
 ******************************************
 %nprocshared=32
 Will use up to   32 processors via shared memory.
 %mem=62GB
 %chk=Nah-vol.chk
 ----------------------------------------------------------------------
 # opt freq b3lyp/gen empiricaldispersion=gd3 pseudo=read scf=maxcycle=
 1000 volume
 ----------------------------------------------------------------------
 1/18=20,19=15,26=3,38=1/1,3;
 2/9=110,12=2,17=6,18=5,40=1/2;
 3/5=7,11=2,16=1,17=8,25=1,30=1,71=1,74=-5,124=31/1,2,3;
 4//1;
 5/5=2,7=1000,38=5/2;
 6/7=2,8=2,9=2,10=2,28=1,44=1/1,4;
 7//1,2,3,16;
 1/18=20,19=15,26=3/3(2);
 2/9=110/2;
 99//99;
 2/9=110/2;
 3/5=7,6=1,11=2,16=1,17=8,25=1,30=1,71=1,74=-5,82=7,124=31/1,2,3;
 4/5=5,16=3,69=1/1;
 5/5=2,7=1000,38=5/2;
 7//1,2,3,16;
 1/18=20,19=15,26=3/3(-5);
 2/9=110/2;
 6/7=2,8=2,9=2,10=2,19=2,28=1,44=1/1,4;
 99/9=1/99;
 -------------------
 Title Card Required
 -------------------
 Symbolic Z-matrix:
 Charge =  0 Multiplicity = 1
 Na                    0.        0.        0.15728 
 H                     0.        0.       -1.73002 
 

 GradGradGradGradGradGradGradGradGradGradGradGradGradGradGradGradGradGrad
 Berny optimization.
 Initialization pass.
                           ----------------------------
                           !    Initial Parameters    !
                           ! (Angstroms and Degrees)  !
 --------------------------                            --------------------------
 ! Name  Definition              Value          Derivative Info.                !
 --------------------------------------------------------------------------------
 ! R1    R(1,2)                  1.8873         estimate D2E/DX2                !
 --------------------------------------------------------------------------------
 Trust Radius=3.00D-01 FncErr=1.00D-07 GrdErr=1.00D-06 EigMax=2.50D+02 EigMin=1.00D-04
 Number of steps in this run=     20 maximum allowed number of steps=    100.
 GradGradGradGradGradGradGradGradGradGradGradGradGradGradGradGradGradGrad

                          Input orientation:                          
 ---------------------------------------------------------------------
 Center     Atomic      Atomic             Coordinates (Angstroms)
 Number     Number       Type             X           Y           Z
 ---------------------------------------------------------------------
      1         11           0        0.000000    0.000000    0.157275
      2          1           0        0.000000    0.000000   -1.730023
 ---------------------------------------------------------------------
 Stoichiometry    HNa
 Framework group  C*V[C*(HNa)]
 Deg. of freedom     1
 Full point group                 C*V     NOp   4
 Largest Abelian subgroup         C2V     NOp   4
 Largest concise Abelian subgroup C1      NOp   1
                         Standard orientation:                         
 ---------------------------------------------------------------------
 Center     Atomic      Atomic             Coordinates (Angstroms)
 Number     Number       Type             X           Y           Z
 ---------------------------------------------------------------------
      1         11           0        0.000000    0.000000    0.157275
      2          1           0        0.000000    0.000000   -1.730023
 ---------------------------------------------------------------------
 Rotational constants (GHZ):           0.0000000         146.9549405         146.9549405
 General basis read from cards:  (5D, 7F)
 ======================================================================================================
                                       Pseudopotential Parameters
 ======================================================================================================
  Center     Atomic      Valence      Angular      Power
  Number     Number     Electrons     Momentum     of R      Exponent        Coefficient   SO-Coeffient
 ======================================================================================================
    1         11
                                   No pseudopotential on this center.
    2          1
                                   No pseudopotential on this center.
 ======================================================================================================
 There are     9 symmetry adapted cartesian basis functions of A1  symmetry.
 There are     0 symmetry adapted cartesian basis functions of A2  symmetry.
 There are     3 symmetry adapted cartesian basis functions of B1  symmetry.
 There are     3 symmetry adapted cartesian basis functions of B2  symmetry.
 There are     9 symmetry adapted basis functions of A1  symmetry.
 There are     0 symmetry adapted basis functions of A2  symmetry.
 There are     3 symmetry adapted basis functions of B1  symmetry.
 There are     3 symmetry adapted basis functions of B2  symmetry.
    15 basis functions,    50 primitive gaussians,    15 cartesian basis functions
     6 alpha electrons        6 beta electrons
       nuclear repulsion energy         3.0842767386 Hartrees.
 NAtoms=    2 NActive=    2 NUniq=    2 SFac= 1.00D+00 NAtFMM=   60 NAOKFM=F Big=F
 Integral buffers will be    131072 words long.
 Raffenetti 2 integral format.
 Two-electron integral symmetry is turned on.
 Nuclear repulsion after empirical dispersion term =        3.0842707009 Hartrees.
 One-electron integrals computed using PRISM.
   4 Symmetry operations used in ECPInt.
 ECPInt:  NShTT=      21 NPrTT=     246 LenC2=      22 LenP2D=     237.
 LDataN:  DoStor=T MaxTD1= 2 Len=   12
 NBasis=    15 RedAO= T EigKep=  1.12D-01  NBF=     9     0     3     3
 NBsUse=    15 1.00D-06 EigRej= -1.00D+00 NBFU=     9     0     3     3
 ExpMin= 2.60D-02 ExpMax= 9.99D+03 ExpMxC= 1.50D+03 IAcc=3 IRadAn=         5 AccDes= 0.00D+00
 Harris functional with IExCor=  402 and IRadAn=       5 diagonalized for initial guess.
 HarFok:  IExCor=  402 AccDes= 0.00D+00 IRadAn=         5 IDoV= 1 UseB2=F ITyADJ=14
 ICtDFT=  3500011 ScaDFX=  1.000000  1.000000  1.000000  1.000000
 FoFCou: FMM=F IPFlag=           0 FMFlag=      100000 FMFlg1=           0
         NFxFlg=           0 DoJE=T BraDBF=F KetDBF=T FulRan=T
         wScrn=  0.000000 ICntrl=       500 IOpCl=  0 I1Cent=   200000004 NGrid=           0
         NMat0=    1 NMatS0=      1 NMatT0=    0 NMatD0=    1 NMtDS0=    0 NMtDT0=    0
 Petite list used in FoFCou.
 Initial guess orbital symmetries:
       Occupied  (SG) (SG) (SG) (PI) (PI) (SG)
       Virtual   (SG) (PI) (PI) (SG) (SG) (PI) (PI) (SG) (SG)
 The electronic state of the initial guess is 1-SG.
 Keep R1 ints in memory in symmetry-blocked form, NReq=27614338.
 Requested convergence on RMS density matrix=1.00D-08 within1000 cycles.
 Requested convergence on MAX density matrix=1.00D-06.
 Requested convergence on             energy=1.00D-06.
 No special actions if energy rises.
 SCF Done:  E(RB3LYP) =  -162.851580834     A.U. after    9 cycles
            NFock=  9  Conv=0.96D-08     -V/T= 2.0047

 **********************************************************************

            Population analysis using the SCF Density.

 **********************************************************************

 Orbital symmetries:
       Occupied  (SG) (SG) (PI) (PI) (SG) (SG)
       Virtual   (SG) (PI) (PI) (SG) (SG) (PI) (PI) (SG) (SG)
 The electronic state is 1-SG.
 Alpha  occ. eigenvalues --  -38.48965  -2.23008  -1.16200  -1.16200  -1.15963
 Alpha  occ. eigenvalues --   -0.18632
 Alpha virt. eigenvalues --   -0.05811  -0.00447  -0.00447   0.05926   0.08212
 Alpha virt. eigenvalues --    0.12575   0.12575   0.17427   1.00742
          Condensed to atoms (all electrons):
               1          2
     1  Na  10.423602   0.311458
     2  H    0.311458   0.953482
 Mulliken charges:
               1
     1  Na   0.264940
     2  H   -0.264940
 Sum of Mulliken charges =   0.00000
 Mulliken charges with hydrogens summed into heavy atoms:
               1
     1  Na   0.000000
 Electronic spatial extent (au):  <R**2>=             36.6822
 Charge=              0.0000 electrons
 Dipole moment (field-independent basis, Debye):
    X=              0.0000    Y=              0.0000    Z=              6.0460  Tot=              6.0460
 Quadrupole moment (field-independent basis, Debye-Ang):
   XX=             -9.1586   YY=             -9.1586   ZZ=            -15.3388
   XY=              0.0000   XZ=              0.0000   YZ=              0.0000
 Traceless Quadrupole moment (field-independent basis, Debye-Ang):
   XX=              2.0601   YY=              2.0601   ZZ=             -4.1202
   XY=              0.0000   XZ=              0.0000   YZ=              0.0000
 Octapole moment (field-independent basis, Debye-Ang**2):
  XXX=              0.0000  YYY=              0.0000  ZZZ=             26.5645  XYY=              0.0000
  XXY=              0.0000  XXZ=              5.9702  XZZ=              0.0000  YZZ=              0.0000
  YYZ=              5.9702  XYZ=              0.0000
 Hexadecapole moment (field-independent basis, Debye-Ang**3):
 XXXX=            -21.7000 YYYY=            -21.7000 ZZZZ=            -81.3665 XXXY=              0.0000
 XXXZ=              0.0000 YYYX=              0.0000 YYYZ=              0.0000 ZZZX=              0.0000
 ZZZY=              0.0000 XXYY=             -7.2333 XXZZ=            -15.0641 YYZZ=            -15.0641
 XXYZ=              0.0000 YYXZ=              0.0000 ZZXY=              0.0000
 N-N= 3.084270700914D+00 E-N=-3.966502963389D+02  KE= 1.620915706054D+02
 Symmetry A1   KE= 1.387307694708D+02
 Symmetry A2   KE= 0.000000000000D+00
 Symmetry B1   KE= 1.168040056731D+01
 Symmetry B2   KE= 1.168040056731D+01
 Evaluate density.
 Using the total density.
 Monte-Carlo method of calculating molar volume:
 based on  0.001 e/bohr**3 density envelope.
 Number of points per bohr**3 =   20 CutOff= 1.00D-04
 Using the SCF density.
 There are       541 points.  Will hold       541 in memory.
 LenV=  8321488617 MDV=  8321499136.
 Box volume =19869.627 fraction occupied=0.011
 Integrated density= 4.8855416183349387D+00 error=-7.1144583816650613D+00
 Molar volume =  220.366 bohr**3/mol ( 19.665 cm**3/mol)
 Recommended a0 for SCRF calculation =  2.68 angstrom (  5.07 bohr)
   4 Symmetry operations used in ECPInt.
 ECPInt:  NShTT=      21 NPrTT=     246 LenC2=      22 LenP2D=     237.
 LDataN:  DoStor=T MaxTD1= 3 Len=   28
 Calling FoFJK, ICntrl=      2127 FMM=F ISym2X=1 I1Cent= 0 IOpClX= 0 NMat=1 NMatS=1 NMatT=0.
 ***** Axes restored to original set *****
 -------------------------------------------------------------------
 Center     Atomic                   Forces (Hartrees/Bohr)
 Number     Number              X              Y              Z
 -------------------------------------------------------------------
      1       11           0.000000000    0.000000000   -0.000027322
      2        1           0.000000000    0.000000000    0.000027322
 -------------------------------------------------------------------
 Cartesian Forces:  Max     0.000027322 RMS     0.000015774

 GradGradGradGradGradGradGradGradGradGradGradGradGradGradGradGradGradGrad
 Berny optimization.
 FormGI is forming the generalized inverse of G from B-inverse, IUseBI=4.
 Internal  Forces:  Max     0.000027322 RMS     0.000027322
 Search for a local minimum.
 Step number   1 out of a maximum of   20
 All quantities printed in internal units (Hartrees-Bohrs-Radians)
 Mixed Optimization -- En-DIIS/RFO-DIIS
 Second derivative matrix not updated -- first step.
 The second derivative matrix:
                          R1
           R1           0.07062
 ITU=  0
     Eigenvalues ---    0.07062
 RFO step:  Lambda=-1.05700477D-08 EMin= 7.06234159D-02
 Linear search not attempted -- first point.
 Iteration  1 RMS(Cart)=  0.00027356 RMS(Int)=  0.00000000
 Iteration  2 RMS(Cart)=  0.00000000 RMS(Int)=  0.00000000
 ClnCor:  largest displacement from symmetrization is 0.00D+00 for atom     0.
 Variable       Old X    -DE/DX   Delta X   Delta X   Delta X     New X
                                 (Linear)    (Quad)   (Total)
    R1        3.56648  -0.00003   0.00000  -0.00039  -0.00039   3.56609
         Item               Value     Threshold  Converged?
 Maximum Force            0.000027     0.000450     YES
 RMS     Force            0.000027     0.000300     YES
 Maximum Displacement     0.000193     0.001800     YES
 RMS     Displacement     0.000274     0.001200     YES
 Predicted change in Energy=-5.285025D-09
 Optimization completed.
    -- Stationary point found.
                           ----------------------------
                           !   Optimized Parameters   !
                           ! (Angstroms and Degrees)  !
 --------------------------                            --------------------------
 ! Name  Definition              Value          Derivative Info.                !
 --------------------------------------------------------------------------------
 ! R1    R(1,2)                  1.8873         -DE/DX =    0.0                 !
 --------------------------------------------------------------------------------
 GradGradGradGradGradGradGradGradGradGradGradGradGradGradGradGradGradGrad

                          Input orientation:                          
 ---------------------------------------------------------------------
 Center     Atomic      Atomic             Coordinates (Angstroms)
 Number     Number       Type             X           Y           Z
 ---------------------------------------------------------------------
      1         11           0        0.000000    0.000000    0.157275
      2          1           0        0.000000    0.000000   -1.730023
 ---------------------------------------------------------------------
 Stoichiometry    HNa
 Framework group  C*V[C*(HNa)]
 Deg. of freedom     1
 Full point group                 C*V     NOp   4
 Largest Abelian subgroup         C2V     NOp   4
 Largest concise Abelian subgroup C1      NOp   1
                         Standard orientation:                         
 ---------------------------------------------------------------------
 Center     Atomic      Atomic             Coordinates (Angstroms)
 Number     Number       Type             X           Y           Z
 ---------------------------------------------------------------------
      1         11           0        0.000000    0.000000    0.157275
      2          1           0        0.000000    0.000000   -1.730023
 ---------------------------------------------------------------------
 Rotational constants (GHZ):           0.0000000         146.9549405         146.9549405
 1\1\GINC-IP-172-31-36-226\FOpt\RB3LYP\Gen\H1Na1\UBUNTU\14-Sep-2023\0\\
 # opt freq b3lyp/gen empiricaldispersion=gd3 pseudo=read scf=maxcycle=
 1000 volume\\Title Card Required\\0,1\Na,0.,0.,0.157275\H,0.,0.,-1.730
 023\\Version=EM64L-G16RevB.01\State=1-SG\HF=-162.8515808\RMSD=9.597e-0
 9\RMSF=1.577e-05\Dipole=0.,0.,2.378696\Quadrupole=1.5316158,1.5316158,
 -3.0632316,0.,0.,0.\PG=C*V [C*(H1Na1)]\\@


 IT MATTERS NOT HOW DEEP YOU PLOW,
 BUT HOW LONG YOU STAY IN THE FURROW.
 Job cpu time:       0 days  0 hours  0 minutes 31.8 seconds.
 Elapsed time:       0 days  0 hours  0 minutes  1.0 seconds.
 File lengths (MBytes):  RWF=      6 Int=      0 D2E=      0 Chk=      1 Scr=      1
 Normal termination of Gaussian 16 at Thu Sep 14 07:17:23 2023.
 Link1:  Proceeding to internal job step number  2.
 ------------------------------------------------------------------
 #N Geom=AllCheck Guess=TCheck SCRF=Check GenChk RB3LYP/ChkBas Freq
 ------------------------------------------------------------------
 1/10=4,29=7,30=1,38=1,40=1/1,3;
 2/12=2,40=1/2;
 3/5=7,6=2,11=2,14=-4,16=1,17=8,25=1,30=1,67=1,70=2,71=2,74=-5,82=7,116=1,124=31,140=1/1,2,3;
 4/5=101/1;
 5/5=2,7=1000,38=6,98=1/2;
 8/6=4,10=90,11=11/1;
 11/6=1,8=1,9=11,15=111,16=1/1,2,10;
 10/6=1/2;
 6/7=2,8=2,9=2,10=2,28=1/1;
 7/8=1,10=1,25=1/1,2,3,16;
 1/10=4,30=1/3;
 99//99;
 Structure from the checkpoint file:  "Nah-vol.chk"
 -------------------
 Title Card Required
 -------------------
 Charge =  0 Multiplicity = 1
 Redundant internal coordinates found in file.  (old form).
 Na,0,0.,0.,0.157275
 H,0,0.,0.,-1.730023
 Recover connectivity data from disk.

 GradGradGradGradGradGradGradGradGradGradGradGradGradGradGradGradGradGrad
 Berny optimization.
 Initialization pass.
                           ----------------------------
                           !    Initial Parameters    !
                           ! (Angstroms and Degrees)  !
 --------------------------                            --------------------------
 ! Name  Definition              Value          Derivative Info.                !
 --------------------------------------------------------------------------------
 ! R1    R(1,2)                  1.8873         calculate D2E/DX2 analytically  !
 --------------------------------------------------------------------------------
 Trust Radius=3.00D-01 FncErr=1.00D-07 GrdErr=1.00D-07 EigMax=2.50D+02 EigMin=1.00D-04
 Number of steps in this run=      2 maximum allowed number of steps=      2.
 GradGradGradGradGradGradGradGradGradGradGradGradGradGradGradGradGradGrad

                          Input orientation:                          
 ---------------------------------------------------------------------
 Center     Atomic      Atomic             Coordinates (Angstroms)
 Number     Number       Type             X           Y           Z
 ---------------------------------------------------------------------
      1         11           0        0.000000    0.000000    0.157275
      2          1           0        0.000000    0.000000   -1.730023
 ---------------------------------------------------------------------
 Stoichiometry    HNa
 Framework group  C*V[C*(HNa)]
 Deg. of freedom     1
 Full point group                 C*V     NOp   4
 Largest Abelian subgroup         C2V     NOp   4
 Largest concise Abelian subgroup C1      NOp   1
                         Standard orientation:                         
 ---------------------------------------------------------------------
 Center     Atomic      Atomic             Coordinates (Angstroms)
 Number     Number       Type             X           Y           Z
 ---------------------------------------------------------------------
      1         11           0        0.000000    0.000000    0.157275
      2          1           0        0.000000    0.000000   -1.730023
 ---------------------------------------------------------------------
 Rotational constants (GHZ):           0.0000000         146.9549405         146.9549405
 Basis read from chk: "Nah-vol.chk" (5D, 7F)
 Pseudo-potential data read from chk file.
 There are     9 symmetry adapted cartesian basis functions of A1  symmetry.
 There are     0 symmetry adapted cartesian basis functions of A2  symmetry.
 There are     3 symmetry adapted cartesian basis functions of B1  symmetry.
 There are     3 symmetry adapted cartesian basis functions of B2  symmetry.
 There are     9 symmetry adapted basis functions of A1  symmetry.
 There are     0 symmetry adapted basis functions of A2  symmetry.
 There are     3 symmetry adapted basis functions of B1  symmetry.
 There are     3 symmetry adapted basis functions of B2  symmetry.
    15 basis functions,    50 primitive gaussians,    15 cartesian basis functions
     6 alpha electrons        6 beta electrons
       nuclear repulsion energy         3.0842767386 Hartrees.
 NAtoms=    2 NActive=    2 NUniq=    2 SFac= 1.00D+00 NAtFMM=   60 NAOKFM=F Big=F
 Integral buffers will be    131072 words long.
 Raffenetti 2 integral format.
 Two-electron integral symmetry is turned on.
 Nuclear repulsion after empirical dispersion term =        3.0842707009 Hartrees.
 One-electron integrals computed using PRISM.
   4 Symmetry operations used in ECPInt.
 ECPInt:  NShTT=      21 NPrTT=     246 LenC2=      22 LenP2D=     237.
 LDataN:  DoStor=T MaxTD1= 2 Len=   12
 NBasis=    15 RedAO= T EigKep=  1.12D-01  NBF=     9     0     3     3
 NBsUse=    15 1.00D-06 EigRej= -1.00D+00 NBFU=     9     0     3     3
 Initial guess from the checkpoint file:  "Nah-vol.chk"
 B after Tr=     0.000000    0.000000    0.000000
         Rot=    1.000000    0.000000    0.000000    0.000000 Ang=   0.00 deg.
 Initial guess orbital symmetries:
       Occupied  (SG) (SG) (PI) (PI) (SG) (SG)
       Virtual   (SG) (PI) (PI) (SG) (SG) (PI) (PI) (SG) (SG)
 Keep R1 ints in memory in symmetry-blocked form, NReq=27614338.
 Requested convergence on RMS density matrix=1.00D-08 within1000 cycles.
 Requested convergence on MAX density matrix=1.00D-06.
 Requested convergence on             energy=1.00D-06.
 No special actions if energy rises.
 Skip diagonalization as Alpha Fock matrix is already diagonal.
 SCF Done:  E(RB3LYP) =  -162.851580834     A.U. after    1 cycles
            NFock=  1  Conv=0.00D+00     -V/T= 2.0047
 DoSCS=F DFT=T ScalE2(SS,OS)=  1.000000  1.000000
 Range of M.O.s used for correlation:     1    15
 NBasis=    15 NAE=     6 NBE=     6 NFC=     0 NFV=     0
 NROrb=     15 NOA=     6 NOB=     6 NVA=     9 NVB=     9
   4 Symmetry operations used in ECPInt.
 ECPInt:  NShTT=      21 NPrTT=     246 LenC2=      22 LenP2D=     237.
 LDataN:  DoStor=T MaxTD1= 3 Len=   28
 Symmetrizing basis deriv contribution to polar:
 IMax=3 JMax=2 DiffMx= 0.00D+00
 G2DrvN: will do     3 centers at a time, making    1 passes.
 Calling FoFCou, ICntrl=  3107 FMM=F I1Cent=   0 AccDes= 0.00D+00.
 End of G2Drv F.D. properties file   721 does not exist.
 End of G2Drv F.D. properties file   722 does not exist.
 End of G2Drv F.D. properties file   788 does not exist.
          IDoAtm=11
          Differentiating once with respect to electric field.
                with respect to dipole field.
          Differentiating once with respect to nuclear coordinates.
 Keep R1 ints in memory in symmetry-blocked form, NReq=27504022.
          There are     9 degrees of freedom in the 1st order CPHF.  IDoFFX=6 NUNeed=     3.
      6 vectors produced by pass  0 Test12= 6.00D-16 1.11D-08 XBig12= 1.13D+02 1.03D+01.
 AX will form     6 AO Fock derivatives at one time.
      6 vectors produced by pass  1 Test12= 6.00D-16 1.11D-08 XBig12= 9.58D-01 6.92D-01.
      6 vectors produced by pass  2 Test12= 6.00D-16 1.11D-08 XBig12= 8.50D-04 1.73D-02.
      4 vectors produced by pass  3 Test12= 6.00D-16 1.11D-08 XBig12= 4.54D-07 3.38D-04.
      3 vectors produced by pass  4 Test12= 6.00D-16 1.11D-08 XBig12= 7.37D-11 3.70D-06.
      1 vectors produced by pass  5 Test12= 6.00D-16 1.11D-08 XBig12= 1.41D-14 6.43D-08.
 InvSVY:  IOpt=1 It=  1 EMax= 2.22D-16
 Solved reduced A of dimension    26 with     6 vectors.
 Isotropic polarizability for W=    0.000000       41.64 Bohr**3.
 End of Minotr F.D. properties file   721 does not exist.
 End of Minotr F.D. properties file   722 does not exist.
 End of Minotr F.D. properties file   788 does not exist.

 **********************************************************************

            Population analysis using the SCF Density.

 **********************************************************************

 Orbital symmetries:
       Occupied  (SG) (SG) (PI) (PI) (SG) (SG)
       Virtual   (SG) (PI) (PI) (SG) (SG) (PI) (PI) (SG) (SG)
 The electronic state is 1-SG.
 Alpha  occ. eigenvalues --  -38.48965  -2.23008  -1.16200  -1.16200  -1.15963
 Alpha  occ. eigenvalues --   -0.18632
 Alpha virt. eigenvalues --   -0.05811  -0.00447  -0.00447   0.05926   0.08212
 Alpha virt. eigenvalues --    0.12575   0.12575   0.17427   1.00742
          Condensed to atoms (all electrons):
               1          2
     1  Na  10.423602   0.311458
     2  H    0.311458   0.953482
 Mulliken charges:
               1
     1  Na   0.264940
     2  H   -0.264940
 Sum of Mulliken charges =   0.00000
 Mulliken charges with hydrogens summed into heavy atoms:
               1
     1  Na   0.000000
 APT charges:
               1
     1  Na   0.575705
     2  H   -0.575705
 Sum of APT charges =   0.00000
 APT charges with hydrogens summed into heavy atoms:
               1
     1  Na   0.000000
 Electronic spatial extent (au):  <R**2>=             36.6822
 Charge=              0.0000 electrons
 Dipole moment (field-independent basis, Debye):
    X=              0.0000    Y=              0.0000    Z=              6.0460  Tot=              6.0460
 Quadrupole moment (field-independent basis, Debye-Ang):
   XX=             -9.1586   YY=             -9.1586   ZZ=            -15.3388
   XY=              0.0000   XZ=              0.0000   YZ=              0.0000
 Traceless Quadrupole moment (field-independent basis, Debye-Ang):
   XX=              2.0601   YY=              2.0601   ZZ=             -4.1202
   XY=              0.0000   XZ=              0.0000   YZ=              0.0000
 Octapole moment (field-independent basis, Debye-Ang**2):
  XXX=              0.0000  YYY=              0.0000  ZZZ=             26.5645  XYY=              0.0000
  XXY=              0.0000  XXZ=              5.9702  XZZ=              0.0000  YZZ=              0.0000
  YYZ=              5.9702  XYZ=              0.0000
 Hexadecapole moment (field-independent basis, Debye-Ang**3):
 XXXX=            -21.7000 YYYY=            -21.7000 ZZZZ=            -81.3665 XXXY=              0.0000
 XXXZ=              0.0000 YYYX=              0.0000 YYYZ=              0.0000 ZZZX=              0.0000
 ZZZY=              0.0000 XXYY=             -7.2333 XXZZ=            -15.0641 YYZZ=            -15.0641
 XXYZ=              0.0000 YYXZ=              0.0000 ZZXY=              0.0000
 N-N= 3.084270700914D+00 E-N=-3.966502963389D+02  KE= 1.620915706054D+02
 Symmetry A1   KE= 1.387307694708D+02
 Symmetry A2   KE= 0.000000000000D+00
 Symmetry B1   KE= 1.168040056731D+01
 Symmetry B2   KE= 1.168040056731D+01
  Exact polarizability:  38.318   0.000  38.318   0.000   0.000  48.278
 Approx polarizability:  34.711   0.000  34.711   0.000   0.000  62.908
   4 Symmetry operations used in ECPInt.
 ECPInt:  NShTT=      21 NPrTT=     246 LenC2=      22 LenP2D=     237.
 LDataN:  DoStor=T MaxTD1= 4 Len=   56
 Calling FoFJK, ICntrl=    100127 FMM=F ISym2X=1 I1Cent= 0 IOpClX= 0 NMat=1 NMatS=1 NMatT=0.
 Full mass-weighted force constant matrix:
 Low frequencies ---    0.0025    0.0033    0.0033   17.3187   17.3187 1168.3061
 Diagonal vibrational polarizability:
        0.0000000       0.0000000       3.0817470
 Harmonic frequencies (cm**-1), IR intensities (KM/Mole), Raman scattering
 activities (A**4/AMU), depolarization ratios for plane and unpolarized
 incident light, reduced masses (AMU), force constants (mDyne/A),
 and normal coordinates:
                      1
                     SG
 Frequencies --   1168.3061
 Red. masses --      1.0500
 Frc consts  --      0.8444
 IR Inten    --    156.3065
  Atom  AN      X      Y      Z
     1  11     0.00   0.00  -0.04
     2   1     0.00   0.00   1.00

 -------------------
 - Thermochemistry -
 -------------------
 Temperature   298.150 Kelvin.  Pressure   1.00000 Atm.
 Atom     1 has atomic number 11 and mass  22.98977
 Atom     2 has atomic number  1 and mass   1.00783
 Molecular mass:    23.99759 amu.
 Principal axes and moments of inertia in atomic units:
                           1         2         3
     Eigenvalues --     0.00000  12.28092  12.28092
           X            0.00000   0.00000   1.00000
           Y            0.00000   1.00000   0.00000
           Z            1.00000   0.00000   0.00000
 This molecule is a prolate symmetric top.
 Rotational symmetry number  1.
 Rotational temperature (Kelvin)      7.05273
 Rotational constant (GHZ):         146.954940
 Zero-point vibrational energy       6988.0 (Joules/Mol)
                                    1.67018 (Kcal/Mol)
 Vibrational temperatures:   1680.93
          (Kelvin)
 
 Zero-point correction=                           0.002662 (Hartree/Particle)
 Thermal correction to Energy=                    0.005041
 Thermal correction to Enthalpy=                  0.005985
 Thermal correction to Gibbs Free Energy=        -0.015366
 Sum of electronic and zero-point Energies=           -162.848919
 Sum of electronic and thermal Energies=              -162.846540
 Sum of electronic and thermal Enthalpies=            -162.845596
 Sum of electronic and thermal Free Energies=         -162.866947
 
                     E (Thermal)             CV                S
                      KCal/Mol        Cal/Mol-Kelvin    Cal/Mol-Kelvin
 Total                    3.163              5.195             44.939
 Electronic               0.000              0.000              0.000
 Translational            0.889              2.981             35.464
 Rotational               0.592              1.987              9.428
 Vibrational              1.682              0.227              0.047
                       Q            Log10(Q)             Ln(Q)
 Total Bot       0.116972D+08          7.068084         16.274864
 Total V=0       0.196034D+09          8.292332         19.093801
 Vib (Bot)       0.598826D-01         -1.222700         -2.815370
 Vib (V=0)       0.100357D+01          0.001549          0.003567
 Electronic      0.100000D+01          0.000000          0.000000
 Translational   0.462068D+07          6.664705         15.346051
 Rotational      0.422744D+02          1.626078          3.744183
 ***** Axes restored to original set *****
 -------------------------------------------------------------------
 Center     Atomic                   Forces (Hartrees/Bohr)
 Number     Number              X              Y              Z
 -------------------------------------------------------------------
      1       11           0.000000000    0.000000000   -0.000027322
      2        1           0.000000000    0.000000000    0.000027322
 -------------------------------------------------------------------
 Cartesian Forces:  Max     0.000027322 RMS     0.000015774
 FormGI is forming the generalized inverse of G from B-inverse, IUseBI=4.

 GradGradGradGradGradGradGradGradGradGradGradGradGradGradGradGradGradGrad
 Berny optimization.
 Internal  Forces:  Max     0.000027322 RMS     0.000027322
 Search for a local minimum.
 Step number   1 out of a maximum of    2
 All quantities printed in internal units (Hartrees-Bohrs-Radians)
 Second derivative matrix not updated -- analytic derivatives used.
 The second derivative matrix:
                          R1
           R1           0.04987
 ITU=  0
     Eigenvalues ---    0.04987
 Angle between quadratic step and forces=   0.00 degrees.
 Linear search not attempted -- first point.
 Iteration  1 RMS(Cart)=  0.00038738 RMS(Int)=  0.00000000
 Iteration  2 RMS(Cart)=  0.00000000 RMS(Int)=  0.00000000
 ClnCor:  largest displacement from symmetrization is 0.00D+00 for atom     0.
 Variable       Old X    -DE/DX   Delta X   Delta X   Delta X     New X
                                 (Linear)    (Quad)   (Total)
    R1        3.56648  -0.00003   0.00000  -0.00055  -0.00055   3.56593
         Item               Value     Threshold  Converged?
 Maximum Force            0.000027     0.000450     YES
 RMS     Force            0.000027     0.000300     YES
 Maximum Displacement     0.000274     0.001800     YES
 RMS     Displacement     0.000387     0.001200     YES
 Predicted change in Energy=-7.484110D-09
 Optimization completed.
    -- Stationary point found.
                           ----------------------------
                           !   Optimized Parameters   !
                           ! (Angstroms and Degrees)  !
 --------------------------                            --------------------------
 ! Name  Definition              Value          Derivative Info.                !
 --------------------------------------------------------------------------------
 ! R1    R(1,2)                  1.8873         -DE/DX =    0.0                 !
 --------------------------------------------------------------------------------
 GradGradGradGradGradGradGradGradGradGradGradGradGradGradGradGradGradGrad


 ----------------------------------------------------------------------

 Electric dipole moment (input orientation):
 (Debye = 10**-18 statcoulomb cm , SI units = C m)
                  (au)            (Debye)         (10**-30 SI)
   Tot        0.237870D+01      0.604604D+01      0.201674D+02
   x          0.000000D+00      0.000000D+00      0.000000D+00
   y          0.000000D+00      0.000000D+00      0.000000D+00
   z          0.237870D+01      0.604604D+01      0.201674D+02

 Dipole polarizability, Alpha (input orientation).
 (esu units = cm**3 , SI units = C**2 m**2 J**-1)
 Alpha(0;0):
               (au)            (10**-24 esu)      (10**-40 SI)
   iso        0.416379D+02      0.617010D+01      0.686517D+01
   aniso      0.995978D+01      0.147589D+01      0.164215D+01
   xx         0.383180D+02      0.567814D+01      0.631778D+01
   yx         0.000000D+00      0.000000D+00      0.000000D+00
   yy         0.383180D+02      0.567814D+01      0.631778D+01
   zx         0.000000D+00      0.000000D+00      0.000000D+00
   zy         0.000000D+00      0.000000D+00      0.000000D+00
   zz         0.482778D+02      0.715403D+01      0.795993D+01

 ----------------------------------------------------------------------

 Dipole orientation:
    11          0.00000000          0.00000000          0.29720668
     1          0.00000000          0.00000000         -3.26926966

 Electric dipole moment (dipole orientation):
 (Debye = 10**-18 statcoulomb cm , SI units = C m)
                  (au)            (Debye)         (10**-30 SI)
   Tot        0.237870D+01      0.604604D+01      0.201674D+02
   x          0.000000D+00      0.000000D+00      0.000000D+00
   y          0.000000D+00      0.000000D+00      0.000000D+00
   z          0.237870D+01      0.604604D+01      0.201674D+02

 Dipole polarizability, Alpha (dipole orientation).
 (esu units = cm**3 , SI units = C**2 m**2 J**-1)
 Alpha(0;0):
               (au)            (10**-24 esu)      (10**-40 SI)
   iso        0.416379D+02      0.617010D+01      0.686517D+01
   aniso      0.995978D+01      0.147589D+01      0.164215D+01
   xx         0.383180D+02      0.567814D+01      0.631778D+01
   yx         0.000000D+00      0.000000D+00      0.000000D+00
   yy         0.383180D+02      0.567814D+01      0.631778D+01
   zx         0.000000D+00      0.000000D+00      0.000000D+00
   zy         0.000000D+00      0.000000D+00      0.000000D+00
   zz         0.482778D+02      0.715403D+01      0.795993D+01

 ----------------------------------------------------------------------
 1\1\GINC-IP-172-31-36-226\Freq\RB3LYP\Gen\H1Na1\UBUNTU\14-Sep-2023\0\\
 #N Geom=AllCheck Guess=TCheck SCRF=Check GenChk RB3LYP/ChkBas Freq\\Ti
 tle Card Required\\0,1\Na,0.,0.,0.157275\H,0.,0.,-1.730023\\Version=EM
 64L-G16RevB.01\State=1-SG\HF=-162.8515808\RMSD=0.000e+00\RMSF=1.577e-0
 5\ZeroPoint=0.0026616\Thermal=0.0050411\Dipole=0.,0.,2.378696\DipoleDe
 riv=0.6668334,0.,0.,0.,0.6668334,0.,0.,0.,0.3934495,-0.6668334,0.,0.,0
 .,-0.6668334,0.,0.,0.,-0.3934495\Polar=38.3179991,0.,38.3179991,0.,0.,
 48.277777\Quadrupole=1.5316158,1.5316158,-3.0632316,0.,0.,0.\PG=C*V [C
 *(H1Na1)]\NImag=0\\0.00001096,0.,0.00001096,0.,0.,0.04987200,-0.000010
 96,0.,0.,0.00001096,0.,-0.00001096,0.,0.,0.00001096,0.,0.,-0.04987200,
 0.,0.,0.04987200\\0.,0.,0.00002732,0.,0.,-0.00002732\\\@


 We're simply so accustomed to the marvels of everyday thought
 that we never wonder about it.
 -- Marvin Minsky in "Why people think computers are smart"
 Job cpu time:       0 days  0 hours  0 minutes 39.7 seconds.
 Elapsed time:       0 days  0 hours  0 minutes  1.3 seconds.
 File lengths (MBytes):  RWF=      6 Int=      0 D2E=      0 Chk=      1 Scr=      1
 Normal termination of Gaussian 16 at Thu Sep 14 07:17:24 2023.
