 Entering Gaussian System, Link 0=g16
 Input=/home/ubuntu/Downloads/K2CO3-SDD-vol.gjf
 Output=/home/ubuntu/Downloads/K2CO3-SDD-vol.log
 Initial command:
 /home/ubuntu/g16/l1.exe "/home/ubuntu/Scratch/Gau-48702.inp" -scrdir="/home/ubuntu/Scratch/"
 Entering Link 1 = /home/ubuntu/g16/l1.exe PID=     48706.
  
 Copyright (c) 1988-2017, Gaussian, Inc.  All Rights Reserved.
  
 This is part of the Gaussian(R) 16 program.  It is based on
 the Gaussian(R) 09 system (copyright 2009, Gaussian, Inc.),
 the Gaussian(R) 03 system (copyright 2003, Gaussian, Inc.),
 the Gaussian(R) 98 system (copyright 1998, Gaussian, Inc.),
 the Gaussian(R) 94 system (copyright 1995, Gaussian, Inc.),
 the Gaussian 92(TM) system (copyright 1992, Gaussian, Inc.),
 the Gaussian 90(TM) system (copyright 1990, Gaussian, Inc.),
 the Gaussian 88(TM) system (copyright 1988, Gaussian, Inc.),
 the Gaussian 86(TM) system (copyright 1986, Carnegie Mellon
 University), and the Gaussian 82(TM) system (copyright 1983,
 Carnegie Mellon University). Gaussian is a federally registered
 trademark of Gaussian, Inc.
  
 This software contains proprietary and confidential information,
 including trade secrets, belonging to Gaussian, Inc.
  
 This software is provided under written license and may be
 used, copied, transmitted, or stored only in accord with that
 written license.
  
 The following legend is applicable only to US Government
 contracts under FAR:
  
                    RESTRICTED RIGHTS LEGEND
  
 Use, reproduction and disclosure by the US Government is
 subject to restrictions as set forth in subparagraphs (a)
 and (c) of the Commercial Computer Software - Restricted
 Rights clause in FAR 52.227-19.
  
 Gaussian, Inc.
 340 Quinnipiac St., Bldg. 40, Wallingford CT 06492
  
  
 ---------------------------------------------------------------
 Warning -- This program may not be used in any manner that
 competes with the business of Gaussian, Inc. or will provide
 assistance to any competitor of Gaussian, Inc.  The licensee
 of this program is prohibited from giving any competitor of
 Gaussian, Inc. access to this program.  By using this program,
 the user acknowledges that Gaussian, Inc. is engaged in the
 business of creating and licensing software in the field of
 computational chemistry and represents and warrants to the
 licensee that it is not a competitor of Gaussian, Inc. and that
 it will not use this program in any manner prohibited above.
 ---------------------------------------------------------------
  

 Cite this work as:
 Gaussian 16, Revision B.01,
 M. J. Frisch, G. W. Trucks, H. B. Schlegel, G. E. Scuseria, 
 M. A. Robb, J. R. Cheeseman, G. Scalmani, V. Barone, 
 G. A. Petersson, H. Nakatsuji, X. Li, M. Caricato, A. V. Marenich, 
 J. Bloino, B. G. Janesko, R. Gomperts, B. Mennucci, H. P. Hratchian, 
 J. V. Ortiz, A. F. Izmaylov, J. L. Sonnenberg, D. Williams-Young, 
 F. Ding, F. Lipparini, F. Egidi, J. Goings, B. Peng, A. Petrone, 
 T. Henderson, D. Ranasinghe, V. G. Zakrzewski, J. Gao, N. Rega, 
 G. Zheng, W. Liang, M. Hada, M. Ehara, K. Toyota, R. Fukuda, 
 J. Hasegawa, M. Ishida, T. Nakajima, Y. Honda, O. Kitao, H. Nakai, 
 T. Vreven, K. Throssell, J. A. Montgomery, Jr., J. E. Peralta, 
 F. Ogliaro, M. J. Bearpark, J. J. Heyd, E. N. Brothers, K. N. Kudin, 
 V. N. Staroverov, T. A. Keith, R. Kobayashi, J. Normand, 
 K. Raghavachari, A. P. Rendell, J. C. Burant, S. S. Iyengar, 
 J. Tomasi, M. Cossi, J. M. Millam, M. Klene, C. Adamo, R. Cammi, 
 J. W. Ochterski, R. L. Martin, K. Morokuma, O. Farkas, 
 J. B. Foresman, and D. J. Fox, Gaussian, Inc., Wallingford CT, 2016.
 
 ******************************************
 Gaussian 16:  EM64L-G16RevB.01 20-Dec-2017
                13-Sep-2023 
 ******************************************
 %nprocshared=32
 Will use up to   32 processors via shared memory.
 %mem=62GB
 %chk=K2CO3-SDD-vol.chk
 ----------------------------------------------------------------------
 # opt freq b3lyp/gen empiricaldispersion=gd3 pseudo=read scf=maxcycle=
 1000 volume
 ----------------------------------------------------------------------
 1/18=20,19=15,26=3,38=1/1,3;
 2/9=110,12=2,17=6,18=5,40=1/2;
 3/5=7,11=2,16=1,17=8,25=1,30=1,71=1,74=-5,124=31/1,2,3;
 4//1;
 5/5=2,7=1000,38=5/2;
 6/7=2,8=2,9=2,10=2,28=1,44=1/1,4;
 7//1,2,3,16;
 1/18=20,19=15,26=3/3(2);
 2/9=110/2;
 99//99;
 2/9=110/2;
 3/5=7,6=1,11=2,16=1,17=8,25=1,30=1,71=1,74=-5,82=7,124=31/1,2,3;
 4/5=5,16=3,69=1/1;
 5/5=2,7=1000,38=5/2;
 7//1,2,3,16;
 1/18=20,19=15,26=3/3(-5);
 2/9=110/2;
 6/7=2,8=2,9=2,10=2,19=2,28=1,44=1/1,4;
 99/9=1/99;
 -------------------
 Title Card Required
 -------------------
 Symbolic Z-matrix:
 Charge =  0 Multiplicity = 1
 C                     0.        0.       -0.825 
 O                     0.        1.13     -1.4361 
 O                     0.        0.        0.52913 
 O                     0.       -1.13     -1.4361 
 K                     0.        2.55729   0.62354 
 K                     0.       -2.55729   0.62354 
 

 GradGradGradGradGradGradGradGradGradGradGradGradGradGradGradGradGradGrad
 Berny optimization.
 Initialization pass.
                           ----------------------------
                           !    Initial Parameters    !
                           ! (Angstroms and Degrees)  !
 --------------------------                            --------------------------
 ! Name  Definition              Value          Derivative Info.                !
 --------------------------------------------------------------------------------
 ! R1    R(1,2)                  1.2847         estimate D2E/DX2                !
 ! R2    R(1,3)                  1.3541         estimate D2E/DX2                !
 ! R3    R(1,4)                  1.2847         estimate D2E/DX2                !
 ! R4    R(1,5)                  2.939          estimate D2E/DX2                !
 ! R5    R(1,6)                  2.939          estimate D2E/DX2                !
 ! R6    R(2,5)                  2.5058         estimate D2E/DX2                !
 ! R7    R(3,5)                  2.559          estimate D2E/DX2                !
 ! R8    R(3,6)                  2.559          estimate D2E/DX2                !
 ! R9    R(4,6)                  2.5058         estimate D2E/DX2                !
 ! A1    A(2,1,3)              118.4041         estimate D2E/DX2                !
 ! A2    A(2,1,4)              123.1918         estimate D2E/DX2                !
 ! A3    A(3,1,4)              118.4041         estimate D2E/DX2                !
 ! A4    A(5,1,6)              120.9423         estimate D2E/DX2                !
 ! A5    A(2,5,3)               53.1645         estimate D2E/DX2                !
 ! A6    A(3,6,4)               53.1645         estimate D2E/DX2                !
 ! A7    L(2,1,6,3,-1)         178.8753         estimate D2E/DX2                !
 ! A8    L(4,1,5,3,-1)         178.8753         estimate D2E/DX2                !
 ! A9    L(5,3,6,1,-1)         184.2285         estimate D2E/DX2                !
 ! A10   L(2,1,6,3,-2)         180.0            estimate D2E/DX2                !
 ! A11   L(4,1,5,3,-2)         180.0            estimate D2E/DX2                !
 ! A12   L(5,3,6,1,-2)         180.0            estimate D2E/DX2                !
 ! D1    D(2,1,3,4)            180.0            estimate D2E/DX2                !
 ! D2    D(2,1,3,5)              0.0            estimate D2E/DX2                !
 ! D3    D(2,1,3,6)            180.0            estimate D2E/DX2                !
 ! D4    D(2,1,4,6)            180.0            estimate D2E/DX2                !
 ! D5    D(2,1,5,6)            180.0            estimate D2E/DX2                !
 ! D6    D(1,2,5,4)              0.0            estimate D2E/DX2                !
 ! D7    D(4,3,6,1)              0.0            estimate D2E/DX2                !
 ! D8    D(2,5,6,4)              0.0            estimate D2E/DX2                !
 --------------------------------------------------------------------------------
 Trust Radius=3.00D-01 FncErr=1.00D-07 GrdErr=1.00D-06 EigMax=2.50D+02 EigMin=1.00D-04
 Number of steps in this run=     39 maximum allowed number of steps=    100.
 GradGradGradGradGradGradGradGradGradGradGradGradGradGradGradGradGradGrad

                          Input orientation:                          
 ---------------------------------------------------------------------
 Center     Atomic      Atomic             Coordinates (Angstroms)
 Number     Number       Type             X           Y           Z
 ---------------------------------------------------------------------
      1          6           0        0.000000    0.000000   -0.825004
      2          8           0        0.000000    1.129999   -1.436097
      3          8           0        0.000000    0.000000    0.529131
      4          8           0        0.000000   -1.129999   -1.436097
      5         19           0        0.000000    2.557287    0.623540
      6         19           0        0.000000   -2.557287    0.623540
 ---------------------------------------------------------------------
                    Distance matrix (angstroms):
                    1          2          3          4          5
     1  C    0.000000
     2  O    1.284653   0.000000
     3  O    1.354135   2.266940   0.000000
     4  O    1.284653   2.259998   2.266940   0.000000
     5  K    2.939047   2.505844   2.559029   4.223527   0.000000
     6  K    2.939047   4.223527   2.559029   2.505844   5.114574
                    6
     6  K    0.000000
 Stoichiometry    CK2O3
 Framework group  C2V[C2(CO),SGV(K2O2)]
 Deg. of freedom     5
 Full point group                 C2V     NOp   4
 Largest Abelian subgroup         C2V     NOp   4
 Largest concise Abelian subgroup C2      NOp   2
                         Standard orientation:                         
 ---------------------------------------------------------------------
 Center     Atomic      Atomic             Coordinates (Angstroms)
 Number     Number       Type             X           Y           Z
 ---------------------------------------------------------------------
      1          6           0        0.000000    0.000000   -0.825004
      2          8           0        0.000000    1.129999   -1.436097
      3          8           0        0.000000    0.000000    0.529131
      4          8           0        0.000000   -1.129999   -1.436097
      5         19           0        0.000000    2.557287    0.623540
      6         19           0        0.000000   -2.557287    0.623540
 ---------------------------------------------------------------------
 Rotational constants (GHZ):           4.6403999           0.9180848           0.7664464
 General basis read from cards:  (5D, 7F)
 ======================================================================================================
                                       Pseudopotential Parameters
 ======================================================================================================
  Center     Atomic      Valence      Angular      Power
  Number     Number     Electrons     Momentum     of R      Exponent        Coefficient   SO-Coeffient
 ======================================================================================================
    1          6
                                   No pseudopotential on this center.
    2          8
                                   No pseudopotential on this center.
    3          8
                                   No pseudopotential on this center.
    4          8
                                   No pseudopotential on this center.
    5         19            9
                                      G and up 
                                                     2        1.0000000        0.00000000    0.00000000
                                      S - G
                                                     2        6.8438070       92.25263900    0.00000000
                                      P - G
                                                     2        4.2178570       23.49803500    0.00000000
                                      D - G
                                                     2        6.4975370       -7.31542000    0.00000000
                                      F - G
                                                     2        6.1236130       -3.85832000    0.00000000
    6         19            9
                                      G and up 
                                                     2        1.0000000        0.00000000    0.00000000
                                      S - G
                                                     2        6.8438070       92.25263900    0.00000000
                                      P - G
                                                     2        4.2178570       23.49803500    0.00000000
                                      D - G
                                                     2        6.4975370       -7.31542000    0.00000000
                                      F - G
                                                     2        6.1236130       -3.85832000    0.00000000
 ======================================================================================================
 There are    47 symmetry adapted cartesian basis functions of A1  symmetry.
 There are    11 symmetry adapted cartesian basis functions of A2  symmetry.
 There are    17 symmetry adapted cartesian basis functions of B1  symmetry.
 There are    35 symmetry adapted cartesian basis functions of B2  symmetry.
 There are    44 symmetry adapted basis functions of A1  symmetry.
 There are    11 symmetry adapted basis functions of A2  symmetry.
 There are    17 symmetry adapted basis functions of B1  symmetry.
 There are    34 symmetry adapted basis functions of B2  symmetry.
   106 basis functions,   178 primitive gaussians,   110 cartesian basis functions
    24 alpha electrons       24 beta electrons
       nuclear repulsion energy       209.2224681923 Hartrees.
 NAtoms=    6 NActive=    6 NUniq=    4 SFac= 2.25D+00 NAtFMM=   60 NAOKFM=F Big=F
 Integral buffers will be    131072 words long.
 Raffenetti 2 integral format.
 Two-electron integral symmetry is turned on.
 Nuclear repulsion after empirical dispersion term =      209.2182071484 Hartrees.
 One-electron integrals computed using PRISM.
   4 Symmetry operations used in ECPInt.
 ECPInt:  NShTT=     741 NPrTT=    2859 LenC2=     739 LenP2D=    2375.
 LDataN:  DoStor=T MaxTD1= 6 Len=  172
 NBasis=   106 RedAO= T EigKep=  2.17D-03  NBF=    44    11    17    34
 NBsUse=   106 1.00D-06 EigRej= -1.00D+00 NBFU=    44    11    17    34
 ExpMin= 1.65D-02 ExpMax= 5.48D+03 ExpMxC= 8.25D+02 IAcc=3 IRadAn=         5 AccDes= 0.00D+00
 Harris functional with IExCor=  402 and IRadAn=       5 diagonalized for initial guess.
 HarFok:  IExCor=  402 AccDes= 0.00D+00 IRadAn=         5 IDoV= 1 UseB2=F ITyADJ=14
 ICtDFT=  3500011 ScaDFX=  1.000000  1.000000  1.000000  1.000000
 FoFCou: FMM=F IPFlag=           0 FMFlag=      100000 FMFlg1=           0
         NFxFlg=           0 DoJE=T BraDBF=F KetDBF=T FulRan=T
         wScrn=  0.000000 ICntrl=       500 IOpCl=  0 I1Cent=   200000004 NGrid=           0
         NMat0=    1 NMatS0=      1 NMatT0=    0 NMatD0=    1 NMtDS0=    0 NMtDT0=    0
 Petite list used in FoFCou.
 Initial guess orbital symmetries:
       Occupied  (A1) (B2) (A1) (A1) (A1) (B2) (A1) (B2) (A1) (B2)
                 (A1) (B2) (A1) (B1) (A2) (A1) (A1) (B2) (B1) (B2)
                 (B1) (A1) (A2) (B2)
       Virtual   (B1) (A1) (B2) (B1) (A1) (A1) (A2) (B2) (B2) (A1)
                 (B2) (A1) (B1) (A1) (B2) (A1) (B1) (A1) (A2) (B2)
                 (A1) (B2) (B1) (A1) (B2) (A2) (A1) (A1) (B1) (A1)
                 (B2) (A1) (B2) (B2) (A1) (B2) (B1) (B2) (A1) (A1)
                 (B2) (B1) (A2) (A1) (A1) (B2) (A1) (B2) (B1) (A1)
                 (B2) (B1) (A2) (A2) (B1) (A1) (A1) (B2) (B2) (A1)
                 (A1) (A1) (A2) (B2) (B1) (A2) (B2) (A1) (B2) (A1)
                 (B2) (B1) (A1) (B1) (A2) (A1) (B2) (A1) (B2) (A1)
                 (A1) (B2)
 The electronic state of the initial guess is 1-A1.
 Keep R1 ints in memory in symmetry-blocked form, NReq=46015420.
 Requested convergence on RMS density matrix=1.00D-08 within1000 cycles.
 Requested convergence on MAX density matrix=1.00D-06.
 Requested convergence on             energy=1.00D-06.
 No special actions if energy rises.
 SCF Done:  E(RB3LYP) =  -320.567091892     A.U. after   14 cycles
            NFock= 14  Conv=0.36D-08     -V/T= 2.1311

 **********************************************************************

            Population analysis using the SCF Density.

 **********************************************************************

 Orbital symmetries:
       Occupied  (A1) (B2) (A1) (A1) (A1) (B2) (A1) (B2) (A1) (B1)
                 (A2) (B2) (A1) (B2) (A1) (A1) (A1) (B2) (B1) (B2)
                 (A1) (B1) (A2) (B2)
       Virtual   (A1) (B2) (B1) (A1) (A2) (B2) (A1) (B2) (A1) (B2)
                 (A1) (B1) (A1) (B2) (B1) (A1) (B1) (A2) (A1) (B2)
                 (B1) (B2) (A2) (A1) (A1) (B2) (A1) (B1) (B2) (B2)
                 (A1) (A1) (A1) (B2) (A1) (B2) (B1) (A1) (B2) (A1)
                 (B2) (A1) (B1) (B2) (A1) (A2) (A1) (B2) (B1) (A1)
                 (B2) (A2) (B1) (A1) (B1) (A2) (B2) (A1) (B2) (A1)
                 (A1) (A1) (B2) (A2) (B1) (A2) (B2) (A1) (B2) (A1)
                 (B2) (B1) (A1) (B1) (A2) (A1) (B2) (A1) (B2) (A1)
                 (A1) (B2)
 The electronic state is 1-A1.
 Alpha  occ. eigenvalues --  -19.01377 -19.00099 -19.00093 -10.21565  -1.36606
 Alpha  occ. eigenvalues --   -1.36603  -0.95549  -0.84438  -0.83052  -0.71068
 Alpha  occ. eigenvalues --   -0.71061  -0.70718  -0.70626  -0.70030  -0.69946
 Alpha  occ. eigenvalues --   -0.40245  -0.34000  -0.32962  -0.32378  -0.20199
 Alpha  occ. eigenvalues --   -0.17886  -0.17652  -0.16736  -0.13298
 Alpha virt. eigenvalues --   -0.04187  -0.03613   0.00963   0.01121   0.02092
 Alpha virt. eigenvalues --    0.02381   0.03163   0.04429   0.04938   0.05695
 Alpha virt. eigenvalues --    0.13103   0.13223   0.13812   0.16449   0.16926
 Alpha virt. eigenvalues --    0.21345   0.23835   0.25315   0.26028   0.26687
 Alpha virt. eigenvalues --    0.28686   0.29045   0.30939   0.33256   0.33815
 Alpha virt. eigenvalues --    0.34000   0.35114   0.36056   0.37893   0.39447
 Alpha virt. eigenvalues --    0.40458   0.42771   0.45864   0.48314   0.55507
 Alpha virt. eigenvalues --    0.60080   0.82530   0.87626   0.88350   0.94720
 Alpha virt. eigenvalues --    0.99862   1.25477   1.25935   1.26622   1.28503
 Alpha virt. eigenvalues --    1.28810   1.29697   1.31962   1.39078   1.39573
 Alpha virt. eigenvalues --    1.44167   1.44764   1.45680   1.50747   1.52617
 Alpha virt. eigenvalues --    1.54735   1.58315   1.59934   1.68027   1.81029
 Alpha virt. eigenvalues --    1.87236   1.90144   1.92001   1.92401   1.93807
 Alpha virt. eigenvalues --    1.94296   1.94421   1.96442   2.08302   2.08424
 Alpha virt. eigenvalues --    2.10013   2.26426   2.39249   2.69321   2.77001
 Alpha virt. eigenvalues --    2.93214   3.01616   3.11344   3.17497   3.22069
 Alpha virt. eigenvalues --   20.26615  20.29560
          Condensed to atoms (all electrons):
               1          2          3          4          5          6
     1  C    4.649593   0.206114   0.231477   0.206114   0.001200   0.001200
     2  O    0.206114   8.963771  -0.242654  -0.122940  -0.027633   0.002910
     3  O    0.231477  -0.242654   9.430218  -0.242654  -0.082455  -0.082455
     4  O    0.206114  -0.122940  -0.242654   8.963771   0.002910  -0.027633
     5  K    0.001200  -0.027633  -0.082455   0.002910   8.175498  -0.002675
     6  K    0.001200   0.002910  -0.082455  -0.027633  -0.002675   8.175498
 Mulliken charges:
               1
     1  C    0.704304
     2  O   -0.779568
     3  O   -1.011477
     4  O   -0.779568
     5  K    0.933155
     6  K    0.933155
 Sum of Mulliken charges =   0.00000
 Mulliken charges with hydrogens summed into heavy atoms:
               1
     1  C    0.704304
     2  O   -0.779568
     3  O   -1.011477
     4  O   -0.779568
     5  K    0.933155
     6  K    0.933155
 Electronic spatial extent (au):  <R**2>=            730.1194
 Charge=              0.0000 electrons
 Dipole moment (field-independent basis, Debye):
    X=              0.0000    Y=              0.0000    Z=             10.7958  Tot=             10.7958
 Quadrupole moment (field-independent basis, Debye-Ang):
   XX=            -43.0606   YY=              2.8853   ZZ=            -55.8356
   XY=              0.0000   XZ=              0.0000   YZ=              0.0000
 Traceless Quadrupole moment (field-independent basis, Debye-Ang):
   XX=            -11.0570   YY=             34.8889   ZZ=            -23.8320
   XY=              0.0000   XZ=              0.0000   YZ=              0.0000
 Octapole moment (field-independent basis, Debye-Ang**2):
  XXX=              0.0000  YYY=              0.0000  ZZZ=             49.8944  XYY=              0.0000
  XXY=              0.0000  XXZ=              8.3457  XZZ=              0.0000  YZZ=              0.0000
  YYZ=             59.5440  XYZ=              0.0000
 Hexadecapole moment (field-independent basis, Debye-Ang**3):
 XXXX=            -43.8353 YYYY=           -478.9935 ZZZZ=           -326.1112 XXXY=              0.0000
 XXXZ=              0.0000 YYYX=              0.0000 YYYZ=              0.0000 ZZZX=              0.0000
 ZZZY=              0.0000 XXYY=           -146.2365 XXZZ=            -56.6285 YYZZ=           -188.6139
 XXYZ=              0.0000 YYXZ=              0.0000 ZZXY=              0.0000
 N-N= 2.092182071484D+02 E-N=-1.161577402146D+03  KE= 2.834022509562D+02
 Symmetry A1   KE= 1.803419426030D+02
 Symmetry A2   KE= 7.321335937391D+00
 Symmetry B1   KE= 1.039722932204D+01
 Symmetry B2   KE= 8.534174309382D+01
 Evaluate density.
 Using the total density.
 Monte-Carlo method of calculating molar volume:
 based on  0.001 e/bohr**3 density envelope.
 Number of points per bohr**3 =   20 CutOff= 1.00D-04
 Using the SCF density.
 There are       755 points.  Will hold       755 in memory.
 LenV=  8321401290 MDV=  8321499136.
 Box volume =53828.184 fraction occupied=0.012
 Integrated density= 1.4801536637143409D+01 error=-3.3198463362856593D+01
 Molar volume =  641.660 bohr**3/mol ( 57.261 cm**3/mol)
 Recommended a0 for SCRF calculation =  3.62 angstrom (  6.83 bohr)
   4 Symmetry operations used in ECPInt.
 ECPInt:  NShTT=     741 NPrTT=    2859 LenC2=     739 LenP2D=    2375.
 LDataN:  DoStor=T MaxTD1= 7 Len=  274
 Calling FoFJK, ICntrl=      2127 FMM=F ISym2X=1 I1Cent= 0 IOpClX= 0 NMat=1 NMatS=1 NMatT=0.
 ***** Axes restored to original set *****
 -------------------------------------------------------------------
 Center     Atomic                   Forces (Hartrees/Bohr)
 Number     Number              X              Y              Z
 -------------------------------------------------------------------
      1        6           0.000000000    0.000000000   -0.000336236
      2        8           0.000000000    0.000019861    0.000031025
      3        8           0.000000000    0.000000000    0.000069936
      4        8           0.000000000   -0.000019861    0.000031025
      5       19           0.000000000   -0.000059070    0.000102125
      6       19           0.000000000    0.000059070    0.000102125
 -------------------------------------------------------------------
 Cartesian Forces:  Max     0.000336236 RMS     0.000090829

 GradGradGradGradGradGradGradGradGradGradGradGradGradGradGradGradGradGrad
 Berny optimization.
 FormGI is forming the generalized inverse of G from B-inverse, IUseBI=4.
 Internal  Forces:  Max     0.000101282 RMS     0.000052498
 Search for a local minimum.
 Step number   1 out of a maximum of   39
 All quantities printed in internal units (Hartrees-Bohrs-Radians)
 Mixed Optimization -- En-DIIS/RFO-DIIS
 Second derivative matrix not updated -- first step.
 ITU=  0
     Eigenvalues ---    0.00708   0.01019   0.01847   0.04107   0.04147
     Eigenvalues ---    0.04487   0.06267   0.12201   0.12863   0.45874
     Eigenvalues ---    0.69627   0.69745
 RFO step:  Lambda=-9.46835508D-07 EMin= 7.08009039D-03
 Linear search not attempted -- first point.
 Iteration  1 RMS(Cart)=  0.00079214 RMS(Int)=  0.00000055
 Iteration  2 RMS(Cart)=  0.00000033 RMS(Int)=  0.00000005
 ClnCor:  largest displacement from symmetrization is 7.24D-12 for atom     1.
 Variable       Old X    -DE/DX   Delta X   Delta X   Delta X     New X
                                 (Linear)    (Quad)   (Total)
    R1        2.42764   0.00001   0.00000   0.00001   0.00001   2.42766
    R2        2.55894   0.00009   0.00000   0.00012   0.00012   2.55907
    R3        2.42764   0.00001   0.00000   0.00001   0.00001   2.42766
    R4        5.55399   0.00004   0.00000   0.00027   0.00027   5.55426
    R5        5.55399   0.00004   0.00000   0.00027   0.00027   5.55426
    R6        4.73536   0.00005   0.00000   0.00115   0.00115   4.73651
    R7        4.83586  -0.00010   0.00000  -0.00149  -0.00149   4.83437
    R8        4.83586  -0.00010   0.00000  -0.00149  -0.00149   4.83437
    R9        4.73536   0.00005   0.00000   0.00115   0.00115   4.73651
    A1        2.06654  -0.00004   0.00000  -0.00030  -0.00030   2.06624
    A2        2.15010   0.00008   0.00000   0.00060   0.00060   2.15070
    A3        2.06654  -0.00004   0.00000  -0.00030  -0.00030   2.06624
    A4        2.11084  -0.00010   0.00000  -0.00135  -0.00135   2.10949
    A5        0.92790   0.00001   0.00000  -0.00001  -0.00001   0.92788
    A6        0.92790   0.00001   0.00000  -0.00001  -0.00001   0.92788
    A7        3.12196  -0.00009   0.00000  -0.00098  -0.00098   3.12099
    A8        3.12196  -0.00009   0.00000  -0.00098  -0.00098   3.12099
    A9        3.21539   0.00007   0.00000   0.00138   0.00138   3.21677
   A10        3.14159   0.00000   0.00000   0.00000   0.00000   3.14159
   A11        3.14159   0.00000   0.00000   0.00000   0.00000   3.14159
   A12        3.14159   0.00000   0.00000   0.00000   0.00000   3.14159
    D1        3.14159   0.00000   0.00000   0.00000   0.00000   3.14159
    D2        0.00000   0.00000   0.00000   0.00000   0.00000   0.00000
    D3        3.14159   0.00000   0.00000   0.00000   0.00000   3.14159
    D4        3.14159   0.00000   0.00000   0.00000   0.00000   3.14159
    D5        3.14159   0.00000   0.00000   0.00000   0.00000   3.14159
    D6        0.00000   0.00000   0.00000   0.00000   0.00000   0.00000
    D7        0.00000   0.00000   0.00000   0.00000   0.00000   0.00000
    D8        0.00000   0.00000   0.00000   0.00000   0.00000   0.00000
         Item               Value     Threshold  Converged?
 Maximum Force            0.000101     0.000450     YES
 RMS     Force            0.000052     0.000300     YES
 Maximum Displacement     0.002032     0.001800     NO 
 RMS     Displacement     0.000792     0.001200     YES
 Predicted change in Energy=-4.734343D-07
 GradGradGradGradGradGradGradGradGradGradGradGradGradGradGradGradGradGrad

                          Input orientation:                          
 ---------------------------------------------------------------------
 Center     Atomic      Atomic             Coordinates (Angstroms)
 Number     Number       Type             X           Y           Z
 ---------------------------------------------------------------------
      1          6           0        0.000000    0.000000   -0.825726
      2          8           0        0.000000    1.130189   -1.436483
      3          8           0        0.000000    0.000000    0.528475
      4          8           0        0.000000   -1.130189   -1.436483
      5         19           0        0.000000    2.556432    0.624615
      6         19           0        0.000000   -2.556432    0.624615
 ---------------------------------------------------------------------
                    Distance matrix (angstroms):
                    1          2          3          4          5
     1  C    0.000000
     2  O    1.284660   0.000000
     3  O    1.354201   2.266801   0.000000
     4  O    1.284660   2.260377   2.266801   0.000000
     5  K    2.939189   2.506451   2.558239   4.223659   0.000000
     6  K    2.939189   4.223659   2.558239   2.506451   5.112864
                    6
     6  K    0.000000
 Stoichiometry    CK2O3
 Framework group  C2V[C2(CO),SGV(K2O2)]
 Deg. of freedom     5
 Full point group                 C2V     NOp   4
 Largest Abelian subgroup         C2V     NOp   4
 Largest concise Abelian subgroup C2      NOp   2
                         Standard orientation:                         
 ---------------------------------------------------------------------
 Center     Atomic      Atomic             Coordinates (Angstroms)
 Number     Number       Type             X           Y           Z
 ---------------------------------------------------------------------
      1          6           0        0.000000    0.000000   -0.826095
      2          8           0        0.000000    1.130189   -1.436852
      3          8           0        0.000000    0.000000    0.528106
      4          8           0        0.000000   -1.130189   -1.436852
      5         19           0        0.000000    2.556432    0.624246
      6         19           0        0.000000   -2.556432    0.624246
 ---------------------------------------------------------------------
 Rotational constants (GHZ):           4.6343423           0.9186307           0.7666612
 Basis read from rwf:  (5D, 7F)
 Pseudo-potential data read from rwf file.
 There are    47 symmetry adapted cartesian basis functions of A1  symmetry.
 There are    11 symmetry adapted cartesian basis functions of A2  symmetry.
 There are    17 symmetry adapted cartesian basis functions of B1  symmetry.
 There are    35 symmetry adapted cartesian basis functions of B2  symmetry.
 There are    44 symmetry adapted basis functions of A1  symmetry.
 There are    11 symmetry adapted basis functions of A2  symmetry.
 There are    17 symmetry adapted basis functions of B1  symmetry.
 There are    34 symmetry adapted basis functions of B2  symmetry.
   106 basis functions,   178 primitive gaussians,   110 cartesian basis functions
    24 alpha electrons       24 beta electrons
       nuclear repulsion energy       209.2237845995 Hartrees.
 NAtoms=    6 NActive=    6 NUniq=    4 SFac= 2.25D+00 NAtFMM=   60 NAOKFM=F Big=F
 Integral buffers will be    131072 words long.
 Raffenetti 2 integral format.
 Two-electron integral symmetry is turned on.
 Nuclear repulsion after empirical dispersion term =      209.2195226509 Hartrees.
 One-electron integrals computed using PRISM.
   4 Symmetry operations used in ECPInt.
 ECPInt:  NShTT=     741 NPrTT=    2859 LenC2=     739 LenP2D=    2375.
 LDataN:  DoStor=T MaxTD1= 6 Len=  172
 NBasis=   106 RedAO= T EigKep=  2.17D-03  NBF=    44    11    17    34
 NBsUse=   106 1.00D-06 EigRej= -1.00D+00 NBFU=    44    11    17    34
 Initial guess from the checkpoint file:  "K2CO3-SDD-vol.chk"
 B after Tr=     0.000000    0.000000    0.000000
         Rot=    1.000000    0.000000    0.000000    0.000000 Ang=   0.00 deg.
 Initial guess orbital symmetries:
       Occupied  (A1) (B2) (A1) (A1) (A1) (B2) (A1) (B2) (A1) (B1)
                 (A2) (B2) (A1) (B2) (A1) (A1) (A1) (B2) (B1) (B2)
                 (A1) (B1) (A2) (B2)
       Virtual   (A1) (B2) (B1) (A1) (A2) (B2) (A1) (B2) (A1) (B2)
                 (A1) (B1) (A1) (B2) (B1) (A1) (B1) (A2) (A1) (B2)
                 (B1) (B2) (A2) (A1) (A1) (B2) (A1) (B1) (B2) (B2)
                 (A1) (A1) (A1) (B2) (A1) (B2) (B1) (A1) (B2) (A1)
                 (B2) (A1) (B1) (B2) (A1) (A2) (A1) (B2) (B1) (A1)
                 (B2) (A2) (B1) (A1) (B1) (A2) (B2) (A1) (B2) (A1)
                 (A1) (A1) (B2) (A2) (B1) (A2) (B2) (A1) (B2) (A1)
                 (B2) (B1) (A1) (B1) (A2) (A1) (B2) (A1) (B2) (A1)
                 (A1) (B2)
 Keep R1 ints in memory in symmetry-blocked form, NReq=46015420.
 Requested convergence on RMS density matrix=1.00D-08 within1000 cycles.
 Requested convergence on MAX density matrix=1.00D-06.
 Requested convergence on             energy=1.00D-06.
 No special actions if energy rises.
 SCF Done:  E(RB3LYP) =  -320.567092643     A.U. after    7 cycles
            NFock=  7  Conv=0.82D-08     -V/T= 2.1311
   4 Symmetry operations used in ECPInt.
 ECPInt:  NShTT=     741 NPrTT=    2859 LenC2=     739 LenP2D=    2375.
 LDataN:  DoStor=T MaxTD1= 7 Len=  274
 Calling FoFJK, ICntrl=      2127 FMM=F ISym2X=1 I1Cent= 0 IOpClX= 0 NMat=1 NMatS=1 NMatT=0.
 ***** Axes restored to original set *****
 -------------------------------------------------------------------
 Center     Atomic                   Forces (Hartrees/Bohr)
 Number     Number              X              Y              Z
 -------------------------------------------------------------------
      1        6           0.000000000    0.000000000   -0.000246034
      2        8           0.000000000   -0.000055093    0.000000914
      3        8           0.000000000    0.000000000    0.000115508
      4        8           0.000000000    0.000055093    0.000000914
      5       19           0.000000000   -0.000043862    0.000064349
      6       19           0.000000000    0.000043862    0.000064349
 -------------------------------------------------------------------
 Cartesian Forces:  Max     0.000246034 RMS     0.000071522

 GradGradGradGradGradGradGradGradGradGradGradGradGradGradGradGradGradGrad
 Berny optimization.
 Using GEDIIS/GDIIS optimizer.
 FormGI is forming the generalized inverse of G from B-inverse, IUseBI=4.
 Internal  Forces:  Max     0.000111155 RMS     0.000037551
 Search for a local minimum.
 Step number   2 out of a maximum of   39
 All quantities printed in internal units (Hartrees-Bohrs-Radians)
 Mixed Optimization -- En-DIIS/RFO-DIIS
 Swapping is turned off.
 Update second derivatives using D2CorX and points    1    2
 DE= -7.51D-07 DEPred=-4.73D-07 R= 1.59D+00
 Trust test= 1.59D+00 RLast= 3.66D-03 DXMaxT set to 3.00D-01
 ITU=  0  0
     Eigenvalues ---    0.00708   0.01019   0.01847   0.02335   0.04107
     Eigenvalues ---    0.04165   0.04487   0.12201   0.14168   0.45063
     Eigenvalues ---    0.69628   0.71248
 En-DIIS/RFO-DIIS/Sim-DIIS IScMMF=       -3 using points:     2    1
 RFO step:  Lambda=-1.06330317D-06.
 DidBck=F Rises=F RFO-DIIS coefs:    2.77394   -1.77394
 Iteration  1 RMS(Cart)=  0.00141681 RMS(Int)=  0.00000162
 Iteration  2 RMS(Cart)=  0.00000094 RMS(Int)=  0.00000027
 ClnCor:  largest displacement from symmetrization is 7.28D-12 for atom     1.
 Variable       Old X    -DE/DX   Delta X   Delta X   Delta X     New X
                                 (Linear)    (Quad)   (Total)
    R1        2.42766  -0.00005   0.00002  -0.00018  -0.00015   2.42750
    R2        2.55907   0.00011   0.00022   0.00030   0.00052   2.55959
    R3        2.42766  -0.00005   0.00002  -0.00018  -0.00015   2.42750
    R4        5.55426   0.00001   0.00048  -0.00042   0.00006   5.55432
    R5        5.55426   0.00001   0.00048  -0.00042   0.00006   5.55432
    R6        4.73651   0.00006   0.00203   0.00035   0.00239   4.73889
    R7        4.83437  -0.00007  -0.00265  -0.00033  -0.00298   4.83139
    R8        4.83437  -0.00007  -0.00265  -0.00033  -0.00298   4.83139
    R9        4.73651   0.00006   0.00203   0.00035   0.00239   4.73889
    A1        2.06624  -0.00001  -0.00053   0.00031  -0.00022   2.06602
    A2        2.15070   0.00002   0.00106  -0.00063   0.00043   2.15114
    A3        2.06624  -0.00001  -0.00053   0.00031  -0.00022   2.06602
    A4        2.10949  -0.00006  -0.00240   0.00004  -0.00236   2.10713
    A5        0.92788   0.00001  -0.00002   0.00012   0.00009   0.92798
    A6        0.92788   0.00001  -0.00002   0.00012   0.00009   0.92798
    A7        3.12099  -0.00004  -0.00173   0.00033  -0.00140   3.11959
    A8        3.12099  -0.00004  -0.00173   0.00033  -0.00140   3.11959
    A9        3.21677   0.00001   0.00244  -0.00024   0.00220   3.21897
   A10        3.14159   0.00000   0.00000   0.00000   0.00000   3.14159
   A11        3.14159   0.00000   0.00000   0.00000   0.00000   3.14159
   A12        3.14159   0.00000   0.00000   0.00000   0.00000   3.14159
    D1        3.14159   0.00000   0.00000   0.00000   0.00000   3.14159
    D2        0.00000   0.00000   0.00000   0.00000   0.00000   0.00000
    D3        3.14159   0.00000   0.00000   0.00000   0.00000   3.14159
    D4        3.14159   0.00000   0.00000   0.00000   0.00000   3.14159
    D5        3.14159   0.00000   0.00000   0.00000   0.00000   3.14159
    D6        0.00000   0.00000   0.00000   0.00000   0.00000   0.00000
    D7        0.00000   0.00000   0.00000   0.00000   0.00000   0.00000
    D8        0.00000   0.00000   0.00000   0.00000   0.00000   0.00000
         Item               Value     Threshold  Converged?
 Maximum Force            0.000111     0.000450     YES
 RMS     Force            0.000038     0.000300     YES
 Maximum Displacement     0.003547     0.001800     NO 
 RMS     Displacement     0.001417     0.001200     NO 
 Predicted change in Energy=-5.316448D-07
 GradGradGradGradGradGradGradGradGradGradGradGradGradGradGradGradGradGrad

                          Input orientation:                          
 ---------------------------------------------------------------------
 Center     Atomic      Atomic             Coordinates (Angstroms)
 Number     Number       Type             X           Y           Z
 ---------------------------------------------------------------------
      1          6           0        0.000000    0.000000   -0.826875
      2          8           0        0.000000    1.130250   -1.437349
      3          8           0        0.000000    0.000000    0.527602
      4          8           0        0.000000   -1.130250   -1.437349
      5         19           0        0.000000    2.554748    0.626492
      6         19           0        0.000000   -2.554748    0.626492
 ---------------------------------------------------------------------
                    Distance matrix (angstroms):
                    1          2          3          4          5
     1  C    0.000000
     2  O    1.284579   0.000000
     3  O    1.354477   2.266825   0.000000
     4  O    1.284579   2.260500   2.266825   0.000000
     5  K    2.939220   2.507715   2.556661   4.223583   0.000000
     6  K    2.939220   4.223583   2.556661   2.507715   5.109496
                    6
     6  K    0.000000
 Stoichiometry    CK2O3
 Framework group  C2V[C2(CO),SGV(K2O2)]
 Deg. of freedom     5
 Full point group                 C2V     NOp   4
 Largest Abelian subgroup         C2V     NOp   4
 Largest concise Abelian subgroup C2      NOp   2
                         Standard orientation:                         
 ---------------------------------------------------------------------
 Center     Atomic      Atomic             Coordinates (Angstroms)
 Number     Number       Type             X           Y           Z
 ---------------------------------------------------------------------
      1          6           0        0.000000    0.000000   -0.827885
      2          8           0        0.000000    1.130250   -1.438359
      3          8           0        0.000000    0.000000    0.526592
      4          8           0        0.000000   -1.130250   -1.438359
      5         19           0        0.000000    2.554748    0.625482
      6         19           0        0.000000   -2.554748    0.625482
 ---------------------------------------------------------------------
 Rotational constants (GHZ):           4.6229456           0.9197444           0.7671236
 Basis read from rwf:  (5D, 7F)
 Pseudo-potential data read from rwf file.
 There are    47 symmetry adapted cartesian basis functions of A1  symmetry.
 There are    11 symmetry adapted cartesian basis functions of A2  symmetry.
 There are    17 symmetry adapted cartesian basis functions of B1  symmetry.
 There are    35 symmetry adapted cartesian basis functions of B2  symmetry.
 There are    44 symmetry adapted basis functions of A1  symmetry.
 There are    11 symmetry adapted basis functions of A2  symmetry.
 There are    17 symmetry adapted basis functions of B1  symmetry.
 There are    34 symmetry adapted basis functions of B2  symmetry.
   106 basis functions,   178 primitive gaussians,   110 cartesian basis functions
    24 alpha electrons       24 beta electrons
       nuclear repulsion energy       209.2300370624 Hartrees.
 NAtoms=    6 NActive=    6 NUniq=    4 SFac= 2.25D+00 NAtFMM=   60 NAOKFM=F Big=F
 Integral buffers will be    131072 words long.
 Raffenetti 2 integral format.
 Two-electron integral symmetry is turned on.
 Nuclear repulsion after empirical dispersion term =      209.2257730782 Hartrees.
 One-electron integrals computed using PRISM.
   4 Symmetry operations used in ECPInt.
 ECPInt:  NShTT=     741 NPrTT=    2859 LenC2=     739 LenP2D=    2375.
 LDataN:  DoStor=T MaxTD1= 6 Len=  172
 NBasis=   106 RedAO= T EigKep=  2.17D-03  NBF=    44    11    17    34
 NBsUse=   106 1.00D-06 EigRej= -1.00D+00 NBFU=    44    11    17    34
 Initial guess from the checkpoint file:  "K2CO3-SDD-vol.chk"
 B after Tr=     0.000000    0.000000    0.000000
         Rot=    1.000000    0.000000    0.000000    0.000000 Ang=   0.00 deg.
 Initial guess orbital symmetries:
       Occupied  (A1) (B2) (A1) (A1) (A1) (B2) (A1) (B2) (A1) (B1)
                 (A2) (B2) (A1) (B2) (A1) (A1) (A1) (B2) (B1) (B2)
                 (A1) (B1) (A2) (B2)
       Virtual   (A1) (B2) (B1) (A1) (A2) (B2) (A1) (B2) (A1) (B2)
                 (A1) (B1) (A1) (B2) (B1) (A1) (B1) (A2) (A1) (B2)
                 (B1) (B2) (A2) (A1) (A1) (B2) (A1) (B1) (B2) (B2)
                 (A1) (A1) (A1) (B2) (A1) (B2) (B1) (A1) (B2) (A1)
                 (B2) (A1) (B1) (B2) (A1) (A2) (A1) (B2) (B1) (A1)
                 (B2) (A2) (B1) (A1) (B1) (A2) (B2) (A1) (B2) (A1)
                 (A1) (A1) (B2) (A2) (B1) (A2) (B2) (A1) (B2) (A1)
                 (B2) (B1) (A1) (B1) (A2) (A1) (B2) (A1) (B2) (A1)
                 (A1) (B2)
 Keep R1 ints in memory in symmetry-blocked form, NReq=46015420.
 Requested convergence on RMS density matrix=1.00D-08 within1000 cycles.
 Requested convergence on MAX density matrix=1.00D-06.
 Requested convergence on             energy=1.00D-06.
 No special actions if energy rises.
 SCF Done:  E(RB3LYP) =  -320.567093182     A.U. after    7 cycles
            NFock=  7  Conv=0.63D-08     -V/T= 2.1311
   4 Symmetry operations used in ECPInt.
 ECPInt:  NShTT=     741 NPrTT=    2859 LenC2=     739 LenP2D=    2375.
 LDataN:  DoStor=T MaxTD1= 7 Len=  274
 Calling FoFJK, ICntrl=      2127 FMM=F ISym2X=1 I1Cent= 0 IOpClX= 0 NMat=1 NMatS=1 NMatT=0.
 ***** Axes restored to original set *****
 -------------------------------------------------------------------
 Center     Atomic                   Forces (Hartrees/Bohr)
 Number     Number              X              Y              Z
 -------------------------------------------------------------------
      1        6           0.000000000    0.000000000   -0.000094603
      2        8           0.000000000   -0.000018696    0.000025716
      3        8           0.000000000    0.000000000    0.000058693
      4        8           0.000000000    0.000018696    0.000025716
      5       19           0.000000000   -0.000007772   -0.000007761
      6       19           0.000000000    0.000007772   -0.000007761
 -------------------------------------------------------------------
 Cartesian Forces:  Max     0.000094603 RMS     0.000028536

 GradGradGradGradGradGradGradGradGradGradGradGradGradGradGradGradGradGrad
 Berny optimization.
 Using GEDIIS/GDIIS optimizer.
 FormGI is forming the generalized inverse of G from B-inverse, IUseBI=4.
 Internal  Forces:  Max     0.000049226 RMS     0.000012988
 Search for a local minimum.
 Step number   3 out of a maximum of   39
 All quantities printed in internal units (Hartrees-Bohrs-Radians)
 Mixed Optimization -- En-DIIS/RFO-DIIS
 Swapping is turned off.
 Update second derivatives using D2CorX and points    1    2    3
 DE= -5.39D-07 DEPred=-5.32D-07 R= 1.01D+00
 Trust test= 1.01D+00 RLast= 6.64D-03 DXMaxT set to 3.00D-01
 ITU=  0  0  0
     Eigenvalues ---    0.00708   0.01018   0.01848   0.02351   0.04107
     Eigenvalues ---    0.04191   0.04487   0.12200   0.14023   0.44601
     Eigenvalues ---    0.69632   0.71287
 En-DIIS/RFO-DIIS/Sim-DIIS IScMMF=       -3 using points:     3    2    1
 RFO step:  Lambda=-1.00603173D-08.
 DIIS inversion failure, remove point   3.
 RFO-DIIS uses    2 points instead of    3
 DidBck=F Rises=F RFO-DIIS coefs:    1.00862   -0.00862    0.00000
 Iteration  1 RMS(Cart)=  0.00003027 RMS(Int)=  0.00000000
 Iteration  2 RMS(Cart)=  0.00000000 RMS(Int)=  0.00000000
 ClnCor:  largest displacement from symmetrization is 7.21D-12 for atom     1.
 Variable       Old X    -DE/DX   Delta X   Delta X   Delta X     New X
                                 (Linear)    (Quad)   (Total)
    R1        2.42750  -0.00003   0.00000  -0.00004  -0.00004   2.42746
    R2        2.55959   0.00005   0.00000   0.00011   0.00011   2.55970
    R3        2.42750  -0.00003   0.00000  -0.00004  -0.00004   2.42746
    R4        5.55432   0.00000   0.00000  -0.00006  -0.00006   5.55426
    R5        5.55432   0.00000   0.00000  -0.00006  -0.00006   5.55426
    R6        4.73889  -0.00001   0.00002  -0.00011  -0.00009   4.73880
    R7        4.83139   0.00000  -0.00003  -0.00007  -0.00010   4.83129
    R8        4.83139   0.00000  -0.00003  -0.00007  -0.00010   4.83129
    R9        4.73889  -0.00001   0.00002  -0.00011  -0.00009   4.73880
    A1        2.06602   0.00000   0.00000  -0.00003  -0.00003   2.06599
    A2        2.15114   0.00001   0.00000   0.00006   0.00006   2.15120
    A3        2.06602   0.00000   0.00000  -0.00003  -0.00003   2.06599
    A4        2.10713   0.00000  -0.00002  -0.00001  -0.00003   2.10711
    A5        0.92798   0.00000   0.00000   0.00002   0.00002   0.92800
    A6        0.92798   0.00000   0.00000   0.00002   0.00002   0.92800
    A7        3.11959  -0.00001  -0.00001  -0.00003  -0.00005   3.11955
    A8        3.11959  -0.00001  -0.00001  -0.00003  -0.00005   3.11955
    A9        3.21897  -0.00002   0.00002  -0.00005  -0.00003   3.21894
   A10        3.14159   0.00000   0.00000   0.00000   0.00000   3.14159
   A11        3.14159   0.00000   0.00000   0.00000   0.00000   3.14159
   A12        3.14159   0.00000   0.00000   0.00000   0.00000   3.14159
    D1        3.14159   0.00000   0.00000   0.00000   0.00000   3.14159
    D2        0.00000   0.00000   0.00000   0.00000   0.00000   0.00000
    D3        3.14159   0.00000   0.00000   0.00000   0.00000   3.14159
    D4        3.14159   0.00000   0.00000   0.00000   0.00000   3.14159
    D5        3.14159   0.00000   0.00000   0.00000   0.00000   3.14159
    D6        0.00000   0.00000   0.00000   0.00000   0.00000   0.00000
    D7        0.00000   0.00000   0.00000   0.00000   0.00000   0.00000
    D8        0.00000   0.00000   0.00000   0.00000   0.00000   0.00000
         Item               Value     Threshold  Converged?
 Maximum Force            0.000049     0.000450     YES
 RMS     Force            0.000013     0.000300     YES
 Maximum Displacement     0.000094     0.001800     YES
 RMS     Displacement     0.000030     0.001200     YES
 Predicted change in Energy=-6.018697D-09
 Optimization completed.
    -- Stationary point found.
                           ----------------------------
                           !   Optimized Parameters   !
                           ! (Angstroms and Degrees)  !
 --------------------------                            --------------------------
 ! Name  Definition              Value          Derivative Info.                !
 --------------------------------------------------------------------------------
 ! R1    R(1,2)                  1.2846         -DE/DX =    0.0                 !
 ! R2    R(1,3)                  1.3545         -DE/DX =    0.0                 !
 ! R3    R(1,4)                  1.2846         -DE/DX =    0.0                 !
 ! R4    R(1,5)                  2.9392         -DE/DX =    0.0                 !
 ! R5    R(1,6)                  2.9392         -DE/DX =    0.0                 !
 ! R6    R(2,5)                  2.5077         -DE/DX =    0.0                 !
 ! R7    R(3,5)                  2.5567         -DE/DX =    0.0                 !
 ! R8    R(3,6)                  2.5567         -DE/DX =    0.0                 !
 ! R9    R(4,6)                  2.5077         -DE/DX =    0.0                 !
 ! A1    A(2,1,3)              118.3745         -DE/DX =    0.0                 !
 ! A2    A(2,1,4)              123.251          -DE/DX =    0.0                 !
 ! A3    A(3,1,4)              118.3745         -DE/DX =    0.0                 !
 ! A4    A(5,1,6)              120.7299         -DE/DX =    0.0                 !
 ! A5    A(2,5,3)               53.1692         -DE/DX =    0.0                 !
 ! A6    A(3,6,4)               53.1692         -DE/DX =    0.0                 !
 ! A7    L(2,1,6,3,-1)         178.7394         -DE/DX =    0.0                 !
 ! A8    L(4,1,5,3,-1)         178.7394         -DE/DX =    0.0                 !
 ! A9    L(5,3,6,1,-1)         184.4334         -DE/DX =    0.0                 !
 ! A10   L(2,1,6,3,-2)         180.0            -DE/DX =    0.0                 !
 ! A11   L(4,1,5,3,-2)         180.0            -DE/DX =    0.0                 !
 ! A12   L(5,3,6,1,-2)         180.0            -DE/DX =    0.0                 !
 ! D1    D(2,1,3,4)            180.0            -DE/DX =    0.0                 !
 ! D2    D(2,1,3,5)              0.0            -DE/DX =    0.0                 !
 ! D3    D(2,1,3,6)            180.0            -DE/DX =    0.0                 !
 ! D4    D(2,1,4,6)            180.0            -DE/DX =    0.0                 !
 ! D5    D(2,1,5,6)            180.0            -DE/DX =    0.0                 !
 ! D6    D(1,2,5,4)              0.0            -DE/DX =    0.0                 !
 ! D7    D(4,3,6,1)              0.0            -DE/DX =    0.0                 !
 ! D8    D(2,5,6,4)              0.0            -DE/DX =    0.0                 !
 --------------------------------------------------------------------------------
 GradGradGradGradGradGradGradGradGradGradGradGradGradGradGradGradGradGrad

                          Input orientation:                          
 ---------------------------------------------------------------------
 Center     Atomic      Atomic             Coordinates (Angstroms)
 Number     Number       Type             X           Y           Z
 ---------------------------------------------------------------------
      1          6           0        0.000000    0.000000   -0.826875
      2          8           0        0.000000    1.130250   -1.437349
      3          8           0        0.000000    0.000000    0.527602
      4          8           0        0.000000   -1.130250   -1.437349
      5         19           0        0.000000    2.554748    0.626492
      6         19           0        0.000000   -2.554748    0.626492
 ---------------------------------------------------------------------
                    Distance matrix (angstroms):
                    1          2          3          4          5
     1  C    0.000000
     2  O    1.284579   0.000000
     3  O    1.354477   2.266825   0.000000
     4  O    1.284579   2.260500   2.266825   0.000000
     5  K    2.939220   2.507715   2.556661   4.223583   0.000000
     6  K    2.939220   4.223583   2.556661   2.507715   5.109496
                    6
     6  K    0.000000
 Stoichiometry    CK2O3
 Framework group  C2V[C2(CO),SGV(K2O2)]
 Deg. of freedom     5
 Full point group                 C2V     NOp   4
 Largest Abelian subgroup         C2V     NOp   4
 Largest concise Abelian subgroup C2      NOp   2
                         Standard orientation:                         
 ---------------------------------------------------------------------
 Center     Atomic      Atomic             Coordinates (Angstroms)
 Number     Number       Type             X           Y           Z
 ---------------------------------------------------------------------
      1          6           0        0.000000    0.000000   -0.827885
      2          8           0        0.000000    1.130250   -1.438359
      3          8           0        0.000000    0.000000    0.526592
      4          8           0        0.000000   -1.130250   -1.438359
      5         19           0        0.000000    2.554748    0.625482
      6         19           0        0.000000   -2.554748    0.625482
 ---------------------------------------------------------------------
 Rotational constants (GHZ):           4.6229456           0.9197444           0.7671236

 **********************************************************************

            Population analysis using the SCF Density.

 **********************************************************************

 Orbital symmetries:
       Occupied  (A1) (B2) (A1) (A1) (A1) (B2) (A1) (B2) (A1) (B1)
                 (A2) (B2) (A1) (B2) (A1) (A1) (A1) (B2) (B1) (B2)
                 (A1) (B1) (A2) (B2)
       Virtual   (A1) (B2) (B1) (A1) (A2) (B2) (A1) (B2) (A1) (B2)
                 (A1) (B1) (A1) (B2) (B1) (A1) (B1) (A2) (A1) (B2)
                 (B1) (B2) (A2) (A1) (A1) (B2) (A1) (B1) (B2) (B2)
                 (A1) (A1) (A1) (B2) (A1) (B2) (B1) (A1) (B2) (A1)
                 (B2) (A1) (B1) (B2) (A1) (A2) (A1) (B2) (B1) (A1)
                 (B2) (A2) (B1) (A1) (B1) (A2) (B2) (A1) (B2) (A1)
                 (A1) (A1) (B2) (A2) (B1) (A2) (B2) (A1) (B2) (A1)
                 (B2) (B1) (A1) (B1) (A2) (A1) (B2) (A1) (B2) (A1)
                 (A1) (B2)
 The electronic state is 1-A1.
 Alpha  occ. eigenvalues --  -19.01373 -19.00106 -19.00100 -10.21568  -1.36608
 Alpha  occ. eigenvalues --   -1.36604  -0.95548  -0.84446  -0.83047  -0.71069
 Alpha  occ. eigenvalues --   -0.71062  -0.70719  -0.70627  -0.70034  -0.69943
 Alpha  occ. eigenvalues --   -0.40248  -0.34003  -0.32962  -0.32378  -0.20206
 Alpha  occ. eigenvalues --   -0.17883  -0.17655  -0.16739  -0.13304
 Alpha virt. eigenvalues --   -0.04191  -0.03614   0.00959   0.01115   0.02091
 Alpha virt. eigenvalues --    0.02381   0.03160   0.04428   0.04936   0.05694
 Alpha virt. eigenvalues --    0.13102   0.13222   0.13809   0.16447   0.16923
 Alpha virt. eigenvalues --    0.21330   0.23829   0.25315   0.26027   0.26706
 Alpha virt. eigenvalues --    0.28695   0.29048   0.30930   0.33255   0.33820
 Alpha virt. eigenvalues --    0.34002   0.35109   0.36056   0.37875   0.39433
 Alpha virt. eigenvalues --    0.40445   0.42785   0.45860   0.48303   0.55473
 Alpha virt. eigenvalues --    0.60102   0.82529   0.87610   0.88368   0.94721
 Alpha virt. eigenvalues --    0.99916   1.25488   1.25931   1.26550   1.28556
 Alpha virt. eigenvalues --    1.28805   1.29677   1.31994   1.39078   1.39554
 Alpha virt. eigenvalues --    1.44177   1.44764   1.45680   1.50730   1.52616
 Alpha virt. eigenvalues --    1.54734   1.58314   1.59867   1.68060   1.81029
 Alpha virt. eigenvalues --    1.87214   1.90180   1.91953   1.92393   1.93811
 Alpha virt. eigenvalues --    1.94288   1.94426   1.96448   2.08238   2.08437
 Alpha virt. eigenvalues --    2.10033   2.26420   2.39231   2.69267   2.77035
 Alpha virt. eigenvalues --    2.93172   3.01639   3.11339   3.17467   3.22091
 Alpha virt. eigenvalues --   20.26603  20.29601
          Condensed to atoms (all electrons):
               1          2          3          4          5          6
     1  C    4.648842   0.206778   0.230674   0.206778   0.001187   0.001187
     2  O    0.206778   8.962009  -0.242793  -0.122677  -0.027030   0.002900
     3  O    0.230674  -0.242793   9.434154  -0.242793  -0.083295  -0.083295
     4  O    0.206778  -0.122677  -0.242793   8.962009   0.002900  -0.027030
     5  K    0.001187  -0.027030  -0.083295   0.002900   8.175697  -0.002695
     6  K    0.001187   0.002900  -0.083295  -0.027030  -0.002695   8.175697
 Mulliken charges:
               1
     1  C    0.704554
     2  O   -0.779187
     3  O   -1.012651
     4  O   -0.779187
     5  K    0.933236
     6  K    0.933236
 Sum of Mulliken charges =   0.00000
 Mulliken charges with hydrogens summed into heavy atoms:
               1
     1  C    0.704554
     2  O   -0.779187
     3  O   -1.012651
     4  O   -0.779187
     5  K    0.933236
     6  K    0.933236
 Electronic spatial extent (au):  <R**2>=            729.9507
 Charge=              0.0000 electrons
 Dipole moment (field-independent basis, Debye):
    X=              0.0000    Y=              0.0000    Z=             10.8254  Tot=             10.8254
 Quadrupole moment (field-independent basis, Debye-Ang):
   XX=            -43.0614   YY=              2.7690   ZZ=            -55.8266
   XY=              0.0000   XZ=              0.0000   YZ=              0.0000
 Traceless Quadrupole moment (field-independent basis, Debye-Ang):
   XX=            -11.0217   YY=             34.8087   ZZ=            -23.7869
   XY=              0.0000   XZ=              0.0000   YZ=              0.0000
 Octapole moment (field-independent basis, Debye-Ang**2):
  XXX=              0.0000  YYY=              0.0000  ZZZ=             50.0855  XYY=              0.0000
  XXY=              0.0000  XXZ=              8.3698  XZZ=              0.0000  YZZ=              0.0000
  YYZ=             59.6409  XYZ=              0.0000
 Hexadecapole moment (field-independent basis, Debye-Ang**3):
 XXXX=            -43.8399 YYYY=           -479.2154 ZZZZ=           -327.0519 XXXY=              0.0000
 XXXZ=              0.0000 YYYX=              0.0000 YYYZ=              0.0000 ZZZX=              0.0000
 ZZZY=              0.0000 XXYY=           -146.0206 XXZZ=            -56.7548 YYZZ=           -188.4933
 XXYZ=              0.0000 YYXZ=              0.0000 ZZXY=              0.0000
 N-N= 2.092257730782D+02 E-N=-1.161591281910D+03  KE= 2.834019077374D+02
 Symmetry A1   KE= 1.803413980159D+02
 Symmetry A2   KE= 7.321588232463D+00
 Symmetry B1   KE= 1.039682000514D+01
 Symmetry B2   KE= 8.534210148386D+01
 Evaluate density.
 Using the total density.
 Monte-Carlo method of calculating molar volume:
 based on  0.001 e/bohr**3 density envelope.
 Number of points per bohr**3 =   20 CutOff= 1.00D-04
 Using the SCF density.
 There are       755 points.  Will hold       755 in memory.
 LenV=  8321401290 MDV=  8321499136.
 Box volume =53816.566 fraction occupied=0.009
 Integrated density= 1.5123941065995707D+01 error=-3.2876058934004291D+01
 Molar volume =  498.962 bohr**3/mol ( 44.527 cm**3/mol)
 Recommended a0 for SCRF calculation =  3.37 angstrom (  6.36 bohr)
 1\1\GINC-IP-172-31-38-84\FOpt\RB3LYP\Gen\C1K2O3\UBUNTU\13-Sep-2023\0\\
 # opt freq b3lyp/gen empiricaldispersion=gd3 pseudo=read scf=maxcycle=
 1000 volume\\Title Card Required\\0,1\C,0.,0.,-0.8268749782\O,0.,1.130
 2501406,-1.4373487958\O,0.,0.,0.527601683\O,0.,-1.1302501406,-1.437348
 7958\K,0.,2.554747957,0.6264919434\K,0.,-2.554747957,0.6264919434\\Ver
 sion=EM64L-G16RevB.01\State=1-A1\HF=-320.5670932\RMSD=6.288e-09\RMSF=2
 .854e-05\Dipole=0.,0.,4.2590238\Quadrupole=-8.1943913,25.8793892,-17.6
 849979,0.,0.,0.\PG=C02V [C2(C1O1),SGV(K2O2)]\\@


 MEMORIES ARE LIKE AN ENGLISH GRAMMER LESSON -
 PRESENT TENSE, AND PAST PERFECT.
 Job cpu time:       0 days  0 hours  2 minutes 46.2 seconds.
 Elapsed time:       0 days  0 hours  0 minutes  5.3 seconds.
 File lengths (MBytes):  RWF=     10 Int=      0 D2E=      0 Chk=      2 Scr=      1
 Normal termination of Gaussian 16 at Wed Sep 13 09:32:31 2023.
 Link1:  Proceeding to internal job step number  2.
 ------------------------------------------------------------------
 #N Geom=AllCheck Guess=TCheck SCRF=Check GenChk RB3LYP/ChkBas Freq
 ------------------------------------------------------------------
 1/10=4,29=7,30=1,38=1,40=1/1,3;
 2/12=2,40=1/2;
 3/5=7,6=2,11=2,14=-4,16=1,17=8,25=1,30=1,67=1,70=2,71=2,74=-5,82=7,116=1,124=31,140=1/1,2,3;
 4/5=101/1;
 5/5=2,7=1000,38=6,98=1/2;
 8/6=4,10=90,11=11/1;
 11/6=1,8=1,9=11,15=111,16=1/1,2,10;
 10/6=1/2;
 6/7=2,8=2,9=2,10=2,28=1/1;
 7/8=1,10=1,25=1/1,2,3,16;
 1/10=4,30=1/3;
 99//99;
 Structure from the checkpoint file:  "K2CO3-SDD-vol.chk"
 -------------------
 Title Card Required
 -------------------
 Charge =  0 Multiplicity = 1
 Redundant internal coordinates found in file.  (old form).
 C,0,0.,0.,-0.8268749782
 O,0,0.,1.1302501406,-1.4373487958
 O,0,0.,0.,0.527601683
 O,0,0.,-1.1302501406,-1.4373487958
 K,0,0.,2.554747957,0.6264919434
 K,0,0.,-2.554747957,0.6264919434
 Recover connectivity data from disk.

 GradGradGradGradGradGradGradGradGradGradGradGradGradGradGradGradGradGrad
 Berny optimization.
 Initialization pass.
                           ----------------------------
                           !    Initial Parameters    !
                           ! (Angstroms and Degrees)  !
 --------------------------                            --------------------------
 ! Name  Definition              Value          Derivative Info.                !
 --------------------------------------------------------------------------------
 ! R1    R(1,2)                  1.2846         calculate D2E/DX2 analytically  !
 ! R2    R(1,3)                  1.3545         calculate D2E/DX2 analytically  !
 ! R3    R(1,4)                  1.2846         calculate D2E/DX2 analytically  !
 ! R4    R(1,5)                  2.9392         calculate D2E/DX2 analytically  !
 ! R5    R(1,6)                  2.9392         calculate D2E/DX2 analytically  !
 ! R6    R(2,5)                  2.5077         calculate D2E/DX2 analytically  !
 ! R7    R(3,5)                  2.5567         calculate D2E/DX2 analytically  !
 ! R8    R(3,6)                  2.5567         calculate D2E/DX2 analytically  !
 ! R9    R(4,6)                  2.5077         calculate D2E/DX2 analytically  !
 ! A1    A(2,1,3)              118.3745         calculate D2E/DX2 analytically  !
 ! A2    A(2,1,4)              123.251          calculate D2E/DX2 analytically  !
 ! A3    A(3,1,4)              118.3745         calculate D2E/DX2 analytically  !
 ! A4    A(5,1,6)              120.7299         calculate D2E/DX2 analytically  !
 ! A5    A(2,5,3)               53.1692         calculate D2E/DX2 analytically  !
 ! A6    A(3,6,4)               53.1692         calculate D2E/DX2 analytically  !
 ! A7    L(2,1,6,3,-1)         178.7394         calculate D2E/DX2 analytically  !
 ! A8    L(4,1,5,3,-1)         178.7394         calculate D2E/DX2 analytically  !
 ! A9    L(5,3,6,1,-1)         184.4334         calculate D2E/DX2 analytically  !
 ! A10   L(2,1,6,3,-2)         180.0            calculate D2E/DX2 analytically  !
 ! A11   L(4,1,5,3,-2)         180.0            calculate D2E/DX2 analytically  !
 ! A12   L(5,3,6,1,-2)         180.0            calculate D2E/DX2 analytically  !
 ! D1    D(2,1,3,4)            180.0            calculate D2E/DX2 analytically  !
 ! D2    D(2,1,3,5)              0.0            calculate D2E/DX2 analytically  !
 ! D3    D(2,1,3,6)            180.0            calculate D2E/DX2 analytically  !
 ! D4    D(2,1,4,6)            180.0            calculate D2E/DX2 analytically  !
 ! D5    D(2,1,5,6)            180.0            calculate D2E/DX2 analytically  !
 ! D6    D(1,2,5,4)              0.0            calculate D2E/DX2 analytically  !
 ! D7    D(4,3,6,1)              0.0            calculate D2E/DX2 analytically  !
 ! D8    D(2,5,6,4)              0.0            calculate D2E/DX2 analytically  !
 --------------------------------------------------------------------------------
 Trust Radius=3.00D-01 FncErr=1.00D-07 GrdErr=1.00D-07 EigMax=2.50D+02 EigMin=1.00D-04
 Number of steps in this run=      2 maximum allowed number of steps=      2.
 GradGradGradGradGradGradGradGradGradGradGradGradGradGradGradGradGradGrad

                          Input orientation:                          
 ---------------------------------------------------------------------
 Center     Atomic      Atomic             Coordinates (Angstroms)
 Number     Number       Type             X           Y           Z
 ---------------------------------------------------------------------
      1          6           0        0.000000    0.000000   -0.826875
      2          8           0        0.000000    1.130250   -1.437349
      3          8           0        0.000000    0.000000    0.527602
      4          8           0        0.000000   -1.130250   -1.437349
      5         19           0        0.000000    2.554748    0.626492
      6         19           0        0.000000   -2.554748    0.626492
 ---------------------------------------------------------------------
                    Distance matrix (angstroms):
                    1          2          3          4          5
     1  C    0.000000
     2  O    1.284579   0.000000
     3  O    1.354477   2.266825   0.000000
     4  O    1.284579   2.260500   2.266825   0.000000
     5  K    2.939220   2.507715   2.556661   4.223583   0.000000
     6  K    2.939220   4.223583   2.556661   2.507715   5.109496
                    6
     6  K    0.000000
 Stoichiometry    CK2O3
 Framework group  C2V[C2(CO),SGV(K2O2)]
 Deg. of freedom     5
 Full point group                 C2V     NOp   4
 Largest Abelian subgroup         C2V     NOp   4
 Largest concise Abelian subgroup C2      NOp   2
                         Standard orientation:                         
 ---------------------------------------------------------------------
 Center     Atomic      Atomic             Coordinates (Angstroms)
 Number     Number       Type             X           Y           Z
 ---------------------------------------------------------------------
      1          6           0        0.000000    0.000000   -0.827885
      2          8           0        0.000000    1.130250   -1.438359
      3          8           0        0.000000    0.000000    0.526592
      4          8           0        0.000000   -1.130250   -1.438359
      5         19           0        0.000000    2.554748    0.625482
      6         19           0        0.000000   -2.554748    0.625482
 ---------------------------------------------------------------------
 Rotational constants (GHZ):           4.6229456           0.9197444           0.7671236
 Basis read from chk: "K2CO3-SDD-vol.chk" (5D, 7F)
 Pseudo-potential data read from chk file.
 There are    47 symmetry adapted cartesian basis functions of A1  symmetry.
 There are    11 symmetry adapted cartesian basis functions of A2  symmetry.
 There are    17 symmetry adapted cartesian basis functions of B1  symmetry.
 There are    35 symmetry adapted cartesian basis functions of B2  symmetry.
 There are    44 symmetry adapted basis functions of A1  symmetry.
 There are    11 symmetry adapted basis functions of A2  symmetry.
 There are    17 symmetry adapted basis functions of B1  symmetry.
 There are    34 symmetry adapted basis functions of B2  symmetry.
   106 basis functions,   178 primitive gaussians,   110 cartesian basis functions
    24 alpha electrons       24 beta electrons
       nuclear repulsion energy       209.2300370624 Hartrees.
 NAtoms=    6 NActive=    6 NUniq=    4 SFac= 2.25D+00 NAtFMM=   60 NAOKFM=F Big=F
 Integral buffers will be    131072 words long.
 Raffenetti 2 integral format.
 Two-electron integral symmetry is turned on.
 Nuclear repulsion after empirical dispersion term =      209.2257730782 Hartrees.
 One-electron integrals computed using PRISM.
   4 Symmetry operations used in ECPInt.
 ECPInt:  NShTT=     741 NPrTT=    2859 LenC2=     739 LenP2D=    2375.
 LDataN:  DoStor=T MaxTD1= 6 Len=  172
 NBasis=   106 RedAO= T EigKep=  2.17D-03  NBF=    44    11    17    34
 NBsUse=   106 1.00D-06 EigRej= -1.00D+00 NBFU=    44    11    17    34
 Initial guess from the checkpoint file:  "K2CO3-SDD-vol.chk"
 B after Tr=     0.000000    0.000000    0.000000
         Rot=    1.000000    0.000000    0.000000    0.000000 Ang=   0.00 deg.
 Initial guess orbital symmetries:
       Occupied  (A1) (B2) (A1) (A1) (A1) (B2) (A1) (B2) (A1) (B1)
                 (A2) (B2) (A1) (B2) (A1) (A1) (A1) (B2) (B1) (B2)
                 (A1) (B1) (A2) (B2)
       Virtual   (A1) (B2) (B1) (A1) (A2) (B2) (A1) (B2) (A1) (B2)
                 (A1) (B1) (A1) (B2) (B1) (A1) (B1) (A2) (A1) (B2)
                 (B1) (B2) (A2) (A1) (A1) (B2) (A1) (B1) (B2) (B2)
                 (A1) (A1) (A1) (B2) (A1) (B2) (B1) (A1) (B2) (A1)
                 (B2) (A1) (B1) (B2) (A1) (A2) (A1) (B2) (B1) (A1)
                 (B2) (A2) (B1) (A1) (B1) (A2) (B2) (A1) (B2) (A1)
                 (A1) (A1) (B2) (A2) (B1) (A2) (B2) (A1) (B2) (A1)
                 (B2) (B1) (A1) (B1) (A2) (A1) (B2) (A1) (B2) (A1)
                 (A1) (B2)
 Keep R1 ints in memory in symmetry-blocked form, NReq=46015420.
 Requested convergence on RMS density matrix=1.00D-08 within1000 cycles.
 Requested convergence on MAX density matrix=1.00D-06.
 Requested convergence on             energy=1.00D-06.
 No special actions if energy rises.
 SCF Done:  E(RB3LYP) =  -320.567093182     A.U. after    1 cycles
            NFock=  1  Conv=0.34D-08     -V/T= 2.1311
 DoSCS=F DFT=T ScalE2(SS,OS)=  1.000000  1.000000
 Range of M.O.s used for correlation:     1   106
 NBasis=   106 NAE=    24 NBE=    24 NFC=     0 NFV=     0
 NROrb=    106 NOA=    24 NOB=    24 NVA=    82 NVB=    82

 **** Warning!!: The smallest alpha delta epsilon is  0.91126857D-01

   4 Symmetry operations used in ECPInt.
 ECPInt:  NShTT=     741 NPrTT=    2859 LenC2=     739 LenP2D=    2375.
 LDataN:  DoStor=T MaxTD1= 7 Len=  274
 Symmetrizing basis deriv contribution to polar:
 IMax=3 JMax=2 DiffMx= 0.00D+00
 G2DrvN: will do     7 centers at a time, making    1 passes.
 Calling FoFCou, ICntrl=  3107 FMM=F I1Cent=   0 AccDes= 0.00D+00.
 End of G2Drv F.D. properties file   721 does not exist.
 End of G2Drv F.D. properties file   722 does not exist.
 End of G2Drv F.D. properties file   788 does not exist.
          IDoAtm=111111
          Differentiating once with respect to electric field.
                with respect to dipole field.
          Differentiating once with respect to nuclear coordinates.
 Keep R1 ints in memory in symmetry-blocked form, NReq=45908886.
          There are    15 degrees of freedom in the 1st order CPHF.  IDoFFX=4 NUNeed=    15.
     15 vectors produced by pass  0 Test12= 1.31D-14 6.67D-09 XBig12= 6.16D+01 4.40D+00.
 AX will form    15 AO Fock derivatives at one time.
     15 vectors produced by pass  1 Test12= 1.31D-14 6.67D-09 XBig12= 1.99D+01 2.32D+00.
     15 vectors produced by pass  2 Test12= 1.31D-14 6.67D-09 XBig12= 3.44D-01 2.53D-01.
     15 vectors produced by pass  3 Test12= 1.31D-14 6.67D-09 XBig12= 5.65D-03 1.60D-02.
     15 vectors produced by pass  4 Test12= 1.31D-14 6.67D-09 XBig12= 5.07D-05 1.49D-03.
     14 vectors produced by pass  5 Test12= 1.31D-14 6.67D-09 XBig12= 1.95D-07 7.95D-05.
      8 vectors produced by pass  6 Test12= 1.31D-14 6.67D-09 XBig12= 4.52D-10 4.69D-06.
      4 vectors produced by pass  7 Test12= 1.31D-14 6.67D-09 XBig12= 9.56D-13 1.92D-07.
      1 vectors produced by pass  8 Test12= 1.31D-14 6.67D-09 XBig12= 1.47D-15 7.25D-09.
 InvSVY:  IOpt=1 It=  1 EMax= 1.78D-15
 Solved reduced A of dimension   102 with    15 vectors.
 Isotropic polarizability for W=    0.000000       49.06 Bohr**3.
 End of Minotr F.D. properties file   721 does not exist.
 End of Minotr F.D. properties file   722 does not exist.
 End of Minotr F.D. properties file   788 does not exist.

 **********************************************************************

            Population analysis using the SCF Density.

 **********************************************************************

 Orbital symmetries:
       Occupied  (A1) (B2) (A1) (A1) (A1) (B2) (A1) (B2) (A1) (B1)
                 (A2) (B2) (A1) (B2) (A1) (A1) (A1) (B2) (B1) (B2)
                 (A1) (B1) (A2) (B2)
       Virtual   (A1) (B2) (B1) (A1) (A2) (B2) (A1) (B2) (A1) (B2)
                 (A1) (B1) (A1) (B2) (B1) (A1) (B1) (A2) (A1) (B2)
                 (B1) (B2) (A2) (A1) (A1) (B2) (A1) (B1) (B2) (B2)
                 (A1) (A1) (A1) (B2) (A1) (B2) (B1) (A1) (B2) (A1)
                 (B2) (A1) (B1) (B2) (A1) (A2) (A1) (B2) (B1) (A1)
                 (B2) (A2) (B1) (A1) (B1) (A2) (B2) (A1) (B2) (A1)
                 (A1) (A1) (B2) (A2) (B1) (A2) (B2) (A1) (B2) (A1)
                 (B2) (B1) (A1) (B1) (A2) (A1) (B2) (A1) (B2) (A1)
                 (A1) (B2)
 The electronic state is 1-A1.
 Alpha  occ. eigenvalues --  -19.01373 -19.00106 -19.00100 -10.21568  -1.36608
 Alpha  occ. eigenvalues --   -1.36604  -0.95548  -0.84446  -0.83047  -0.71069
 Alpha  occ. eigenvalues --   -0.71062  -0.70719  -0.70627  -0.70034  -0.69943
 Alpha  occ. eigenvalues --   -0.40248  -0.34003  -0.32962  -0.32378  -0.20206
 Alpha  occ. eigenvalues --   -0.17883  -0.17655  -0.16739  -0.13304
 Alpha virt. eigenvalues --   -0.04191  -0.03614   0.00959   0.01115   0.02091
 Alpha virt. eigenvalues --    0.02381   0.03160   0.04428   0.04936   0.05694
 Alpha virt. eigenvalues --    0.13102   0.13222   0.13809   0.16447   0.16923
 Alpha virt. eigenvalues --    0.21330   0.23829   0.25315   0.26027   0.26706
 Alpha virt. eigenvalues --    0.28695   0.29048   0.30930   0.33255   0.33820
 Alpha virt. eigenvalues --    0.34002   0.35109   0.36056   0.37875   0.39433
 Alpha virt. eigenvalues --    0.40445   0.42785   0.45860   0.48303   0.55473
 Alpha virt. eigenvalues --    0.60102   0.82529   0.87610   0.88368   0.94721
 Alpha virt. eigenvalues --    0.99916   1.25488   1.25931   1.26550   1.28556
 Alpha virt. eigenvalues --    1.28805   1.29677   1.31994   1.39078   1.39554
 Alpha virt. eigenvalues --    1.44177   1.44764   1.45680   1.50730   1.52616
 Alpha virt. eigenvalues --    1.54734   1.58314   1.59867   1.68060   1.81029
 Alpha virt. eigenvalues --    1.87214   1.90180   1.91953   1.92393   1.93811
 Alpha virt. eigenvalues --    1.94288   1.94426   1.96448   2.08238   2.08437
 Alpha virt. eigenvalues --    2.10033   2.26420   2.39231   2.69267   2.77035
 Alpha virt. eigenvalues --    2.93172   3.01639   3.11339   3.17467   3.22091
 Alpha virt. eigenvalues --   20.26603  20.29601
          Condensed to atoms (all electrons):
               1          2          3          4          5          6
     1  C    4.648843   0.206778   0.230674   0.206778   0.001187   0.001187
     2  O    0.206778   8.962009  -0.242793  -0.122677  -0.027030   0.002900
     3  O    0.230674  -0.242793   9.434154  -0.242793  -0.083295  -0.083295
     4  O    0.206778  -0.122677  -0.242793   8.962009   0.002900  -0.027030
     5  K    0.001187  -0.027030  -0.083295   0.002900   8.175697  -0.002695
     6  K    0.001187   0.002900  -0.083295  -0.027030  -0.002695   8.175697
 Mulliken charges:
               1
     1  C    0.704553
     2  O   -0.779187
     3  O   -1.012651
     4  O   -0.779187
     5  K    0.933236
     6  K    0.933236
 Sum of Mulliken charges =   0.00000
 Mulliken charges with hydrogens summed into heavy atoms:
               1
     1  C    0.704553
     2  O   -0.779187
     3  O   -1.012651
     4  O   -0.779187
     5  K    0.933236
     6  K    0.933236
 APT charges:
               1
     1  C    1.590265
     2  O   -1.101029
     3  O   -1.143876
     4  O   -1.101029
     5  K    0.877835
     6  K    0.877835
 Sum of APT charges =   0.00000
 APT charges with hydrogens summed into heavy atoms:
               1
     1  C    1.590265
     2  O   -1.101029
     3  O   -1.143876
     4  O   -1.101029
     5  K    0.877835
     6  K    0.877835
 Electronic spatial extent (au):  <R**2>=            729.9507
 Charge=              0.0000 electrons
 Dipole moment (field-independent basis, Debye):
    X=              0.0000    Y=              0.0000    Z=             10.8254  Tot=             10.8254
 Quadrupole moment (field-independent basis, Debye-Ang):
   XX=            -43.0614   YY=              2.7690   ZZ=            -55.8266
   XY=              0.0000   XZ=              0.0000   YZ=              0.0000
 Traceless Quadrupole moment (field-independent basis, Debye-Ang):
   XX=            -11.0217   YY=             34.8087   ZZ=            -23.7869
   XY=              0.0000   XZ=              0.0000   YZ=              0.0000
 Octapole moment (field-independent basis, Debye-Ang**2):
  XXX=              0.0000  YYY=              0.0000  ZZZ=             50.0855  XYY=              0.0000
  XXY=              0.0000  XXZ=              8.3698  XZZ=              0.0000  YZZ=              0.0000
  YYZ=             59.6409  XYZ=              0.0000
 Hexadecapole moment (field-independent basis, Debye-Ang**3):
 XXXX=            -43.8399 YYYY=           -479.2154 ZZZZ=           -327.0519 XXXY=              0.0000
 XXXZ=              0.0000 YYYX=              0.0000 YYYZ=              0.0000 ZZZX=              0.0000
 ZZZY=              0.0000 XXYY=           -146.0206 XXZZ=            -56.7548 YYZZ=           -188.4933
 XXYZ=              0.0000 YYXZ=              0.0000 ZZXY=              0.0000
 N-N= 2.092257730782D+02 E-N=-1.161591275043D+03  KE= 2.834019043473D+02
 Symmetry A1   KE= 1.803413968697D+02
 Symmetry A2   KE= 7.321587871393D+00
 Symmetry B1   KE= 1.039681924969D+01
 Symmetry B2   KE= 8.534210035653D+01
  Exact polarizability:  32.149   0.000  63.851   0.000   0.000  51.180
 Approx polarizability:  38.774   0.000  71.306   0.000   0.000  61.494
   4 Symmetry operations used in ECPInt.
 ECPInt:  NShTT=     741 NPrTT=    2859 LenC2=     739 LenP2D=    2375.
 LDataN:  DoStor=T MaxTD1= 8 Len=  415
 Calling FoFJK, ICntrl=    100127 FMM=F ISym2X=1 I1Cent= 0 IOpClX= 0 NMat=1 NMatS=1 NMatT=0.
 Full mass-weighted force constant matrix:
 Low frequencies ---   -5.9644   -2.7815   -0.0006    0.0007    0.0008    1.9480
 Low frequencies ---   72.1912   86.4484  120.2045
 Diagonal vibrational polarizability:
      136.1733800      45.1322137      82.4844828
 Harmonic frequencies (cm**-1), IR intensities (KM/Mole), Raman scattering
 activities (A**4/AMU), depolarization ratios for plane and unpolarized
 incident light, reduced masses (AMU), force constants (mDyne/A),
 and normal coordinates:
                      1                      2                      3
                     A2                     B1                     A1
 Frequencies --     72.1912                86.4484               120.2045
 Red. masses --     16.7283                17.4276                28.4073
 Frc consts  --      0.0514                 0.0767                 0.2418
 IR Inten    --      0.0000                37.6468                24.6097
  Atom  AN      X      Y      Z        X      Y      Z        X      Y      Z
     1   6     0.00   0.00   0.00     0.25   0.00   0.00     0.00   0.00   0.36
     2   8     0.70   0.00   0.00    -0.09   0.00   0.00     0.00  -0.02   0.31
     3   8     0.00   0.00   0.00     0.92   0.00   0.00     0.00   0.00   0.33
     4   8    -0.70   0.00   0.00    -0.09   0.00   0.00     0.00   0.02   0.31
     5  19    -0.13   0.00   0.00    -0.19   0.00   0.00     0.00   0.47  -0.25
     6  19     0.13   0.00   0.00    -0.19   0.00   0.00     0.00  -0.47  -0.25
                      4                      5                      6
                     A1                     B2                     B2
 Frequencies --    240.5484               275.1860               281.5800
 Red. masses --     25.1140                21.7655                17.0119
 Frc consts  --      0.8562                 0.9711                 0.7947
 IR Inten    --     50.8217                95.2595                 3.4868
  Atom  AN      X      Y      Z        X      Y      Z        X      Y      Z
     1   6     0.00   0.00  -0.40     0.00  -0.43   0.00     0.00   0.11   0.00
     2   8     0.00   0.05  -0.35     0.00  -0.48  -0.02     0.00  -0.17  -0.51
     3   8     0.00   0.00  -0.41     0.00  -0.28   0.00     0.00   0.61   0.00
     4   8     0.00  -0.05  -0.35     0.00  -0.48   0.02     0.00  -0.17   0.51
     5  19     0.00   0.36   0.29     0.00   0.32   0.20     0.00  -0.07   0.13
     6  19     0.00  -0.36   0.29     0.00   0.32  -0.20     0.00  -0.07  -0.13
                      7                      8                      9
                     A1                     B2                     B1
 Frequencies --    674.3748               684.9070               844.6628
 Red. masses --     15.7788                15.7419                12.6546
 Frc consts  --      4.2279                 4.3508                 5.3194
 IR Inten    --      0.0663                 4.1024                16.1322
  Atom  AN      X      Y      Z        X      Y      Z        X      Y      Z
     1   6     0.00   0.00   0.25     0.00  -0.27   0.00     0.91   0.00   0.00
     2   8     0.00  -0.43  -0.40     0.00  -0.17   0.45    -0.24   0.00   0.00
     3   8     0.00   0.00   0.50     0.00   0.68   0.00    -0.23   0.00   0.00
     4   8     0.00   0.43  -0.40     0.00  -0.17  -0.45    -0.24   0.00   0.00
     5  19     0.00   0.01   0.02     0.00  -0.03  -0.01     0.00   0.00   0.00
     6  19     0.00  -0.01   0.02     0.00  -0.03   0.01     0.00   0.00   0.00
                     10                     11                     12
                     A1                     A1                     B2
 Frequencies --    997.1866              1308.8362              1534.5869
 Red. masses --     15.5228                13.1755                12.8550
 Frc consts  --      9.0944                13.2980                17.8363
 IR Inten    --     95.7298               663.1961               862.9255
  Atom  AN      X      Y      Z        X      Y      Z        X      Y      Z
     1   6     0.00   0.00  -0.34     0.00   0.00   0.84     0.00   0.89   0.00
     2   8     0.00   0.46  -0.17     0.00   0.28  -0.23     0.00  -0.30   0.13
     3   8     0.00   0.00   0.63     0.00   0.00  -0.19     0.00  -0.06   0.00
     4   8     0.00  -0.46  -0.17     0.00  -0.28  -0.23     0.00  -0.30  -0.13
     5  19     0.00   0.00  -0.01     0.00  -0.01   0.00     0.00   0.00   0.00
     6  19     0.00   0.00  -0.01     0.00   0.01   0.00     0.00   0.00   0.00

 -------------------
 - Thermochemistry -
 -------------------
 Temperature   298.150 Kelvin.  Pressure   1.00000 Atm.
 Atom     1 has atomic number  6 and mass  12.00000
 Atom     2 has atomic number  8 and mass  15.99491
 Atom     3 has atomic number  8 and mass  15.99491
 Atom     4 has atomic number  8 and mass  15.99491
 Atom     5 has atomic number 19 and mass  38.96371
 Atom     6 has atomic number 19 and mass  38.96371
 Molecular mass:   137.91216 amu.
 Principal axes and moments of inertia in atomic units:
                           1         2         3
     Eigenvalues --   390.387721962.220332352.60806
           X            0.00000   0.00000   1.00000
           Y            1.00000   0.00000   0.00000
           Z            0.00000   1.00000   0.00000
 This molecule is an asymmetric top.
 Rotational symmetry number  2.
 Rotational temperatures (Kelvin)      0.22187     0.04414     0.03682
 Rotational constants (GHZ):           4.62295     0.91974     0.76712
 Zero-point vibrational energy      42591.3 (Joules/Mol)
                                   10.17957 (Kcal/Mol)
 Warning -- explicit consideration of   6 degrees of freedom as
           vibrations may cause significant error
 Vibrational temperatures:    103.87   124.38   172.95   346.10   395.93
          (Kelvin)            405.13   970.27   985.43  1215.28  1434.73
                             1883.12  2207.93
 
 Zero-point correction=                           0.016222 (Hartree/Particle)
 Thermal correction to Energy=                    0.023058
 Thermal correction to Enthalpy=                  0.024002
 Thermal correction to Gibbs Free Energy=        -0.016412
 Sum of electronic and zero-point Energies=           -320.550871
 Sum of electronic and thermal Energies=              -320.544035
 Sum of electronic and thermal Enthalpies=            -320.543091
 Sum of electronic and thermal Free Energies=         -320.583505
 
                     E (Thermal)             CV                S
                      KCal/Mol        Cal/Mol-Kelvin    Cal/Mol-Kelvin
 Total                   14.469             19.933             85.060
 Electronic               0.000              0.000              0.000
 Translational            0.889              2.981             40.676
 Rotational               0.889              2.981             27.601
 Vibrational             12.692             13.971             16.782
 Vibration     1          0.598              1.967              4.093
 Vibration     2          0.601              1.959              3.739
 Vibration     3          0.609              1.932              3.097
 Vibration     4          0.658              1.778              1.799
 Vibration     5          0.677              1.719              1.563
 Vibration     6          0.681              1.708              1.524
                       Q            Log10(Q)             Ln(Q)
 Total Bot       0.354087D+08          7.549110         17.382468
 Total V=0       0.102515D+16         15.010787         34.563614
 Vib (Bot)       0.231494D-05         -5.635460        -12.976127
 Vib (Bot)    1  0.285603D+01          0.455763          1.049433
 Vib (Bot)    2  0.237980D+01          0.376540          0.867015
 Vib (Bot)    3  0.170000D+01          0.230449          0.530628
 Vib (Bot)    4  0.814936D+00         -0.088877         -0.204646
 Vib (Bot)    5  0.700422D+00         -0.154640         -0.356072
 Vib (Bot)    6  0.682225D+00         -0.166072         -0.382396
 Vib (V=0)       0.670219D+02          1.826217          4.205019
 Vib (V=0)    1  0.339947D+01          0.531411          1.223619
 Vib (V=0)    2  0.293176D+01          0.467128          1.075601
 Vib (V=0)    3  0.227200D+01          0.356409          0.820662
 Vib (V=0)    4  0.145610D+01          0.163190          0.375759
 Vib (V=0)    5  0.136058D+01          0.133723          0.307908
 Vib (V=0)    6  0.134583D+01          0.128991          0.297012
 Electronic      0.100000D+01          0.000000          0.000000
 Translational   0.636587D+08          7.803858         17.969046
 Rotational      0.240277D+06          5.380712         12.389548
 ***** Axes restored to original set *****
 -------------------------------------------------------------------
 Center     Atomic                   Forces (Hartrees/Bohr)
 Number     Number              X              Y              Z
 -------------------------------------------------------------------
      1        6           0.000000000    0.000000000   -0.000094604
      2        8           0.000000000   -0.000018657    0.000025678
      3        8           0.000000000    0.000000000    0.000058755
      4        8           0.000000000    0.000018657    0.000025678
      5       19           0.000000000   -0.000007758   -0.000007753
      6       19           0.000000000    0.000007758   -0.000007753
 -------------------------------------------------------------------
 Cartesian Forces:  Max     0.000094604 RMS     0.000028536
 FormGI is forming the generalized inverse of G from B-inverse, IUseBI=4.

 GradGradGradGradGradGradGradGradGradGradGradGradGradGradGradGradGradGrad
 Berny optimization.
 Internal  Forces:  Max     0.000049274 RMS     0.000012987
 Search for a local minimum.
 Step number   1 out of a maximum of    2
 All quantities printed in internal units (Hartrees-Bohrs-Radians)
 Second derivative matrix not updated -- analytic derivatives used.
 ITU=  0
     Eigenvalues ---    0.00315   0.00824   0.02155   0.02204   0.02453
     Eigenvalues ---    0.03032   0.07116   0.13230   0.13920   0.27802
     Eigenvalues ---    0.45009   0.61919
 Angle between quadratic step and forces=  49.17 degrees.
 Linear search not attempted -- first point.
 Iteration  1 RMS(Cart)=  0.00005579 RMS(Int)=  0.00000000
 Iteration  2 RMS(Cart)=  0.00000000 RMS(Int)=  0.00000000
 ClnCor:  largest displacement from symmetrization is 5.49D-12 for atom     6.
 Variable       Old X    -DE/DX   Delta X   Delta X   Delta X     New X
                                 (Linear)    (Quad)   (Total)
    R1        2.42750  -0.00003   0.00000  -0.00008  -0.00008   2.42742
    R2        2.55959   0.00005   0.00000   0.00022   0.00022   2.55981
    R3        2.42750  -0.00003   0.00000  -0.00008  -0.00008   2.42742
    R4        5.55432   0.00000   0.00000  -0.00013  -0.00013   5.55419
    R5        5.55432   0.00000   0.00000  -0.00013  -0.00013   5.55419
    R6        4.73889  -0.00001   0.00000  -0.00020  -0.00020   4.73870
    R7        4.83139   0.00000   0.00000  -0.00015  -0.00015   4.83124
    R8        4.83139   0.00000   0.00000  -0.00015  -0.00015   4.83124
    R9        4.73889  -0.00001   0.00000  -0.00020  -0.00020   4.73870
    A1        2.06602   0.00000   0.00000  -0.00005  -0.00005   2.06598
    A2        2.15114   0.00001   0.00000   0.00009   0.00009   2.15123
    A3        2.06602   0.00000   0.00000  -0.00005  -0.00005   2.06598
    A4        2.10713   0.00000   0.00000  -0.00002  -0.00002   2.10711
    A5        0.92798   0.00000   0.00000   0.00005   0.00005   0.92803
    A6        0.92798   0.00000   0.00000   0.00005   0.00005   0.92803
    A7        3.11959  -0.00001   0.00000  -0.00006  -0.00006   3.11954
    A8        3.11959  -0.00001   0.00000  -0.00006  -0.00006   3.11954
    A9        3.21897  -0.00002   0.00000  -0.00009  -0.00009   3.21888
   A10        3.14159   0.00000   0.00000   0.00000   0.00000   3.14159
   A11        3.14159   0.00000   0.00000   0.00000   0.00000   3.14159
   A12        3.14159   0.00000   0.00000   0.00000   0.00000   3.14159
    D1        3.14159   0.00000   0.00000   0.00000   0.00000   3.14159
    D2        0.00000   0.00000   0.00000   0.00000   0.00000   0.00000
    D3        3.14159   0.00000   0.00000   0.00000   0.00000   3.14159
    D4        3.14159   0.00000   0.00000   0.00000   0.00000   3.14159
    D5        3.14159   0.00000   0.00000   0.00000   0.00000   3.14159
    D6        0.00000   0.00000   0.00000   0.00000   0.00000   0.00000
    D7        0.00000   0.00000   0.00000   0.00000   0.00000   0.00000
    D8        0.00000   0.00000   0.00000   0.00000   0.00000   0.00000
         Item               Value     Threshold  Converged?
 Maximum Force            0.000049     0.000450     YES
 RMS     Force            0.000013     0.000300     YES
 Maximum Displacement     0.000140     0.001800     YES
 RMS     Displacement     0.000056     0.001200     YES
 Predicted change in Energy=-1.141571D-08
 Optimization completed.
    -- Stationary point found.
                           ----------------------------
                           !   Optimized Parameters   !
                           ! (Angstroms and Degrees)  !
 --------------------------                            --------------------------
 ! Name  Definition              Value          Derivative Info.                !
 --------------------------------------------------------------------------------
 ! R1    R(1,2)                  1.2846         -DE/DX =    0.0                 !
 ! R2    R(1,3)                  1.3545         -DE/DX =    0.0                 !
 ! R3    R(1,4)                  1.2846         -DE/DX =    0.0                 !
 ! R4    R(1,5)                  2.9392         -DE/DX =    0.0                 !
 ! R5    R(1,6)                  2.9392         -DE/DX =    0.0                 !
 ! R6    R(2,5)                  2.5077         -DE/DX =    0.0                 !
 ! R7    R(3,5)                  2.5567         -DE/DX =    0.0                 !
 ! R8    R(3,6)                  2.5567         -DE/DX =    0.0                 !
 ! R9    R(4,6)                  2.5077         -DE/DX =    0.0                 !
 ! A1    A(2,1,3)              118.3745         -DE/DX =    0.0                 !
 ! A2    A(2,1,4)              123.251          -DE/DX =    0.0                 !
 ! A3    A(3,1,4)              118.3745         -DE/DX =    0.0                 !
 ! A4    A(5,1,6)              120.7299         -DE/DX =    0.0                 !
 ! A5    A(2,5,3)               53.1692         -DE/DX =    0.0                 !
 ! A6    A(3,6,4)               53.1692         -DE/DX =    0.0                 !
 ! A7    L(2,1,6,3,-1)         178.7394         -DE/DX =    0.0                 !
 ! A8    L(4,1,5,3,-1)         178.7394         -DE/DX =    0.0                 !
 ! A9    L(5,3,6,1,-1)         184.4334         -DE/DX =    0.0                 !
 ! A10   L(2,1,6,3,-2)         180.0            -DE/DX =    0.0                 !
 ! A11   L(4,1,5,3,-2)         180.0            -DE/DX =    0.0                 !
 ! A12   L(5,3,6,1,-2)         180.0            -DE/DX =    0.0                 !
 ! D1    D(2,1,3,4)            180.0            -DE/DX =    0.0                 !
 ! D2    D(2,1,3,5)              0.0            -DE/DX =    0.0                 !
 ! D3    D(2,1,3,6)            180.0            -DE/DX =    0.0                 !
 ! D4    D(2,1,4,6)            180.0            -DE/DX =    0.0                 !
 ! D5    D(2,1,5,6)            180.0            -DE/DX =    0.0                 !
 ! D6    D(1,2,5,4)              0.0            -DE/DX =    0.0                 !
 ! D7    D(4,3,6,1)              0.0            -DE/DX =    0.0                 !
 ! D8    D(2,5,6,4)              0.0            -DE/DX =    0.0                 !
 --------------------------------------------------------------------------------
 GradGradGradGradGradGradGradGradGradGradGradGradGradGradGradGradGradGrad


 ----------------------------------------------------------------------

 Electric dipole moment (input orientation):
 (Debye = 10**-18 statcoulomb cm , SI units = C m)
                  (au)            (Debye)         (10**-30 SI)
   Tot        0.425902D+01      0.108254D+02      0.361095D+02
   x          0.000000D+00      0.000000D+00      0.000000D+00
   y          0.000000D+00      0.000000D+00      0.000000D+00
   z          0.425902D+01      0.108254D+02      0.361095D+02

 Dipole polarizability, Alpha (input orientation).
 (esu units = cm**3 , SI units = C**2 m**2 J**-1)
 Alpha(0;0):
               (au)            (10**-24 esu)      (10**-40 SI)
   iso        0.490597D+02      0.726989D+01      0.808885D+01
   aniso      0.276382D+02      0.409556D+01      0.455692D+01
   xx         0.321487D+02      0.476395D+01      0.530061D+01
   yx         0.000000D+00      0.000000D+00      0.000000D+00
   yy         0.638506D+02      0.946169D+01      0.105275D+02
   zx         0.000000D+00      0.000000D+00      0.000000D+00
   zy         0.000000D+00      0.000000D+00      0.000000D+00
   zz         0.511797D+02      0.758404D+01      0.843839D+01

 ----------------------------------------------------------------------

 Dipole orientation:
     6          0.00000000          0.00000000         -1.56256725
     8          0.00000000          2.13586322         -2.71619557
     8          0.00000000          0.00000000          0.99702268
     8          0.00000000         -2.13586322         -2.71619557
    19          0.00000000          4.82777396          1.18389819
    19          0.00000000         -4.82777396          1.18389819

 Electric dipole moment (dipole orientation):
 (Debye = 10**-18 statcoulomb cm , SI units = C m)
                  (au)            (Debye)         (10**-30 SI)
   Tot        0.425902D+01      0.108254D+02      0.361095D+02
   x          0.000000D+00      0.000000D+00      0.000000D+00
   y          0.000000D+00      0.000000D+00      0.000000D+00
   z          0.425902D+01      0.108254D+02      0.361095D+02

 Dipole polarizability, Alpha (dipole orientation).
 (esu units = cm**3 , SI units = C**2 m**2 J**-1)
 Alpha(0;0):
               (au)            (10**-24 esu)      (10**-40 SI)
   iso        0.490597D+02      0.726989D+01      0.808885D+01
   aniso      0.276382D+02      0.409556D+01      0.455692D+01
   xx         0.321487D+02      0.476395D+01      0.530061D+01
   yx         0.000000D+00      0.000000D+00      0.000000D+00
   yy         0.638506D+02      0.946169D+01      0.105275D+02
   zx         0.000000D+00      0.000000D+00      0.000000D+00
   zy         0.000000D+00      0.000000D+00      0.000000D+00
   zz         0.511797D+02      0.758404D+01      0.843839D+01

 ----------------------------------------------------------------------
 1\1\GINC-IP-172-31-38-84\Freq\RB3LYP\Gen\C1K2O3\UBUNTU\13-Sep-2023\0\\
 #N Geom=AllCheck Guess=TCheck SCRF=Check GenChk RB3LYP/ChkBas Freq\\Ti
 tle Card Required\\0,1\C,0.,0.,-0.8268749782\O,0.,1.1302501406,-1.4373
 487958\O,0.,0.,0.527601683\O,0.,-1.1302501406,-1.4373487958\K,0.,2.554
 747957,0.6264919434\K,0.,-2.554747957,0.6264919434\\Version=EM64L-G16R
 evB.01\State=1-A1\HF=-320.5670932\RMSD=3.375e-09\RMSF=2.854e-05\ZeroPo
 int=0.0162222\Thermal=0.0230582\Dipole=0.,0.,4.2590236\DipoleDeriv=0.0
 483965,0.,0.,0.,2.4445581,0.,0.,0.,2.2778408,-0.5473519,0.,0.,0.,-1.74
 43947,0.4647166,0.,0.4792693,-1.0113411,-0.6550469,0.,0.,0.,-0.8477762
 ,0.,0.,0.,-1.9288048,-0.5473519,0.,0.,0.,-1.7443947,-0.4647166,0.,-0.4
 792693,-1.0113411,0.850677,0.,0.,0.,0.9460038,0.0466576,0.,0.0770952,0
 .836823,0.850677,0.,0.,0.,0.9460038,-0.0466576,0.,-0.0770952,0.836823\
 Polar=32.1487475,0.,63.8506342,0.,0.,51.1796546\Quadrupole=-8.1943922,
 25.8793891,-17.6849969,0.,0.,0.\PG=C02V [C2(C1O1),SGV(K2O2)]\NImag=0\\
 0.25706146,0.,0.80046101,0.,0.,0.55368078,-0.08848677,0.,0.,0.03192001
 ,0.,-0.33391757,0.12646514,0.,0.45304565,0.,0.12906456,-0.16871846,0.,
 -0.16963143,0.23107347,-0.08489535,0.,0.,0.02912895,0.,0.,0.03205166,0
 .,-0.10803761,0.,0.,-0.00137593,0.05974378,0.,0.15967686,0.,0.,-0.2207
 4291,0.,0.05301752,-0.06733160,0.,0.,0.36760948,-0.08848677,0.,0.,0.02
 899921,0.,0.,0.02912895,0.,0.,0.03192001,0.,-0.33391757,-0.12646514,0.
 ,-0.10850926,-0.00596667,0.,-0.00137593,-0.05301752,0.,0.45304565,0.,-
 0.12906457,-0.16871846,0.,0.00596667,0.02865258,0.,-0.05974377,-0.0673
 3160,0.,0.16963143,0.23107347,0.00240371,0.,0.,-0.00142531,0.,0.,-0.00
 270710,0.,0.,-0.00013609,0.,0.,0.00121994,0.,-0.01229413,-0.01404876,0
 .,-0.01231064,-0.01060768,0.,-0.02444370,0.00077675,0.,0.00306775,0.00
 260256,0.,0.04695360,0.,-0.01296441,0.00224953,0.,-0.01323350,-0.02356
 679,0.,0.00238610,-0.00610169,0.,0.00258440,-0.00010920,0.,0.02125226,
 0.02688022,0.00240371,0.,0.,-0.00013609,0.,0.,-0.00270710,0.,0.,-0.001
 42531,0.,0.,0.00064485,0.,0.,0.00121994,0.,-0.01229413,0.01404877,0.,0
 .00306775,-0.00260256,0.,-0.02444370,-0.00077675,0.,-0.01231064,0.0106
 0768,0.,-0.00097287,-0.00002487,0.,0.04695360,0.,0.01296441,0.00224953
 ,0.,-0.00258440,-0.00010920,0.,-0.00238611,-0.00610169,0.,0.01323350,-
 0.02356679,0.,0.00002487,0.00064793,0.,-0.02125226,0.02688022\\0.,0.,0
 .00009460,0.,0.00001866,-0.00002568,0.,0.,-0.00005875,0.,-0.00001866,-
 0.00002568,0.,0.00000776,0.00000775,0.,-0.00000776,0.00000775\\\@


 A DANDELION FROM A LOVER MEANS MORE THAN AN ORCHID FROM A FRIEND.
 Job cpu time:       0 days  0 hours  4 minutes  2.7 seconds.
 Elapsed time:       0 days  0 hours  0 minutes  7.6 seconds.
 File lengths (MBytes):  RWF=     11 Int=      0 D2E=      0 Chk=      2 Scr=      1
 Normal termination of Gaussian 16 at Wed Sep 13 09:32:39 2023.
