 Entering Gaussian System, Link 0=g16
 Input=/home/ubuntu/Downloads/KF-vol.gjf
 Output=/home/ubuntu/Downloads/KF-vol.log
 Initial command:
 /home/ubuntu/g16/l1.exe "/home/ubuntu/Scratch/Gau-50744.inp" -scrdir="/home/ubuntu/Scratch/"
 Entering Link 1 = /home/ubuntu/g16/l1.exe PID=     50748.
  
 Copyright (c) 1988-2017, Gaussian, Inc.  All Rights Reserved.
  
 This is part of the Gaussian(R) 16 program.  It is based on
 the Gaussian(R) 09 system (copyright 2009, Gaussian, Inc.),
 the Gaussian(R) 03 system (copyright 2003, Gaussian, Inc.),
 the Gaussian(R) 98 system (copyright 1998, Gaussian, Inc.),
 the Gaussian(R) 94 system (copyright 1995, Gaussian, Inc.),
 the Gaussian 92(TM) system (copyright 1992, Gaussian, Inc.),
 the Gaussian 90(TM) system (copyright 1990, Gaussian, Inc.),
 the Gaussian 88(TM) system (copyright 1988, Gaussian, Inc.),
 the Gaussian 86(TM) system (copyright 1986, Carnegie Mellon
 University), and the Gaussian 82(TM) system (copyright 1983,
 Carnegie Mellon University). Gaussian is a federally registered
 trademark of Gaussian, Inc.
  
 This software contains proprietary and confidential information,
 including trade secrets, belonging to Gaussian, Inc.
  
 This software is provided under written license and may be
 used, copied, transmitted, or stored only in accord with that
 written license.
  
 The following legend is applicable only to US Government
 contracts under FAR:
  
                    RESTRICTED RIGHTS LEGEND
  
 Use, reproduction and disclosure by the US Government is
 subject to restrictions as set forth in subparagraphs (a)
 and (c) of the Commercial Computer Software - Restricted
 Rights clause in FAR 52.227-19.
  
 Gaussian, Inc.
 340 Quinnipiac St., Bldg. 40, Wallingford CT 06492
  
  
 ---------------------------------------------------------------
 Warning -- This program may not be used in any manner that
 competes with the business of Gaussian, Inc. or will provide
 assistance to any competitor of Gaussian, Inc.  The licensee
 of this program is prohibited from giving any competitor of
 Gaussian, Inc. access to this program.  By using this program,
 the user acknowledges that Gaussian, Inc. is engaged in the
 business of creating and licensing software in the field of
 computational chemistry and represents and warrants to the
 licensee that it is not a competitor of Gaussian, Inc. and that
 it will not use this program in any manner prohibited above.
 ---------------------------------------------------------------
  

 Cite this work as:
 Gaussian 16, Revision B.01,
 M. J. Frisch, G. W. Trucks, H. B. Schlegel, G. E. Scuseria, 
 M. A. Robb, J. R. Cheeseman, G. Scalmani, V. Barone, 
 G. A. Petersson, H. Nakatsuji, X. Li, M. Caricato, A. V. Marenich, 
 J. Bloino, B. G. Janesko, R. Gomperts, B. Mennucci, H. P. Hratchian, 
 J. V. Ortiz, A. F. Izmaylov, J. L. Sonnenberg, D. Williams-Young, 
 F. Ding, F. Lipparini, F. Egidi, J. Goings, B. Peng, A. Petrone, 
 T. Henderson, D. Ranasinghe, V. G. Zakrzewski, J. Gao, N. Rega, 
 G. Zheng, W. Liang, M. Hada, M. Ehara, K. Toyota, R. Fukuda, 
 J. Hasegawa, M. Ishida, T. Nakajima, Y. Honda, O. Kitao, H. Nakai, 
 T. Vreven, K. Throssell, J. A. Montgomery, Jr., J. E. Peralta, 
 F. Ogliaro, M. J. Bearpark, J. J. Heyd, E. N. Brothers, K. N. Kudin, 
 V. N. Staroverov, T. A. Keith, R. Kobayashi, J. Normand, 
 K. Raghavachari, A. P. Rendell, J. C. Burant, S. S. Iyengar, 
 J. Tomasi, M. Cossi, J. M. Millam, M. Klene, C. Adamo, R. Cammi, 
 J. W. Ochterski, R. L. Martin, K. Morokuma, O. Farkas, 
 J. B. Foresman, and D. J. Fox, Gaussian, Inc., Wallingford CT, 2016.
 
 ******************************************
 Gaussian 16:  EM64L-G16RevB.01 20-Dec-2017
                13-Sep-2023 
 ******************************************
 %chk=KF-vol.chk
 ----------------------------------------------------------------------
 # opt freq b3lyp/gen empiricaldispersion=gd3 pseudo=read scf=maxcycle=
 1000 volume
 ----------------------------------------------------------------------
 1/18=20,19=15,26=3,38=1/1,3;
 2/9=110,12=2,17=6,18=5,40=1/2;
 3/5=7,11=2,16=1,17=8,25=1,30=1,71=1,74=-5,124=31/1,2,3;
 4//1;
 5/5=2,7=1000,38=5/2;
 6/7=2,8=2,9=2,10=2,28=1,44=1/1,4;
 7//1,2,3,16;
 1/18=20,19=15,26=3/3(2);
 2/9=110/2;
 99//99;
 2/9=110/2;
 3/5=7,6=1,11=2,16=1,17=8,25=1,30=1,71=1,74=-5,82=7,124=31/1,2,3;
 4/5=5,16=3,69=1/1;
 5/5=2,7=1000,38=5/2;
 7//1,2,3,16;
 1/18=20,19=15,26=3/3(-5);
 2/9=110/2;
 6/7=2,8=2,9=2,10=2,19=2,28=1,44=1/1,4;
 99/9=1/99;
 -------------------
 Title Card Required
 -------------------
 Symbolic Z-matrix:
 Charge =  0 Multiplicity = 1
 F                     0.        0.       -1.57002 
 K                     0.        0.        0.7437 
 

 GradGradGradGradGradGradGradGradGradGradGradGradGradGradGradGradGradGrad
 Berny optimization.
 Initialization pass.
                           ----------------------------
                           !    Initial Parameters    !
                           ! (Angstroms and Degrees)  !
 --------------------------                            --------------------------
 ! Name  Definition              Value          Derivative Info.                !
 --------------------------------------------------------------------------------
 ! R1    R(1,2)                  2.3137         estimate D2E/DX2                !
 --------------------------------------------------------------------------------
 Trust Radius=3.00D-01 FncErr=1.00D-07 GrdErr=1.00D-06 EigMax=2.50D+02 EigMin=1.00D-04
 Number of steps in this run=     20 maximum allowed number of steps=    100.
 GradGradGradGradGradGradGradGradGradGradGradGradGradGradGradGradGradGrad

                          Input orientation:                          
 ---------------------------------------------------------------------
 Center     Atomic      Atomic             Coordinates (Angstroms)
 Number     Number       Type             X           Y           Z
 ---------------------------------------------------------------------
      1          9           0        0.000000    0.000000   -1.570023
      2         19           0        0.000000    0.000000    0.743695
 ---------------------------------------------------------------------
 Stoichiometry    FK
 Framework group  C*V[C*(FK)]
 Deg. of freedom     1
 Full point group                 C*V     NOp   4
 Largest Abelian subgroup         C2V     NOp   4
 Largest concise Abelian subgroup C1      NOp   1
                         Standard orientation:                         
 ---------------------------------------------------------------------
 Center     Atomic      Atomic             Coordinates (Angstroms)
 Number     Number       Type             X           Y           Z
 ---------------------------------------------------------------------
      1          9           0        0.000000    0.000000   -1.570023
      2         19           0        0.000000    0.000000    0.743695
 ---------------------------------------------------------------------
 Rotational constants (GHZ):           0.0000000           7.3920205           7.3920205
 General basis read from cards:  (5D, 7F)
 ======================================================================================================
                                       Pseudopotential Parameters
 ======================================================================================================
  Center     Atomic      Valence      Angular      Power
  Number     Number     Electrons     Momentum     of R      Exponent        Coefficient   SO-Coeffient
 ======================================================================================================
    1          9
                                   No pseudopotential on this center.
    2         19            9
                                      G and up 
                                                     2        1.0000000        0.00000000    0.00000000
                                      S - G
                                                     2        6.8438070       92.25263900    0.00000000
                                      P - G
                                                     2        4.2178570       23.49803500    0.00000000
                                      D - G
                                                     2        6.4975370       -7.31542000    0.00000000
                                      F - G
                                                     2        6.1236130       -3.85832000    0.00000000
 ======================================================================================================
 There are    19 symmetry adapted cartesian basis functions of A1  symmetry.
 There are     1 symmetry adapted cartesian basis functions of A2  symmetry.
 There are     8 symmetry adapted cartesian basis functions of B1  symmetry.
 There are     8 symmetry adapted cartesian basis functions of B2  symmetry.
 There are    18 symmetry adapted basis functions of A1  symmetry.
 There are     1 symmetry adapted basis functions of A2  symmetry.
 There are     8 symmetry adapted basis functions of B1  symmetry.
 There are     8 symmetry adapted basis functions of B2  symmetry.
    35 basis functions,    57 primitive gaussians,    36 cartesian basis functions
     9 alpha electrons        9 beta electrons
       nuclear repulsion energy        18.5257469080 Hartrees.
 NAtoms=    2 NActive=    2 NUniq=    2 SFac= 1.00D+00 NAtFMM=   60 NAOKFM=F Big=F
 Integral buffers will be    131072 words long.
 Raffenetti 2 integral format.
 Two-electron integral symmetry is turned on.
 Nuclear repulsion after empirical dispersion term =       18.5254626132 Hartrees.
 One-electron integrals computed using PRISM.
   4 Symmetry operations used in ECPInt.
 ECPInt:  NShTT=     105 NPrTT=     349 LenC2=     106 LenP2D=     327.
 LDataN:  DoStor=T MaxTD1= 6 Len=  172
 NBasis=    35 RedAO= T EigKep=  2.73D-02  NBF=    18     1     8     8
 NBsUse=    35 1.00D-06 EigRej= -1.00D+00 NBFU=    18     1     8     8
 ExpMin= 1.65D-02 ExpMax= 7.00D+03 ExpMxC= 1.05D+03 IAcc=3 IRadAn=         5 AccDes= 0.00D+00
 Harris functional with IExCor=  402 and IRadAn=       5 diagonalized for initial guess.
 HarFok:  IExCor=  402 AccDes= 0.00D+00 IRadAn=         5 IDoV= 1 UseB2=F ITyADJ=14
 ICtDFT=  3500011 ScaDFX=  1.000000  1.000000  1.000000  1.000000
 FoFCou: FMM=F IPFlag=           0 FMFlag=      100000 FMFlg1=           0
         NFxFlg=           0 DoJE=T BraDBF=F KetDBF=T FulRan=T
         wScrn=  0.000000 ICntrl=       500 IOpCl=  0 I1Cent=   200000004 NGrid=           0
         NMat0=    1 NMatS0=      1 NMatT0=    0 NMatD0=    1 NMtDS0=    0 NMtDT0=    0
 Petite list used in FoFCou.
 Initial guess orbital symmetries:
       Occupied  (SG) (SG) (SG) (SG) (PI) (PI) (PI) (PI) (SG)
       Virtual   (SG) (PI) (PI) (SG) (SG) (PI) (PI) (SG) (SG) (PI)
                 (PI) (SG) (SG) (SG) (PI) (PI) (PI) (PI) (SG) (DLTA)
                 (DLTA) (PI) (PI) (SG) (SG) (SG)
 The electronic state of the initial guess is 1-SG.
 Keep R1 ints in memory in symmetry-blocked form, NReq=1065813.
 Requested convergence on RMS density matrix=1.00D-08 within1000 cycles.
 Requested convergence on MAX density matrix=1.00D-06.
 Requested convergence on             energy=1.00D-06.
 No special actions if energy rises.
 SCF Done:  E(RB3LYP) =  -128.213853251     A.U. after   11 cycles
            NFock= 11  Conv=0.56D-08     -V/T= 2.1657

 **********************************************************************

            Population analysis using the SCF Density.

 **********************************************************************

 Orbital symmetries:
       Occupied  (SG) (SG) (SG) (PI) (PI) (SG) (SG) (PI) (PI)
       Virtual   (SG) (PI) (PI) (SG) (SG) (PI) (PI) (SG) (PI) (PI)
                 (SG) (SG) (SG) (SG) (PI) (PI) (PI) (PI) (SG) (PI)
                 (PI) (DLTA) (DLTA) (SG) (SG) (SG)
 The electronic state is 1-SG.
 Alpha  occ. eigenvalues --  -24.47108  -1.40109  -0.92360  -0.74473  -0.74473
 Alpha  occ. eigenvalues --   -0.73054  -0.20680  -0.20417  -0.20417
 Alpha virt. eigenvalues --   -0.06077   0.00348   0.00348   0.02547   0.03880
 Alpha virt. eigenvalues --    0.24484   0.24484   0.29569   0.31304   0.31304
 Alpha virt. eigenvalues --    0.32117   0.37728   0.86025   1.34123   1.41828
 Alpha virt. eigenvalues --    1.41828   1.65255   1.65255   1.75443   2.03124
 Alpha virt. eigenvalues --    2.03124   2.03228   2.03228   2.12842   2.16433
 Alpha virt. eigenvalues --   20.20677
          Condensed to atoms (all electrons):
               1          2
     1  F   10.002751  -0.070171
     2  K   -0.070171   8.137592
 Mulliken charges:
               1
     1  F   -0.932579
     2  K    0.932579
 Sum of Mulliken charges =   0.00000
 Mulliken charges with hydrogens summed into heavy atoms:
               1
     1  F   -0.932579
     2  K    0.932579
 Electronic spatial extent (au):  <R**2>=            138.3091
 Charge=              0.0000 electrons
 Dipole moment (field-independent basis, Debye):
    X=              0.0000    Y=              0.0000    Z=             10.3017  Tot=             10.3017
 Quadrupole moment (field-independent basis, Debye-Ang):
   XX=            -15.7271   YY=            -15.7271   ZZ=            -24.1093
   XY=              0.0000   XZ=              0.0000   YZ=              0.0000
 Traceless Quadrupole moment (field-independent basis, Debye-Ang):
   XX=              2.7941   YY=              2.7941   ZZ=             -5.5882
   XY=              0.0000   XZ=              0.0000   YZ=              0.0000
 Octapole moment (field-independent basis, Debye-Ang**2):
  XXX=              0.0000  YYY=              0.0000  ZZZ=             31.8442  XYY=              0.0000
  XXY=              0.0000  XXZ=              4.9129  XZZ=              0.0000  YZZ=              0.0000
  YYZ=              4.9129  XYZ=              0.0000
 Hexadecapole moment (field-independent basis, Debye-Ang**3):
 XXXX=            -15.2123 YYYY=            -15.2123 ZZZZ=           -171.5364 XXXY=              0.0000
 XXXZ=              0.0000 YYYX=              0.0000 YYYZ=              0.0000 ZZZX=              0.0000
 ZZZY=              0.0000 XXYY=             -5.0708 XXZZ=            -27.3954 YYZZ=            -27.3954
 XXYZ=              0.0000 YYXZ=              0.0000 ZZXY=              0.0000
 N-N= 1.852546261323D+01 E-N=-3.355923529663D+02  KE= 1.099901308418D+02
 Symmetry A1   KE= 9.276243617528D+01
 Symmetry A2   KE= 3.439601581756D-52
 Symmetry B1   KE= 8.613847333241D+00
 Symmetry B2   KE= 8.613847333242D+00
 Evaluate density.
 Using the total density.
 Monte-Carlo method of calculating molar volume:
 based on  0.001 e/bohr**3 density envelope.
 Number of points per bohr**3 =   20 CutOff= 1.00D-04
 Using the SCF density.
 There are       695 points.  Will hold       695 in memory.
 LenV=   104828504 MDV=   104857600.
 Box volume =42126.571 fraction occupied=0.013
 Integrated density= 8.0998582071135488D+00 error=-9.9001417928864512D+00
 Molar volume =  545.524 bohr**3/mol ( 48.682 cm**3/mol)
 Recommended a0 for SCRF calculation =  3.45 angstrom (  6.52 bohr)
   4 Symmetry operations used in ECPInt.
 ECPInt:  NShTT=     105 NPrTT=     349 LenC2=     106 LenP2D=     327.
 LDataN:  DoStor=T MaxTD1= 7 Len=  274
 Calling FoFJK, ICntrl=      2127 FMM=F ISym2X=1 I1Cent= 0 IOpClX= 0 NMat=1 NMatS=1 NMatT=0.
 ***** Axes restored to original set *****
 -------------------------------------------------------------------
 Center     Atomic                   Forces (Hartrees/Bohr)
 Number     Number              X              Y              Z
 -------------------------------------------------------------------
      1        9           0.000000000    0.000000000    0.000147617
      2       19           0.000000000    0.000000000   -0.000147617
 -------------------------------------------------------------------
 Cartesian Forces:  Max     0.000147617 RMS     0.000085227

 GradGradGradGradGradGradGradGradGradGradGradGradGradGradGradGradGradGrad
 Berny optimization.
 FormGI is forming the generalized inverse of G from B-inverse, IUseBI=4.
 Internal  Forces:  Max     0.000147617 RMS     0.000147617
 Search for a local minimum.
 Step number   1 out of a maximum of   20
 All quantities printed in internal units (Hartrees-Bohrs-Radians)
 Mixed Optimization -- En-DIIS/RFO-DIIS
 Second derivative matrix not updated -- first step.
 The second derivative matrix:
                          R1
           R1           0.07111
 ITU=  0
     Eigenvalues ---    0.07111
 RFO step:  Lambda=-3.06424353D-07 EMin= 7.11128271D-02
 Linear search not attempted -- first point.
 Iteration  1 RMS(Cart)=  0.00146782 RMS(Int)=  0.00000000
 Iteration  2 RMS(Cart)=  0.00000000 RMS(Int)=  0.00000000
 ClnCor:  largest displacement from symmetrization is 0.00D+00 for atom     0.
 Variable       Old X    -DE/DX   Delta X   Delta X   Delta X     New X
                                 (Linear)    (Quad)   (Total)
    R1        4.37229  -0.00015   0.00000  -0.00208  -0.00208   4.37022
         Item               Value     Threshold  Converged?
 Maximum Force            0.000148     0.000450     YES
 RMS     Force            0.000148     0.000300     YES
 Maximum Displacement     0.001038     0.001800     YES
 RMS     Displacement     0.001468     0.001200     NO 
 Predicted change in Energy=-1.532128D-07
 GradGradGradGradGradGradGradGradGradGradGradGradGradGradGradGradGradGrad

                          Input orientation:                          
 ---------------------------------------------------------------------
 Center     Atomic      Atomic             Coordinates (Angstroms)
 Number     Number       Type             X           Y           Z
 ---------------------------------------------------------------------
      1          9           0        0.000000    0.000000   -1.569474
      2         19           0        0.000000    0.000000    0.743146
 ---------------------------------------------------------------------
 Stoichiometry    FK
 Framework group  C*V[C*(FK)]
 Deg. of freedom     1
 Full point group                 C*V     NOp   4
 Largest Abelian subgroup         C2V     NOp   4
 Largest concise Abelian subgroup C1      NOp   1
                         Standard orientation:                         
 ---------------------------------------------------------------------
 Center     Atomic      Atomic             Coordinates (Angstroms)
 Number     Number       Type             X           Y           Z
 ---------------------------------------------------------------------
      1          9           0        0.000000    0.000000   -1.569278
      2         19           0        0.000000    0.000000    0.743342
 ---------------------------------------------------------------------
 Rotational constants (GHZ):           0.0000000           7.3990445           7.3990445
 Basis read from rwf:  (5D, 7F)
 Pseudo-potential data read from rwf file.
 There are    19 symmetry adapted cartesian basis functions of A1  symmetry.
 There are     1 symmetry adapted cartesian basis functions of A2  symmetry.
 There are     8 symmetry adapted cartesian basis functions of B1  symmetry.
 There are     8 symmetry adapted cartesian basis functions of B2  symmetry.
 There are    18 symmetry adapted basis functions of A1  symmetry.
 There are     1 symmetry adapted basis functions of A2  symmetry.
 There are     8 symmetry adapted basis functions of B1  symmetry.
 There are     8 symmetry adapted basis functions of B2  symmetry.
    35 basis functions,    57 primitive gaussians,    36 cartesian basis functions
     9 alpha electrons        9 beta electrons
       nuclear repulsion energy        18.5345464365 Hartrees.
 NAtoms=    2 NActive=    2 NUniq=    2 SFac= 1.00D+00 NAtFMM=   60 NAOKFM=F Big=F
 Integral buffers will be    131072 words long.
 Raffenetti 2 integral format.
 Two-electron integral symmetry is turned on.
 Nuclear repulsion after empirical dispersion term =       18.5342631996 Hartrees.
 One-electron integrals computed using PRISM.
   4 Symmetry operations used in ECPInt.
 ECPInt:  NShTT=     105 NPrTT=     349 LenC2=     106 LenP2D=     327.
 LDataN:  DoStor=T MaxTD1= 6 Len=  172
 NBasis=    35 RedAO= T EigKep=  2.72D-02  NBF=    18     1     8     8
 NBsUse=    35 1.00D-06 EigRej= -1.00D+00 NBFU=    18     1     8     8
 Initial guess from the checkpoint file:  "KF-vol.chk"
 B after Tr=     0.000000    0.000000    0.000000
         Rot=    1.000000    0.000000    0.000000    0.000000 Ang=   0.00 deg.
 Initial guess orbital symmetries:
       Occupied  (SG) (SG) (SG) (PI) (PI) (SG) (SG) (PI) (PI)
       Virtual   (SG) (PI) (PI) (SG) (SG) (PI) (PI) (SG) (PI) (PI)
                 (SG) (SG) (SG) (SG) (PI) (PI) (PI) (PI) (SG) (PI)
                 (PI) (DLTA) (DLTA) (SG) (SG) (SG)
 Keep R1 ints in memory in symmetry-blocked form, NReq=1065813.
 Requested convergence on RMS density matrix=1.00D-08 within1000 cycles.
 Requested convergence on MAX density matrix=1.00D-06.
 Requested convergence on             energy=1.00D-06.
 No special actions if energy rises.
 SCF Done:  E(RB3LYP) =  -128.213853416     A.U. after    6 cycles
            NFock=  6  Conv=0.80D-08     -V/T= 2.1657
   4 Symmetry operations used in ECPInt.
 ECPInt:  NShTT=     105 NPrTT=     349 LenC2=     106 LenP2D=     327.
 LDataN:  DoStor=T MaxTD1= 7 Len=  274
 Calling FoFJK, ICntrl=      2127 FMM=F ISym2X=1 I1Cent= 0 IOpClX= 0 NMat=1 NMatS=1 NMatT=0.
 ***** Axes restored to original set *****
 -------------------------------------------------------------------
 Center     Atomic                   Forces (Hartrees/Bohr)
 Number     Number              X              Y              Z
 -------------------------------------------------------------------
      1        9           0.000000000    0.000000000    0.000011124
      2       19           0.000000000    0.000000000   -0.000011124
 -------------------------------------------------------------------
 Cartesian Forces:  Max     0.000011124 RMS     0.000006422

 GradGradGradGradGradGradGradGradGradGradGradGradGradGradGradGradGradGrad
 Berny optimization.
 Using GEDIIS/GDIIS optimizer.
 Internal  Forces:  Max     0.000011124 RMS     0.000011124
 Search for a local minimum.
 Step number   2 out of a maximum of   20
 All quantities printed in internal units (Hartrees-Bohrs-Radians)
 Mixed Optimization -- En-DIIS/RFO-DIIS
 Swapping is turned off.
 Update second derivatives using D2CorX and points    1    2
 DE= -1.65D-07 DEPred=-1.53D-07 R= 1.08D+00
 Trust test= 1.08D+00 RLast= 2.08D-03 DXMaxT set to 3.00D-01
 The second derivative matrix:
                          R1
           R1           0.06575
 ITU=  0  0
     Eigenvalues ---    0.06575
 En-DIIS/RFO-DIIS/Sim-DIIS IScMMF=       -3 using points:     2    1
 RFO step:  Lambda=-1.88176187D-09.
 DidBck=F Rises=F RFO-DIIS coefs:    1.08150   -0.08150
 Iteration  1 RMS(Cart)=  0.00011962 RMS(Int)=  0.00000000
 Iteration  2 RMS(Cart)=  0.00000000 RMS(Int)=  0.00000000
 ClnCor:  largest displacement from symmetrization is 0.00D+00 for atom     0.
 Variable       Old X    -DE/DX   Delta X   Delta X   Delta X     New X
                                 (Linear)    (Quad)   (Total)
    R1        4.37022  -0.00001  -0.00017   0.00000  -0.00017   4.37005
         Item               Value     Threshold  Converged?
 Maximum Force            0.000011     0.000450     YES
 RMS     Force            0.000011     0.000300     YES
 Maximum Displacement     0.000085     0.001800     YES
 RMS     Displacement     0.000120     0.001200     YES
 Predicted change in Energy=-9.408810D-10
 Optimization completed.
    -- Stationary point found.
                           ----------------------------
                           !   Optimized Parameters   !
                           ! (Angstroms and Degrees)  !
 --------------------------                            --------------------------
 ! Name  Definition              Value          Derivative Info.                !
 --------------------------------------------------------------------------------
 ! R1    R(1,2)                  2.3126         -DE/DX =    0.0                 !
 --------------------------------------------------------------------------------
 GradGradGradGradGradGradGradGradGradGradGradGradGradGradGradGradGradGrad

                          Input orientation:                          
 ---------------------------------------------------------------------
 Center     Atomic      Atomic             Coordinates (Angstroms)
 Number     Number       Type             X           Y           Z
 ---------------------------------------------------------------------
      1          9           0        0.000000    0.000000   -1.569474
      2         19           0        0.000000    0.000000    0.743146
 ---------------------------------------------------------------------
 Stoichiometry    FK
 Framework group  C*V[C*(FK)]
 Deg. of freedom     1
 Full point group                 C*V     NOp   4
 Largest Abelian subgroup         C2V     NOp   4
 Largest concise Abelian subgroup C1      NOp   1
                         Standard orientation:                         
 ---------------------------------------------------------------------
 Center     Atomic      Atomic             Coordinates (Angstroms)
 Number     Number       Type             X           Y           Z
 ---------------------------------------------------------------------
      1          9           0        0.000000    0.000000   -1.569278
      2         19           0        0.000000    0.000000    0.743342
 ---------------------------------------------------------------------
 Rotational constants (GHZ):           0.0000000           7.3990445           7.3990445

 **********************************************************************

            Population analysis using the SCF Density.

 **********************************************************************

 Orbital symmetries:
       Occupied  (SG) (SG) (SG) (PI) (PI) (SG) (SG) (PI) (PI)
       Virtual   (SG) (PI) (PI) (SG) (SG) (PI) (PI) (SG) (PI) (PI)
                 (SG) (SG) (SG) (SG) (PI) (PI) (PI) (PI) (SG) (PI)
                 (PI) (DLTA) (DLTA) (SG) (SG) (SG)
 The electronic state is 1-SG.
 Alpha  occ. eigenvalues --  -24.47110  -1.40101  -0.92367  -0.74465  -0.74465
 Alpha  occ. eigenvalues --   -0.73045  -0.20684  -0.20422  -0.20422
 Alpha virt. eigenvalues --   -0.06074   0.00350   0.00350   0.02549   0.03881
 Alpha virt. eigenvalues --    0.24489   0.24489   0.29569   0.31302   0.31302
 Alpha virt. eigenvalues --    0.32116   0.37727   0.86044   1.34109   1.41834
 Alpha virt. eigenvalues --    1.41834   1.65251   1.65251   1.75451   2.03117
 Alpha virt. eigenvalues --    2.03117   2.03221   2.03221   2.12887   2.16436
 Alpha virt. eigenvalues --   20.20696
          Condensed to atoms (all electrons):
               1          2
     1  F   10.003217  -0.070582
     2  K   -0.070582   8.137946
 Mulliken charges:
               1
     1  F   -0.932635
     2  K    0.932635
 Sum of Mulliken charges =   0.00000
 Mulliken charges with hydrogens summed into heavy atoms:
               1
     1  F   -0.932635
     2  K    0.932635
 Electronic spatial extent (au):  <R**2>=            138.2118
 Charge=              0.0000 electrons
 Dipole moment (field-independent basis, Debye):
    X=              0.0000    Y=              0.0000    Z=             10.2968  Tot=             10.2968
 Quadrupole moment (field-independent basis, Debye-Ang):
   XX=            -15.7265   YY=            -15.7265   ZZ=            -24.1035
   XY=              0.0000   XZ=              0.0000   YZ=              0.0000
 Traceless Quadrupole moment (field-independent basis, Debye-Ang):
   XX=              2.7923   YY=              2.7923   ZZ=             -5.5846
   XY=              0.0000   XZ=              0.0000   YZ=              0.0000
 Octapole moment (field-independent basis, Debye-Ang**2):
  XXX=              0.0000  YYY=              0.0000  ZZZ=             31.8116  XYY=              0.0000
  XXY=              0.0000  XXZ=              4.9102  XZZ=              0.0000  YZZ=              0.0000
  YYZ=              4.9102  XYZ=              0.0000
 Hexadecapole moment (field-independent basis, Debye-Ang**3):
 XXXX=            -15.2090 YYYY=            -15.2090 ZZZZ=           -171.3751 XXXY=              0.0000
 XXXZ=              0.0000 YYYX=              0.0000 YYYZ=              0.0000 ZZZX=              0.0000
 ZZZY=              0.0000 XXYY=             -5.0697 XXZZ=            -27.3744 YYZZ=            -27.3744
 XXYZ=              0.0000 YYXZ=              0.0000 ZZXY=              0.0000
 N-N= 1.853426319964D+01 E-N=-3.356105208495D+02  KE= 1.099905981308D+02
 Symmetry A1   KE= 9.276313646471D+01
 Symmetry A2   KE= 3.439601581756D-52
 Symmetry B1   KE= 8.613730833024D+00
 Symmetry B2   KE= 8.613730833024D+00
 Evaluate density.
 Using the total density.
 Monte-Carlo method of calculating molar volume:
 based on  0.001 e/bohr**3 density envelope.
 Number of points per bohr**3 =   20 CutOff= 1.00D-04
 Using the SCF density.
 There are       695 points.  Will hold       695 in memory.
 LenV=   104828504 MDV=   104857600.
 Box volume =42126.571 fraction occupied=0.012
 Integrated density= 1.0634762191660487D+02 error= 8.8347621916604865D+01
 Molar volume =  484.910 bohr**3/mol ( 43.273 cm**3/mol)
 Recommended a0 for SCRF calculation =  3.34 angstrom (  6.31 bohr)
 1\1\GINC-IP-172-31-38-84\FOpt\RB3LYP\Gen\F1K1\UBUNTU\13-Sep-2023\0\\# 
 opt freq b3lyp/gen empiricaldispersion=gd3 pseudo=read scf=maxcycle=10
 00 volume\\Title Card Required\\0,1\F,0.,0.,-1.5694737654\K,0.,0.,0.74
 31457654\\Version=EM64L-G16RevB.01\State=1-SG\HF=-128.2138534\RMSD=7.9
 77e-09\RMSF=6.422e-06\Dipole=0.,0.,4.0510828\Quadrupole=2.0760224,2.07
 60224,-4.1520448,0.,0.,0.\PG=C*V [C*(F1K1)]\\@


 I DO NOT KNOW WHAT I MAY APPEAR TO THE WORLD; BUT TO MYSELF
 I SEEM TO HAVE BEEN ONLY LIKE A BOY PLAYING ON THE SEASHORE,
 AND DIVERTING MYSELF IN NOW AND THEN FINDING A SMOOTHER PEBBLE
 OR A PRETTIER SHELL THAN ORDINARY, WHILST THE GREAT OCEAN OF
 TRUTH LAY ALL UNDISCOVERED BEFORE ME.
                                          -- NEWTON (1642-1726)
 Job cpu time:       0 days  0 hours  0 minutes  2.3 seconds.
 Elapsed time:       0 days  0 hours  0 minutes  2.2 seconds.
 File lengths (MBytes):  RWF=      6 Int=      0 D2E=      0 Chk=      1 Scr=      1
 Normal termination of Gaussian 16 at Wed Sep 13 09:34:38 2023.
 Link1:  Proceeding to internal job step number  2.
 ------------------------------------------------------------------
 #N Geom=AllCheck Guess=TCheck SCRF=Check GenChk RB3LYP/ChkBas Freq
 ------------------------------------------------------------------
 1/10=4,29=7,30=1,38=1,40=1/1,3;
 2/12=2,40=1/2;
 3/5=7,6=2,11=2,14=-4,16=1,17=8,25=1,30=1,67=1,70=2,71=2,74=-5,82=7,116=1,124=31,140=1/1,2,3;
 4/5=101/1;
 5/5=2,7=1000,38=6,98=1/2;
 8/6=4,10=90,11=11/1;
 11/6=1,8=1,9=11,15=111,16=1/1,2,10;
 10/6=1/2;
 6/7=2,8=2,9=2,10=2,28=1/1;
 7/8=1,10=1,25=1/1,2,3,16;
 1/10=4,30=1/3;
 99//99;
 Structure from the checkpoint file:  "KF-vol.chk"
 -------------------
 Title Card Required
 -------------------
 Charge =  0 Multiplicity = 1
 Redundant internal coordinates found in file.  (old form).
 F,0,0.,0.,-1.5694737654
 K,0,0.,0.,0.7431457654
 Recover connectivity data from disk.

 GradGradGradGradGradGradGradGradGradGradGradGradGradGradGradGradGradGrad
 Berny optimization.
 Initialization pass.
                           ----------------------------
                           !    Initial Parameters    !
                           ! (Angstroms and Degrees)  !
 --------------------------                            --------------------------
 ! Name  Definition              Value          Derivative Info.                !
 --------------------------------------------------------------------------------
 ! R1    R(1,2)                  2.3126         calculate D2E/DX2 analytically  !
 --------------------------------------------------------------------------------
 Trust Radius=3.00D-01 FncErr=1.00D-07 GrdErr=1.00D-07 EigMax=2.50D+02 EigMin=1.00D-04
 Number of steps in this run=      2 maximum allowed number of steps=      2.
 GradGradGradGradGradGradGradGradGradGradGradGradGradGradGradGradGradGrad

                          Input orientation:                          
 ---------------------------------------------------------------------
 Center     Atomic      Atomic             Coordinates (Angstroms)
 Number     Number       Type             X           Y           Z
 ---------------------------------------------------------------------
      1          9           0        0.000000    0.000000   -1.569474
      2         19           0        0.000000    0.000000    0.743146
 ---------------------------------------------------------------------
 Stoichiometry    FK
 Framework group  C*V[C*(FK)]
 Deg. of freedom     1
 Full point group                 C*V     NOp   4
 Largest Abelian subgroup         C2V     NOp   4
 Largest concise Abelian subgroup C1      NOp   1
                         Standard orientation:                         
 ---------------------------------------------------------------------
 Center     Atomic      Atomic             Coordinates (Angstroms)
 Number     Number       Type             X           Y           Z
 ---------------------------------------------------------------------
      1          9           0        0.000000    0.000000   -1.569278
      2         19           0        0.000000    0.000000    0.743342
 ---------------------------------------------------------------------
 Rotational constants (GHZ):           0.0000000           7.3990445           7.3990445
 Basis read from chk: "KF-vol.chk" (5D, 7F)
 Pseudo-potential data read from chk file.
 There are    19 symmetry adapted cartesian basis functions of A1  symmetry.
 There are     1 symmetry adapted cartesian basis functions of A2  symmetry.
 There are     8 symmetry adapted cartesian basis functions of B1  symmetry.
 There are     8 symmetry adapted cartesian basis functions of B2  symmetry.
 There are    18 symmetry adapted basis functions of A1  symmetry.
 There are     1 symmetry adapted basis functions of A2  symmetry.
 There are     8 symmetry adapted basis functions of B1  symmetry.
 There are     8 symmetry adapted basis functions of B2  symmetry.
    35 basis functions,    57 primitive gaussians,    36 cartesian basis functions
     9 alpha electrons        9 beta electrons
       nuclear repulsion energy        18.5345464365 Hartrees.
 NAtoms=    2 NActive=    2 NUniq=    2 SFac= 1.00D+00 NAtFMM=   60 NAOKFM=F Big=F
 Integral buffers will be    131072 words long.
 Raffenetti 2 integral format.
 Two-electron integral symmetry is turned on.
 Nuclear repulsion after empirical dispersion term =       18.5342631996 Hartrees.
 One-electron integrals computed using PRISM.
   4 Symmetry operations used in ECPInt.
 ECPInt:  NShTT=     105 NPrTT=     349 LenC2=     106 LenP2D=     327.
 LDataN:  DoStor=T MaxTD1= 6 Len=  172
 NBasis=    35 RedAO= T EigKep=  2.72D-02  NBF=    18     1     8     8
 NBsUse=    35 1.00D-06 EigRej= -1.00D+00 NBFU=    18     1     8     8
 Initial guess from the checkpoint file:  "KF-vol.chk"
 B after Tr=     0.000000    0.000000    0.000000
         Rot=    1.000000    0.000000    0.000000    0.000000 Ang=   0.00 deg.
 Initial guess orbital symmetries:
       Occupied  (SG) (SG) (SG) (PI) (PI) (SG) (SG) (PI) (PI)
       Virtual   (SG) (PI) (PI) (SG) (SG) (PI) (PI) (SG) (PI) (PI)
                 (SG) (SG) (SG) (SG) (PI) (PI) (PI) (PI) (SG) (PI)
                 (PI) (DLTA) (DLTA) (SG) (SG) (SG)
 Keep R1 ints in memory in symmetry-blocked form, NReq=1065813.
 Requested convergence on RMS density matrix=1.00D-08 within1000 cycles.
 Requested convergence on MAX density matrix=1.00D-06.
 Requested convergence on             energy=1.00D-06.
 No special actions if energy rises.
 SCF Done:  E(RB3LYP) =  -128.213853416     A.U. after    1 cycles
            NFock=  1  Conv=0.18D-08     -V/T= 2.1657
 DoSCS=F DFT=T ScalE2(SS,OS)=  1.000000  1.000000
 Range of M.O.s used for correlation:     1    35
 NBasis=    35 NAE=     9 NBE=     9 NFC=     0 NFV=     0
 NROrb=     35 NOA=     9 NOB=     9 NVA=    26 NVB=    26
   4 Symmetry operations used in ECPInt.
 ECPInt:  NShTT=     105 NPrTT=     349 LenC2=     106 LenP2D=     327.
 LDataN:  DoStor=T MaxTD1= 7 Len=  274
 Symmetrizing basis deriv contribution to polar:
 IMax=3 JMax=2 DiffMx= 0.00D+00
 G2DrvN: will do     3 centers at a time, making    1 passes.
 Calling FoFCou, ICntrl=  3107 FMM=F I1Cent=   0 AccDes= 0.00D+00.
 End of G2Drv F.D. properties file   721 does not exist.
 End of G2Drv F.D. properties file   722 does not exist.
 End of G2Drv F.D. properties file   788 does not exist.
          IDoAtm=11
          Differentiating once with respect to electric field.
                with respect to dipole field.
          Differentiating once with respect to nuclear coordinates.
 Keep R1 ints in memory in symmetry-blocked form, NReq=1064436.
          There are     9 degrees of freedom in the 1st order CPHF.  IDoFFX=6 NUNeed=     3.
      6 vectors produced by pass  0 Test12= 2.60D-15 1.11D-08 XBig12= 2.03D+01 3.97D+00.
 AX will form     6 AO Fock derivatives at one time.
      6 vectors produced by pass  1 Test12= 2.60D-15 1.11D-08 XBig12= 1.52D+00 5.82D-01.
      6 vectors produced by pass  2 Test12= 2.60D-15 1.11D-08 XBig12= 2.22D-01 1.33D-01.
      6 vectors produced by pass  3 Test12= 2.60D-15 1.11D-08 XBig12= 1.03D-02 3.30D-02.
      6 vectors produced by pass  4 Test12= 2.60D-15 1.11D-08 XBig12= 6.58D-05 3.14D-03.
      4 vectors produced by pass  5 Test12= 2.60D-15 1.11D-08 XBig12= 1.66D-07 1.73D-04.
      3 vectors produced by pass  6 Test12= 2.60D-15 1.11D-08 XBig12= 2.29D-10 5.92D-06.
      1 vectors produced by pass  7 Test12= 2.60D-15 1.11D-08 XBig12= 1.90D-13 2.07D-07.
 InvSVY:  IOpt=1 It=  1 EMax= 2.22D-16
 Solved reduced A of dimension    38 with     6 vectors.
 Isotropic polarizability for W=    0.000000       12.46 Bohr**3.
 End of Minotr F.D. properties file   721 does not exist.
 End of Minotr F.D. properties file   722 does not exist.
 End of Minotr F.D. properties file   788 does not exist.

 **********************************************************************

            Population analysis using the SCF Density.

 **********************************************************************

 Orbital symmetries:
       Occupied  (SG) (SG) (SG) (PI) (PI) (SG) (SG) (PI) (PI)
       Virtual   (SG) (PI) (PI) (SG) (SG) (PI) (PI) (SG) (PI) (PI)
                 (SG) (SG) (SG) (SG) (PI) (PI) (PI) (PI) (SG) (PI)
                 (PI) (DLTA) (DLTA) (SG) (SG) (SG)
 The electronic state is 1-SG.
 Alpha  occ. eigenvalues --  -24.47110  -1.40101  -0.92367  -0.74465  -0.74465
 Alpha  occ. eigenvalues --   -0.73045  -0.20684  -0.20422  -0.20422
 Alpha virt. eigenvalues --   -0.06074   0.00350   0.00350   0.02549   0.03881
 Alpha virt. eigenvalues --    0.24489   0.24489   0.29569   0.31302   0.31302
 Alpha virt. eigenvalues --    0.32116   0.37727   0.86044   1.34109   1.41834
 Alpha virt. eigenvalues --    1.41834   1.65251   1.65251   1.75451   2.03117
 Alpha virt. eigenvalues --    2.03117   2.03221   2.03221   2.12887   2.16436
 Alpha virt. eigenvalues --   20.20696
          Condensed to atoms (all electrons):
               1          2
     1  F   10.003217  -0.070582
     2  K   -0.070582   8.137947
 Mulliken charges:
               1
     1  F   -0.932635
     2  K    0.932635
 Sum of Mulliken charges =   0.00000
 Mulliken charges with hydrogens summed into heavy atoms:
               1
     1  F   -0.932635
     2  K    0.932635
 APT charges:
               1
     1  F   -0.927388
     2  K    0.927388
 Sum of APT charges =   0.00000
 APT charges with hydrogens summed into heavy atoms:
               1
     1  F   -0.927388
     2  K    0.927388
 Electronic spatial extent (au):  <R**2>=            138.2118
 Charge=              0.0000 electrons
 Dipole moment (field-independent basis, Debye):
    X=              0.0000    Y=              0.0000    Z=             10.2968  Tot=             10.2968
 Quadrupole moment (field-independent basis, Debye-Ang):
   XX=            -15.7265   YY=            -15.7265   ZZ=            -24.1035
   XY=              0.0000   XZ=              0.0000   YZ=              0.0000
 Traceless Quadrupole moment (field-independent basis, Debye-Ang):
   XX=              2.7923   YY=              2.7923   ZZ=             -5.5846
   XY=              0.0000   XZ=              0.0000   YZ=              0.0000
 Octapole moment (field-independent basis, Debye-Ang**2):
  XXX=              0.0000  YYY=              0.0000  ZZZ=             31.8116  XYY=              0.0000
  XXY=              0.0000  XXZ=              4.9102  XZZ=              0.0000  YZZ=              0.0000
  YYZ=              4.9102  XYZ=              0.0000
 Hexadecapole moment (field-independent basis, Debye-Ang**3):
 XXXX=            -15.2090 YYYY=            -15.2090 ZZZZ=           -171.3752 XXXY=              0.0000
 XXXZ=              0.0000 YYYX=              0.0000 YYYZ=              0.0000 ZZZX=              0.0000
 ZZZY=              0.0000 XXYY=             -5.0697 XXZZ=            -27.3744 YYZZ=            -27.3744
 XXYZ=              0.0000 YYXZ=              0.0000 ZZXY=              0.0000
 N-N= 1.853426319964D+01 E-N=-3.356105193234D+02  KE= 1.099905974155D+02
 Symmetry A1   KE= 9.276313621613D+01
 Symmetry A2   KE= 0.000000000000D+00
 Symmetry B1   KE= 8.613730599691D+00
 Symmetry B2   KE= 8.613730599691D+00
  Exact polarizability:   9.603   0.000   9.603   0.000   0.000  18.162
 Approx polarizability:   9.185   0.000   9.185   0.000   0.000  17.548
   4 Symmetry operations used in ECPInt.
 ECPInt:  NShTT=     105 NPrTT=     349 LenC2=     106 LenP2D=     327.
 LDataN:  DoStor=T MaxTD1= 8 Len=  415
 Calling FoFJK, ICntrl=    100127 FMM=F ISym2X=1 I1Cent= 0 IOpClX= 0 NMat=1 NMatS=1 NMatT=0.
 Full mass-weighted force constant matrix:
 Low frequencies ---   -3.8639   -3.8639   -0.0009    0.0004    0.0004  369.3007
 Diagonal vibrational polarizability:
        0.0000000       0.0000000      12.9776657
 Harmonic frequencies (cm**-1), IR intensities (KM/Mole), Raman scattering
 activities (A**4/AMU), depolarization ratios for plane and unpolarized
 incident light, reduced masses (AMU), force constants (mDyne/A),
 and normal coordinates:
                      1
                     SG
 Frequencies --    369.3007
 Red. masses --     22.8333
 Frc consts  --      1.8348
 IR Inten    --     65.7694
  Atom  AN      X      Y      Z
     1   9     0.00   0.00   0.90
     2  19     0.00   0.00  -0.44

 -------------------
 - Thermochemistry -
 -------------------
 Temperature   298.150 Kelvin.  Pressure   1.00000 Atm.
 Atom     1 has atomic number  9 and mass  18.99840
 Atom     2 has atomic number 19 and mass  38.96371
 Molecular mass:    57.96211 amu.
 Principal axes and moments of inertia in atomic units:
                           1         2         3
     Eigenvalues --     0.00000 243.91544 243.91544
           X            0.00000   0.00000   1.00000
           Y            0.00000   1.00000   0.00000
           Z            1.00000   0.00000   0.00000
 This molecule is a prolate symmetric top.
 Rotational symmetry number  1.
 Rotational temperature (Kelvin)      0.35510
 Rotational constant (GHZ):           7.399044
 Zero-point vibrational energy       2208.9 (Joules/Mol)
                                    0.52794 (Kcal/Mol)
 Warning -- explicit consideration of   1 degrees of freedom as
           vibrations may cause significant error
 Vibrational temperatures:    531.34
          (Kelvin)
 
 Zero-point correction=                           0.000841 (Hartree/Particle)
 Thermal correction to Energy=                    0.003542
 Thermal correction to Enthalpy=                  0.004486
 Thermal correction to Gibbs Free Energy=        -0.021428
 Sum of electronic and zero-point Energies=           -128.213012
 Sum of electronic and thermal Energies=              -128.210311
 Sum of electronic and thermal Enthalpies=            -128.209367
 Sum of electronic and thermal Free Energies=         -128.235282
 
                     E (Thermal)             CV                S
                      KCal/Mol        Cal/Mol-Kelvin    Cal/Mol-Kelvin
 Total                    2.223              6.503             54.542
 Electronic               0.000              0.000              0.000
 Translational            0.889              2.981             38.092
 Rotational               0.592              1.987             15.367
 Vibrational              0.742              1.535              1.083
 Vibration     1          0.742              1.535              1.083
                       Q            Log10(Q)             Ln(Q)
 Total Bot       0.718282D+10          9.856295         22.694958
 Total V=0       0.175097D+11         10.243279         23.586022
 Vib (Bot)       0.493218D+00         -0.306961         -0.706805
 Vib (Bot)    1  0.493218D+00         -0.306961         -0.706805
 Vib (V=0)       0.120233D+01          0.080023          0.184259
 Vib (V=0)    1  0.120233D+01          0.080023          0.184259
 Electronic      0.100000D+01          0.000000          0.000000
 Translational   0.173448D+08          7.239170         16.668805
 Rotational      0.839627D+03          2.924086          6.732958
 ***** Axes restored to original set *****
 -------------------------------------------------------------------
 Center     Atomic                   Forces (Hartrees/Bohr)
 Number     Number              X              Y              Z
 -------------------------------------------------------------------
      1        9           0.000000000    0.000000000    0.000011117
      2       19           0.000000000    0.000000000   -0.000011117
 -------------------------------------------------------------------
 Cartesian Forces:  Max     0.000011117 RMS     0.000006418
 FormGI is forming the generalized inverse of G from B-inverse, IUseBI=4.

 GradGradGradGradGradGradGradGradGradGradGradGradGradGradGradGradGradGrad
 Berny optimization.
 Internal  Forces:  Max     0.000011117 RMS     0.000011117
 Search for a local minimum.
 Step number   1 out of a maximum of    2
 All quantities printed in internal units (Hartrees-Bohrs-Radians)
 Second derivative matrix not updated -- analytic derivatives used.
 The second derivative matrix:
                          R1
           R1           0.06592
 ITU=  0
     Eigenvalues ---    0.06592
 Angle between quadratic step and forces=   0.00 degrees.
 Linear search not attempted -- first point.
 Iteration  1 RMS(Cart)=  0.00011925 RMS(Int)=  0.00000000
 Iteration  2 RMS(Cart)=  0.00000000 RMS(Int)=  0.00000000
 ClnCor:  largest displacement from symmetrization is 0.00D+00 for atom     0.
 Variable       Old X    -DE/DX   Delta X   Delta X   Delta X     New X
                                 (Linear)    (Quad)   (Total)
    R1        4.37022  -0.00001   0.00000  -0.00017  -0.00017   4.37005
         Item               Value     Threshold  Converged?
 Maximum Force            0.000011     0.000450     YES
 RMS     Force            0.000011     0.000300     YES
 Maximum Displacement     0.000084     0.001800     YES
 RMS     Displacement     0.000119     0.001200     YES
 Predicted change in Energy=-9.374060D-10
 Optimization completed.
    -- Stationary point found.
                           ----------------------------
                           !   Optimized Parameters   !
                           ! (Angstroms and Degrees)  !
 --------------------------                            --------------------------
 ! Name  Definition              Value          Derivative Info.                !
 --------------------------------------------------------------------------------
 ! R1    R(1,2)                  2.3126         -DE/DX =    0.0                 !
 --------------------------------------------------------------------------------
 GradGradGradGradGradGradGradGradGradGradGradGradGradGradGradGradGradGrad


 ----------------------------------------------------------------------

 Electric dipole moment (input orientation):
 (Debye = 10**-18 statcoulomb cm , SI units = C m)
                  (au)            (Debye)         (10**-30 SI)
   Tot        0.405108D+01      0.102968D+02      0.343465D+02
   x          0.000000D+00      0.000000D+00      0.000000D+00
   y          0.000000D+00      0.000000D+00      0.000000D+00
   z          0.405108D+01      0.102968D+02      0.343465D+02

 Dipole polarizability, Alpha (input orientation).
 (esu units = cm**3 , SI units = C**2 m**2 J**-1)
 Alpha(0;0):
               (au)            (10**-24 esu)      (10**-40 SI)
   iso        0.124560D+02      0.184578D+01      0.205371D+01
   aniso      0.855871D+01      0.126827D+01      0.141114D+01
   xx         0.960306D+01      0.142303D+01      0.158333D+01
   yx         0.000000D+00      0.000000D+00      0.000000D+00
   yy         0.960306D+01      0.142303D+01      0.158333D+01
   zx         0.000000D+00      0.000000D+00      0.000000D+00
   zy         0.000000D+00      0.000000D+00      0.000000D+00
   zz         0.181618D+02      0.269130D+01      0.299447D+01

 ----------------------------------------------------------------------

 Dipole orientation:
     9          0.00000000          0.00000000         -2.96587558
    19          0.00000000          0.00000000          1.40434197

 Electric dipole moment (dipole orientation):
 (Debye = 10**-18 statcoulomb cm , SI units = C m)
                  (au)            (Debye)         (10**-30 SI)
   Tot        0.405108D+01      0.102968D+02      0.343465D+02
   x          0.000000D+00      0.000000D+00      0.000000D+00
   y          0.000000D+00      0.000000D+00      0.000000D+00
   z          0.405108D+01      0.102968D+02      0.343465D+02

 Dipole polarizability, Alpha (dipole orientation).
 (esu units = cm**3 , SI units = C**2 m**2 J**-1)
 Alpha(0;0):
               (au)            (10**-24 esu)      (10**-40 SI)
   iso        0.124560D+02      0.184578D+01      0.205371D+01
   aniso      0.855871D+01      0.126827D+01      0.141114D+01
   xx         0.960306D+01      0.142303D+01      0.158333D+01
   yx         0.000000D+00      0.000000D+00      0.000000D+00
   yy         0.960306D+01      0.142303D+01      0.158333D+01
   zx         0.000000D+00      0.000000D+00      0.000000D+00
   zy         0.000000D+00      0.000000D+00      0.000000D+00
   zz         0.181618D+02      0.269130D+01      0.299447D+01

 ----------------------------------------------------------------------
 1\1\GINC-IP-172-31-38-84\Freq\RB3LYP\Gen\F1K1\UBUNTU\13-Sep-2023\0\\#N
  Geom=AllCheck Guess=TCheck SCRF=Check GenChk RB3LYP/ChkBas Freq\\Titl
 e Card Required\\0,1\F,0.,0.,-1.5694737654\K,0.,0.,0.7431457654\\Versi
 on=EM64L-G16RevB.01\State=1-SG\HF=-128.2138534\RMSD=1.765e-09\RMSF=6.4
 18e-06\Thermal=0.0035422\Dipole=0.,0.,4.0510828\DipoleDeriv=-0.9269703
 ,0.,0.,0.,-0.9269703,0.,0.,0.,-0.9282241,0.9269703,0.,0.,0.,0.9269703,
 0.,0.,0.,0.9282241\Polar=9.6030599,0.,9.6030599,0.,0.,18.1617724\Quadr
 upole=2.0760224,2.0760224,-4.1520447,0.,0.,0.\PG=C*V [C*(F1K1)]\NImag=
 0\\-0.00000722,0.,-0.00000722,0.,0.,0.06591510,0.00000722,0.,0.,-0.000
 00722,0.,0.00000722,0.,0.,-0.00000722,0.,0.,-0.06591510,0.,0.,0.065915
 10\\0.,0.,-0.00001112,0.,0.,0.00001112\\\@


 DEFINE YOUR TERMS, YOU WILL PERMIT ME AGAIN TO SAY, 
 OR WE SHALL NEVER UNDERSTAND ONE ANOTHER.

                                    -- VOLTAIRE
 Job cpu time:       0 days  0 hours  0 minutes  2.8 seconds.
 Elapsed time:       0 days  0 hours  0 minutes  2.8 seconds.
 File lengths (MBytes):  RWF=      6 Int=      0 D2E=      0 Chk=      1 Scr=      1
 Normal termination of Gaussian 16 at Wed Sep 13 09:34:41 2023.
