 Entering Gaussian System, Link 0=/home/ubuntu/g16/g16
 Input=/home/ubuntu/Downloads/ARyLHALIDE-oh-SOL-disp-g16-gas-gen-volume.gjf
 Output=/home/ubuntu/Downloads/ARyLHALIDE-oh-SOL-disp-g16-gas-gen-volume.log
 Initial command:
 /home/ubuntu/g16/l1.exe "/home/ubuntu/Scratch/Gau-50575.inp" -scrdir="/home/ubuntu/Scratch/"
 Entering Link 1 = /home/ubuntu/g16/l1.exe PID=     50577.
  
 Copyright (c) 1988-2017, Gaussian, Inc.  All Rights Reserved.
  
 This is part of the Gaussian(R) 16 program.  It is based on
 the Gaussian(R) 09 system (copyright 2009, Gaussian, Inc.),
 the Gaussian(R) 03 system (copyright 2003, Gaussian, Inc.),
 the Gaussian(R) 98 system (copyright 1998, Gaussian, Inc.),
 the Gaussian(R) 94 system (copyright 1995, Gaussian, Inc.),
 the Gaussian 92(TM) system (copyright 1992, Gaussian, Inc.),
 the Gaussian 90(TM) system (copyright 1990, Gaussian, Inc.),
 the Gaussian 88(TM) system (copyright 1988, Gaussian, Inc.),
 the Gaussian 86(TM) system (copyright 1986, Carnegie Mellon
 University), and the Gaussian 82(TM) system (copyright 1983,
 Carnegie Mellon University). Gaussian is a federally registered
 trademark of Gaussian, Inc.
  
 This software contains proprietary and confidential information,
 including trade secrets, belonging to Gaussian, Inc.
  
 This software is provided under written license and may be
 used, copied, transmitted, or stored only in accord with that
 written license.
  
 The following legend is applicable only to US Government
 contracts under FAR:
  
                    RESTRICTED RIGHTS LEGEND
  
 Use, reproduction and disclosure by the US Government is
 subject to restrictions as set forth in subparagraphs (a)
 and (c) of the Commercial Computer Software - Restricted
 Rights clause in FAR 52.227-19.
  
 Gaussian, Inc.
 340 Quinnipiac St., Bldg. 40, Wallingford CT 06492
  
  
 ---------------------------------------------------------------
 Warning -- This program may not be used in any manner that
 competes with the business of Gaussian, Inc. or will provide
 assistance to any competitor of Gaussian, Inc.  The licensee
 of this program is prohibited from giving any competitor of
 Gaussian, Inc. access to this program.  By using this program,
 the user acknowledges that Gaussian, Inc. is engaged in the
 business of creating and licensing software in the field of
 computational chemistry and represents and warrants to the
 licensee that it is not a competitor of Gaussian, Inc. and that
 it will not use this program in any manner prohibited above.
 ---------------------------------------------------------------
  

 Cite this work as:
 Gaussian 16, Revision B.01,
 M. J. Frisch, G. W. Trucks, H. B. Schlegel, G. E. Scuseria, 
 M. A. Robb, J. R. Cheeseman, G. Scalmani, V. Barone, 
 G. A. Petersson, H. Nakatsuji, X. Li, M. Caricato, A. V. Marenich, 
 J. Bloino, B. G. Janesko, R. Gomperts, B. Mennucci, H. P. Hratchian, 
 J. V. Ortiz, A. F. Izmaylov, J. L. Sonnenberg, D. Williams-Young, 
 F. Ding, F. Lipparini, F. Egidi, J. Goings, B. Peng, A. Petrone, 
 T. Henderson, D. Ranasinghe, V. G. Zakrzewski, J. Gao, N. Rega, 
 G. Zheng, W. Liang, M. Hada, M. Ehara, K. Toyota, R. Fukuda, 
 J. Hasegawa, M. Ishida, T. Nakajima, Y. Honda, O. Kitao, H. Nakai, 
 T. Vreven, K. Throssell, J. A. Montgomery, Jr., J. E. Peralta, 
 F. Ogliaro, M. J. Bearpark, J. J. Heyd, E. N. Brothers, K. N. Kudin, 
 V. N. Staroverov, T. A. Keith, R. Kobayashi, J. Normand, 
 K. Raghavachari, A. P. Rendell, J. C. Burant, S. S. Iyengar, 
 J. Tomasi, M. Cossi, J. M. Millam, M. Klene, C. Adamo, R. Cammi, 
 J. W. Ochterski, R. L. Martin, K. Morokuma, O. Farkas, 
 J. B. Foresman, and D. J. Fox, Gaussian, Inc., Wallingford CT, 2016.
 
 ******************************************
 Gaussian 16:  EM64L-G16RevB.01 20-Dec-2017
                18-Sep-2023 
 ******************************************
 %nprocshared=32
 Will use up to   32 processors via shared memory.
 %mem=62GB
 %chk=ARyLHALIDE-oh-SOL-disp-g16-gas-gen-volume.chk
 ----------------------------------------------------------------------
 # opt freq b3lyp/gen empiricaldispersion=gd3 pseudo=read scf=maxcycle=
 1000 volume
 ----------------------------------------------------------------------
 1/18=20,19=15,26=3,38=1/1,3;
 2/9=110,12=2,17=6,18=5,40=1/2;
 3/5=7,11=2,16=1,17=8,25=1,30=1,71=1,74=-5,124=31/1,2,3;
 4//1;
 5/5=2,7=1000,38=5/2;
 6/7=2,8=2,9=2,10=2,28=1,44=1/1,4;
 7//1,2,3,16;
 1/18=20,19=15,26=3/3(2);
 2/9=110/2;
 99//99;
 2/9=110/2;
 3/5=7,6=1,11=2,16=1,17=8,25=1,30=1,71=1,74=-5,82=7,124=31/1,2,3;
 4/5=5,16=3,69=1/1;
 5/5=2,7=1000,38=5/2;
 7//1,2,3,16;
 1/18=20,19=15,26=3/3(-5);
 2/9=110/2;
 6/7=2,8=2,9=2,10=2,19=2,28=1,44=1/1,4;
 99/9=1/99;
 -------------------
 Title Card Required
 -------------------
 Symbolic Z-matrix:
 Charge =  0 Multiplicity = 1
 C                    -2.66838   0.88147   0. 
 C                    -3.30354  -0.36056   0. 
 C                    -2.54678  -1.53462   0. 
 C                    -1.15092  -1.4566    0. 
 C                    -0.51358  -0.21444   0. 
 C                    -1.26847   0.96745   0. 
 H                    -3.25653   1.79798   0. 
 H                    -3.03247  -2.50629   0. 
 H                    -0.55529  -2.36409   0. 
 I                     1.62453  -0.12127   0. 
 H                    -4.38932  -0.40631   0. 
 O                    -0.61298   2.16453   0. 
 H                    -1.2529    2.89366   0. 
 

 GradGradGradGradGradGradGradGradGradGradGradGradGradGradGradGradGradGrad
 Berny optimization.
 Initialization pass.
                           ----------------------------
                           !    Initial Parameters    !
                           ! (Angstroms and Degrees)  !
 --------------------------                            --------------------------
 ! Name  Definition              Value          Derivative Info.                !
 --------------------------------------------------------------------------------
 ! R1    R(1,2)                  1.395          estimate D2E/DX2                !
 ! R2    R(1,6)                  1.4025         estimate D2E/DX2                !
 ! R3    R(1,7)                  1.089          estimate D2E/DX2                !
 ! R4    R(2,3)                  1.3968         estimate D2E/DX2                !
 ! R5    R(2,11)                 1.0867         estimate D2E/DX2                !
 ! R6    R(3,4)                  1.398          estimate D2E/DX2                !
 ! R7    R(3,8)                  1.0863         estimate D2E/DX2                !
 ! R8    R(4,5)                  1.3961         estimate D2E/DX2                !
 ! R9    R(4,9)                  1.0855         estimate D2E/DX2                !
 ! R10   R(5,6)                  1.4024         estimate D2E/DX2                !
 ! R11   R(5,10)                 2.1401         estimate D2E/DX2                !
 ! R12   R(6,12)                 1.3648         estimate D2E/DX2                !
 ! R13   R(12,13)                0.9701         estimate D2E/DX2                !
 ! A1    A(2,1,6)              120.5993         estimate D2E/DX2                !
 ! A2    A(2,1,7)              120.2256         estimate D2E/DX2                !
 ! A3    A(6,1,7)              119.1751         estimate D2E/DX2                !
 ! A4    A(1,2,3)              120.1109         estimate D2E/DX2                !
 ! A5    A(1,2,11)             119.4976         estimate D2E/DX2                !
 ! A6    A(3,2,11)             120.3915         estimate D2E/DX2                !
 ! A7    A(2,3,4)              119.6049         estimate D2E/DX2                !
 ! A8    A(2,3,8)              120.637          estimate D2E/DX2                !
 ! A9    A(4,3,8)              119.7581         estimate D2E/DX2                !
 ! A10   A(3,4,5)              120.3613         estimate D2E/DX2                !
 ! A11   A(3,4,9)              120.0792         estimate D2E/DX2                !
 ! A12   A(5,4,9)              119.5595         estimate D2E/DX2                !
 ! A13   A(4,5,6)              120.2715         estimate D2E/DX2                !
 ! A14   A(4,5,10)             119.6569         estimate D2E/DX2                !
 ! A15   A(6,5,10)             120.0717         estimate D2E/DX2                !
 ! A16   A(1,6,5)              119.0521         estimate D2E/DX2                !
 ! A17   A(1,6,12)             122.2186         estimate D2E/DX2                !
 ! A18   A(5,6,12)             118.7293         estimate D2E/DX2                !
 ! A19   A(6,12,13)            110.0245         estimate D2E/DX2                !
 ! D1    D(6,1,2,3)              0.0            estimate D2E/DX2                !
 ! D2    D(6,1,2,11)           180.0            estimate D2E/DX2                !
 ! D3    D(7,1,2,3)            180.0            estimate D2E/DX2                !
 ! D4    D(7,1,2,11)             0.0            estimate D2E/DX2                !
 ! D5    D(2,1,6,5)              0.0            estimate D2E/DX2                !
 ! D6    D(2,1,6,12)           180.0            estimate D2E/DX2                !
 ! D7    D(7,1,6,5)            180.0            estimate D2E/DX2                !
 ! D8    D(7,1,6,12)             0.0            estimate D2E/DX2                !
 ! D9    D(1,2,3,4)              0.0            estimate D2E/DX2                !
 ! D10   D(1,2,3,8)            180.0            estimate D2E/DX2                !
 ! D11   D(11,2,3,4)           180.0            estimate D2E/DX2                !
 ! D12   D(11,2,3,8)             0.0            estimate D2E/DX2                !
 ! D13   D(2,3,4,5)              0.0            estimate D2E/DX2                !
 ! D14   D(2,3,4,9)            180.0            estimate D2E/DX2                !
 ! D15   D(8,3,4,5)            180.0            estimate D2E/DX2                !
 ! D16   D(8,3,4,9)              0.0            estimate D2E/DX2                !
 ! D17   D(3,4,5,6)              0.0            estimate D2E/DX2                !
 ! D18   D(3,4,5,10)           180.0            estimate D2E/DX2                !
 ! D19   D(9,4,5,6)            180.0            estimate D2E/DX2                !
 ! D20   D(9,4,5,10)             0.0            estimate D2E/DX2                !
 ! D21   D(4,5,6,1)              0.0            estimate D2E/DX2                !
 ! D22   D(4,5,6,12)           180.0            estimate D2E/DX2                !
 ! D23   D(10,5,6,1)           180.0            estimate D2E/DX2                !
 ! D24   D(10,5,6,12)            0.0            estimate D2E/DX2                !
 ! D25   D(1,6,12,13)            0.0            estimate D2E/DX2                !
 ! D26   D(5,6,12,13)          180.0            estimate D2E/DX2                !
 --------------------------------------------------------------------------------
 Trust Radius=3.00D-01 FncErr=1.00D-07 GrdErr=1.00D-06 EigMax=2.50D+02 EigMin=1.00D-04
 Number of steps in this run=     68 maximum allowed number of steps=    100.
 GradGradGradGradGradGradGradGradGradGradGradGradGradGradGradGradGradGrad

                          Input orientation:                          
 ---------------------------------------------------------------------
 Center     Atomic      Atomic             Coordinates (Angstroms)
 Number     Number       Type             X           Y           Z
 ---------------------------------------------------------------------
      1          6           0       -2.668376    0.881474    0.000000
      2          6           0       -3.303537   -0.360557    0.000000
      3          6           0       -2.546776   -1.534623    0.000000
      4          6           0       -1.150917   -1.456595    0.000000
      5          6           0       -0.513583   -0.214440    0.000000
      6          6           0       -1.268469    0.967454    0.000000
      7          1           0       -3.256528    1.797977    0.000000
      8          1           0       -3.032472   -2.506288    0.000000
      9          1           0       -0.555285   -2.364092    0.000000
     10         53           0        1.624534   -0.121272    0.000000
     11          1           0       -4.389321   -0.406310    0.000000
     12          8           0       -0.612983    2.164525    0.000000
     13          1           0       -1.252897    2.893656    0.000000
 ---------------------------------------------------------------------
                    Distance matrix (angstroms):
                    1          2          3          4          5
     1  C    0.000000
     2  C    1.395016   0.000000
     3  C    2.419155   1.396824   0.000000
     4  C    2.787337   2.415589   1.398038   0.000000
     5  C    2.417470   2.793778   2.424202   1.396117   0.000000
     6  C    1.402545   2.430044   2.809708   2.426898   1.402400
     7  H    1.088991   2.159046   3.407341   3.876317   3.401995
     8  H    3.407271   2.162785   1.086293   2.154554   3.405491
     9  H    3.872835   3.401035   2.157326   1.085508   2.150056
    10  I    4.408466   4.933877   4.404247   3.079970   2.140146
    11  H    2.149428   1.086748   2.160570   3.404462   3.880484
    12  O    2.422986   3.689867   4.174117   3.660858   2.381041
    13  H    2.460174   3.846430   4.613434   4.351446   3.194815
                    6          7          8          9         10
     6  C    0.000000
     7  H    2.154564   0.000000
     8  H    3.895971   4.310093   0.000000
     9  H    3.407027   4.961807   2.481265   0.000000
    10  I    3.091082   5.244834   5.232209   3.127595   0.000000
    11  H    3.409831   2.478326   2.500189   4.304967   6.020606
    12  O    1.364786   2.668836   5.260268   4.528985   3.198648
    13  H    1.926265   2.283648   5.685621   5.303827   4.167661
                   11         12         13
    11  H    0.000000
    12  O    4.568361   0.000000
    13  H    4.552684   0.970114   0.000000
 Stoichiometry    C6H5IO
 Framework group  CS[SG(C6H5IO)]
 Deg. of freedom    23
 Full point group                 CS      NOp   2
 Largest Abelian subgroup         CS      NOp   2
 Largest concise Abelian subgroup C1      NOp   1
                         Standard orientation:                         
 ---------------------------------------------------------------------
 Center     Atomic      Atomic             Coordinates (Angstroms)
 Number     Number       Type             X           Y           Z
 ---------------------------------------------------------------------
      1          6           0        1.841542    2.122722    0.000000
      2          6           0        0.940134    3.187398    0.000000
      3          6           0       -0.434864    2.941433    0.000000
      4          6           0       -0.900685    1.623282    0.000000
      5          6           0        0.000000    0.556554    0.000000
      6          6           0        1.381499    0.797772    0.000000
      7          1           0        2.913898    2.312336    0.000000
      8          1           0       -1.144370    3.764012    0.000000
      9          1           0       -1.967613    1.423297    0.000000
     10         53           0       -0.737842   -1.452380    0.000000
     11          1           0        1.316266    4.206979    0.000000
     12          8           0        2.233587   -0.268336    0.000000
     13          1           0        3.152982    0.041237    0.000000
 ---------------------------------------------------------------------
 Rotational constants (GHZ):           2.8559458           0.7167848           0.5729787
 General basis read from cards:  (5D, 7F)
 ======================================================================================================
                                       Pseudopotential Parameters
 ======================================================================================================
  Center     Atomic      Valence      Angular      Power
  Number     Number     Electrons     Momentum     of R      Exponent        Coefficient   SO-Coeffient
 ======================================================================================================
    1          6
                                   No pseudopotential on this center.
    2          6
                                   No pseudopotential on this center.
    3          6
                                   No pseudopotential on this center.
    4          6
                                   No pseudopotential on this center.
    5          6
                                   No pseudopotential on this center.
    6          6
                                   No pseudopotential on this center.
    7          1
                                   No pseudopotential on this center.
    8          1
                                   No pseudopotential on this center.
    9          1
                                   No pseudopotential on this center.
   10         53            7
                                      G and up 
                                                     2        1.0000000        0.00000000    0.00000000
                                      S - G
                                                     2        3.5112000       83.11386300    0.00000000
                                                     2        1.7556000        5.20187600    0.00000000
                                      P - G
                                                     2        2.9688000       82.81110900    0.00000000
                                                     2        1.4844000        3.37968200    0.00000000
                                      D - G
                                                     2        1.9066000       10.30427700    0.00000000
                                                     2        0.9533000        7.58803200    0.00000000
                                      F - G
                                                     2        2.3075000      -21.47793600    0.00000000
   11          1
                                   No pseudopotential on this center.
   12          8
                                   No pseudopotential on this center.
   13          1
                                   No pseudopotential on this center.
 ======================================================================================================
 There are   116 symmetry adapted cartesian basis functions of A'  symmetry.
 There are    38 symmetry adapted cartesian basis functions of A"  symmetry.
 There are   109 symmetry adapted basis functions of A'  symmetry.
 There are    38 symmetry adapted basis functions of A"  symmetry.
   147 basis functions,   263 primitive gaussians,   154 cartesian basis functions
    28 alpha electrons       28 beta electrons
       nuclear repulsion energy       312.2974161422 Hartrees.
 NAtoms=   13 NActive=   13 NUniq=   13 SFac= 1.00D+00 NAtFMM=   60 NAOKFM=F Big=F
 Integral buffers will be    131072 words long.
 Raffenetti 2 integral format.
 Two-electron integral symmetry is turned on.
 Nuclear repulsion after empirical dispersion term =      312.2879939426 Hartrees.
 One-electron integrals computed using PRISM.
   2 Symmetry operations used in ECPInt.
 ECPInt:  NShTT=    1275 NPrTT=    6588 LenC2=    1272 LenP2D=    5048.
 LDataN:  DoStor=T MaxTD1= 6 Len=  172
 NBasis=   147 RedAO= T EigKep=  3.90D-06  NBF=   109    38
 NBsUse=   147 1.00D-06 EigRej= -1.00D+00 NBFU=   109    38
 Defaulting to unpruned grid for atomic number  53.
 ExpMin= 3.26D-02 ExpMax= 5.48D+03 ExpMxC= 8.25D+02 IAcc=3 IRadAn=         5 AccDes= 0.00D+00
 Harris functional with IExCor=  402 and IRadAn=       5 diagonalized for initial guess.
 HarFok:  IExCor=  402 AccDes= 0.00D+00 IRadAn=         5 IDoV= 1 UseB2=F ITyADJ=14
 ICtDFT=  3500011 ScaDFX=  1.000000  1.000000  1.000000  1.000000
 Defaulting to unpruned grid for atomic number  53.
 FoFCou: FMM=F IPFlag=           0 FMFlag=      100000 FMFlg1=           0
         NFxFlg=           0 DoJE=T BraDBF=F KetDBF=T FulRan=T
         wScrn=  0.000000 ICntrl=       500 IOpCl=  0 I1Cent=   200000004 NGrid=           0
         NMat0=    1 NMatS0=      1 NMatT0=    0 NMatD0=    1 NMtDS0=    0 NMtDT0=    0
 Petite list used in FoFCou.
 Initial guess orbital symmetries:
       Occupied  (A') (A') (A') (A') (A') (A') (A') (A') (A') (A')
                 (A') (A') (A') (A') (A') (A') (A') (A') (A') (A")
                 (A') (A') (A") (A') (A") (A") (A') (A")
       Virtual   (A") (A") (A') (A') (A') (A') (A") (A') (A') (A")
                 (A') (A') (A') (A") (A") (A') (A') (A") (A') (A')
                 (A") (A') (A') (A") (A') (A') (A') (A') (A") (A')
                 (A') (A') (A') (A') (A') (A') (A') (A") (A') (A')
                 (A') (A') (A') (A') (A') (A') (A') (A') (A') (A')
                 (A") (A') (A") (A') (A") (A") (A") (A') (A') (A")
                 (A') (A') (A") (A') (A') (A') (A') (A') (A') (A')
                 (A') (A') (A') (A") (A") (A') (A') (A') (A') (A")
                 (A') (A") (A") (A") (A') (A") (A') (A') (A") (A')
                 (A') (A') (A') (A') (A') (A") (A') (A') (A') (A")
                 (A') (A") (A') (A") (A") (A") (A') (A') (A') (A")
                 (A') (A') (A') (A') (A') (A') (A') (A') (A')
 The electronic state of the initial guess is 1-A'.
 Requested convergence on RMS density matrix=1.00D-08 within1000 cycles.
 Requested convergence on MAX density matrix=1.00D-06.
 Requested convergence on             energy=1.00D-06.
 No special actions if energy rises.
 Defaulting to unpruned grid for atomic number  53.
 Defaulting to unpruned grid for atomic number  53.
 Defaulting to unpruned grid for atomic number  53.
 Defaulting to unpruned grid for atomic number  53.
 Defaulting to unpruned grid for atomic number  53.
 Defaulting to unpruned grid for atomic number  53.
 Defaulting to unpruned grid for atomic number  53.
 Defaulting to unpruned grid for atomic number  53.
 Defaulting to unpruned grid for atomic number  53.
 Defaulting to unpruned grid for atomic number  53.
 Defaulting to unpruned grid for atomic number  53.
 Defaulting to unpruned grid for atomic number  53.
 Defaulting to unpruned grid for atomic number  53.
 Defaulting to unpruned grid for atomic number  53.
 Defaulting to unpruned grid for atomic number  53.
 Defaulting to unpruned grid for atomic number  53.
 Defaulting to unpruned grid for atomic number  53.
 Defaulting to unpruned grid for atomic number  53.
 Defaulting to unpruned grid for atomic number  53.
 Defaulting to unpruned grid for atomic number  53.
 Defaulting to unpruned grid for atomic number  53.
 Defaulting to unpruned grid for atomic number  53.
 Defaulting to unpruned grid for atomic number  53.
 Defaulting to unpruned grid for atomic number  53.
 Defaulting to unpruned grid for atomic number  53.
 Defaulting to unpruned grid for atomic number  53.
 Defaulting to unpruned grid for atomic number  53.
 Defaulting to unpruned grid for atomic number  53.
 Defaulting to unpruned grid for atomic number  53.
 Defaulting to unpruned grid for atomic number  53.
 Defaulting to unpruned grid for atomic number  53.
 Defaulting to unpruned grid for atomic number  53.
 SCF Done:  E(RB3LYP) =  -318.290663398     A.U. after   14 cycles
            NFock= 14  Conv=0.28D-08     -V/T= 2.0327

 **********************************************************************

            Population analysis using the SCF Density.

 **********************************************************************

 Orbital symmetries:
       Occupied  (A') (A') (A') (A') (A') (A') (A') (A') (A') (A')
                 (A') (A') (A') (A') (A') (A') (A') (A') (A") (A')
                 (A') (A') (A") (A') (A") (A') (A") (A")
       Virtual   (A') (A") (A") (A') (A') (A') (A') (A') (A") (A')
                 (A') (A") (A') (A") (A") (A') (A') (A") (A') (A")
                 (A') (A') (A") (A') (A') (A') (A") (A') (A') (A')
                 (A') (A') (A') (A') (A') (A") (A') (A') (A') (A')
                 (A') (A') (A') (A') (A') (A') (A') (A') (A') (A")
                 (A') (A") (A') (A") (A") (A') (A") (A') (A") (A')
                 (A") (A') (A') (A') (A') (A') (A') (A') (A') (A')
                 (A') (A') (A') (A") (A') (A") (A') (A') (A') (A")
                 (A') (A') (A") (A") (A") (A") (A') (A') (A") (A')
                 (A') (A') (A') (A') (A') (A") (A') (A') (A') (A")
                 (A') (A") (A') (A") (A") (A') (A") (A') (A') (A")
                 (A') (A') (A') (A') (A') (A') (A') (A') (A')
 The electronic state is 1-A'.
 Alpha  occ. eigenvalues --  -19.19917 -10.27453 -10.24244 -10.20975 -10.20819
 Alpha  occ. eigenvalues --  -10.20738 -10.19999  -1.08490  -0.87267  -0.77876
 Alpha  occ. eigenvalues --   -0.76003  -0.69029  -0.64706  -0.60669  -0.56496
 Alpha  occ. eigenvalues --   -0.50415  -0.48753  -0.45682  -0.43158  -0.42580
 Alpha  occ. eigenvalues --   -0.39777  -0.38298  -0.35713  -0.34660  -0.29866
 Alpha  occ. eigenvalues --   -0.26345  -0.25495  -0.23561
 Alpha virt. eigenvalues --   -0.04120  -0.03030  -0.01345  -0.01037   0.01178
 Alpha virt. eigenvalues --    0.02037   0.03712   0.04614   0.04866   0.05747
 Alpha virt. eigenvalues --    0.06213   0.07165   0.07599   0.08543   0.10980
 Alpha virt. eigenvalues --    0.11083   0.11431   0.12647   0.13281   0.13282
 Alpha virt. eigenvalues --    0.14373   0.15476   0.15740   0.16820   0.17974
 Alpha virt. eigenvalues --    0.18628   0.18951   0.19988   0.20243   0.21676
 Alpha virt. eigenvalues --    0.22661   0.23222   0.23837   0.25708   0.26366
 Alpha virt. eigenvalues --    0.27065   0.27200   0.29208   0.30278   0.32521
 Alpha virt. eigenvalues --    0.32595   0.34350   0.35739   0.37892   0.38456
 Alpha virt. eigenvalues --    0.54232   0.54372   0.60151   0.64647   0.65113
 Alpha virt. eigenvalues --    0.65129   0.70303   0.70659   0.72036   0.72778
 Alpha virt. eigenvalues --    0.72843   0.73732   0.77028   0.78273   0.80086
 Alpha virt. eigenvalues --    0.85825   0.86877   0.89784   0.92570   0.94273
 Alpha virt. eigenvalues --    0.95459   1.00953   1.02794   1.06750   1.07507
 Alpha virt. eigenvalues --    1.11125   1.13163   1.16653   1.18873   1.20130
 Alpha virt. eigenvalues --    1.22134   1.24947   1.30892   1.31879   1.35149
 Alpha virt. eigenvalues --    1.38713   1.41923   1.43299   1.44637   1.47223
 Alpha virt. eigenvalues --    1.48865   1.49904   1.70634   1.71093   1.75464
 Alpha virt. eigenvalues --    1.78741   1.82886   1.91299   1.93902   1.95518
 Alpha virt. eigenvalues --    1.95553   2.04151   2.09847   2.12742   2.13059
 Alpha virt. eigenvalues --    2.13546   2.23357   2.25787   2.28197   2.28835
 Alpha virt. eigenvalues --    2.47399   2.47861   2.53441   2.56633   2.62656
 Alpha virt. eigenvalues --    2.67205   2.70562   2.73100   2.80959   2.85169
 Alpha virt. eigenvalues --    3.03133   3.08676   3.37156  15.41504
          Condensed to atoms (all electrons):
               1          2          3          4          5          6
     1  C    7.486036   0.788337  -0.297439  -0.507274  -1.832903   0.056803
     2  C    0.788337   5.843271   0.553383  -0.031892  -1.041936  -0.099657
     3  C   -0.297439   0.553383   5.871061   0.318947   0.159175  -0.880127
     4  C   -0.507274  -0.031892   0.318947   7.267903  -0.957364  -0.034763
     5  C   -1.832903  -1.041936   0.159175  -0.957364  12.104176  -2.651594
     6  C    0.056803  -0.099657  -0.880127  -0.034763  -2.651594   9.756069
     7  H    0.262816   0.015729   0.031258  -0.026384   0.040318  -0.030746
     8  H    0.026554  -0.010805   0.307825  -0.041601   0.026113  -0.012311
     9  H   -0.025633   0.016344   0.010413   0.267033   0.014020   0.023212
    10  I    0.227219   0.062153   0.065929   0.165367  -0.963506   0.491517
    11  H   -0.007325   0.291463  -0.009922   0.029474  -0.025862   0.019020
    12  O   -0.002723   0.051953  -0.006040   0.088360  -0.251796   0.123378
    13  H   -0.081328  -0.007830   0.009440  -0.006574   0.193952  -0.105773
               7          8          9         10         11         12
     1  C    0.262816   0.026554  -0.025633   0.227219  -0.007325  -0.002723
     2  C    0.015729  -0.010805   0.016344   0.062153   0.291463   0.051953
     3  C    0.031258   0.307825   0.010413   0.065929  -0.009922  -0.006040
     4  C   -0.026384  -0.041601   0.267033   0.165367   0.029474   0.088360
     5  C    0.040318   0.026113   0.014020  -0.963506  -0.025862  -0.251796
     6  C   -0.030746  -0.012311   0.023212   0.491517   0.019020   0.123378
     7  H    0.556195  -0.000151   0.000012  -0.000715  -0.005329  -0.019411
     8  H   -0.000151   0.532580  -0.005301  -0.000577  -0.004885   0.000067
     9  H    0.000012  -0.005301   0.508534  -0.004399  -0.000155  -0.000549
    10  I   -0.000715  -0.000577  -0.004399   6.892057   0.000121  -0.024128
    11  H   -0.005329  -0.004885  -0.000155   0.000121   0.529666  -0.000571
    12  O   -0.019411   0.000067  -0.000549  -0.024128  -0.000571   8.525630
    13  H    0.008024  -0.000001   0.000006   0.000005  -0.000014   0.162033
              13
     1  C   -0.081328
     2  C   -0.007830
     3  C    0.009440
     4  C   -0.006574
     5  C    0.193952
     6  C   -0.105773
     7  H    0.008024
     8  H   -0.000001
     9  H    0.000006
    10  I    0.000005
    11  H   -0.000014
    12  O    0.162033
    13  H    0.345863
 Mulliken charges:
               1
     1  C   -0.093141
     2  C   -0.430513
     3  C   -0.133904
     4  C   -0.531230
     5  C    1.187207
     6  C   -0.655028
     7  H    0.168384
     8  H    0.182491
     9  H    0.196464
    10  I    0.088958
    11  H    0.184319
    12  O   -0.646204
    13  H    0.482198
 Sum of Mulliken charges =   0.00000
 Mulliken charges with hydrogens summed into heavy atoms:
               1
     1  C    0.075243
     2  C   -0.246195
     3  C    0.048587
     4  C   -0.334766
     5  C    1.187207
     6  C   -0.655028
    10  I    0.088958
    12  O   -0.164007
 Electronic spatial extent (au):  <R**2>=           1298.7996
 Charge=              0.0000 electrons
 Dipole moment (field-independent basis, Debye):
    X=              1.7219    Y=              2.3764    Z=              0.0000  Tot=              2.9347
 Quadrupole moment (field-independent basis, Debye-Ang):
   XX=            -49.4560   YY=            -55.7196   ZZ=            -65.5972
   XY=              2.9310   XZ=              0.0000   YZ=              0.0000
 Traceless Quadrupole moment (field-independent basis, Debye-Ang):
   XX=              7.4683   YY=              1.2047   ZZ=             -8.6730
   XY=              2.9310   XZ=              0.0000   YZ=              0.0000
 Octapole moment (field-independent basis, Debye-Ang**2):
  XXX=             -3.0896  YYY=            -90.6981  ZZZ=              0.0000  XYY=            -17.5224
  XXY=            -22.1773  XXZ=              0.0000  XZZ=            -15.7762  YZZ=            -42.7154
  YYZ=              0.0000  XYZ=              0.0000
 Hexadecapole moment (field-independent basis, Debye-Ang**3):
 XXXX=           -473.1430 YYYY=          -1208.7790 ZZZZ=            -93.1276 XXXY=           -127.8624
 XXXZ=              0.0000 YYYX=           -122.5943 YYYZ=              0.0000 ZZZX=              0.0000
 ZZZY=              0.0000 XXYY=           -304.0058 XXZZ=           -130.3864 YYZZ=           -267.3078
 XXYZ=              0.0000 YYXZ=              0.0000 ZZXY=            -54.3730
 N-N= 3.122879939426D+02 E-N=-1.360288561751D+03  KE= 3.082209415005D+02
 Symmetry A'   KE= 2.962293295426D+02
 Symmetry A"   KE= 1.199161195791D+01
 Evaluate density.
 Using the total density.
 Monte-Carlo method of calculating molar volume:
 based on  0.001 e/bohr**3 density envelope.
 Number of points per bohr**3 =   20 CutOff= 1.00D-04
 Using the SCF density.
 There are       480 points.  Will hold       480 in memory.
 LenV=  8321400483 MDV=  8321499136.
 Box volume =13861.751 fraction occupied=0.081
 Integrated density= 3.0116598179330175D+01 error=-2.5883401820669825D+01
 Molar volume = 1126.267 bohr**3/mol (100.507 cm**3/mol)
 Recommended a0 for SCRF calculation =  4.26 angstrom (  8.05 bohr)
   2 Symmetry operations used in ECPInt.
 ECPInt:  NShTT=    1275 NPrTT=    6588 LenC2=    1272 LenP2D=    5048.
 LDataN:  DoStor=T MaxTD1= 7 Len=  274
 Calling FoFJK, ICntrl=      2127 FMM=F ISym2X=1 I1Cent= 0 IOpClX= 0 NMat=1 NMatS=1 NMatT=0.
 Defaulting to unpruned grid for atomic number  53.
 Defaulting to unpruned grid for atomic number  53.
 Defaulting to unpruned grid for atomic number  53.
 Defaulting to unpruned grid for atomic number  53.
 Defaulting to unpruned grid for atomic number  53.
 Defaulting to unpruned grid for atomic number  53.
 Defaulting to unpruned grid for atomic number  53.
 Defaulting to unpruned grid for atomic number  53.
 Defaulting to unpruned grid for atomic number  53.
 Defaulting to unpruned grid for atomic number  53.
 Defaulting to unpruned grid for atomic number  53.
 Defaulting to unpruned grid for atomic number  53.
 Defaulting to unpruned grid for atomic number  53.
 Defaulting to unpruned grid for atomic number  53.
 Defaulting to unpruned grid for atomic number  53.
 Defaulting to unpruned grid for atomic number  53.
 Defaulting to unpruned grid for atomic number  53.
 Defaulting to unpruned grid for atomic number  53.
 Defaulting to unpruned grid for atomic number  53.
 Defaulting to unpruned grid for atomic number  53.
 Defaulting to unpruned grid for atomic number  53.
 Defaulting to unpruned grid for atomic number  53.
 Defaulting to unpruned grid for atomic number  53.
 Defaulting to unpruned grid for atomic number  53.
 Defaulting to unpruned grid for atomic number  53.
 Defaulting to unpruned grid for atomic number  53.
 Defaulting to unpruned grid for atomic number  53.
 Defaulting to unpruned grid for atomic number  53.
 Defaulting to unpruned grid for atomic number  53.
 Defaulting to unpruned grid for atomic number  53.
 Defaulting to unpruned grid for atomic number  53.
 Defaulting to unpruned grid for atomic number  53.
 ***** Axes restored to original set *****
 -------------------------------------------------------------------
 Center     Atomic                   Forces (Hartrees/Bohr)
 Number     Number              X              Y              Z
 -------------------------------------------------------------------
      1        6           0.000000594    0.000057980    0.000000000
      2        6          -0.000125870   -0.000039980    0.000000000
      3        6          -0.000201693   -0.000161343    0.000000000
      4        6           0.000385808   -0.000007988    0.000000000
      5        6          -0.000420865   -0.000366991    0.000000000
      6        6           0.000082903   -0.000035999    0.000000000
      7        1           0.000048089   -0.000076217    0.000000000
      8        1           0.000073319    0.000131813    0.000000000
      9        1          -0.000087572    0.000121390    0.000000000
     10       53           0.000075773    0.000044715    0.000000000
     11        1           0.000153077    0.000057338    0.000000000
     12        8          -0.000105059    0.000399027    0.000000000
     13        1           0.000121495   -0.000123746    0.000000000
 -------------------------------------------------------------------
 Cartesian Forces:  Max     0.000420865 RMS     0.000147150

 GradGradGradGradGradGradGradGradGradGradGradGradGradGradGradGradGradGrad
 Berny optimization.
 FormGI is forming the generalized inverse of G from B-inverse, IUseBI=4.
 Internal  Forces:  Max     0.000249612 RMS     0.000080392
 Search for a local minimum.
 Step number   1 out of a maximum of   68
 All quantities printed in internal units (Hartrees-Bohrs-Radians)
 Mixed Optimization -- En-DIIS/RFO-DIIS
 Second derivative matrix not updated -- first step.
 ITU=  0
     Eigenvalues ---    0.02063   0.02084   0.02095   0.02106   0.02120
     Eigenvalues ---    0.02122   0.02129   0.02134   0.02144   0.02158
     Eigenvalues ---    0.12711   0.16000   0.16000   0.16000   0.16000
     Eigenvalues ---    0.16000   0.22000   0.22491   0.24482   0.25000
     Eigenvalues ---    0.25000   0.34930   0.35191   0.35245   0.35337
     Eigenvalues ---    0.41640   0.41957   0.45426   0.45661   0.46122
     Eigenvalues ---    0.46375   0.51992   0.53354
 RFO step:  Lambda=-1.14938446D-06 EMin= 2.06256385D-02
 Linear search not attempted -- first point.
 Iteration  1 RMS(Cart)=  0.00030187 RMS(Int)=  0.00000006
 Iteration  2 RMS(Cart)=  0.00000008 RMS(Int)=  0.00000001
 ClnCor:  largest displacement from symmetrization is 1.41D-13 for atom     9.
 Variable       Old X    -DE/DX   Delta X   Delta X   Delta X     New X
                                 (Linear)    (Quad)   (Total)
    R1        2.63620   0.00001   0.00000   0.00001   0.00001   2.63621
    R2        2.65043  -0.00006   0.00000  -0.00015  -0.00015   2.65028
    R3        2.05789  -0.00009   0.00000  -0.00026  -0.00026   2.05764
    R4        2.63962   0.00002   0.00000   0.00006   0.00006   2.63967
    R5        2.05366  -0.00016   0.00000  -0.00044  -0.00044   2.05321
    R6        2.64191   0.00012   0.00000   0.00026   0.00026   2.64217
    R7        2.05280  -0.00015   0.00000  -0.00043  -0.00043   2.05237
    R8        2.63828  -0.00019   0.00000  -0.00040  -0.00040   2.63788
    R9        2.05131  -0.00015   0.00000  -0.00042  -0.00042   2.05089
   R10        2.65015   0.00008   0.00000   0.00018   0.00018   2.65033
   R11        4.04429   0.00008   0.00000   0.00061   0.00061   4.04490
   R12        2.57907   0.00025   0.00000   0.00048   0.00048   2.57955
   R13        1.83325  -0.00017   0.00000  -0.00033  -0.00033   1.83292
    A1        2.10485   0.00003   0.00000   0.00014   0.00014   2.10499
    A2        2.09833  -0.00002   0.00000  -0.00007  -0.00007   2.09826
    A3        2.08000  -0.00002   0.00000  -0.00007  -0.00007   2.07993
    A4        2.09633   0.00004   0.00000   0.00018   0.00018   2.09651
    A5        2.08563  -0.00007   0.00000  -0.00042  -0.00042   2.08521
    A6        2.10123   0.00004   0.00000   0.00024   0.00024   2.10147
    A7        2.08750  -0.00005   0.00000  -0.00017  -0.00017   2.08733
    A8        2.10551   0.00003   0.00000   0.00012   0.00012   2.10564
    A9        2.09017   0.00002   0.00000   0.00005   0.00005   2.09022
   A10        2.10070  -0.00007   0.00000  -0.00028  -0.00028   2.10042
   A11        2.09578   0.00003   0.00000   0.00009   0.00009   2.09587
   A12        2.08671   0.00004   0.00000   0.00019   0.00019   2.08690
   A13        2.09913   0.00017   0.00000   0.00066   0.00066   2.09980
   A14        2.08841   0.00000   0.00000   0.00000   0.00000   2.08840
   A15        2.09565  -0.00017   0.00000  -0.00066  -0.00066   2.09499
   A16        2.07785  -0.00012   0.00000  -0.00053  -0.00053   2.07732
   A17        2.13312  -0.00008   0.00000  -0.00030  -0.00030   2.13282
   A18        2.07222   0.00020   0.00000   0.00083   0.00083   2.07304
   A19        1.92029   0.00002   0.00000   0.00012   0.00012   1.92041
    D1        0.00000   0.00000   0.00000   0.00000   0.00000   0.00000
    D2        3.14159   0.00000   0.00000   0.00000   0.00000   3.14159
    D3        3.14159   0.00000   0.00000   0.00000   0.00000   3.14159
    D4        0.00000   0.00000   0.00000   0.00000   0.00000   0.00000
    D5        0.00000   0.00000   0.00000   0.00000   0.00000   0.00000
    D6        3.14159   0.00000   0.00000   0.00000   0.00000   3.14159
    D7        3.14159   0.00000   0.00000   0.00000   0.00000   3.14159
    D8        0.00000   0.00000   0.00000   0.00000   0.00000   0.00000
    D9        0.00000   0.00000   0.00000   0.00000   0.00000   0.00000
   D10        3.14159   0.00000   0.00000   0.00000   0.00000   3.14159
   D11        3.14159   0.00000   0.00000   0.00000   0.00000   3.14159
   D12        0.00000   0.00000   0.00000   0.00000   0.00000   0.00000
   D13        0.00000   0.00000   0.00000   0.00000   0.00000   0.00000
   D14        3.14159   0.00000   0.00000   0.00000   0.00000   3.14159
   D15        3.14159   0.00000   0.00000   0.00000   0.00000   3.14159
   D16        0.00000   0.00000   0.00000   0.00000   0.00000   0.00000
   D17        0.00000   0.00000   0.00000   0.00000   0.00000   0.00000
   D18        3.14159   0.00000   0.00000   0.00000   0.00000   3.14159
   D19        3.14159   0.00000   0.00000   0.00000   0.00000   3.14159
   D20        0.00000   0.00000   0.00000   0.00000   0.00000   0.00000
   D21        0.00000   0.00000   0.00000   0.00000   0.00000   0.00000
   D22        3.14159   0.00000   0.00000   0.00000   0.00000   3.14159
   D23        3.14159   0.00000   0.00000   0.00000   0.00000   3.14159
   D24        0.00000   0.00000   0.00000   0.00000   0.00000   0.00000
   D25        0.00000   0.00000   0.00000   0.00000   0.00000   0.00000
   D26        3.14159   0.00000   0.00000   0.00000   0.00000   3.14159
         Item               Value     Threshold  Converged?
 Maximum Force            0.000250     0.000450     YES
 RMS     Force            0.000080     0.000300     YES
 Maximum Displacement     0.000987     0.001800     YES
 RMS     Displacement     0.000302     0.001200     YES
 Predicted change in Energy=-5.746935D-07
 Optimization completed.
    -- Stationary point found.
                           ----------------------------
                           !   Optimized Parameters   !
                           ! (Angstroms and Degrees)  !
 --------------------------                            --------------------------
 ! Name  Definition              Value          Derivative Info.                !
 --------------------------------------------------------------------------------
 ! R1    R(1,2)                  1.395          -DE/DX =    0.0                 !
 ! R2    R(1,6)                  1.4025         -DE/DX =   -0.0001              !
 ! R3    R(1,7)                  1.089          -DE/DX =   -0.0001              !
 ! R4    R(2,3)                  1.3968         -DE/DX =    0.0                 !
 ! R5    R(2,11)                 1.0867         -DE/DX =   -0.0002              !
 ! R6    R(3,4)                  1.398          -DE/DX =    0.0001              !
 ! R7    R(3,8)                  1.0863         -DE/DX =   -0.0002              !
 ! R8    R(4,5)                  1.3961         -DE/DX =   -0.0002              !
 ! R9    R(4,9)                  1.0855         -DE/DX =   -0.0001              !
 ! R10   R(5,6)                  1.4024         -DE/DX =    0.0001              !
 ! R11   R(5,10)                 2.1401         -DE/DX =    0.0001              !
 ! R12   R(6,12)                 1.3648         -DE/DX =    0.0002              !
 ! R13   R(12,13)                0.9701         -DE/DX =   -0.0002              !
 ! A1    A(2,1,6)              120.5993         -DE/DX =    0.0                 !
 ! A2    A(2,1,7)              120.2256         -DE/DX =    0.0                 !
 ! A3    A(6,1,7)              119.1751         -DE/DX =    0.0                 !
 ! A4    A(1,2,3)              120.1109         -DE/DX =    0.0                 !
 ! A5    A(1,2,11)             119.4976         -DE/DX =   -0.0001              !
 ! A6    A(3,2,11)             120.3915         -DE/DX =    0.0                 !
 ! A7    A(2,3,4)              119.6049         -DE/DX =    0.0                 !
 ! A8    A(2,3,8)              120.637          -DE/DX =    0.0                 !
 ! A9    A(4,3,8)              119.7581         -DE/DX =    0.0                 !
 ! A10   A(3,4,5)              120.3613         -DE/DX =   -0.0001              !
 ! A11   A(3,4,9)              120.0792         -DE/DX =    0.0                 !
 ! A12   A(5,4,9)              119.5595         -DE/DX =    0.0                 !
 ! A13   A(4,5,6)              120.2715         -DE/DX =    0.0002              !
 ! A14   A(4,5,10)             119.6569         -DE/DX =    0.0                 !
 ! A15   A(6,5,10)             120.0717         -DE/DX =   -0.0002              !
 ! A16   A(1,6,5)              119.0521         -DE/DX =   -0.0001              !
 ! A17   A(1,6,12)             122.2186         -DE/DX =   -0.0001              !
 ! A18   A(5,6,12)             118.7293         -DE/DX =    0.0002              !
 ! A19   A(6,12,13)            110.0245         -DE/DX =    0.0                 !
 ! D1    D(6,1,2,3)              0.0            -DE/DX =    0.0                 !
 ! D2    D(6,1,2,11)           180.0            -DE/DX =    0.0                 !
 ! D3    D(7,1,2,3)            180.0            -DE/DX =    0.0                 !
 ! D4    D(7,1,2,11)             0.0            -DE/DX =    0.0                 !
 ! D5    D(2,1,6,5)              0.0            -DE/DX =    0.0                 !
 ! D6    D(2,1,6,12)           180.0            -DE/DX =    0.0                 !
 ! D7    D(7,1,6,5)            180.0            -DE/DX =    0.0                 !
 ! D8    D(7,1,6,12)             0.0            -DE/DX =    0.0                 !
 ! D9    D(1,2,3,4)              0.0            -DE/DX =    0.0                 !
 ! D10   D(1,2,3,8)            180.0            -DE/DX =    0.0                 !
 ! D11   D(11,2,3,4)           180.0            -DE/DX =    0.0                 !
 ! D12   D(11,2,3,8)             0.0            -DE/DX =    0.0                 !
 ! D13   D(2,3,4,5)              0.0            -DE/DX =    0.0                 !
 ! D14   D(2,3,4,9)            180.0            -DE/DX =    0.0                 !
 ! D15   D(8,3,4,5)            180.0            -DE/DX =    0.0                 !
 ! D16   D(8,3,4,9)              0.0            -DE/DX =    0.0                 !
 ! D17   D(3,4,5,6)              0.0            -DE/DX =    0.0                 !
 ! D18   D(3,4,5,10)           180.0            -DE/DX =    0.0                 !
 ! D19   D(9,4,5,6)            180.0            -DE/DX =    0.0                 !
 ! D20   D(9,4,5,10)             0.0            -DE/DX =    0.0                 !
 ! D21   D(4,5,6,1)              0.0            -DE/DX =    0.0                 !
 ! D22   D(4,5,6,12)           180.0            -DE/DX =    0.0                 !
 ! D23   D(10,5,6,1)           180.0            -DE/DX =    0.0                 !
 ! D24   D(10,5,6,12)            0.0            -DE/DX =    0.0                 !
 ! D25   D(1,6,12,13)            0.0            -DE/DX =    0.0                 !
 ! D26   D(5,6,12,13)          180.0            -DE/DX =    0.0                 !
 --------------------------------------------------------------------------------
 GradGradGradGradGradGradGradGradGradGradGradGradGradGradGradGradGradGrad

                          Input orientation:                          
 ---------------------------------------------------------------------
 Center     Atomic      Atomic             Coordinates (Angstroms)
 Number     Number       Type             X           Y           Z
 ---------------------------------------------------------------------
      1          6           0       -2.668376    0.881474    0.000000
      2          6           0       -3.303537   -0.360557    0.000000
      3          6           0       -2.546776   -1.534623    0.000000
      4          6           0       -1.150917   -1.456595    0.000000
      5          6           0       -0.513583   -0.214440    0.000000
      6          6           0       -1.268469    0.967454    0.000000
      7          1           0       -3.256528    1.797977    0.000000
      8          1           0       -3.032472   -2.506288    0.000000
      9          1           0       -0.555285   -2.364092    0.000000
     10         53           0        1.624534   -0.121272    0.000000
     11          1           0       -4.389321   -0.406310    0.000000
     12          8           0       -0.612983    2.164525    0.000000
     13          1           0       -1.252897    2.893656    0.000000
 ---------------------------------------------------------------------
                    Distance matrix (angstroms):
                    1          2          3          4          5
     1  C    0.000000
     2  C    1.395016   0.000000
     3  C    2.419155   1.396824   0.000000
     4  C    2.787337   2.415589   1.398038   0.000000
     5  C    2.417470   2.793778   2.424202   1.396117   0.000000
     6  C    1.402545   2.430044   2.809708   2.426898   1.402400
     7  H    1.088991   2.159046   3.407341   3.876317   3.401995
     8  H    3.407271   2.162785   1.086293   2.154554   3.405491
     9  H    3.872835   3.401035   2.157326   1.085508   2.150056
    10  I    4.408466   4.933877   4.404247   3.079970   2.140146
    11  H    2.149428   1.086748   2.160570   3.404462   3.880484
    12  O    2.422986   3.689867   4.174117   3.660858   2.381041
    13  H    2.460174   3.846430   4.613434   4.351446   3.194815
                    6          7          8          9         10
     6  C    0.000000
     7  H    2.154564   0.000000
     8  H    3.895971   4.310093   0.000000
     9  H    3.407027   4.961807   2.481265   0.000000
    10  I    3.091082   5.244834   5.232209   3.127595   0.000000
    11  H    3.409831   2.478326   2.500189   4.304967   6.020606
    12  O    1.364786   2.668836   5.260268   4.528985   3.198648
    13  H    1.926265   2.283648   5.685621   5.303827   4.167661
                   11         12         13
    11  H    0.000000
    12  O    4.568361   0.000000
    13  H    4.552684   0.970114   0.000000
 Stoichiometry    C6H5IO
 Framework group  CS[SG(C6H5IO)]
 Deg. of freedom    23
 Full point group                 CS      NOp   2
 Largest Abelian subgroup         CS      NOp   2
 Largest concise Abelian subgroup C1      NOp   1
                         Standard orientation:                         
 ---------------------------------------------------------------------
 Center     Atomic      Atomic             Coordinates (Angstroms)
 Number     Number       Type             X           Y           Z
 ---------------------------------------------------------------------
      1          6           0        1.841542    2.122722    0.000000
      2          6           0        0.940134    3.187398    0.000000
      3          6           0       -0.434864    2.941433    0.000000
      4          6           0       -0.900685    1.623282    0.000000
      5          6           0        0.000000    0.556554    0.000000
      6          6           0        1.381499    0.797772    0.000000
      7          1           0        2.913898    2.312336    0.000000
      8          1           0       -1.144370    3.764012    0.000000
      9          1           0       -1.967613    1.423297    0.000000
     10         53           0       -0.737842   -1.452380    0.000000
     11          1           0        1.316266    4.206979    0.000000
     12          8           0        2.233587   -0.268336    0.000000
     13          1           0        3.152982    0.041237    0.000000
 ---------------------------------------------------------------------
 Rotational constants (GHZ):           2.8559458           0.7167848           0.5729787
 1\1\GINC-IP-172-31-4-202\FOpt\RB3LYP\Gen\C6H5I1O1\UBUNTU\18-Sep-2023\0
 \\# opt freq b3lyp/gen empiricaldispersion=gd3 pseudo=read scf=maxcycl
 e=1000 volume\\Title Card Required\\0,1\C,-2.668376,0.881474,0.\C,-3.3
 03537,-0.360557,0.\C,-2.546776,-1.534623,0.\C,-1.150917,-1.456595,0.\C
 ,-0.513583,-0.21444,0.\C,-1.268469,0.967454,0.\H,-3.256528,1.797977,0.
 \H,-3.032472,-2.506288,0.\H,-0.555285,-2.364092,0.\I,1.624534,-0.12127
 2,0.\H,-4.389321,-0.40631,0.\O,-0.612983,2.164525,0.\H,-1.252897,2.893
 656,0.\\Version=EM64L-G16RevB.01\State=1-A'\HF=-318.2906634\RMSD=2.822
 e-09\RMSF=1.472e-04\Dipole=-1.1237905,0.264911,0.\Quadrupole=3.1365561
 ,3.3115722,-6.4481283,-3.1878401,0.,0.\PG=CS [SG(C6H5I1O1)]\\@


 YOU CAN LEAD A BOY TO COLLEGE....
 BUT YOU CANNOT MAKE HIM THINK....
           ELBERT HUBBARD
 Job cpu time:       0 days  0 hours  3 minutes 28.0 seconds.
 Elapsed time:       0 days  0 hours  0 minutes  6.5 seconds.
 File lengths (MBytes):  RWF=     16 Int=      0 D2E=      0 Chk=      3 Scr=      1
 Normal termination of Gaussian 16 at Mon Sep 18 06:36:13 2023.
 Link1:  Proceeding to internal job step number  2.
 ------------------------------------------------------------------
 #N Geom=AllCheck Guess=TCheck SCRF=Check GenChk RB3LYP/ChkBas Freq
 ------------------------------------------------------------------
 1/10=4,29=7,30=1,38=1,40=1/1,3;
 2/12=2,40=1/2;
 3/5=7,6=2,11=2,14=-4,16=1,17=8,25=1,30=1,67=1,70=2,71=2,74=-5,82=7,116=1,124=31,140=1/1,2,3;
 4/5=101/1;
 5/5=2,7=1000,38=6,98=1/2;
 8/6=4,10=90,11=11/1;
 11/6=1,8=1,9=11,15=111,16=1/1,2,10;
 10/6=1/2;
 6/7=2,8=2,9=2,10=2,28=1/1;
 7/8=1,10=1,25=1/1,2,3,16;
 1/10=4,30=1/3;
 99//99;
 Structure from the checkpoint file:  "ARyLHALIDE-oh-SOL-disp-g16-gas-gen-volume.chk"
 -------------------
 Title Card Required
 -------------------
 Charge =  0 Multiplicity = 1
 Redundant internal coordinates found in file.  (old form).
 C,0,-2.668376,0.881474,0.
 C,0,-3.303537,-0.360557,0.
 C,0,-2.546776,-1.534623,0.
 C,0,-1.150917,-1.456595,0.
 C,0,-0.513583,-0.21444,0.
 C,0,-1.268469,0.967454,0.
 H,0,-3.256528,1.797977,0.
 H,0,-3.032472,-2.506288,0.
 H,0,-0.555285,-2.364092,0.
 I,0,1.624534,-0.121272,0.
 H,0,-4.389321,-0.40631,0.
 O,0,-0.612983,2.164525,0.
 H,0,-1.252897,2.893656,0.
 Recover connectivity data from disk.

 GradGradGradGradGradGradGradGradGradGradGradGradGradGradGradGradGradGrad
 Berny optimization.
 Initialization pass.
                           ----------------------------
                           !    Initial Parameters    !
                           ! (Angstroms and Degrees)  !
 --------------------------                            --------------------------
 ! Name  Definition              Value          Derivative Info.                !
 --------------------------------------------------------------------------------
 ! R1    R(1,2)                  1.395          calculate D2E/DX2 analytically  !
 ! R2    R(1,6)                  1.4025         calculate D2E/DX2 analytically  !
 ! R3    R(1,7)                  1.089          calculate D2E/DX2 analytically  !
 ! R4    R(2,3)                  1.3968         calculate D2E/DX2 analytically  !
 ! R5    R(2,11)                 1.0867         calculate D2E/DX2 analytically  !
 ! R6    R(3,4)                  1.398          calculate D2E/DX2 analytically  !
 ! R7    R(3,8)                  1.0863         calculate D2E/DX2 analytically  !
 ! R8    R(4,5)                  1.3961         calculate D2E/DX2 analytically  !
 ! R9    R(4,9)                  1.0855         calculate D2E/DX2 analytically  !
 ! R10   R(5,6)                  1.4024         calculate D2E/DX2 analytically  !
 ! R11   R(5,10)                 2.1401         calculate D2E/DX2 analytically  !
 ! R12   R(6,12)                 1.3648         calculate D2E/DX2 analytically  !
 ! R13   R(12,13)                0.9701         calculate D2E/DX2 analytically  !
 ! A1    A(2,1,6)              120.5993         calculate D2E/DX2 analytically  !
 ! A2    A(2,1,7)              120.2256         calculate D2E/DX2 analytically  !
 ! A3    A(6,1,7)              119.1751         calculate D2E/DX2 analytically  !
 ! A4    A(1,2,3)              120.1109         calculate D2E/DX2 analytically  !
 ! A5    A(1,2,11)             119.4976         calculate D2E/DX2 analytically  !
 ! A6    A(3,2,11)             120.3915         calculate D2E/DX2 analytically  !
 ! A7    A(2,3,4)              119.6049         calculate D2E/DX2 analytically  !
 ! A8    A(2,3,8)              120.637          calculate D2E/DX2 analytically  !
 ! A9    A(4,3,8)              119.7581         calculate D2E/DX2 analytically  !
 ! A10   A(3,4,5)              120.3613         calculate D2E/DX2 analytically  !
 ! A11   A(3,4,9)              120.0792         calculate D2E/DX2 analytically  !
 ! A12   A(5,4,9)              119.5595         calculate D2E/DX2 analytically  !
 ! A13   A(4,5,6)              120.2715         calculate D2E/DX2 analytically  !
 ! A14   A(4,5,10)             119.6569         calculate D2E/DX2 analytically  !
 ! A15   A(6,5,10)             120.0717         calculate D2E/DX2 analytically  !
 ! A16   A(1,6,5)              119.0521         calculate D2E/DX2 analytically  !
 ! A17   A(1,6,12)             122.2186         calculate D2E/DX2 analytically  !
 ! A18   A(5,6,12)             118.7293         calculate D2E/DX2 analytically  !
 ! A19   A(6,12,13)            110.0245         calculate D2E/DX2 analytically  !
 ! D1    D(6,1,2,3)              0.0            calculate D2E/DX2 analytically  !
 ! D2    D(6,1,2,11)           180.0            calculate D2E/DX2 analytically  !
 ! D3    D(7,1,2,3)            180.0            calculate D2E/DX2 analytically  !
 ! D4    D(7,1,2,11)             0.0            calculate D2E/DX2 analytically  !
 ! D5    D(2,1,6,5)              0.0            calculate D2E/DX2 analytically  !
 ! D6    D(2,1,6,12)           180.0            calculate D2E/DX2 analytically  !
 ! D7    D(7,1,6,5)            180.0            calculate D2E/DX2 analytically  !
 ! D8    D(7,1,6,12)             0.0            calculate D2E/DX2 analytically  !
 ! D9    D(1,2,3,4)              0.0            calculate D2E/DX2 analytically  !
 ! D10   D(1,2,3,8)            180.0            calculate D2E/DX2 analytically  !
 ! D11   D(11,2,3,4)           180.0            calculate D2E/DX2 analytically  !
 ! D12   D(11,2,3,8)             0.0            calculate D2E/DX2 analytically  !
 ! D13   D(2,3,4,5)              0.0            calculate D2E/DX2 analytically  !
 ! D14   D(2,3,4,9)            180.0            calculate D2E/DX2 analytically  !
 ! D15   D(8,3,4,5)            180.0            calculate D2E/DX2 analytically  !
 ! D16   D(8,3,4,9)              0.0            calculate D2E/DX2 analytically  !
 ! D17   D(3,4,5,6)              0.0            calculate D2E/DX2 analytically  !
 ! D18   D(3,4,5,10)           180.0            calculate D2E/DX2 analytically  !
 ! D19   D(9,4,5,6)            180.0            calculate D2E/DX2 analytically  !
 ! D20   D(9,4,5,10)             0.0            calculate D2E/DX2 analytically  !
 ! D21   D(4,5,6,1)              0.0            calculate D2E/DX2 analytically  !
 ! D22   D(4,5,6,12)           180.0            calculate D2E/DX2 analytically  !
 ! D23   D(10,5,6,1)           180.0            calculate D2E/DX2 analytically  !
 ! D24   D(10,5,6,12)            0.0            calculate D2E/DX2 analytically  !
 ! D25   D(1,6,12,13)            0.0            calculate D2E/DX2 analytically  !
 ! D26   D(5,6,12,13)          180.0            calculate D2E/DX2 analytically  !
 --------------------------------------------------------------------------------
 Trust Radius=3.00D-01 FncErr=1.00D-07 GrdErr=1.00D-07 EigMax=2.50D+02 EigMin=1.00D-04
 Number of steps in this run=      2 maximum allowed number of steps=      2.
 GradGradGradGradGradGradGradGradGradGradGradGradGradGradGradGradGradGrad

                          Input orientation:                          
 ---------------------------------------------------------------------
 Center     Atomic      Atomic             Coordinates (Angstroms)
 Number     Number       Type             X           Y           Z
 ---------------------------------------------------------------------
      1          6           0       -2.668376    0.881474    0.000000
      2          6           0       -3.303537   -0.360557    0.000000
      3          6           0       -2.546776   -1.534623    0.000000
      4          6           0       -1.150917   -1.456595    0.000000
      5          6           0       -0.513583   -0.214440    0.000000
      6          6           0       -1.268469    0.967454    0.000000
      7          1           0       -3.256528    1.797977    0.000000
      8          1           0       -3.032472   -2.506288    0.000000
      9          1           0       -0.555285   -2.364092    0.000000
     10         53           0        1.624534   -0.121272    0.000000
     11          1           0       -4.389321   -0.406310    0.000000
     12          8           0       -0.612983    2.164525    0.000000
     13          1           0       -1.252897    2.893656    0.000000
 ---------------------------------------------------------------------
                    Distance matrix (angstroms):
                    1          2          3          4          5
     1  C    0.000000
     2  C    1.395016   0.000000
     3  C    2.419155   1.396824   0.000000
     4  C    2.787337   2.415589   1.398038   0.000000
     5  C    2.417470   2.793778   2.424202   1.396117   0.000000
     6  C    1.402545   2.430044   2.809708   2.426898   1.402400
     7  H    1.088991   2.159046   3.407341   3.876317   3.401995
     8  H    3.407271   2.162785   1.086293   2.154554   3.405491
     9  H    3.872835   3.401035   2.157326   1.085508   2.150056
    10  I    4.408466   4.933877   4.404247   3.079970   2.140146
    11  H    2.149428   1.086748   2.160570   3.404462   3.880484
    12  O    2.422986   3.689867   4.174117   3.660858   2.381041
    13  H    2.460174   3.846430   4.613434   4.351446   3.194815
                    6          7          8          9         10
     6  C    0.000000
     7  H    2.154564   0.000000
     8  H    3.895971   4.310093   0.000000
     9  H    3.407027   4.961807   2.481265   0.000000
    10  I    3.091082   5.244834   5.232209   3.127595   0.000000
    11  H    3.409831   2.478326   2.500189   4.304967   6.020606
    12  O    1.364786   2.668836   5.260268   4.528985   3.198648
    13  H    1.926265   2.283648   5.685621   5.303827   4.167661
                   11         12         13
    11  H    0.000000
    12  O    4.568361   0.000000
    13  H    4.552684   0.970114   0.000000
 Stoichiometry    C6H5IO
 Framework group  CS[SG(C6H5IO)]
 Deg. of freedom    23
 Full point group                 CS      NOp   2
 Largest Abelian subgroup         CS      NOp   2
 Largest concise Abelian subgroup C1      NOp   1
                         Standard orientation:                         
 ---------------------------------------------------------------------
 Center     Atomic      Atomic             Coordinates (Angstroms)
 Number     Number       Type             X           Y           Z
 ---------------------------------------------------------------------
      1          6           0        1.841542    2.122722    0.000000
      2          6           0        0.940134    3.187398    0.000000
      3          6           0       -0.434864    2.941433    0.000000
      4          6           0       -0.900685    1.623282    0.000000
      5          6           0        0.000000    0.556554    0.000000
      6          6           0        1.381499    0.797772    0.000000
      7          1           0        2.913898    2.312336    0.000000
      8          1           0       -1.144370    3.764012    0.000000
      9          1           0       -1.967613    1.423297    0.000000
     10         53           0       -0.737842   -1.452380    0.000000
     11          1           0        1.316266    4.206979    0.000000
     12          8           0        2.233587   -0.268336    0.000000
     13          1           0        3.152982    0.041237    0.000000
 ---------------------------------------------------------------------
 Rotational constants (GHZ):           2.8559458           0.7167848           0.5729787
 Basis read from chk: "ARyLHALIDE-oh-SOL-disp-g16-gas-gen-volume.chk" (5D, 7F)
 Pseudo-potential data read from chk file.
 There are   116 symmetry adapted cartesian basis functions of A'  symmetry.
 There are    38 symmetry adapted cartesian basis functions of A"  symmetry.
 There are   109 symmetry adapted basis functions of A'  symmetry.
 There are    38 symmetry adapted basis functions of A"  symmetry.
   147 basis functions,   263 primitive gaussians,   154 cartesian basis functions
    28 alpha electrons       28 beta electrons
       nuclear repulsion energy       312.2974161422 Hartrees.
 NAtoms=   13 NActive=   13 NUniq=   13 SFac= 1.00D+00 NAtFMM=   60 NAOKFM=F Big=F
 Integral buffers will be    131072 words long.
 Raffenetti 2 integral format.
 Two-electron integral symmetry is turned on.
 Nuclear repulsion after empirical dispersion term =      312.2879939426 Hartrees.
 One-electron integrals computed using PRISM.
   2 Symmetry operations used in ECPInt.
 ECPInt:  NShTT=    1275 NPrTT=    6588 LenC2=    1272 LenP2D=    5048.
 LDataN:  DoStor=T MaxTD1= 6 Len=  172
 NBasis=   147 RedAO= T EigKep=  3.90D-06  NBF=   109    38
 NBsUse=   147 1.00D-06 EigRej= -1.00D+00 NBFU=   109    38
 Defaulting to unpruned grid for atomic number  53.
 Initial guess from the checkpoint file:  "ARyLHALIDE-oh-SOL-disp-g16-gas-gen-volume.chk"
 B after Tr=     0.000000    0.000000    0.000000
         Rot=    1.000000    0.000000    0.000000    0.000000 Ang=   0.00 deg.
 Initial guess orbital symmetries:
       Occupied  (A') (A') (A') (A') (A') (A') (A') (A') (A') (A')
                 (A') (A') (A') (A') (A') (A') (A') (A') (A") (A')
                 (A') (A') (A") (A') (A") (A') (A") (A")
       Virtual   (A') (A") (A") (A') (A') (A') (A') (A') (A") (A')
                 (A') (A") (A') (A") (A") (A') (A') (A") (A') (A")
                 (A') (A') (A") (A') (A') (A') (A") (A') (A') (A')
                 (A') (A') (A') (A') (A') (A") (A') (A') (A') (A')
                 (A') (A') (A') (A') (A') (A') (A') (A') (A') (A")
                 (A') (A") (A') (A") (A") (A') (A") (A') (A") (A')
                 (A") (A') (A') (A') (A') (A') (A') (A') (A') (A')
                 (A') (A') (A') (A") (A') (A") (A') (A') (A') (A")
                 (A') (A') (A") (A") (A") (A") (A') (A') (A") (A')
                 (A') (A') (A') (A') (A') (A") (A') (A') (A') (A")
                 (A') (A") (A') (A") (A") (A') (A") (A') (A') (A")
                 (A') (A') (A') (A') (A') (A') (A') (A') (A')
 Requested convergence on RMS density matrix=1.00D-08 within1000 cycles.
 Requested convergence on MAX density matrix=1.00D-06.
 Requested convergence on             energy=1.00D-06.
 No special actions if energy rises.
 Defaulting to unpruned grid for atomic number  53.
 Defaulting to unpruned grid for atomic number  53.
 Defaulting to unpruned grid for atomic number  53.
 Defaulting to unpruned grid for atomic number  53.
 Defaulting to unpruned grid for atomic number  53.
 Defaulting to unpruned grid for atomic number  53.
 Defaulting to unpruned grid for atomic number  53.
 Defaulting to unpruned grid for atomic number  53.
 Defaulting to unpruned grid for atomic number  53.
 Defaulting to unpruned grid for atomic number  53.
 Defaulting to unpruned grid for atomic number  53.
 Defaulting to unpruned grid for atomic number  53.
 Defaulting to unpruned grid for atomic number  53.
 Defaulting to unpruned grid for atomic number  53.
 Defaulting to unpruned grid for atomic number  53.
 Defaulting to unpruned grid for atomic number  53.
 Defaulting to unpruned grid for atomic number  53.
 Defaulting to unpruned grid for atomic number  53.
 Defaulting to unpruned grid for atomic number  53.
 Defaulting to unpruned grid for atomic number  53.
 Defaulting to unpruned grid for atomic number  53.
 Defaulting to unpruned grid for atomic number  53.
 Defaulting to unpruned grid for atomic number  53.
 Defaulting to unpruned grid for atomic number  53.
 Defaulting to unpruned grid for atomic number  53.
 Defaulting to unpruned grid for atomic number  53.
 Defaulting to unpruned grid for atomic number  53.
 Defaulting to unpruned grid for atomic number  53.
 Defaulting to unpruned grid for atomic number  53.
 Defaulting to unpruned grid for atomic number  53.
 Defaulting to unpruned grid for atomic number  53.
 Defaulting to unpruned grid for atomic number  53.
 SCF Done:  E(RB3LYP) =  -318.290663398     A.U. after    1 cycles
            NFock=  1  Conv=0.57D-08     -V/T= 2.0327
 DoSCS=F DFT=T ScalE2(SS,OS)=  1.000000  1.000000
 Range of M.O.s used for correlation:     1   147
 NBasis=   147 NAE=    28 NBE=    28 NFC=     0 NFV=     0
 NROrb=    147 NOA=    28 NOB=    28 NVA=   119 NVB=   119

 **** Warning!!: The largest alpha MO coefficient is  0.11136356D+03

   2 Symmetry operations used in ECPInt.
 ECPInt:  NShTT=    1275 NPrTT=    6588 LenC2=    1272 LenP2D=    5048.
 LDataN:  DoStor=T MaxTD1= 7 Len=  274
 Symmetrizing basis deriv contribution to polar:
 IMax=3 JMax=2 DiffMx= 0.00D+00
 G2DrvN: will do    14 centers at a time, making    1 passes.
 Calling FoFCou, ICntrl=  3107 FMM=F I1Cent=   0 AccDes= 0.00D+00.
 Defaulting to unpruned grid for atomic number  53.
 Defaulting to unpruned grid for atomic number  53.
 Defaulting to unpruned grid for atomic number  53.
 Defaulting to unpruned grid for atomic number  53.
 Defaulting to unpruned grid for atomic number  53.
 Defaulting to unpruned grid for atomic number  53.
 Defaulting to unpruned grid for atomic number  53.
 Defaulting to unpruned grid for atomic number  53.
 Defaulting to unpruned grid for atomic number  53.
 Defaulting to unpruned grid for atomic number  53.
 Defaulting to unpruned grid for atomic number  53.
 Defaulting to unpruned grid for atomic number  53.
 Defaulting to unpruned grid for atomic number  53.
 Defaulting to unpruned grid for atomic number  53.
 Defaulting to unpruned grid for atomic number  53.
 Defaulting to unpruned grid for atomic number  53.
 Defaulting to unpruned grid for atomic number  53.
 Defaulting to unpruned grid for atomic number  53.
 Defaulting to unpruned grid for atomic number  53.
 Defaulting to unpruned grid for atomic number  53.
 Defaulting to unpruned grid for atomic number  53.
 Defaulting to unpruned grid for atomic number  53.
 Defaulting to unpruned grid for atomic number  53.
 Defaulting to unpruned grid for atomic number  53.
 Defaulting to unpruned grid for atomic number  53.
 Defaulting to unpruned grid for atomic number  53.
 Defaulting to unpruned grid for atomic number  53.
 Defaulting to unpruned grid for atomic number  53.
 Defaulting to unpruned grid for atomic number  53.
 Defaulting to unpruned grid for atomic number  53.
 Defaulting to unpruned grid for atomic number  53.
 Defaulting to unpruned grid for atomic number  53.
 End of G2Drv F.D. properties file   721 does not exist.
 End of G2Drv F.D. properties file   722 does not exist.
 End of G2Drv F.D. properties file   788 does not exist.
          IDoAtm=1111111111111
          Differentiating once with respect to electric field.
                with respect to dipole field.
          Differentiating once with respect to nuclear coordinates.
 Defaulting to unpruned grid for atomic number  53.
 Keep R1 ints in memory in symmetry-blocked form, NReq=90474783.
 Defaulting to unpruned grid for atomic number  53.
 Defaulting to unpruned grid for atomic number  53.
 Defaulting to unpruned grid for atomic number  53.
 Defaulting to unpruned grid for atomic number  53.
 Defaulting to unpruned grid for atomic number  53.
 Defaulting to unpruned grid for atomic number  53.
 Defaulting to unpruned grid for atomic number  53.
 Defaulting to unpruned grid for atomic number  53.
 Defaulting to unpruned grid for atomic number  53.
 Defaulting to unpruned grid for atomic number  53.
 Defaulting to unpruned grid for atomic number  53.
 Defaulting to unpruned grid for atomic number  53.
 Defaulting to unpruned grid for atomic number  53.
 Defaulting to unpruned grid for atomic number  53.
 Defaulting to unpruned grid for atomic number  53.
 Defaulting to unpruned grid for atomic number  53.
 Defaulting to unpruned grid for atomic number  53.
 Defaulting to unpruned grid for atomic number  53.
 Defaulting to unpruned grid for atomic number  53.
 Defaulting to unpruned grid for atomic number  53.
 Defaulting to unpruned grid for atomic number  53.
 Defaulting to unpruned grid for atomic number  53.
 Defaulting to unpruned grid for atomic number  53.
 Defaulting to unpruned grid for atomic number  53.
 Defaulting to unpruned grid for atomic number  53.
 Defaulting to unpruned grid for atomic number  53.
 Defaulting to unpruned grid for atomic number  53.
 Defaulting to unpruned grid for atomic number  53.
 Defaulting to unpruned grid for atomic number  53.
 Defaulting to unpruned grid for atomic number  53.
 Defaulting to unpruned grid for atomic number  53.
 Defaulting to unpruned grid for atomic number  53.
          There are    42 degrees of freedom in the 1st order CPHF.  IDoFFX=6 NUNeed=     3.
     39 vectors produced by pass  0 Test12= 7.93D-15 2.38D-09 XBig12= 1.66D+02 6.66D+00.
 AX will form    39 AO Fock derivatives at one time.
     39 vectors produced by pass  1 Test12= 7.93D-15 2.38D-09 XBig12= 2.42D+01 1.17D+00.
     39 vectors produced by pass  2 Test12= 7.93D-15 2.38D-09 XBig12= 2.43D-01 1.08D-01.
     39 vectors produced by pass  3 Test12= 7.93D-15 2.38D-09 XBig12= 9.26D-04 4.71D-03.
     39 vectors produced by pass  4 Test12= 7.93D-15 2.38D-09 XBig12= 1.45D-06 1.73D-04.
     37 vectors produced by pass  5 Test12= 7.93D-15 2.38D-09 XBig12= 1.45D-09 5.19D-06.
      7 vectors produced by pass  6 Test12= 7.93D-15 2.38D-09 XBig12= 1.11D-12 1.46D-07.
      3 vectors produced by pass  7 Test12= 7.93D-15 2.38D-09 XBig12= 8.06D-16 5.16D-09.
 InvSVY:  IOpt=1 It=  1 EMax= 5.33D-15
 Solved reduced A of dimension   242 with    42 vectors.
 Isotropic polarizability for W=    0.000000      100.51 Bohr**3.
 End of Minotr F.D. properties file   721 does not exist.
 End of Minotr F.D. properties file   722 does not exist.
 End of Minotr F.D. properties file   788 does not exist.

 **********************************************************************

            Population analysis using the SCF Density.

 **********************************************************************

 Orbital symmetries:
       Occupied  (A') (A') (A') (A') (A') (A') (A') (A') (A') (A')
                 (A') (A') (A') (A') (A') (A') (A') (A') (A") (A')
                 (A') (A') (A") (A') (A") (A') (A") (A")
       Virtual   (A') (A") (A") (A') (A') (A') (A') (A') (A") (A')
                 (A') (A") (A') (A") (A") (A') (A') (A") (A') (A")
                 (A') (A') (A") (A') (A') (A') (A") (A') (A') (A')
                 (A') (A') (A') (A') (A') (A") (A') (A') (A') (A')
                 (A') (A') (A') (A') (A') (A') (A') (A') (A') (A")
                 (A') (A") (A') (A") (A") (A') (A") (A') (A") (A')
                 (A") (A') (A') (A') (A') (A') (A') (A') (A') (A')
                 (A') (A') (A') (A") (A') (A") (A') (A') (A') (A")
                 (A') (A') (A") (A") (A") (A") (A') (A') (A") (A')
                 (A') (A') (A') (A') (A') (A") (A') (A') (A') (A")
                 (A') (A") (A') (A") (A") (A') (A") (A') (A') (A")
                 (A') (A') (A') (A') (A') (A') (A') (A') (A')
 The electronic state is 1-A'.
 Alpha  occ. eigenvalues --  -19.19917 -10.27453 -10.24244 -10.20975 -10.20819
 Alpha  occ. eigenvalues --  -10.20738 -10.19999  -1.08490  -0.87267  -0.77876
 Alpha  occ. eigenvalues --   -0.76003  -0.69029  -0.64706  -0.60669  -0.56496
 Alpha  occ. eigenvalues --   -0.50415  -0.48753  -0.45682  -0.43158  -0.42580
 Alpha  occ. eigenvalues --   -0.39777  -0.38298  -0.35713  -0.34660  -0.29866
 Alpha  occ. eigenvalues --   -0.26345  -0.25495  -0.23561
 Alpha virt. eigenvalues --   -0.04120  -0.03030  -0.01345  -0.01037   0.01178
 Alpha virt. eigenvalues --    0.02037   0.03712   0.04614   0.04866   0.05747
 Alpha virt. eigenvalues --    0.06213   0.07165   0.07599   0.08543   0.10980
 Alpha virt. eigenvalues --    0.11083   0.11431   0.12647   0.13281   0.13282
 Alpha virt. eigenvalues --    0.14373   0.15476   0.15740   0.16820   0.17974
 Alpha virt. eigenvalues --    0.18628   0.18951   0.19988   0.20243   0.21676
 Alpha virt. eigenvalues --    0.22661   0.23222   0.23837   0.25708   0.26366
 Alpha virt. eigenvalues --    0.27065   0.27200   0.29208   0.30278   0.32521
 Alpha virt. eigenvalues --    0.32595   0.34350   0.35739   0.37892   0.38456
 Alpha virt. eigenvalues --    0.54232   0.54372   0.60151   0.64646   0.65113
 Alpha virt. eigenvalues --    0.65129   0.70303   0.70659   0.72036   0.72778
 Alpha virt. eigenvalues --    0.72843   0.73732   0.77028   0.78273   0.80086
 Alpha virt. eigenvalues --    0.85825   0.86877   0.89784   0.92570   0.94273
 Alpha virt. eigenvalues --    0.95459   1.00953   1.02794   1.06750   1.07507
 Alpha virt. eigenvalues --    1.11125   1.13163   1.16653   1.18873   1.20130
 Alpha virt. eigenvalues --    1.22134   1.24947   1.30892   1.31879   1.35149
 Alpha virt. eigenvalues --    1.38713   1.41923   1.43299   1.44637   1.47223
 Alpha virt. eigenvalues --    1.48865   1.49904   1.70634   1.71093   1.75464
 Alpha virt. eigenvalues --    1.78741   1.82886   1.91299   1.93902   1.95518
 Alpha virt. eigenvalues --    1.95553   2.04151   2.09847   2.12742   2.13059
 Alpha virt. eigenvalues --    2.13546   2.23357   2.25787   2.28197   2.28835
 Alpha virt. eigenvalues --    2.47399   2.47861   2.53441   2.56633   2.62656
 Alpha virt. eigenvalues --    2.67205   2.70562   2.73100   2.80959   2.85169
 Alpha virt. eigenvalues --    3.03133   3.08676   3.37156  15.41504
          Condensed to atoms (all electrons):
               1          2          3          4          5          6
     1  C    7.486036   0.788337  -0.297439  -0.507274  -1.832903   0.056803
     2  C    0.788337   5.843271   0.553383  -0.031892  -1.041936  -0.099657
     3  C   -0.297439   0.553383   5.871061   0.318947   0.159175  -0.880127
     4  C   -0.507274  -0.031892   0.318947   7.267902  -0.957364  -0.034763
     5  C   -1.832903  -1.041936   0.159175  -0.957364  12.104175  -2.651594
     6  C    0.056803  -0.099657  -0.880127  -0.034763  -2.651594   9.756069
     7  H    0.262816   0.015729   0.031258  -0.026384   0.040318  -0.030746
     8  H    0.026554  -0.010805   0.307825  -0.041601   0.026113  -0.012311
     9  H   -0.025633   0.016344   0.010413   0.267033   0.014020   0.023212
    10  I    0.227219   0.062153   0.065929   0.165367  -0.963506   0.491517
    11  H   -0.007325   0.291463  -0.009922   0.029474  -0.025862   0.019020
    12  O   -0.002722   0.051953  -0.006040   0.088360  -0.251796   0.123378
    13  H   -0.081328  -0.007830   0.009440  -0.006574   0.193952  -0.105773
               7          8          9         10         11         12
     1  C    0.262816   0.026554  -0.025633   0.227219  -0.007325  -0.002722
     2  C    0.015729  -0.010805   0.016344   0.062153   0.291463   0.051953
     3  C    0.031258   0.307825   0.010413   0.065929  -0.009922  -0.006040
     4  C   -0.026384  -0.041601   0.267033   0.165367   0.029474   0.088360
     5  C    0.040318   0.026113   0.014020  -0.963506  -0.025862  -0.251796
     6  C   -0.030746  -0.012311   0.023212   0.491517   0.019020   0.123378
     7  H    0.556195  -0.000151   0.000012  -0.000715  -0.005329  -0.019411
     8  H   -0.000151   0.532580  -0.005301  -0.000577  -0.004885   0.000067
     9  H    0.000012  -0.005301   0.508534  -0.004399  -0.000155  -0.000549
    10  I   -0.000715  -0.000577  -0.004399   6.892057   0.000121  -0.024128
    11  H   -0.005329  -0.004885  -0.000155   0.000121   0.529666  -0.000571
    12  O   -0.019411   0.000067  -0.000549  -0.024128  -0.000571   8.525630
    13  H    0.008024  -0.000001   0.000006   0.000005  -0.000014   0.162033
              13
     1  C   -0.081328
     2  C   -0.007830
     3  C    0.009440
     4  C   -0.006574
     5  C    0.193952
     6  C   -0.105773
     7  H    0.008024
     8  H   -0.000001
     9  H    0.000006
    10  I    0.000005
    11  H   -0.000014
    12  O    0.162033
    13  H    0.345863
 Mulliken charges:
               1
     1  C   -0.093141
     2  C   -0.430513
     3  C   -0.133904
     4  C   -0.531230
     5  C    1.187207
     6  C   -0.655028
[...]
   A15        2.09565  -0.00017   0.00000  -0.00099  -0.00099   2.09466
   A16        2.07785  -0.00012   0.00000  -0.00069  -0.00069   2.07716
   A17        2.13312  -0.00008   0.00000  -0.00020  -0.00020   2.13292
   A18        2.07222   0.00020   0.00000   0.00089   0.00089   2.07311
   A19        1.92029   0.00002   0.00000  -0.00015  -0.00015   1.92014
    D1        0.00000   0.00000   0.00000   0.00000   0.00000   0.00000
    D2        3.14159   0.00000   0.00000   0.00000   0.00000   3.14159
    D3        3.14159   0.00000   0.00000   0.00000   0.00000   3.14159
    D4        0.00000   0.00000   0.00000   0.00000   0.00000   0.00000
    D5        0.00000   0.00000   0.00000   0.00000   0.00000   0.00000
    D6        3.14159   0.00000   0.00000   0.00000   0.00000   3.14159
    D7        3.14159   0.00000   0.00000   0.00000   0.00000   3.14159
    D8        0.00000   0.00000   0.00000   0.00000   0.00000   0.00000
    D9        0.00000   0.00000   0.00000   0.00000   0.00000   0.00000
   D10        3.14159   0.00000   0.00000   0.00000   0.00000   3.14159
   D11        3.14159   0.00000   0.00000   0.00000   0.00000   3.14159
   D12        0.00000   0.00000   0.00000   0.00000   0.00000   0.00000
   D13        0.00000   0.00000   0.00000   0.00000   0.00000   0.00000
   D14        3.14159   0.00000   0.00000   0.00000   0.00000   3.14159
   D15        3.14159   0.00000   0.00000   0.00000   0.00000   3.14159
   D16        0.00000   0.00000   0.00000   0.00000   0.00000   0.00000
   D17        0.00000   0.00000   0.00000   0.00000   0.00000   0.00000
   D18        3.14159   0.00000   0.00000   0.00000   0.00000   3.14159
   D19        3.14159   0.00000   0.00000   0.00000   0.00000   3.14159
   D20        0.00000   0.00000   0.00000   0.00000   0.00000   0.00000
   D21        0.00000   0.00000   0.00000   0.00000   0.00000   0.00000
   D22        3.14159   0.00000   0.00000   0.00000   0.00000   3.14159
   D23        3.14159   0.00000   0.00000   0.00000   0.00000   3.14159
   D24        0.00000   0.00000   0.00000   0.00000   0.00000   0.00000
   D25        0.00000   0.00000   0.00000   0.00000   0.00000   0.00000
   D26        3.14159   0.00000   0.00000   0.00000   0.00000   3.14159
         Item               Value     Threshold  Converged?
 Maximum Force            0.000250     0.000450     YES
 RMS     Force            0.000080     0.000300     YES
 Maximum Displacement     0.001149     0.001800     YES
 RMS     Displacement     0.000347     0.001200     YES
 Predicted change in Energy=-6.931055D-07
 Optimization completed.
    -- Stationary point found.
                           ----------------------------
                           !   Optimized Parameters   !
                           ! (Angstroms and Degrees)  !
 --------------------------                            --------------------------
 ! Name  Definition              Value          Derivative Info.                !
 --------------------------------------------------------------------------------
 ! R1    R(1,2)                  1.395          -DE/DX =    0.0                 !
 ! R2    R(1,6)                  1.4025         -DE/DX =   -0.0001              !
 ! R3    R(1,7)                  1.089          -DE/DX =   -0.0001              !
 ! R4    R(2,3)                  1.3968         -DE/DX =    0.0                 !
 ! R5    R(2,11)                 1.0867         -DE/DX =   -0.0002              !
 ! R6    R(3,4)                  1.398          -DE/DX =    0.0001              !
 ! R7    R(3,8)                  1.0863         -DE/DX =   -0.0002              !
 ! R8    R(4,5)                  1.3961         -DE/DX =   -0.0002              !
 ! R9    R(4,9)                  1.0855         -DE/DX =   -0.0001              !
 ! R10   R(5,6)                  1.4024         -DE/DX =    0.0001              !
 ! R11   R(5,10)                 2.1401         -DE/DX =    0.0001              !
 ! R12   R(6,12)                 1.3648         -DE/DX =    0.0002              !
 ! R13   R(12,13)                0.9701         -DE/DX =   -0.0002              !
 ! A1    A(2,1,6)              120.5993         -DE/DX =    0.0                 !
 ! A2    A(2,1,7)              120.2256         -DE/DX =    0.0                 !
 ! A3    A(6,1,7)              119.1751         -DE/DX =    0.0                 !
 ! A4    A(1,2,3)              120.1109         -DE/DX =    0.0                 !
 ! A5    A(1,2,11)             119.4976         -DE/DX =   -0.0001              !
 ! A6    A(3,2,11)             120.3915         -DE/DX =    0.0                 !
 ! A7    A(2,3,4)              119.6049         -DE/DX =    0.0                 !
 ! A8    A(2,3,8)              120.637          -DE/DX =    0.0                 !
 ! A9    A(4,3,8)              119.7581         -DE/DX =    0.0                 !
 ! A10   A(3,4,5)              120.3613         -DE/DX =   -0.0001              !
 ! A11   A(3,4,9)              120.0792         -DE/DX =    0.0                 !
 ! A12   A(5,4,9)              119.5595         -DE/DX =    0.0                 !
 ! A13   A(4,5,6)              120.2715         -DE/DX =    0.0002              !
 ! A14   A(4,5,10)             119.6569         -DE/DX =    0.0                 !
 ! A15   A(6,5,10)             120.0717         -DE/DX =   -0.0002              !
 ! A16   A(1,6,5)              119.0521         -DE/DX =   -0.0001              !
 ! A17   A(1,6,12)             122.2186         -DE/DX =   -0.0001              !
 ! A18   A(5,6,12)             118.7293         -DE/DX =    0.0002              !
 ! A19   A(6,12,13)            110.0245         -DE/DX =    0.0                 !
 ! D1    D(6,1,2,3)              0.0            -DE/DX =    0.0                 !
 ! D2    D(6,1,2,11)           180.0            -DE/DX =    0.0                 !
 ! D3    D(7,1,2,3)            180.0            -DE/DX =    0.0                 !
 ! D4    D(7,1,2,11)             0.0            -DE/DX =    0.0                 !
 ! D5    D(2,1,6,5)              0.0            -DE/DX =    0.0                 !
 ! D6    D(2,1,6,12)           180.0            -DE/DX =    0.0                 !
 ! D7    D(7,1,6,5)            180.0            -DE/DX =    0.0                 !
 ! D8    D(7,1,6,12)             0.0            -DE/DX =    0.0                 !
 ! D9    D(1,2,3,4)              0.0            -DE/DX =    0.0                 !
 ! D10   D(1,2,3,8)            180.0            -DE/DX =    0.0                 !
 ! D11   D(11,2,3,4)           180.0            -DE/DX =    0.0                 !
 ! D12   D(11,2,3,8)             0.0            -DE/DX =    0.0                 !
 ! D13   D(2,3,4,5)              0.0            -DE/DX =    0.0                 !
 ! D14   D(2,3,4,9)            180.0            -DE/DX =    0.0                 !
 ! D15   D(8,3,4,5)            180.0            -DE/DX =    0.0                 !
 ! D16   D(8,3,4,9)              0.0            -DE/DX =    0.0                 !
 ! D17   D(3,4,5,6)              0.0            -DE/DX =    0.0                 !
 ! D18   D(3,4,5,10)           180.0            -DE/DX =    0.0                 !
 ! D19   D(9,4,5,6)            180.0            -DE/DX =    0.0                 !
 ! D20   D(9,4,5,10)             0.0            -DE/DX =    0.0                 !
 ! D21   D(4,5,6,1)              0.0            -DE/DX =    0.0                 !
 ! D22   D(4,5,6,12)           180.0            -DE/DX =    0.0                 !
 ! D23   D(10,5,6,1)           180.0            -DE/DX =    0.0                 !
 ! D24   D(10,5,6,12)            0.0            -DE/DX =    0.0                 !
 ! D25   D(1,6,12,13)            0.0            -DE/DX =    0.0                 !
 ! D26   D(5,6,12,13)          180.0            -DE/DX =    0.0                 !
 --------------------------------------------------------------------------------
 GradGradGradGradGradGradGradGradGradGradGradGradGradGradGradGradGradGrad


 ----------------------------------------------------------------------

 Electric dipole moment (input orientation):
 (Debye = 10**-18 statcoulomb cm , SI units = C m)
                  (au)            (Debye)         (10**-30 SI)
   Tot        0.115459D+01      0.293468D+01      0.978904D+01
   x         -0.112379D+01     -0.285639D+01     -0.952789D+01
   y          0.264911D+00      0.673337D+00      0.224601D+01
   z          0.000000D+00      0.000000D+00      0.000000D+00

 Dipole polarizability, Alpha (input orientation).
 (esu units = cm**3 , SI units = C**2 m**2 J**-1)
 Alpha(0;0):
               (au)            (10**-24 esu)      (10**-40 SI)
   iso        0.100511D+03      0.148942D+02      0.165721D+02
   aniso      0.726329D+02      0.107631D+02      0.119756D+02
   xx         0.141890D+03      0.210259D+02      0.233945D+02
   yx         0.307286D+01      0.455350D+00      0.506645D+00
   yy         0.101384D+03      0.150236D+02      0.167160D+02
   zx         0.000000D+00      0.000000D+00      0.000000D+00
   zy         0.000000D+00      0.000000D+00      0.000000D+00
   zz         0.582596D+02      0.863318D+01      0.960571D+01

 ----------------------------------------------------------------------

 Dipole orientation:
     6          0.10654083          0.45196139          5.29016910
     6         -0.48080070         -2.03962507          5.91990775
     6         -0.90098967         -3.82212658          4.01893455
     6         -0.72919873         -3.09336492          1.48534445
     6         -0.14158870         -0.60063944          0.85166274
     6          0.28209033          1.19666738          2.75258130
     1          0.43480800          1.84451750          6.76934312
     1         -1.35936390         -5.76661536          4.49098589
     1         -1.05292112         -4.46664143         -0.00368280
    53          0.11043240          0.46846999         -3.04060772
     1         -0.60812443         -2.57975049          7.89716671
     8          0.85248006          3.61634188          2.06596480
     1          1.09652421          4.65161195          3.55910438

 Electric dipole moment (dipole orientation):
 (Debye = 10**-18 statcoulomb cm , SI units = C m)
                  (au)            (Debye)         (10**-30 SI)
   Tot        0.115459D+01      0.293468D+01      0.978904D+01
   x          0.000000D+00      0.000000D+00      0.000000D+00
   y          0.000000D+00      0.000000D+00      0.000000D+00
   z          0.115459D+01      0.293468D+01      0.978904D+01

 Dipole polarizability, Alpha (dipole orientation).
 (esu units = cm**3 , SI units = C**2 m**2 J**-1)
 Alpha(0;0):
               (au)            (10**-24 esu)      (10**-40 SI)
   iso        0.100511D+03      0.148942D+02      0.165721D+02
   aniso      0.726329D+02      0.107631D+02      0.119756D+02
   xx         0.607143D+02      0.899693D+01      0.100104D+02
   yx         0.104134D+02      0.154310D+01      0.171693D+01
   yy         0.102435D+03      0.151792D+02      0.168892D+02
   zx        -0.270625D+01     -0.401025D+00     -0.446201D+00
   zy        -0.114803D+02     -0.170121D+01     -0.189285D+01
   zz         0.138385D+03      0.205065D+02      0.228166D+02

 ----------------------------------------------------------------------
 1\1\GINC-IP-172-31-4-202\Freq\RB3LYP\Gen\C6H5I1O1\UBUNTU\18-Sep-2023\0
 \\#N Geom=AllCheck Guess=TCheck SCRF=Check GenChk RB3LYP/ChkBas Freq\\
 Title Card Required\\0,1\C,-2.668376,0.881474,0.\C,-3.303537,-0.360557
 ,0.\C,-2.546776,-1.534623,0.\C,-1.150917,-1.456595,0.\C,-0.513583,-0.2
 1444,0.\C,-1.268469,0.967454,0.\H,-3.256528,1.797977,0.\H,-3.032472,-2
 .506288,0.\H,-0.555285,-2.364092,0.\I,1.624534,-0.121272,0.\H,-4.38932
 1,-0.40631,0.\O,-0.612983,2.164525,0.\H,-1.252897,2.893656,0.\\Version
 =EM64L-G16RevB.01\State=1-A'\HF=-318.2906634\RMSD=5.747e-09\RMSF=1.472
 e-04\ZeroPoint=0.0940993\Thermal=0.1011777\Dipole=-1.1237903,0.264911,
 0.\DipoleDeriv=-0.0212306,-0.3510876,0.,0.149457,-0.1144589,0.,0.,0.,-
 0.1726931,0.0638191,0.0317014,0.,-0.1499061,0.1612334,0.,0.,0.,-0.1305
 183,-0.1587464,0.0910501,0.,0.0069327,-0.0324882,0.,0.,0.,-0.1430351,-
 0.1688839,-0.0862875,0.,0.168647,0.0836904,0.,0.,0.,-0.0898855,1.00878
 03,0.1257344,0.,-0.1057086,-0.3010802,0.,0.,0.,-0.1192809,-0.1058327,0
 .5547322,0.,0.229064,1.1927844,0.,0.,0.,0.1227224,-0.009462,0.0619253,
 0.,0.0703076,-0.1001506,0.,0.,0.,0.1503831,-0.0091404,-0.0669476,0.,-0
 .0681564,-0.0675272,0.,0.,0.,0.1499551,0.0445638,0.0680288,0.,0.051716
 8,0.0016238,0.,0.,0.,0.1257213,-0.3884012,-0.0453315,0.,-0.0138564,0.0
 240799,0.,0.,0.,-0.0141928,-0.1110025,-0.0101892,0.,-0.0027205,0.07238
 42,0.,0.,0.,0.1401463,-0.2837011,-0.4911674,0.,-0.3703778,-1.2800509,0
 .,0.,0.,-0.3624824,0.1392376,0.1178387,0.,0.0346006,0.3599599,0.,0.,0.
 ,0.3431598\Polar=141.8897045,3.0728552,101.3844615,0.,0.,58.2595812\Qu
 adrupole=3.1365562,3.3115723,-6.4481285,-3.18784,0.,0.\PG=CS [SG(C6H5I
 1O1)]\NImag=0\\0.66935931,-0.01418345,0.73205996,0.,0.,0.11854246,-0.1
 7094685,-0.12088762,0.,0.74299513,-0.05987193,-0.30130874,0.,0.0025939
 4,0.67238967,0.,0.,-0.05598155,0.,0.,0.13139932,0.05862099,0.02735157,
 0.,-0.18836067,0.06623911,0.,0.67391986,-0.01736311,-0.05758715,0.,0.1
 2795102,-0.27738953,0.,0.02983341,0.72984230,0.,0.,0.00748513,0.,0.,-0
 .06061444,0.,0.,0.12415385,-0.04382861,-0.02861377,0.,-0.03477028,0.07
 079498,0.,-0.33367119,-0.04424755,0.,0.68283812,-0.02489709,-0.0197883
 8,0.,0.02367570,0.03650997,0.,0.02390816,-0.12522571,0.,-0.04384249,0.
 71219941,0.,0.,-0.00263219,0.,0.,0.00703535,0.,0.,-0.06045718,0.,0.,0.
 13128815,-0.02991659,0.01652624,0.,-0.00069300,0.00377880,0.,-0.022376
 01,-0.02770733,0.,-0.14747661,-0.11187291,0.,0.44338828,0.06717504,0.0
 3475129,0.,0.00654243,-0.06561296,0.,-0.08182271,0.02307296,0.,-0.0578
 8871,-0.29304768,0.,0.00200113,0.64197426,0.,0.,0.00815769,0.,0.,-0.00
 317666,0.,0.,0.00884396,0.,0.,-0.05482164,0.,0.,0.09883296,-0.30794587
 ,0.04399800,0.,-0.02080804,-0.08398983,0.,-0.05527337,0.03211478,0.,0.
 06686949,0.02777490,0.,-0.16730611,0.06340536,0.,0.67168210,-0.0376308
 2,-0.12509063,0.,-0.03268001,0.03265104,0.,0.03211509,-0.01308993,0.,-
 0.02135208,-0.05438801,0.,0.12784446,-0.23872589,0.,-0.00335427,0.6949
 3312,0.,0.,-0.06342894,0.,0.,0.00057647,0.,0.,-0.00278549,0.,0.,0.0009
 9856,0.,0.,-0.06419214,0.,0.,0.15293710,-0.14074377,0.12514739,0.,0.01
 225379,-0.01322962,0.,-0.00053498,-0.00306925,0.,-0.00091064,-0.001097
 13,0.,-0.00425798,-0.00129363,0.,-0.01375706,0.02813585,0.,0.14646376,
 0.12499604,-0.24989709,0.,0.01800205,-0.01916927,0.,-0.00429956,-0.003
 12684,0.,-0.00075150,0.00010351,0.,-0.00058398,0.00132243,0.,-0.004392
 45,-0.00000156,0.,-0.13412756,0.26683540,0.,0.,-0.03161953,0.,0.,0.002
 37795,0.,0.,0.00626515,0.,0.,-0.00064838,0.,0.,0.00458567,0.,0.,0.0043
 1679,0.,0.,0.02190662,-0.00142413,0.00303129,0.,0.01205708,0.01698312,
 0.,-0.11528980,-0.11305680,0.,-0.01054278,-0.02960558,0.,-0.00397209,0
 .00078717,0.,-0.00128652,0.00083239,0.,0.00046266,0.00096635,0.,0.1192
 7635,0.00401789,-0.00231036,0.,-0.01425417,-0.01832725,0.,-0.11295485,
 -0.28504104,0.,0.00179182,0.00233373,0.,0.00016205,0.00147611,0.,0.000
 81720,0.00024520,0.,-0.00074594,-0.00103369,0.,0.12098378,0.30096430,0
 .,0.,0.00611665,0.,0.,0.00192208,0.,0.,-0.03272847,0.,0.,0.00220595,0.
 ,0.,0.00622992,0.,0.,-0.00024263,0.,0.,0.00055476,0.,0.,0.02425064,-0.
 00058729,-0.00109844,0.,-0.00543002,-0.00162502,0.,-0.01172093,0.02719
 389,0.,-0.14280544,0.13335017,0.,0.00904573,-0.01474499,0.,-0.00102719
 ,-0.00236806,0.,0.00008749,0.00011463,0.,0.00067769,-0.00031410,0.,0.1
 5199334,-0.00084169,0.00010007,0.,-0.00097559,0.00133369,0.,-0.0027276
 2,0.00596480,0.,0.13031081,-0.25761361,0.,0.01613534,-0.01975002,0.,-0
 .00372876,-0.00212979,0.,0.00006958,-0.00001945,0.,0.00025129,0.000779
 93,0.,-0.13858810,0.27270385,0.,0.,-0.00065294,0.,0.,0.00641976,0.,0.,
 0.00437905,0.,0.,-0.03685793,0.,0.,0.00167867,0.,0.,0.00614286,0.,0.,-
 0.00054364,0.,0.,-0.00405347,0.,0.,0.02504712,0.00246494,0.00468988,0.
 ,-0.00138082,0.00033321,0.,0.00423129,-0.00350002,0.,-0.02897191,-0.00
 238211,0.,-0.09054955,0.00154445,0.,-0.02955468,-0.00662300,0.,-0.0010
 9478,-0.00032121,0.,-0.00101786,0.00020850,0.,-0.00009400,-0.00042245,
 0.,0.14531802,0.00017981,-0.00246407,0.,-0.00032510,0.00017367,0.,0.00
 041685,-0.00193732,0.,-0.01814010,0.00096859,0.,-0.00306539,-0.0231327
 3,0.,0.01324509,0.00271351,0.,0.00065257,0.00023211,0.,-0.00058735,0.0
 0005513,0.,-0.00214295,-0.00011054,0.,0.00524126,0.02423710,0.,0.,0.00
 242516,0.,0.,-0.00031683,0.,0.,0.00328990,0.,0.,0.00190934,0.,0.,-0.01
 330341,0.,0.,0.00336210,0.,0.,0.00009896,0.,0.,0.00026995,0.,0.,-0.001
 77912,0.,0.,0.00622710,-0.01004509,0.00161805,0.,-0.34015629,-0.011970
 88,0.,-0.01227284,-0.00345269,0.,0.00014507,0.00350859,0.,0.00088274,0
 .00011985,0.,0.00153457,-0.00212995,0.,0.00078593,-0.00039936,0.,0.000
 74629,0.00039522,0.,-0.00067429,-0.00025361,0.,-0.00010682,-0.00003835
 ,0.,0.36001564,-0.02903111,0.00273795,0.,-0.01168577,-0.06044945,0.,0.
 02729171,0.00671942,0.,0.00260983,-0.00441568,0.,-0.00012118,-0.001328
 57,0.,-0.00126645,-0.00456317,0.,0.00018097,0.00074990,0.,-0.00038154,
 0.00070502,0.,0.00136859,0.00020536,0.,0.00007806,0.00013916,0.,0.0127
 5688,0.05961644,0.,0.,0.00290979,0.,0.,-0.03619125,0.,0.,0.00339316,0.
 ,0.,0.00647776,0.,0.,-0.00061758,0.,0.,0.00695217,0.,0.,-0.00398447,0.
 ,0.,-0.00384647,0.,0.,0.00009957,0.,0.,-0.00052885,0.,0.,0.02528411,-0
 .02666817,-0.05285614,0.,-0.00418701,0.00964829,0.,0.00298865,-0.00461
 905,0.,-0.00765815,0.00143605,0.,0.01544916,0.01862851,0.,-0.15597214,
 -0.06035118,0.,0.00271552,-0.00016824,0.,0.00039199,-0.00024283,0.,0.0
 0058224,0.00097837,0.,0.00082840,0.00405992,0.,-0.00086304,-0.00177157
 ,0.,0.42300816,-0.01498512,-0.01635993,0.,0.00170413,0.00039414,0.,-0.
 00491293,-0.00311482,0.,0.00734445,0.00289278,0.,-0.01879086,-0.057604
 16,0.,-0.11306773,-0.25700717,0.,0.00118215,0.00382055,0.,-0.00011403,
 0.00005071,0.,-0.00078401,-0.00116880,0.,0.00160251,-0.00062740,0.,-0.
 00035882,-0.00037774,0.,-0.11064091,0.61294071,0.,0.,0.00952580,0.,0.,
 0.00722963,0.,0.,-0.00144984,0.,0.,0.00399014,0.,0.,0.00570759,0.,0.,-
 0.04137007,0.,0.,-0.00403408,0.,0.,-0.00057743,0.,0.,0.00032800,0.,0.,
 -0.00149776,0.,0.,0.00005458,0.,0.,0.02558895,0.00166112,-0.00472300,0
 .,-0.00057303,0.00031583,0.,-0.00026100,-0.00007728,0.,0.00078292,0.00
 004374,0.,-0.00221797,-0.00445390,0.,0.01284483,-0.02243841,0.,-0.0014
 6996,0.00096478,0.,-0.00007888,0.00013543,0.,-0.00004732,-0.00020758,0
 .,-0.00007224,0.00050373,0.,0.00000814,-0.00002842,0.,-0.25061562,0.25
 182119,0.,0.24003899,0.00243554,0.00515709,0.,0.00033900,-0.00119498,0
 .,-0.00043825,0.00091285,0.,0.00198431,-0.00052893,0.,-0.00430637,-0.0
 0339504,0.,0.02844417,-0.03554672,0.,-0.00180538,0.00018401,0.,-0.0000
 9008,0.00010221,0.,-0.00036160,-0.00029549,0.,-0.00044910,-0.00024723,
 0.,0.00020507,0.00026136,0.,0.19589878,-0.28383888,0.,-0.22185610,0.31
 842977,0.,0.,-0.00084753,0.,0.,-0.00067982,0.,0.,0.00022522,0.,0.,0.00
 151206,0.,0.,0.00207498,0.,0.,-0.00326677,0.,0.,0.00072420,0.,0.,-0.00
 010149,0.,0.,-0.00020794,0.,0.,-0.00015655,0.,0.,-0.00000252,0.,0.,-0.
 00349551,0.,0.,0.00422167\\-0.00000059,-0.00005798,0.,0.00012588,0.000
 03998,0.,0.00020169,0.00016135,0.,-0.00038581,0.00000799,0.,0.00042086
 ,0.00036699,0.,-0.00008291,0.00003600,0.,-0.00004809,0.00007622,0.,-0.
 00007332,-0.00013181,0.,0.00008757,-0.00012139,0.,-0.00007577,-0.00004
 472,0.,-0.00015307,-0.00005734,0.,0.00010506,-0.00039903,0.,-0.0001215
 0,0.00012375,0.\\\@


 CHEMISTRY BEGAN BY SAYING IT WOULD CHANGE THE BASER
 METALS INTO GOLD.  BY NOT DOING THAT IT HAS DONE MUCH
 GREATER THINGS.  --  RALPH WALDO EMERSON
 Job cpu time:       0 days  0 hours 13 minutes 43.9 seconds.
 Elapsed time:       0 days  0 hours  0 minutes 25.8 seconds.
 File lengths (MBytes):  RWF=     39 Int=      0 D2E=      0 Chk=      3 Scr=      1
 Normal termination of Gaussian 16 at Mon Sep 18 06:36:39 2023.
