 Entering Gaussian System, Link 0=g16
 Input=/home/ubuntu/Downloads/ARYLHALIDE-pyridine-gen-vol.gjf
 Output=/home/ubuntu/Downloads/ARYLHALIDE-pyridine-gen-vol.log
 Initial command:
 /home/ubuntu/g16/l1.exe "/home/ubuntu/Scratch/Gau-26454.inp" -scrdir="/home/ubuntu/Scratch/"
 Entering Link 1 = /home/ubuntu/g16/l1.exe PID=     26458.
  
 Copyright (c) 1988-2017, Gaussian, Inc.  All Rights Reserved.
  
 This is part of the Gaussian(R) 16 program.  It is based on
 the Gaussian(R) 09 system (copyright 2009, Gaussian, Inc.),
 the Gaussian(R) 03 system (copyright 2003, Gaussian, Inc.),
 the Gaussian(R) 98 system (copyright 1998, Gaussian, Inc.),
 the Gaussian(R) 94 system (copyright 1995, Gaussian, Inc.),
 the Gaussian 92(TM) system (copyright 1992, Gaussian, Inc.),
 the Gaussian 90(TM) system (copyright 1990, Gaussian, Inc.),
 the Gaussian 88(TM) system (copyright 1988, Gaussian, Inc.),
 the Gaussian 86(TM) system (copyright 1986, Carnegie Mellon
 University), and the Gaussian 82(TM) system (copyright 1983,
 Carnegie Mellon University). Gaussian is a federally registered
 trademark of Gaussian, Inc.
  
 This software contains proprietary and confidential information,
 including trade secrets, belonging to Gaussian, Inc.
  
 This software is provided under written license and may be
 used, copied, transmitted, or stored only in accord with that
 written license.
  
 The following legend is applicable only to US Government
 contracts under FAR:
  
                    RESTRICTED RIGHTS LEGEND
  
 Use, reproduction and disclosure by the US Government is
 subject to restrictions as set forth in subparagraphs (a)
 and (c) of the Commercial Computer Software - Restricted
 Rights clause in FAR 52.227-19.
  
 Gaussian, Inc.
 340 Quinnipiac St., Bldg. 40, Wallingford CT 06492
  
  
 ---------------------------------------------------------------
 Warning -- This program may not be used in any manner that
 competes with the business of Gaussian, Inc. or will provide
 assistance to any competitor of Gaussian, Inc.  The licensee
 of this program is prohibited from giving any competitor of
 Gaussian, Inc. access to this program.  By using this program,
 the user acknowledges that Gaussian, Inc. is engaged in the
 business of creating and licensing software in the field of
 computational chemistry and represents and warrants to the
 licensee that it is not a competitor of Gaussian, Inc. and that
 it will not use this program in any manner prohibited above.
 ---------------------------------------------------------------
  

 Cite this work as:
 Gaussian 16, Revision B.01,
 M. J. Frisch, G. W. Trucks, H. B. Schlegel, G. E. Scuseria, 
 M. A. Robb, J. R. Cheeseman, G. Scalmani, V. Barone, 
 G. A. Petersson, H. Nakatsuji, X. Li, M. Caricato, A. V. Marenich, 
 J. Bloino, B. G. Janesko, R. Gomperts, B. Mennucci, H. P. Hratchian, 
 J. V. Ortiz, A. F. Izmaylov, J. L. Sonnenberg, D. Williams-Young, 
 F. Ding, F. Lipparini, F. Egidi, J. Goings, B. Peng, A. Petrone, 
 T. Henderson, D. Ranasinghe, V. G. Zakrzewski, J. Gao, N. Rega, 
 G. Zheng, W. Liang, M. Hada, M. Ehara, K. Toyota, R. Fukuda, 
 J. Hasegawa, M. Ishida, T. Nakajima, Y. Honda, O. Kitao, H. Nakai, 
 T. Vreven, K. Throssell, J. A. Montgomery, Jr., J. E. Peralta, 
 F. Ogliaro, M. J. Bearpark, J. J. Heyd, E. N. Brothers, K. N. Kudin, 
 V. N. Staroverov, T. A. Keith, R. Kobayashi, J. Normand, 
 K. Raghavachari, A. P. Rendell, J. C. Burant, S. S. Iyengar, 
 J. Tomasi, M. Cossi, J. M. Millam, M. Klene, C. Adamo, R. Cammi, 
 J. W. Ochterski, R. L. Martin, K. Morokuma, O. Farkas, 
 J. B. Foresman, and D. J. Fox, Gaussian, Inc., Wallingford CT, 2016.
 
 ******************************************
 Gaussian 16:  EM64L-G16RevB.01 20-Dec-2017
                13-Sep-2023 
 ******************************************
 %nprocshared=32
 Will use up to   32 processors via shared memory.
 %mem=60GB
 %chk=ARYLHALIDE-pyridine-gen-vol.chk
 ----------------------------------------------------------------------
 # opt freq rb3lyp/gen nosymm empiricaldispersion=gd3 pseudo=read scf=m
 axcycle=1000 volume
 ----------------------------------------------------------------------
 1/18=20,19=15,26=3,38=1/1,3;
 2/9=110,12=2,15=1,17=6,18=5,40=1/2;
 3/5=7,11=2,16=1,17=8,25=1,30=1,71=1,74=-5,116=1,124=31/1,2,3;
 4//1;
 5/5=2,7=1000,38=5/2;
 6/7=2,8=2,9=2,10=2,28=1,44=1/1,4;
 7/30=1/1,2,3,16;
 1/18=20,19=15,26=3/3(2);
 2/9=110,15=1/2;
 99//99;
 2/9=110,15=1/2;
 3/5=7,6=1,11=2,16=1,17=8,25=1,30=1,71=1,74=-5,82=7,116=1,124=31/1,2,3;
 4/5=5,16=3,69=1/1;
 5/5=2,7=1000,38=5/2;
 7/30=1/1,2,3,16;
 1/18=20,19=15,26=3/3(-5);
 2/9=110,15=1/2;
 6/7=2,8=2,9=2,10=2,19=2,28=1,44=1/1,4;
 99/9=1/99;
 -----
 reac1
 -----
 Symbolic Z-matrix:
 Charge =  0 Multiplicity = 1
 C                    -0.45318  -0.00245  -0.00012 
 C                     0.25451   1.20457   0.00004 
 C                     0.24491  -1.20949  -0.00016 
 H                    -0.2663    2.15857   0.00008 
 C                     1.64101  -1.15604  -0.00006 
 H                    -0.27703  -2.16108  -0.00028 
 C                     2.26493   0.09393   0.0001 
 H                     2.23088  -2.06847  -0.00009 
 I                    -2.59715   0.01864  -0.00027 
 H                     3.35      0.17273   0.00019 
 N                     1.59208   1.25237   0.00014 
 

 GradGradGradGradGradGradGradGradGradGradGradGradGradGradGradGradGradGrad
 Berny optimization.
 Initialization pass.
                           ----------------------------
                           !    Initial Parameters    !
                           ! (Angstroms and Degrees)  !
 --------------------------                            --------------------------
 ! Name  Definition              Value          Derivative Info.                !
 --------------------------------------------------------------------------------
 ! R1    R(1,2)                  1.3992         estimate D2E/DX2                !
 ! R2    R(1,3)                  1.3944         estimate D2E/DX2                !
 ! R3    R(1,9)                  2.1441         estimate D2E/DX2                !
 ! R4    R(2,4)                  1.0869         estimate D2E/DX2                !
 ! R5    R(2,11)                 1.3384         estimate D2E/DX2                !
 ! R6    R(3,5)                  1.3971         estimate D2E/DX2                !
 ! R7    R(3,6)                  1.0853         estimate D2E/DX2                !
 ! R8    R(5,7)                  1.397          estimate D2E/DX2                !
 ! R9    R(5,8)                  1.0865         estimate D2E/DX2                !
 ! R10   R(7,10)                 1.0879         estimate D2E/DX2                !
 ! R11   R(7,11)                 1.3397         estimate D2E/DX2                !
 ! A1    A(2,1,3)              119.5735         estimate D2E/DX2                !
 ! A2    A(2,1,9)              119.82           estimate D2E/DX2                !
 ! A3    A(3,1,9)              120.6065         estimate D2E/DX2                !
 ! A4    A(1,2,4)              120.9853         estimate D2E/DX2                !
 ! A5    A(1,2,11)             122.43           estimate D2E/DX2                !
 ! A6    A(4,2,11)             116.5847         estimate D2E/DX2                !
 ! A7    A(1,3,5)              117.8505         estimate D2E/DX2                !
 ! A8    A(1,3,6)              121.2125         estimate D2E/DX2                !
 ! A9    A(5,3,6)              120.937          estimate D2E/DX2                !
 ! A10   A(3,5,7)              118.7183         estimate D2E/DX2                !
 ! A11   A(3,5,8)              120.689          estimate D2E/DX2                !
 ! A12   A(7,5,8)              120.5927         estimate D2E/DX2                !
 ! A13   A(5,7,10)             120.6794         estimate D2E/DX2                !
 ! A14   A(5,7,11)             123.3252         estimate D2E/DX2                !
 ! A15   A(10,7,11)            115.9955         estimate D2E/DX2                !
 ! A16   A(2,11,7)             118.1026         estimate D2E/DX2                !
 ! D1    D(3,1,2,4)            180.0            estimate D2E/DX2                !
 ! D2    D(3,1,2,11)             0.0001         estimate D2E/DX2                !
 ! D3    D(9,1,2,4)             -0.0001         estimate D2E/DX2                !
 ! D4    D(9,1,2,11)           180.0            estimate D2E/DX2                !
 ! D5    D(2,1,3,5)             -0.0001         estimate D2E/DX2                !
 ! D6    D(2,1,3,6)            180.0            estimate D2E/DX2                !
 ! D7    D(9,1,3,5)           -180.0            estimate D2E/DX2                !
 ! D8    D(9,1,3,6)              0.0001         estimate D2E/DX2                !
 ! D9    D(1,2,11,7)            -0.0001         estimate D2E/DX2                !
 ! D10   D(4,2,11,7)          -180.0            estimate D2E/DX2                !
 ! D11   D(1,3,5,7)              0.0001         estimate D2E/DX2                !
 ! D12   D(1,3,5,8)           -180.0            estimate D2E/DX2                !
 ! D13   D(6,3,5,7)           -180.0            estimate D2E/DX2                !
 ! D14   D(6,3,5,8)              0.0            estimate D2E/DX2                !
 ! D15   D(3,5,7,10)           180.0            estimate D2E/DX2                !
 ! D16   D(3,5,7,11)            -0.0001         estimate D2E/DX2                !
 ! D17   D(8,5,7,10)             0.0            estimate D2E/DX2                !
 ! D18   D(8,5,7,11)           180.0            estimate D2E/DX2                !
 ! D19   D(5,7,11,2)             0.0001         estimate D2E/DX2                !
 ! D20   D(10,7,11,2)         -180.0            estimate D2E/DX2                !
 --------------------------------------------------------------------------------
 Trust Radius=3.00D-01 FncErr=1.00D-07 GrdErr=1.00D-06 EigMax=2.50D+02 EigMin=1.00D-04
 Number of steps in this run=     57 maximum allowed number of steps=    100.
 GradGradGradGradGradGradGradGradGradGradGradGradGradGradGradGradGradGrad

                          Input orientation:                          
 ---------------------------------------------------------------------
 Center     Atomic      Atomic             Coordinates (Angstroms)
 Number     Number       Type             X           Y           Z
 ---------------------------------------------------------------------
      1          6           0       -0.453176   -0.002449   -0.000116
      2          6           0        0.254511    1.204569    0.000039
      3          6           0        0.244914   -1.209485   -0.000164
      4          1           0       -0.266302    2.158573    0.000079
      5          6           0        1.641014   -1.156035   -0.000055
      6          1           0       -0.277031   -2.161081   -0.000283
      7          6           0        2.264928    0.093934    0.000097
      8          1           0        2.230880   -2.068475   -0.000087
      9         53           0       -2.597145    0.018637   -0.000274
     10          1           0        3.350004    0.172733    0.000185
     11          7           0        1.592083    1.252365    0.000143
 ---------------------------------------------------------------------
                    Distance matrix (angstroms):
                    1          2          3          4          5
     1  C    0.000000
     2  C    1.399183   0.000000
     3  C    1.394369   2.414073   0.000000
     4  H    2.169087   1.086908   3.406634   0.000000
     5  C    2.390898   2.737671   1.397123   3.824197   0.000000
     6  H    2.165807   3.407365   1.085339   4.319667   2.165413
     7  C    2.719812   2.296799   2.404029   3.266475   1.397029
     8  H    3.387126   3.823461   2.163776   4.909567   1.086503
     9  I    2.144073   3.088426   3.096059   3.164199   4.397937
    10  H    3.807212   3.262938   3.398840   4.125679   2.164780
    11  N    2.399509   1.338426   2.806345   2.067561   2.408897
                    6          7          8          9         10
     6  H    0.000000
     7  C    3.398036   0.000000
     8  H    2.509620   2.162677   0.000000
     9  I    3.183410   4.862656   5.259835   0.000000
    10  H    4.313012   1.087933   2.505085   5.949145   0.000000
    11  N    3.891684   1.339658   3.381721   4.367118   2.062981
                   11
    11  N    0.000000
 Symmetry turned off by external request.
 Stoichiometry    C5H4IN
 Framework group  C1[X(C5H4IN)]
 Deg. of freedom    27
 Full point group                 C1      NOp   1
 Rotational constants (GHZ):           5.8288213           0.7334503           0.6514742
 General basis read from cards:  (5D, 7F)
 ======================================================================================================
                                       Pseudopotential Parameters
 ======================================================================================================
  Center     Atomic      Valence      Angular      Power
  Number     Number     Electrons     Momentum     of R      Exponent        Coefficient   SO-Coeffient
 ======================================================================================================
    1          6
                                   No pseudopotential on this center.
    2          6
                                   No pseudopotential on this center.
    3          6
                                   No pseudopotential on this center.
    4          1
                                   No pseudopotential on this center.
    5          6
                                   No pseudopotential on this center.
    6          1
                                   No pseudopotential on this center.
    7          6
                                   No pseudopotential on this center.
    8          1
                                   No pseudopotential on this center.
    9         53            7
                                      G and up 
                                                     2        1.0000000        0.00000000    0.00000000
                                      S - G
                                                     2        3.5112000       83.11386300    0.00000000
                                                     2        1.7556000        5.20187600    0.00000000
                                      P - G
                                                     2        2.9688000       82.81110900    0.00000000
                                                     2        1.4844000        3.37968200    0.00000000
                                      D - G
                                                     2        1.9066000       10.30427700    0.00000000
                                                     2        0.9533000        7.58803200    0.00000000
                                      F - G
                                                     2        2.3075000      -21.47793600    0.00000000
   10          1
                                   No pseudopotential on this center.
   11          7
                                   No pseudopotential on this center.
 ======================================================================================================
   127 basis functions,   227 primitive gaussians,   133 cartesian basis functions
    24 alpha electrons       24 beta electrons
       nuclear repulsion energy       240.2916495175 Hartrees.
 NAtoms=   11 NActive=   11 NUniq=   11 SFac= 1.00D+00 NAtFMM=   60 NAOKFM=F Big=F
 Integral buffers will be    131072 words long.
 Raffenetti 2 integral format.
 Two-electron integral symmetry is turned off.
 Nuclear repulsion after empirical dispersion term =      240.2842939270 Hartrees.
 One-electron integrals computed using PRISM.
   1 Symmetry operations used in ECPInt.
 ECPInt:  NShTT=     946 NPrTT=    4879 LenC2=     947 LenP2D=    3870.
 LDataN:  DoStor=T MaxTD1= 6 Len=  172
 NBasis=   127 RedAO= T EigKep=  1.79D-05  NBF=   127
 NBsUse=   127 1.00D-06 EigRej= -1.00D+00 NBFU=   127
 Defaulting to unpruned grid for atomic number  53.
 ExpMin= 3.26D-02 ExpMax= 4.17D+03 ExpMxC= 6.27D+02 IAcc=3 IRadAn=         5 AccDes= 0.00D+00
 Harris functional with IExCor=  402 and IRadAn=       5 diagonalized for initial guess.
 HarFok:  IExCor=  402 AccDes= 0.00D+00 IRadAn=         5 IDoV= 1 UseB2=F ITyADJ=14
 ICtDFT=  3500011 ScaDFX=  1.000000  1.000000  1.000000  1.000000
 Defaulting to unpruned grid for atomic number  53.
 FoFCou: FMM=F IPFlag=           0 FMFlag=      100000 FMFlg1=           0
         NFxFlg=           0 DoJE=T BraDBF=F KetDBF=T FulRan=T
         wScrn=  0.000000 ICntrl=       500 IOpCl=  0 I1Cent=   200000004 NGrid=           0
         NMat0=    1 NMatS0=      1 NMatT0=    0 NMatD0=    1 NMtDS0=    0 NMtDT0=    0
 Symmetry not used in FoFCou.
 Keep R1 ints in memory in canonical form, NReq=63748464.
 Requested convergence on RMS density matrix=1.00D-08 within1000 cycles.
 Requested convergence on MAX density matrix=1.00D-06.
 Requested convergence on             energy=1.00D-06.
 No special actions if energy rises.
 Defaulting to unpruned grid for atomic number  53.
 Defaulting to unpruned grid for atomic number  53.
 Defaulting to unpruned grid for atomic number  53.
 Defaulting to unpruned grid for atomic number  53.
 Defaulting to unpruned grid for atomic number  53.
 Defaulting to unpruned grid for atomic number  53.
 Defaulting to unpruned grid for atomic number  53.
 Defaulting to unpruned grid for atomic number  53.
 Defaulting to unpruned grid for atomic number  53.
 Defaulting to unpruned grid for atomic number  53.
 Defaulting to unpruned grid for atomic number  53.
 Defaulting to unpruned grid for atomic number  53.
 Defaulting to unpruned grid for atomic number  53.
 Defaulting to unpruned grid for atomic number  53.
 Defaulting to unpruned grid for atomic number  53.
 Defaulting to unpruned grid for atomic number  53.
 Defaulting to unpruned grid for atomic number  53.
 Defaulting to unpruned grid for atomic number  53.
 Defaulting to unpruned grid for atomic number  53.
 Defaulting to unpruned grid for atomic number  53.
 Defaulting to unpruned grid for atomic number  53.
 Defaulting to unpruned grid for atomic number  53.
 Defaulting to unpruned grid for atomic number  53.
 Defaulting to unpruned grid for atomic number  53.
 Defaulting to unpruned grid for atomic number  53.
 Defaulting to unpruned grid for atomic number  53.
 Defaulting to unpruned grid for atomic number  53.
 Defaulting to unpruned grid for atomic number  53.
 Defaulting to unpruned grid for atomic number  53.
 Defaulting to unpruned grid for atomic number  53.
 Defaulting to unpruned grid for atomic number  53.
 Defaulting to unpruned grid for atomic number  53.
 SCF Done:  E(RB3LYP) =  -259.106203458     A.U. after   15 cycles
            NFock= 15  Conv=0.21D-08     -V/T= 2.0390

 **********************************************************************

            Population analysis using the SCF Density.

 **********************************************************************

 Alpha  occ. eigenvalues --  -14.35513 -10.25899 -10.24491 -10.23991 -10.23161
 Alpha  occ. eigenvalues --  -10.21980  -0.96504  -0.83350  -0.79119  -0.70850
 Alpha  occ. eigenvalues --   -0.65496  -0.63221  -0.54367  -0.50771  -0.47524
 Alpha  occ. eigenvalues --   -0.43191  -0.42743  -0.42249  -0.37062  -0.32550
 Alpha  occ. eigenvalues --   -0.29974  -0.28458  -0.27448  -0.25825
 Alpha virt. eigenvalues --   -0.05377  -0.05266  -0.03976   0.00266   0.01758
 Alpha virt. eigenvalues --    0.02479   0.03831   0.04377   0.04707   0.05681
 Alpha virt. eigenvalues --    0.06785   0.06878   0.08151   0.08293   0.10654
 Alpha virt. eigenvalues --    0.11352   0.11580   0.11992   0.13200   0.14220
 Alpha virt. eigenvalues --    0.14349   0.15526   0.16816   0.17992   0.19409
 Alpha virt. eigenvalues --    0.19981   0.20529   0.22383   0.24070   0.24146
 Alpha virt. eigenvalues --    0.24494   0.24967   0.26034   0.29383   0.30861
 Alpha virt. eigenvalues --    0.31742   0.31874   0.33523   0.34134   0.50282
 Alpha virt. eigenvalues --    0.53519   0.60347   0.62515   0.66116   0.66127
 Alpha virt. eigenvalues --    0.68798   0.69596   0.70062   0.71663   0.72301
 Alpha virt. eigenvalues --    0.73581   0.74840   0.81002   0.82219   0.90176
 Alpha virt. eigenvalues --    0.91377   0.93575   0.97223   0.98862   1.00327
 Alpha virt. eigenvalues --    1.02066   1.06297   1.08301   1.12042   1.13600
 Alpha virt. eigenvalues --    1.14980   1.18726   1.22110   1.22827   1.29704
 Alpha virt. eigenvalues --    1.36331   1.40483   1.44854   1.45418   1.45929
 Alpha virt. eigenvalues --    1.49346   1.49924   1.65973   1.79651   1.81819
 Alpha virt. eigenvalues --    1.84548   1.92575   1.97605   2.06727   2.11046
 Alpha virt. eigenvalues --    2.13560   2.16219   2.19308   2.20470   2.26809
 Alpha virt. eigenvalues --    2.29338   2.35816   2.51696   2.57386   2.64448
 Alpha virt. eigenvalues --    2.66096   2.67480   2.72846   2.76963   2.82183
 Alpha virt. eigenvalues --    3.03187   3.34465  15.04047
          Condensed to atoms (all electrons):
               1          2          3          4          5          6
     1  C    6.955631  -0.441638  -0.277116  -0.162245   0.053745   0.027921
     2  C   -0.441638   6.128809   0.169690   0.458152  -0.543171   0.001058
     3  C   -0.277116   0.169690   5.926936   0.047689   0.314677   0.248968
     4  H   -0.162245   0.458152   0.047689   0.531429  -0.028715  -0.000138
     5  C    0.053745  -0.543171   0.314677  -0.028715   5.758402   0.038039
     6  H    0.027921   0.001058   0.248968  -0.000138   0.038039   0.499614
     7  C   -0.531146   0.299640   0.003096   0.035207   0.126390  -0.015169
     8  H    0.022029  -0.001775  -0.029203   0.000020   0.289171  -0.005249
     9  I   -0.358900   0.064942   0.248190   0.004325   0.072892  -0.003867
    10  H   -0.028459   0.040721   0.041596  -0.000010  -0.128827  -0.000132
    11  N    0.234184   0.170896  -0.155333  -0.081887   0.100239   0.002075
               7          8          9         10         11
     1  C   -0.531146   0.022029  -0.358900  -0.028459   0.234184
     2  C    0.299640  -0.001775   0.064942   0.040721   0.170896
     3  C    0.003096  -0.029203   0.248190   0.041596  -0.155333
     4  H    0.035207   0.000020   0.004325  -0.000010  -0.081887
     5  C    0.126390   0.289171   0.072892  -0.128827   0.100239
     6  H   -0.015169  -0.005249  -0.003867  -0.000132   0.002075
     7  C    5.750893   0.013616   0.033518   0.431473   0.171716
     8  H    0.013616   0.516034  -0.000465  -0.001763   0.003853
     9  I    0.033518  -0.000465   6.858791   0.000221  -0.018603
    10  H    0.431473  -0.001763   0.000221   0.548671  -0.091270
    11  N    0.171716   0.003853  -0.018603  -0.091270   6.795058
 Mulliken charges:
               1
     1  C    0.505995
     2  C   -0.347325
     3  C   -0.539189
     4  H    0.196172
     5  C   -0.052841
     6  H    0.206880
     7  C   -0.319232
     8  H    0.193732
     9  I    0.098956
    10  H    0.187779
    11  N   -0.130927
 Sum of Mulliken charges =   0.00000
 Mulliken charges with hydrogens summed into heavy atoms:
               1
     1  C    0.505995
     2  C   -0.151153
     3  C   -0.332309
     5  C    0.140890
     7  C   -0.131453
     9  I    0.098956
    11  N   -0.130927
 Electronic spatial extent (au):  <R**2>=            767.2801
 Charge=              0.0000 electrons
 Dipole moment (field-independent basis, Debye):
    X=              0.4832    Y=             -2.0694    Z=             -0.0001  Tot=              2.1251
 Quadrupole moment (field-independent basis, Debye-Ang):
   XX=            -53.2353   YY=            -54.1181   ZZ=            -58.1763
   XY=             -5.0341   XZ=             -0.0001   YZ=              0.0001
 Traceless Quadrupole moment (field-independent basis, Debye-Ang):
   XX=              1.9413   YY=              1.0585   ZZ=             -2.9998
   XY=             -5.0341   XZ=             -0.0001   YZ=              0.0001
 Octapole moment (field-independent basis, Debye-Ang**2):
  XXX=             60.6230  YYY=            -12.1491  ZZZ=              0.0187  XYY=             15.5339
  XXY=            -10.5176  XXZ=              0.0050  XZZ=             19.9799  YZZ=              0.3714
  YYZ=              0.0045  XYZ=             -0.0008
 Hexadecapole moment (field-independent basis, Debye-Ang**3):
 XXXX=          -1173.4492 YYYY=           -306.9917 ZZZZ=            -83.0304 XXXY=            -17.2561
 XXXZ=             -0.0393 YYYX=            -21.3452 YYYZ=             -0.0083 ZZZX=             -0.0531
 ZZZY=             -0.0106 XXYY=           -287.5195 XXZZ=           -244.8794 YYZZ=            -71.6863
 XXYZ=             -0.0044 YYXZ=             -0.0196 ZZXY=              2.2722
 N-N= 2.402842939270D+02 E-N=-1.076697852138D+03  KE= 2.493863132410D+02
 Evaluate density.
 Using the total density.
 Monte-Carlo method of calculating molar volume:
 based on  0.001 e/bohr**3 density envelope.
 Number of points per bohr**3 =   20 CutOff= 1.00D-04
 Using the SCF density.
 There are       482 points.  Will hold       482 in memory.
 LenV=  8052980607 MDV=  8053063680.
 Box volume =14080.021 fraction occupied=0.077
 Integrated density= 4.4504079217151379D+01 error=-3.4959207828486214D+00
 Molar volume = 1080.831 bohr**3/mol ( 96.452 cm**3/mol)
 Recommended a0 for SCRF calculation =  4.21 angstrom (  7.95 bohr)
   1 Symmetry operations used in ECPInt.
 ECPInt:  NShTT=     946 NPrTT=    4879 LenC2=     947 LenP2D=    3870.
 LDataN:  DoStor=T MaxTD1= 7 Len=  274
 Calling FoFJK, ICntrl=      2127 FMM=F ISym2X=0 I1Cent= 0 IOpClX= 0 NMat=1 NMatS=1 NMatT=0.
 Defaulting to unpruned grid for atomic number  53.
 Defaulting to unpruned grid for atomic number  53.
 Defaulting to unpruned grid for atomic number  53.
 Defaulting to unpruned grid for atomic number  53.
 Defaulting to unpruned grid for atomic number  53.
 Defaulting to unpruned grid for atomic number  53.
 Defaulting to unpruned grid for atomic number  53.
 Defaulting to unpruned grid for atomic number  53.
 Defaulting to unpruned grid for atomic number  53.
 Defaulting to unpruned grid for atomic number  53.
 Defaulting to unpruned grid for atomic number  53.
 Defaulting to unpruned grid for atomic number  53.
 Defaulting to unpruned grid for atomic number  53.
 Defaulting to unpruned grid for atomic number  53.
 Defaulting to unpruned grid for atomic number  53.
 Defaulting to unpruned grid for atomic number  53.
 Defaulting to unpruned grid for atomic number  53.
 Defaulting to unpruned grid for atomic number  53.
 Defaulting to unpruned grid for atomic number  53.
 Defaulting to unpruned grid for atomic number  53.
 Defaulting to unpruned grid for atomic number  53.
 Defaulting to unpruned grid for atomic number  53.
 Defaulting to unpruned grid for atomic number  53.
 Defaulting to unpruned grid for atomic number  53.
 Defaulting to unpruned grid for atomic number  53.
 Defaulting to unpruned grid for atomic number  53.
 Defaulting to unpruned grid for atomic number  53.
 Defaulting to unpruned grid for atomic number  53.
 Defaulting to unpruned grid for atomic number  53.
 Defaulting to unpruned grid for atomic number  53.
 Defaulting to unpruned grid for atomic number  53.
 Defaulting to unpruned grid for atomic number  53.
 -------------------------------------------------------------------
 Center     Atomic                   Forces (Hartrees/Bohr)
 Number     Number              X              Y              Z
 -------------------------------------------------------------------
      1        6          -0.000004041   -0.000037107    0.000000181
      2        6           0.000087502    0.000044887   -0.000000202
      3        6           0.000016230    0.000045504   -0.000000119
      4        1          -0.000010603   -0.000038845    0.000000034
      5        6          -0.000027903   -0.000024974    0.000000097
      6        1           0.000001682    0.000014183    0.000000009
      7        6          -0.000015393    0.000104381   -0.000000110
      8        1           0.000002459    0.000013315    0.000000001
      9       53           0.000003702   -0.000004684   -0.000000016
     10        1          -0.000022697   -0.000020931    0.000000005
     11        7          -0.000030937   -0.000095728    0.000000119
 -------------------------------------------------------------------
 Cartesian Forces:  Max     0.000104381 RMS     0.000034400

 GradGradGradGradGradGradGradGradGradGradGradGradGradGradGradGradGradGrad
 Berny optimization.
 FormGI is forming the generalized inverse of G from B-inverse, IUseBI=4.
 Internal  Forces:  Max     0.000083152 RMS     0.000020414
 Search for a local minimum.
 Step number   1 out of a maximum of   57
 All quantities printed in internal units (Hartrees-Bohrs-Radians)
 Mixed Optimization -- En-DIIS/RFO-DIIS
 Second derivative matrix not updated -- first step.
 ITU=  0
     Eigenvalues ---    0.02125   0.02127   0.02136   0.02147   0.02168
     Eigenvalues ---    0.02222   0.02253   0.02418   0.12594   0.16000
     Eigenvalues ---    0.16000   0.16000   0.16000   0.22000   0.23203
     Eigenvalues ---    0.23463   0.25000   0.35053   0.35172   0.35220
     Eigenvalues ---    0.35357   0.42078   0.44130   0.45921   0.46295
     Eigenvalues ---    0.55226   0.56587
 RFO step:  Lambda=-5.08334180D-08 EMin= 2.12536904D-02
 Linear search not attempted -- first point.
 Iteration  1 RMS(Cart)=  0.00007185 RMS(Int)=  0.00000000
 Iteration  2 RMS(Cart)=  0.00000000 RMS(Int)=  0.00000000
 Variable       Old X    -DE/DX   Delta X   Delta X   Delta X     New X
                                 (Linear)    (Quad)   (Total)
    R1        2.64407   0.00000   0.00000   0.00000   0.00000   2.64407
    R2        2.63498  -0.00005   0.00000  -0.00011  -0.00011   2.63487
    R3        4.05171   0.00000   0.00000  -0.00003  -0.00003   4.05168
    R4        2.05396  -0.00003   0.00000  -0.00008  -0.00008   2.05388
    R5        2.52926  -0.00006   0.00000  -0.00011  -0.00011   2.52915
    R6        2.64018  -0.00004   0.00000  -0.00007  -0.00007   2.64011
    R7        2.05099  -0.00001   0.00000  -0.00004  -0.00004   2.05096
    R8        2.64000   0.00000   0.00000   0.00000   0.00000   2.64000
    R9        2.05319  -0.00001   0.00000  -0.00003  -0.00003   2.05317
   R10        2.05590  -0.00002   0.00000  -0.00007  -0.00007   2.05583
   R11        2.53159  -0.00008   0.00000  -0.00015  -0.00015   2.53144
    A1        2.08695  -0.00001   0.00000  -0.00004  -0.00004   2.08691
    A2        2.09125   0.00001   0.00000   0.00005   0.00005   2.09130
    A3        2.10498   0.00000   0.00000  -0.00001  -0.00001   2.10497
    A4        2.11159  -0.00003   0.00000  -0.00017  -0.00017   2.11142
    A5        2.13681   0.00000   0.00000   0.00000   0.00000   2.13681
    A6        2.03479   0.00003   0.00000   0.00017   0.00017   2.03496
    A7        2.05688   0.00001   0.00000   0.00004   0.00004   2.05692
    A8        2.11556  -0.00001   0.00000  -0.00006  -0.00006   2.11550
    A9        2.11075   0.00000   0.00000   0.00002   0.00002   2.11077
   A10        2.07203  -0.00001   0.00000  -0.00003  -0.00003   2.07200
   A11        2.10642   0.00001   0.00000   0.00007   0.00007   2.10649
   A12        2.10474   0.00000   0.00000  -0.00004  -0.00004   2.10470
   A13        2.10625  -0.00002   0.00000  -0.00013  -0.00013   2.10613
   A14        2.15243   0.00000   0.00000  -0.00001  -0.00001   2.15242
   A15        2.02450   0.00002   0.00000   0.00014   0.00014   2.02464
   A16        2.06128   0.00001   0.00000   0.00003   0.00003   2.06131
    D1        3.14159   0.00000   0.00000   0.00000   0.00000   3.14159
    D2        0.00000   0.00000   0.00000   0.00000   0.00000   0.00000
    D3        0.00000   0.00000   0.00000   0.00000   0.00000   0.00000
    D4        3.14159   0.00000   0.00000   0.00000   0.00000   3.14159
    D5        0.00000   0.00000   0.00000   0.00000   0.00000   0.00000
    D6        3.14159   0.00000   0.00000   0.00000   0.00000  -3.14159
    D7       -3.14159   0.00000   0.00000   0.00000   0.00000  -3.14159
    D8        0.00000   0.00000   0.00000   0.00000   0.00000   0.00000
    D9        0.00000   0.00000   0.00000   0.00000   0.00000   0.00000
   D10       -3.14159   0.00000   0.00000   0.00000   0.00000   3.14159
   D11        0.00000   0.00000   0.00000   0.00000   0.00000   0.00000
   D12       -3.14159   0.00000   0.00000   0.00000   0.00000   3.14159
   D13       -3.14159   0.00000   0.00000   0.00000   0.00000  -3.14159
   D14        0.00000   0.00000   0.00000   0.00000   0.00000   0.00000
   D15        3.14159   0.00000   0.00000   0.00000   0.00000   3.14159
   D16        0.00000   0.00000   0.00000   0.00000   0.00000   0.00000
   D17        0.00000   0.00000   0.00000   0.00000   0.00000   0.00000
   D18        3.14159   0.00000   0.00000   0.00000   0.00000  -3.14159
   D19        0.00000   0.00000   0.00000   0.00000   0.00000   0.00000
   D20       -3.14159   0.00000   0.00000   0.00000   0.00000  -3.14159
         Item               Value     Threshold  Converged?
 Maximum Force            0.000083     0.000450     YES
 RMS     Force            0.000020     0.000300     YES
 Maximum Displacement     0.000236     0.001800     YES
 RMS     Displacement     0.000072     0.001200     YES
 Predicted change in Energy=-2.541671D-08
 Optimization completed.
    -- Stationary point found.
                           ----------------------------
                           !   Optimized Parameters   !
                           ! (Angstroms and Degrees)  !
 --------------------------                            --------------------------
 ! Name  Definition              Value          Derivative Info.                !
 --------------------------------------------------------------------------------
 ! R1    R(1,2)                  1.3992         -DE/DX =    0.0                 !
 ! R2    R(1,3)                  1.3944         -DE/DX =   -0.0001              !
 ! R3    R(1,9)                  2.1441         -DE/DX =    0.0                 !
 ! R4    R(2,4)                  1.0869         -DE/DX =    0.0                 !
 ! R5    R(2,11)                 1.3384         -DE/DX =   -0.0001              !
 ! R6    R(3,5)                  1.3971         -DE/DX =    0.0                 !
 ! R7    R(3,6)                  1.0853         -DE/DX =    0.0                 !
 ! R8    R(5,7)                  1.397          -DE/DX =    0.0                 !
 ! R9    R(5,8)                  1.0865         -DE/DX =    0.0                 !
 ! R10   R(7,10)                 1.0879         -DE/DX =    0.0                 !
 ! R11   R(7,11)                 1.3397         -DE/DX =   -0.0001              !
 ! A1    A(2,1,3)              119.5735         -DE/DX =    0.0                 !
 ! A2    A(2,1,9)              119.82           -DE/DX =    0.0                 !
 ! A3    A(3,1,9)              120.6065         -DE/DX =    0.0                 !
 ! A4    A(1,2,4)              120.9853         -DE/DX =    0.0                 !
 ! A5    A(1,2,11)             122.43           -DE/DX =    0.0                 !
 ! A6    A(4,2,11)             116.5847         -DE/DX =    0.0                 !
 ! A7    A(1,3,5)              117.8505         -DE/DX =    0.0                 !
 ! A8    A(1,3,6)              121.2125         -DE/DX =    0.0                 !
 ! A9    A(5,3,6)              120.937          -DE/DX =    0.0                 !
 ! A10   A(3,5,7)              118.7183         -DE/DX =    0.0                 !
 ! A11   A(3,5,8)              120.689          -DE/DX =    0.0                 !
 ! A12   A(7,5,8)              120.5927         -DE/DX =    0.0                 !
 ! A13   A(5,7,10)             120.6794         -DE/DX =    0.0                 !
 ! A14   A(5,7,11)             123.3252         -DE/DX =    0.0                 !
 ! A15   A(10,7,11)            115.9955         -DE/DX =    0.0                 !
 ! A16   A(2,11,7)             118.1026         -DE/DX =    0.0                 !
 ! D1    D(3,1,2,4)            180.0            -DE/DX =    0.0                 !
 ! D2    D(3,1,2,11)             0.0001         -DE/DX =    0.0                 !
 ! D3    D(9,1,2,4)             -0.0001         -DE/DX =    0.0                 !
 ! D4    D(9,1,2,11)           180.0            -DE/DX =    0.0                 !
 ! D5    D(2,1,3,5)             -0.0001         -DE/DX =    0.0                 !
 ! D6    D(2,1,3,6)           -180.0            -DE/DX =    0.0                 !
 ! D7    D(9,1,3,5)           -180.0            -DE/DX =    0.0                 !
 ! D8    D(9,1,3,6)              0.0001         -DE/DX =    0.0                 !
 ! D9    D(1,2,11,7)            -0.0001         -DE/DX =    0.0                 !
 ! D10   D(4,2,11,7)           180.0            -DE/DX =    0.0                 !
 ! D11   D(1,3,5,7)              0.0001         -DE/DX =    0.0                 !
 ! D12   D(1,3,5,8)            180.0            -DE/DX =    0.0                 !
 ! D13   D(6,3,5,7)           -180.0            -DE/DX =    0.0                 !
 ! D14   D(6,3,5,8)              0.0            -DE/DX =    0.0                 !
 ! D15   D(3,5,7,10)           180.0            -DE/DX =    0.0                 !
 ! D16   D(3,5,7,11)            -0.0001         -DE/DX =    0.0                 !
 ! D17   D(8,5,7,10)             0.0            -DE/DX =    0.0                 !
 ! D18   D(8,5,7,11)          -180.0            -DE/DX =    0.0                 !
 ! D19   D(5,7,11,2)             0.0001         -DE/DX =    0.0                 !
 ! D20   D(10,7,11,2)         -180.0            -DE/DX =    0.0                 !
 --------------------------------------------------------------------------------
 GradGradGradGradGradGradGradGradGradGradGradGradGradGradGradGradGradGrad

                          Input orientation:                          
 ---------------------------------------------------------------------
 Center     Atomic      Atomic             Coordinates (Angstroms)
 Number     Number       Type             X           Y           Z
 ---------------------------------------------------------------------
      1          6           0       -0.453176   -0.002449   -0.000116
      2          6           0        0.254511    1.204569    0.000039
      3          6           0        0.244914   -1.209485   -0.000164
      4          1           0       -0.266302    2.158573    0.000079
      5          6           0        1.641014   -1.156035   -0.000055
      6          1           0       -0.277031   -2.161081   -0.000283
      7          6           0        2.264928    0.093934    0.000097
      8          1           0        2.230880   -2.068475   -0.000087
      9         53           0       -2.597145    0.018637   -0.000274
     10          1           0        3.350004    0.172733    0.000185
     11          7           0        1.592083    1.252365    0.000143
 ---------------------------------------------------------------------
                    Distance matrix (angstroms):
                    1          2          3          4          5
     1  C    0.000000
     2  C    1.399183   0.000000
     3  C    1.394369   2.414073   0.000000
     4  H    2.169087   1.086908   3.406634   0.000000
     5  C    2.390898   2.737671   1.397123   3.824197   0.000000
     6  H    2.165807   3.407365   1.085339   4.319667   2.165413
     7  C    2.719812   2.296799   2.404029   3.266475   1.397029
     8  H    3.387126   3.823461   2.163776   4.909567   1.086503
     9  I    2.144073   3.088426   3.096059   3.164199   4.397937
    10  H    3.807212   3.262938   3.398840   4.125679   2.164780
    11  N    2.399509   1.338426   2.806345   2.067561   2.408897
                    6          7          8          9         10
     6  H    0.000000
     7  C    3.398036   0.000000
     8  H    2.509620   2.162677   0.000000
     9  I    3.183410   4.862656   5.259835   0.000000
    10  H    4.313012   1.087933   2.505085   5.949145   0.000000
    11  N    3.891684   1.339658   3.381721   4.367118   2.062981
                   11
    11  N    0.000000
 Symmetry turned off by external request.
 Stoichiometry    C5H4IN
 Framework group  C1[X(C5H4IN)]
 Deg. of freedom    27
 Full point group                 C1      NOp   1
 Rotational constants (GHZ):           5.8288213           0.7334503           0.6514742
 1\1\GINC-IP-172-31-38-84\FOpt\RB3LYP\Gen\C5H4I1N1\UBUNTU\13-Sep-2023\0
 \\# opt freq rb3lyp/gen nosymm empiricaldispersion=gd3 pseudo=read scf
 =maxcycle=1000 volume\\reac1\\0,1\C,-0.453176,-0.002449,-0.000116\C,0.
 254511,1.204569,0.000039\C,0.244914,-1.209485,-0.000164\H,-0.266302,2.
 158573,0.000079\C,1.641014,-1.156035,-0.000055\H,-0.277031,-2.161081,-
 0.000283\C,2.264928,0.093934,0.000097\H,2.23088,-2.068475,-0.000087\I,
 -2.597145,0.018637,-0.000274\H,3.350004,0.172733,0.000185\N,1.592083,1
 .252365,0.000143\\Version=EM64L-G16RevB.01\HF=-259.1062035\RMSD=2.084e
 -09\RMSF=3.440e-05\Dipole=0.1900944,-0.8141641,-0.0000537\Quadrupole=1
 .4432859,0.7869559,-2.2302418,-3.7427459,-0.0000677,0.0000964\PG=C01 [
 X(C5H4I1N1)]\\@


 Any fool can criticize, condemn, and complain -- and most do.
 -- Dale Carnegie
 Job cpu time:       0 days  0 hours  3 minutes 26.3 seconds.
 Elapsed time:       0 days  0 hours  0 minutes  6.5 seconds.
 File lengths (MBytes):  RWF=     10 Int=      0 D2E=      0 Chk=      2 Scr=      1
 Normal termination of Gaussian 16 at Wed Sep 13 08:49:02 2023.
 Link1:  Proceeding to internal job step number  2.
 ------------------------------------------------------------------
 #N Geom=AllCheck Guess=TCheck SCRF=Check GenChk RB3LYP/ChkBas Freq
 ------------------------------------------------------------------
 1/10=4,29=7,30=1,38=1,40=1/1,3;
 2/12=2,15=1,40=1/2;
 3/5=7,6=2,11=2,14=-4,16=1,17=8,25=1,30=1,67=1,70=2,71=2,74=-5,82=7,116=1,124=31,140=1/1,2,3;
 4/5=101/1;
 5/5=2,7=1000,38=6,98=1/2;
 8/6=4,10=90,11=11/1;
 11/6=1,8=1,9=11,15=111,16=1,31=1/1,2,10;
 10/6=1,31=1/2;
 6/7=2,8=2,9=2,10=2,28=1/1;
 7/8=1,10=1,25=1,30=1/1,2,3,16;
 1/10=4,30=1/3;
 99//99;
 Structure from the checkpoint file:  "ARYLHALIDE-pyridine-gen-vol.chk"
 -----
 reac1
 -----
 Charge =  0 Multiplicity = 1
 Redundant internal coordinates found in file.  (old form).
 C,0,-0.453176,-0.002449,-0.000116
 C,0,0.254511,1.204569,0.000039
 C,0,0.244914,-1.209485,-0.000164
 H,0,-0.266302,2.158573,0.000079
 C,0,1.641014,-1.156035,-0.000055
 H,0,-0.277031,-2.161081,-0.000283
 C,0,2.264928,0.093934,0.000097
 H,0,2.23088,-2.068475,-0.000087
 I,0,-2.597145,0.018637,-0.000274
 H,0,3.350004,0.172733,0.000185
 N,0,1.592083,1.252365,0.000143
 Recover connectivity data from disk.

 GradGradGradGradGradGradGradGradGradGradGradGradGradGradGradGradGradGrad
 Berny optimization.
 Initialization pass.
                           ----------------------------
                           !    Initial Parameters    !
                           ! (Angstroms and Degrees)  !
 --------------------------                            --------------------------
 ! Name  Definition              Value          Derivative Info.                !
 --------------------------------------------------------------------------------
 ! R1    R(1,2)                  1.3992         calculate D2E/DX2 analytically  !
 ! R2    R(1,3)                  1.3944         calculate D2E/DX2 analytically  !
 ! R3    R(1,9)                  2.1441         calculate D2E/DX2 analytically  !
 ! R4    R(2,4)                  1.0869         calculate D2E/DX2 analytically  !
 ! R5    R(2,11)                 1.3384         calculate D2E/DX2 analytically  !
 ! R6    R(3,5)                  1.3971         calculate D2E/DX2 analytically  !
 ! R7    R(3,6)                  1.0853         calculate D2E/DX2 analytically  !
 ! R8    R(5,7)                  1.397          calculate D2E/DX2 analytically  !
 ! R9    R(5,8)                  1.0865         calculate D2E/DX2 analytically  !
 ! R10   R(7,10)                 1.0879         calculate D2E/DX2 analytically  !
 ! R11   R(7,11)                 1.3397         calculate D2E/DX2 analytically  !
 ! A1    A(2,1,3)              119.5735         calculate D2E/DX2 analytically  !
 ! A2    A(2,1,9)              119.82           calculate D2E/DX2 analytically  !
 ! A3    A(3,1,9)              120.6065         calculate D2E/DX2 analytically  !
 ! A4    A(1,2,4)              120.9853         calculate D2E/DX2 analytically  !
 ! A5    A(1,2,11)             122.43           calculate D2E/DX2 analytically  !
 ! A6    A(4,2,11)             116.5847         calculate D2E/DX2 analytically  !
 ! A7    A(1,3,5)              117.8505         calculate D2E/DX2 analytically  !
 ! A8    A(1,3,6)              121.2125         calculate D2E/DX2 analytically  !
 ! A9    A(5,3,6)              120.937          calculate D2E/DX2 analytically  !
 ! A10   A(3,5,7)              118.7183         calculate D2E/DX2 analytically  !
 ! A11   A(3,5,8)              120.689          calculate D2E/DX2 analytically  !
 ! A12   A(7,5,8)              120.5927         calculate D2E/DX2 analytically  !
 ! A13   A(5,7,10)             120.6794         calculate D2E/DX2 analytically  !
 ! A14   A(5,7,11)             123.3252         calculate D2E/DX2 analytically  !
 ! A15   A(10,7,11)            115.9955         calculate D2E/DX2 analytically  !
 ! A16   A(2,11,7)             118.1026         calculate D2E/DX2 analytically  !
 ! D1    D(3,1,2,4)            180.0            calculate D2E/DX2 analytically  !
 ! D2    D(3,1,2,11)             0.0001         calculate D2E/DX2 analytically  !
 ! D3    D(9,1,2,4)             -0.0001         calculate D2E/DX2 analytically  !
 ! D4    D(9,1,2,11)           180.0            calculate D2E/DX2 analytically  !
 ! D5    D(2,1,3,5)             -0.0001         calculate D2E/DX2 analytically  !
 ! D6    D(2,1,3,6)            180.0            calculate D2E/DX2 analytically  !
 ! D7    D(9,1,3,5)           -180.0            calculate D2E/DX2 analytically  !
 ! D8    D(9,1,3,6)              0.0001         calculate D2E/DX2 analytically  !
 ! D9    D(1,2,11,7)            -0.0001         calculate D2E/DX2 analytically  !
 ! D10   D(4,2,11,7)          -180.0            calculate D2E/DX2 analytically  !
 ! D11   D(1,3,5,7)              0.0001         calculate D2E/DX2 analytically  !
 ! D12   D(1,3,5,8)           -180.0            calculate D2E/DX2 analytically  !
 ! D13   D(6,3,5,7)           -180.0            calculate D2E/DX2 analytically  !
 ! D14   D(6,3,5,8)              0.0            calculate D2E/DX2 analytically  !
 ! D15   D(3,5,7,10)           180.0            calculate D2E/DX2 analytically  !
 ! D16   D(3,5,7,11)            -0.0001         calculate D2E/DX2 analytically  !
 ! D17   D(8,5,7,10)             0.0            calculate D2E/DX2 analytically  !
 ! D18   D(8,5,7,11)           180.0            calculate D2E/DX2 analytically  !
 ! D19   D(5,7,11,2)             0.0001         calculate D2E/DX2 analytically  !
 ! D20   D(10,7,11,2)         -180.0            calculate D2E/DX2 analytically  !
 --------------------------------------------------------------------------------
 Trust Radius=3.00D-01 FncErr=1.00D-07 GrdErr=1.00D-07 EigMax=2.50D+02 EigMin=1.00D-04
 Number of steps in this run=      2 maximum allowed number of steps=      2.
 GradGradGradGradGradGradGradGradGradGradGradGradGradGradGradGradGradGrad

                          Input orientation:                          
 ---------------------------------------------------------------------
 Center     Atomic      Atomic             Coordinates (Angstroms)
 Number     Number       Type             X           Y           Z
 ---------------------------------------------------------------------
      1          6           0       -0.453176   -0.002449   -0.000116
      2          6           0        0.254511    1.204569    0.000039
      3          6           0        0.244914   -1.209485   -0.000164
      4          1           0       -0.266302    2.158573    0.000079
      5          6           0        1.641014   -1.156035   -0.000055
      6          1           0       -0.277031   -2.161081   -0.000283
      7          6           0        2.264928    0.093934    0.000097
      8          1           0        2.230880   -2.068475   -0.000087
      9         53           0       -2.597145    0.018637   -0.000274
     10          1           0        3.350004    0.172733    0.000185
     11          7           0        1.592083    1.252365    0.000143
 ---------------------------------------------------------------------
                    Distance matrix (angstroms):
                    1          2          3          4          5
     1  C    0.000000
     2  C    1.399183   0.000000
     3  C    1.394369   2.414073   0.000000
     4  H    2.169087   1.086908   3.406634   0.000000
     5  C    2.390898   2.737671   1.397123   3.824197   0.000000
     6  H    2.165807   3.407365   1.085339   4.319667   2.165413
     7  C    2.719812   2.296799   2.404029   3.266475   1.397029
     8  H    3.387126   3.823461   2.163776   4.909567   1.086503
     9  I    2.144073   3.088426   3.096059   3.164199   4.397937
    10  H    3.807212   3.262938   3.398840   4.125679   2.164780
    11  N    2.399509   1.338426   2.806345   2.067561   2.408897
                    6          7          8          9         10
     6  H    0.000000
     7  C    3.398036   0.000000
     8  H    2.509620   2.162677   0.000000
     9  I    3.183410   4.862656   5.259835   0.000000
    10  H    4.313012   1.087933   2.505085   5.949145   0.000000
    11  N    3.891684   1.339658   3.381721   4.367118   2.062981
                   11
    11  N    0.000000
 Symmetry turned off by external request.
 Stoichiometry    C5H4IN
 Framework group  C1[X(C5H4IN)]
 Deg. of freedom    27
 Full point group                 C1      NOp   1
 Rotational constants (GHZ):           5.8288213           0.7334503           0.6514742
 Basis read from chk: "ARYLHALIDE-pyridine-gen-vol.chk" (5D, 7F)
 Pseudo-potential data read from chk file.
   127 basis functions,   227 primitive gaussians,   133 cartesian basis functions
    24 alpha electrons       24 beta electrons
       nuclear repulsion energy       240.2916495175 Hartrees.
 NAtoms=   11 NActive=   11 NUniq=   11 SFac= 1.00D+00 NAtFMM=   60 NAOKFM=F Big=F
 Integral buffers will be    131072 words long.
 Raffenetti 2 integral format.
 Two-electron integral symmetry is turned off.
 Nuclear repulsion after empirical dispersion term =      240.2842939270 Hartrees.
 One-electron integrals computed using PRISM.
   1 Symmetry operations used in ECPInt.
 ECPInt:  NShTT=     946 NPrTT=    4879 LenC2=     947 LenP2D=    3870.
 LDataN:  DoStor=T MaxTD1= 6 Len=  172
 NBasis=   127 RedAO= T EigKep=  1.79D-05  NBF=   127
 NBsUse=   127 1.00D-06 EigRej= -1.00D+00 NBFU=   127
 Defaulting to unpruned grid for atomic number  53.
 Initial guess from the checkpoint file:  "ARYLHALIDE-pyridine-gen-vol.chk"
 B after Tr=     0.000000    0.000000    0.000000
         Rot=    1.000000    0.000000    0.000000    0.000000 Ang=   0.00 deg.
 Keep R1 ints in memory in canonical form, NReq=63748464.
 Requested convergence on RMS density matrix=1.00D-08 within1000 cycles.
 Requested convergence on MAX density matrix=1.00D-06.
 Requested convergence on             energy=1.00D-06.
 No special actions if energy rises.
 Defaulting to unpruned grid for atomic number  53.
 Defaulting to unpruned grid for atomic number  53.
 Defaulting to unpruned grid for atomic number  53.
 Defaulting to unpruned grid for atomic number  53.
 Defaulting to unpruned grid for atomic number  53.
 Defaulting to unpruned grid for atomic number  53.
 Defaulting to unpruned grid for atomic number  53.
 Defaulting to unpruned grid for atomic number  53.
 Defaulting to unpruned grid for atomic number  53.
 Defaulting to unpruned grid for atomic number  53.
 Defaulting to unpruned grid for atomic number  53.
 Defaulting to unpruned grid for atomic number  53.
 Defaulting to unpruned grid for atomic number  53.
 Defaulting to unpruned grid for atomic number  53.
 Defaulting to unpruned grid for atomic number  53.
 Defaulting to unpruned grid for atomic number  53.
 Defaulting to unpruned grid for atomic number  53.
 Defaulting to unpruned grid for atomic number  53.
 Defaulting to unpruned grid for atomic number  53.
 Defaulting to unpruned grid for atomic number  53.
 Defaulting to unpruned grid for atomic number  53.
 Defaulting to unpruned grid for atomic number  53.
 Defaulting to unpruned grid for atomic number  53.
 Defaulting to unpruned grid for atomic number  53.
 Defaulting to unpruned grid for atomic number  53.
 Defaulting to unpruned grid for atomic number  53.
 Defaulting to unpruned grid for atomic number  53.
 Defaulting to unpruned grid for atomic number  53.
 Defaulting to unpruned grid for atomic number  53.
 Defaulting to unpruned grid for atomic number  53.
 Defaulting to unpruned grid for atomic number  53.
 Defaulting to unpruned grid for atomic number  53.
 SCF Done:  E(RB3LYP) =  -259.106203458     A.U. after    1 cycles
            NFock=  1  Conv=0.21D-09     -V/T= 2.0390
 DoSCS=F DFT=T ScalE2(SS,OS)=  1.000000  1.000000
 Range of M.O.s used for correlation:     1   127
 NBasis=   127 NAE=    24 NBE=    24 NFC=     0 NFV=     0
 NROrb=    127 NOA=    24 NOB=    24 NVA=   103 NVB=   103

 **** Warning!!: The largest alpha MO coefficient is  0.97662527D+02

   1 Symmetry operations used in ECPInt.
 ECPInt:  NShTT=     946 NPrTT=    4879 LenC2=     947 LenP2D=    3870.
 LDataN:  DoStor=T MaxTD1= 7 Len=  274
 Symmetrizing basis deriv contribution to polar:
 IMax=3 JMax=2 DiffMx= 0.00D+00
 G2DrvN: will do    12 centers at a time, making    1 passes.
 Calling FoFCou, ICntrl=  3107 FMM=F I1Cent=   0 AccDes= 0.00D+00.
 Defaulting to unpruned grid for atomic number  53.
 Defaulting to unpruned grid for atomic number  53.
 Defaulting to unpruned grid for atomic number  53.
 Defaulting to unpruned grid for atomic number  53.
 Defaulting to unpruned grid for atomic number  53.
 Defaulting to unpruned grid for atomic number  53.
 Defaulting to unpruned grid for atomic number  53.
 Defaulting to unpruned grid for atomic number  53.
 Defaulting to unpruned grid for atomic number  53.
 Defaulting to unpruned grid for atomic number  53.
 Defaulting to unpruned grid for atomic number  53.
 Defaulting to unpruned grid for atomic number  53.
 Defaulting to unpruned grid for atomic number  53.
 Defaulting to unpruned grid for atomic number  53.
 Defaulting to unpruned grid for atomic number  53.
 Defaulting to unpruned grid for atomic number  53.
 Defaulting to unpruned grid for atomic number  53.
 Defaulting to unpruned grid for atomic number  53.
 Defaulting to unpruned grid for atomic number  53.
 Defaulting to unpruned grid for atomic number  53.
 Defaulting to unpruned grid for atomic number  53.
 Defaulting to unpruned grid for atomic number  53.
 Defaulting to unpruned grid for atomic number  53.
 Defaulting to unpruned grid for atomic number  53.
 Defaulting to unpruned grid for atomic number  53.
 Defaulting to unpruned grid for atomic number  53.
 Defaulting to unpruned grid for atomic number  53.
 Defaulting to unpruned grid for atomic number  53.
 Defaulting to unpruned grid for atomic number  53.
 Defaulting to unpruned grid for atomic number  53.
 Defaulting to unpruned grid for atomic number  53.
 Defaulting to unpruned grid for atomic number  53.
 End of G2Drv F.D. properties file   721 does not exist.
 End of G2Drv F.D. properties file   722 does not exist.
 End of G2Drv F.D. properties file   788 does not exist.
          IDoAtm=11111111111
          Differentiating once with respect to electric field.
                with respect to dipole field.
          Differentiating once with respect to nuclear coordinates.
 Defaulting to unpruned grid for atomic number  53.
 Keep R1 ints in memory in canonical form, NReq=63647158.
 Defaulting to unpruned grid for atomic number  53.
 Defaulting to unpruned grid for atomic number  53.
 Defaulting to unpruned grid for atomic number  53.
 Defaulting to unpruned grid for atomic number  53.
 Defaulting to unpruned grid for atomic number  53.
 Defaulting to unpruned grid for atomic number  53.
 Defaulting to unpruned grid for atomic number  53.
 Defaulting to unpruned grid for atomic number  53.
 Defaulting to unpruned grid for atomic number  53.
 Defaulting to unpruned grid for atomic number  53.
 Defaulting to unpruned grid for atomic number  53.
 Defaulting to unpruned grid for atomic number  53.
 Defaulting to unpruned grid for atomic number  53.
 Defaulting to unpruned grid for atomic number  53.
 Defaulting to unpruned grid for atomic number  53.
 Defaulting to unpruned grid for atomic number  53.
 Defaulting to unpruned grid for atomic number  53.
 Defaulting to unpruned grid for atomic number  53.
 Defaulting to unpruned grid for atomic number  53.
 Defaulting to unpruned grid for atomic number  53.
 Defaulting to unpruned grid for atomic number  53.
 Defaulting to unpruned grid for atomic number  53.
 Defaulting to unpruned grid for atomic number  53.
 Defaulting to unpruned grid for atomic number  53.
 Defaulting to unpruned grid for atomic number  53.
 Defaulting to unpruned grid for atomic number  53.
 Defaulting to unpruned grid for atomic number  53.
 Defaulting to unpruned grid for atomic number  53.
 Defaulting to unpruned grid for atomic number  53.
 Defaulting to unpruned grid for atomic number  53.
 Defaulting to unpruned grid for atomic number  53.
 Defaulting to unpruned grid for atomic number  53.
          There are    36 degrees of freedom in the 1st order CPHF.  IDoFFX=6 NUNeed=     3.
     33 vectors produced by pass  0 Test12= 6.87D-15 2.78D-09 XBig12= 1.65D+02 5.62D+00.
 AX will form    33 AO Fock derivatives at one time.
     33 vectors produced by pass  1 Test12= 6.87D-15 2.78D-09 XBig12= 2.59D+01 1.38D+00.
     33 vectors produced by pass  2 Test12= 6.87D-15 2.78D-09 XBig12= 2.51D-01 1.37D-01.
     33 vectors produced by pass  3 Test12= 6.87D-15 2.78D-09 XBig12= 1.61D-03 5.14D-03.
     33 vectors produced by pass  4 Test12= 6.87D-15 2.78D-09 XBig12= 2.90D-06 2.58D-04.
     32 vectors produced by pass  5 Test12= 6.87D-15 2.78D-09 XBig12= 3.00D-09 8.53D-06.
      4 vectors produced by pass  6 Test12= 6.87D-15 2.78D-09 XBig12= 2.25D-12 2.11D-07.
      3 vectors produced by pass  7 Test12= 6.87D-15 2.78D-09 XBig12= 1.62D-15 6.28D-09.
 InvSVY:  IOpt=1 It=  1 EMax= 7.11D-15
 Solved reduced A of dimension   204 with    36 vectors.
 Isotropic polarizability for W=    0.000000       89.98 Bohr**3.
 End of Minotr F.D. properties file   721 does not exist.
 End of Minotr F.D. properties file   722 does not exist.
 End of Minotr F.D. properties file   788 does not exist.

 **********************************************************************

            Population analysis using the SCF Density.

 **********************************************************************

 Alpha  occ. eigenvalues --  -14.35513 -10.25899 -10.24491 -10.23991 -10.23161
 Alpha  occ. eigenvalues --  -10.21980  -0.96504  -0.83350  -0.79119  -0.70850
 Alpha  occ. eigenvalues --   -0.65496  -0.63221  -0.54367  -0.50771  -0.47524
 Alpha  occ. eigenvalues --   -0.43191  -0.42743  -0.42249  -0.37062  -0.32550
 Alpha  occ. eigenvalues --   -0.29974  -0.28458  -0.27448  -0.25825
 Alpha virt. eigenvalues --   -0.05377  -0.05266  -0.03976   0.00266   0.01758
 Alpha virt. eigenvalues --    0.02479   0.03831   0.04377   0.04707   0.05681
 Alpha virt. eigenvalues --    0.06785   0.06878   0.08151   0.08293   0.10654
 Alpha virt. eigenvalues --    0.11352   0.11580   0.11992   0.13200   0.14220
 Alpha virt. eigenvalues --    0.14349   0.15526   0.16816   0.17992   0.19409
 Alpha virt. eigenvalues --    0.19981   0.20529   0.22383   0.24070   0.24146
 Alpha virt. eigenvalues --    0.24494   0.24967   0.26034   0.29383   0.30861
 Alpha virt. eigenvalues --    0.31742   0.31874   0.33523   0.34134   0.50282
 Alpha virt. eigenvalues --    0.53519   0.60347   0.62515   0.66116   0.66127
 Alpha virt. eigenvalues --    0.68798   0.69596   0.70062   0.71663   0.72301
 Alpha virt. eigenvalues --    0.73581   0.74840   0.81002   0.82219   0.90176
 Alpha virt. eigenvalues --    0.91377   0.93575   0.97223   0.98862   1.00327
 Alpha virt. eigenvalues --    1.02066   1.06297   1.08301   1.12042   1.13600
 Alpha virt. eigenvalues --    1.14980   1.18726   1.22110   1.22827   1.29704
 Alpha virt. eigenvalues --    1.36331   1.40483   1.44854   1.45418   1.45929
 Alpha virt. eigenvalues --    1.49346   1.49924   1.65973   1.79651   1.81819
 Alpha virt. eigenvalues --    1.84548   1.92575   1.97605   2.06727   2.11046
 Alpha virt. eigenvalues --    2.13560   2.16219   2.19308   2.20470   2.26809
 Alpha virt. eigenvalues --    2.29338   2.35816   2.51696   2.57386   2.64448
 Alpha virt. eigenvalues --    2.66096   2.67480   2.72846   2.76963   2.82183
 Alpha virt. eigenvalues --    3.03187   3.34465  15.04047
          Condensed to atoms (all electrons):
               1          2          3          4          5          6
     1  C    6.955631  -0.441638  -0.277116  -0.162245   0.053745   0.027921
     2  C   -0.441638   6.128809   0.169690   0.458152  -0.543171   0.001058
     3  C   -0.277116   0.169690   5.926936   0.047689   0.314677   0.248968
     4  H   -0.162245   0.458152   0.047689   0.531429  -0.028715  -0.000138
     5  C    0.053745  -0.543171   0.314677  -0.028715   5.758402   0.038039
     6  H    0.027921   0.001058   0.248968  -0.000138   0.038039   0.499614
     7  C   -0.531146   0.299640   0.003096   0.035207   0.126390  -0.015169
     8  H    0.022029  -0.001775  -0.029203   0.000020   0.289171  -0.005249
     9  I   -0.358900   0.064942   0.248190   0.004325   0.072892  -0.003867
    10  H   -0.028459   0.040721   0.041596  -0.000010  -0.128827  -0.000132
    11  N    0.234184   0.170896  -0.155333  -0.081887   0.100239   0.002075
               7          8          9         10         11
     1  C   -0.531146   0.022029  -0.358900  -0.028459   0.234184
     2  C    0.299640  -0.001775   0.064942   0.040721   0.170896
     3  C    0.003096  -0.029203   0.248190   0.041596  -0.155333
     4  H    0.035207   0.000020   0.004325  -0.000010  -0.081887
     5  C    0.126390   0.289171   0.072892  -0.128827   0.100239
     6  H   -0.015169  -0.005249  -0.003867  -0.000132   0.002075
     7  C    5.750893   0.013616   0.033518   0.431473   0.171716
     8  H    0.013616   0.516034  -0.000465  -0.001763   0.003853
     9  I    0.033518  -0.000465   6.858791   0.000221  -0.018603
    10  H    0.431473  -0.001763   0.000221   0.548671  -0.091270
    11  N    0.171716   0.003853  -0.018603  -0.091270   6.795058
 Mulliken charges:
               1
     1  C    0.505995
     2  C   -0.347325
     3  C   -0.539189
     4  H    0.196172
     5  C   -0.052841
     6  H    0.206880
     7  C   -0.319232
     8  H    0.193732
     9  I    0.098956
    10  H    0.187779
    11  N   -0.130927
 Sum of Mulliken charges =   0.00000
 Mulliken charges with hydrogens summed into heavy atoms:
               1
     1  C    0.505995
     2  C   -0.151153
     3  C   -0.332309
     5  C    0.140890
     7  C   -0.131453
     9  I    0.098956
    11  N   -0.130927
 APT charges:
               1
     1  C    0.278102
     2  C    0.067878
     3  C   -0.045449
     4  H    0.036005
     5  C   -0.068961
     6  H    0.064354
     7  C    0.185102
     8  H    0.029453
     9  I   -0.173490
    10  H    0.019812
    11  N   -0.392806
 Sum of APT charges =   0.00000
 APT charges with hydrogens summed into heavy atoms:
               1
     1  C    0.278102
     2  C    0.103883
     3  C    0.018904
     5  C   -0.039508
     7  C    0.204915
     9  I   -0.173490
    11  N   -0.392806
 Electronic spatial extent (au):  <R**2>=            767.2801
 Charge=              0.0000 electrons
 Dipole moment (field-independent basis, Debye):
    X=              0.4832    Y=             -2.0694    Z=             -0.0001  Tot=              2.1251
 Quadrupole moment (field-independent basis, Debye-Ang):
   XX=            -53.2353   YY=            -54.1181   ZZ=            -58.1763
   XY=             -5.0341   XZ=             -0.0001   YZ=              0.0001
 Traceless Quadrupole moment (field-independent basis, Debye-Ang):
   XX=              1.9413   YY=              1.0585   ZZ=             -2.9998
   XY=             -5.0341   XZ=             -0.0001   YZ=              0.0001
 Octapole moment (field-independent basis, Debye-Ang**2):
  XXX=             60.6230  YYY=            -12.1491  ZZZ=              0.0187  XYY=             15.5339
  XXY=            -10.5176  XXZ=              0.0050  XZZ=             19.9799  YZZ=              0.3714
  YYZ=              0.0045  XYZ=             -0.0008
 Hexadecapole moment (field-independent basis, Debye-Ang**3):
 XXXX=          -1173.4492 YYYY=           -306.9917 ZZZZ=            -83.0304 XXXY=            -17.2561
 XXXZ=             -0.0393 YYYX=            -21.3452 YYYZ=             -0.0083 ZZZX=             -0.0531
 ZZZY=             -0.0106 XXYY=           -287.5195 XXZZ=           -244.8794 YYZZ=            -71.6863
 XXYZ=             -0.0044 YYXZ=             -0.0196 ZZXY=              2.2722
 N-N= 2.402842939270D+02 E-N=-1.076697852143D+03  KE= 2.493863132430D+02
  Exact polarizability: 134.998  -2.154  83.720   0.006   0.003  51.218
 Approx polarizability: 199.762  -1.147 135.697   0.010   0.005  69.232
   1 Symmetry operations used in ECPInt.
 ECPInt:  NShTT=     946 NPrTT=    4879 LenC2=     947 LenP2D=    3870.
 LDataN:  DoStor=T MaxTD1= 8 Len=  415
 Calling FoFJK, ICntrl=    100127 FMM=F ISym2X=0 I1Cent= 0 IOpClX= 0 NMat=1 NMatS=1 NMatT=0.
 Defaulting to unpruned grid for atomic number  53.
 Defaulting to unpruned grid for atomic number  53.
 Defaulting to unpruned grid for atomic number  53.
 Defaulting to unpruned grid for atomic number  53.
 Defaulting to unpruned grid for atomic number  53.
 Defaulting to unpruned grid for atomic number  53.
 Defaulting to unpruned grid for atomic number  53.
 Defaulting to unpruned grid for atomic number  53.
 Defaulting to unpruned grid for atomic number  53.
 Defaulting to unpruned grid for atomic number  53.
 Defaulting to unpruned grid for atomic number  53.
 Defaulting to unpruned grid for atomic number  53.
 Defaulting to unpruned grid for atomic number  53.
 Defaulting to unpruned grid for atomic number  53.
 Defaulting to unpruned grid for atomic number  53.
 Defaulting to unpruned grid for atomic number  53.
 Defaulting to unpruned grid for atomic number  53.
 Defaulting to unpruned grid for atomic number  53.
 Defaulting to unpruned grid for atomic number  53.
 Defaulting to unpruned grid for atomic number  53.
 Defaulting to unpruned grid for atomic number  53.
 Defaulting to unpruned grid for atomic number  53.
 Defaulting to unpruned grid for atomic number  53.
 Defaulting to unpruned grid for atomic number  53.
 Defaulting to unpruned grid for atomic number  53.
 Defaulting to unpruned grid for atomic number  53.
 Defaulting to unpruned grid for atomic number  53.
 Defaulting to unpruned grid for atomic number  53.
 Defaulting to unpruned grid for atomic number  53.
 Defaulting to unpruned grid for atomic number  53.
 Defaulting to unpruned grid for atomic number  53.
 Defaulting to unpruned grid for atomic number  53.
 Full mass-weighted force constant matrix:
 Low frequencies ---   -0.0006   -0.0003    0.0003    1.9791    2.8038    6.6422
 Low frequencies ---  152.9872  223.0928  258.7492
 Diagonal vibrational polarizability:
        5.0703653       0.9989326       3.3419499
 Harmonic frequencies (cm**-1), IR intensities (KM/Mole), Raman scattering
 activities (A**4/AMU), depolarization ratios for plane and unpolarized
 incident light, reduced masses (AMU), force constants (mDyne/A),
 and normal coordinates:
                      1                      2                      3
                      A                      A                      A
 Frequencies --    152.9871               223.0928               258.7492
 Red. masses --      4.5269                 5.5864                10.4759
 Frc consts  --      0.0624                 0.1638                 0.4132
 IR Inten    --      0.0892                 0.4744                 1.6598
  Atom  AN      X      Y      Z        X      Y      Z        X      Y      Z
     1   6     0.00   0.00   0.31     0.01   0.32   0.00    -0.19   0.06   0.00
     2   6     0.00   0.00   0.26     0.20   0.22   0.00    -0.24   0.07   0.00
     3   6     0.00   0.00   0.25    -0.15   0.23   0.00    -0.32   0.01   0.00
     4   1     0.00   0.00   0.40     0.36   0.31   0.00    -0.25   0.06   0.00
     5   6     0.00   0.00  -0.06    -0.16  -0.02   0.00    -0.35  -0.03   0.00
     6   1     0.00   0.00   0.34    -0.30   0.32   0.00    -0.40   0.06   0.00
     7   6     0.00   0.00  -0.28     0.04  -0.13   0.00    -0.34  -0.03   0.00
     8   1     0.00   0.00  -0.18    -0.32  -0.13   0.00    -0.34  -0.02   0.00
     9  53     0.00   0.00  -0.04    -0.02  -0.06   0.00     0.17  -0.01   0.00
    10   1     0.00   0.00  -0.62     0.06  -0.30   0.00    -0.33  -0.08   0.00
    11   7     0.00   0.00  -0.05     0.23  -0.02   0.00    -0.26   0.02   0.00
                      4                      5                      6
                      A                      A                      A
 Frequencies --    404.8242               451.9454               618.3467
 Red. masses --      2.9963                 4.3942                 7.8975
 Frc consts  --      0.2893                 0.5288                 1.7791
 IR Inten    --      3.6472                 0.5329                 5.5821
  Atom  AN      X      Y      Z        X      Y      Z        X      Y      Z
     1   6     0.00   0.00  -0.09     0.00   0.00   0.41     0.10  -0.17   0.00
     2   6     0.00   0.00   0.20     0.00   0.00  -0.01     0.24  -0.14   0.00
     3   6     0.00   0.00  -0.18     0.00   0.00  -0.16    -0.23  -0.31   0.00
     4   1     0.00   0.00   0.56     0.00   0.00  -0.28     0.00  -0.28   0.00
     5   6     0.00   0.00   0.26     0.00   0.00  -0.03    -0.26   0.17   0.00
     6   1     0.00   0.00  -0.39     0.00   0.00  -0.62    -0.14  -0.36   0.00
     7   6     0.00   0.00  -0.07     0.00   0.00   0.21    -0.08   0.13   0.00
     8   1     0.00   0.00   0.56     0.00   0.00  -0.24    -0.04   0.32   0.00
     9  53     0.00   0.00   0.00     0.00   0.00  -0.01    -0.01   0.00   0.00
    10   1     0.00   0.00  -0.22     0.00   0.00   0.43    -0.05  -0.27   0.00
    11   7     0.00   0.00  -0.15     0.00   0.00  -0.24     0.28   0.35   0.00
                      7                      8                      9
                      A                      A                      A
 Frequencies --    694.9574               713.3221               803.9834
 Red. masses --      7.4791                 2.4564                 1.4429
 Frc consts  --      2.1282                 0.7364                 0.5495
 IR Inten    --     19.8873                27.8287                25.9794
  Atom  AN      X      Y      Z        X      Y      Z        X      Y      Z
     1   6     0.40   0.06   0.00     0.00   0.00   0.13     0.00   0.00   0.10
     2   6    -0.02   0.32   0.00     0.00   0.00  -0.14     0.00   0.00  -0.06
     3   6     0.12  -0.20   0.00     0.00   0.00  -0.10     0.00   0.00  -0.11
     4   1    -0.18   0.24   0.00     0.00   0.00  -0.52     0.00   0.00   0.10
     5   6     0.09  -0.33   0.00     0.00   0.00   0.17     0.00   0.00  -0.05
     6   1    -0.23   0.00   0.00     0.00   0.00  -0.48     0.00   0.00   0.45
     7   6    -0.33  -0.06   0.00     0.00   0.00  -0.14     0.00   0.00  -0.09
     8   1     0.38  -0.15   0.00     0.00   0.00  -0.08     0.00   0.00   0.78
     9  53    -0.02   0.00   0.00     0.00   0.00   0.00     0.00   0.00   0.00
    10   1    -0.33  -0.04   0.00     0.00   0.00  -0.61     0.00   0.00   0.38
    11   7    -0.04   0.17   0.00     0.00   0.00   0.18     0.00   0.00   0.06
                     10                     11                     12
                      A                      A                      A
 Frequencies --    943.1089               964.9623              1000.4650
 Red. masses --      1.3390                 1.3622                 1.3909
 Frc consts  --      0.7017                 0.7473                 0.8203
 IR Inten    --      0.3504                 0.1693                 0.0503
  Atom  AN      X      Y      Z        X      Y      Z        X      Y      Z
     1   6     0.00   0.00   0.03     0.00   0.00   0.04     0.00   0.00   0.01
     2   6     0.00   0.00  -0.14     0.00   0.00  -0.08     0.00   0.00  -0.06
     3   6     0.00   0.00   0.05     0.00   0.00  -0.11     0.00   0.00   0.08
     4   1     0.00   0.00   0.82     0.00   0.00   0.41     0.00   0.00   0.23
     5   6     0.00   0.00   0.04     0.00   0.00   0.03     0.00   0.00  -0.12
     6   1     0.00   0.00  -0.32     0.00   0.00   0.63     0.00   0.00  -0.47
     7   6     0.00   0.00  -0.06     0.00   0.00   0.11     0.00   0.00   0.10
     8   1     0.00   0.00  -0.26     0.00   0.00  -0.26     0.00   0.00   0.62
     9  53     0.00   0.00   0.00     0.00   0.00   0.00     0.00   0.00   0.00
    10   1     0.00   0.00   0.37     0.00   0.00  -0.57     0.00   0.00  -0.56
    11   7     0.00   0.00   0.02     0.00   0.00  -0.01     0.00   0.00   0.00
                     13                     14                     15
                      A                      A                      A
 Frequencies --   1009.8112              1054.7796              1101.2821
 Red. masses --      7.7974                 4.9920                 1.9416
 Frc consts  --      4.6847                 3.2722                 1.3874
 IR Inten    --     78.8960                 0.2713                22.9958
  Atom  AN      X      Y      Z        X      Y      Z        X      Y      Z
     1   6    -0.38  -0.02   0.00    -0.15   0.01   0.00     0.20  -0.01   0.00
     2   6     0.01  -0.20   0.00    -0.13   0.21   0.00    -0.03  -0.12   0.00
     3   6     0.11   0.22   0.00    -0.20  -0.24   0.00    -0.02   0.10   0.00
     4   1    -0.14  -0.28   0.00    -0.08   0.26   0.00    -0.36  -0.30   0.00
     5   6     0.17  -0.34   0.00     0.08  -0.17   0.00    -0.05  -0.05   0.00
     6   1     0.05   0.25   0.00    -0.37  -0.17   0.00    -0.34   0.29   0.00
     7   6    -0.13  -0.05   0.00     0.36   0.06   0.00     0.09   0.04   0.00
     8   1    -0.02  -0.47   0.00    -0.11  -0.32   0.00    -0.56  -0.37   0.00
     9  53     0.01   0.00   0.00     0.00   0.00   0.00     0.00   0.00   0.00
    10   1    -0.13  -0.12   0.00     0.35   0.39   0.00     0.08   0.21   0.00
    11   7     0.17   0.38   0.00     0.01   0.10   0.00    -0.05   0.05   0.00
                     16                     17                     18
                      A                      A                      A
 Frequencies --   1148.6590              1234.4474              1288.7298
 Red. masses --      1.5643                 1.4140                 6.9286
 Frc consts  --      1.2160                 1.2695                 6.7798
 IR Inten    --      4.1906                 1.6982                 0.1440
  Atom  AN      X      Y      Z        X      Y      Z        X      Y      Z
     1   6     0.00  -0.05   0.00    -0.02   0.05   0.00     0.00  -0.33   0.00
     2   6    -0.10   0.09   0.00     0.08  -0.03   0.00     0.34   0.17   0.00
     3   6     0.11   0.00   0.00     0.03  -0.04   0.00    -0.19   0.14   0.00
     4   1    -0.18   0.06   0.00     0.39   0.13   0.00     0.32   0.18   0.00
     5   6    -0.09   0.04   0.00    -0.04  -0.06   0.00     0.19   0.11   0.00
     6   1     0.62  -0.28   0.00     0.32  -0.21   0.00     0.16  -0.05   0.00
     7   6     0.03  -0.07   0.00    -0.06   0.11   0.00     0.00  -0.26   0.00
     8   1    -0.52  -0.24   0.00    -0.39  -0.29   0.00    -0.43  -0.29   0.00
     9  53     0.00   0.00   0.00     0.00   0.00   0.00     0.00   0.00   0.00
    10   1     0.05  -0.35   0.00    -0.11   0.63   0.00    -0.06   0.22   0.00
    11   7     0.04   0.04   0.00     0.00  -0.04   0.00    -0.29   0.14   0.00
                     19                     20                     21
                      A                      A                      A
 Frequencies --   1369.3105              1453.2068              1501.4192
 Red. masses --      1.2631                 2.0508                 1.9011
 Frc consts  --      1.3954                 2.5516                 2.5250
 IR Inten    --      5.9674                25.2464                19.7074
  Atom  AN      X      Y      Z        X      Y      Z        X      Y      Z
     1   6    -0.01  -0.09   0.00    -0.04  -0.16   0.00     0.09  -0.06   0.00
     2   6    -0.05   0.00   0.00    -0.05   0.11   0.00    -0.11  -0.06   0.00
     3   6     0.09  -0.02   0.00     0.05   0.03   0.00    -0.02   0.10   0.00
     4   1     0.60   0.35   0.00    -0.33  -0.03   0.00     0.56   0.30   0.00
     5   6     0.00   0.03   0.00    -0.04   0.06   0.00    -0.13  -0.08   0.00
     6   1    -0.48   0.29   0.00    -0.31   0.24   0.00     0.30  -0.06   0.00
     7   6    -0.02   0.06   0.00    -0.06  -0.07   0.00     0.08  -0.08   0.00
     8   1    -0.25  -0.13   0.00    -0.02   0.09   0.00     0.45   0.30   0.00
     9  53     0.00   0.00   0.00     0.00   0.00   0.00     0.00   0.00   0.00
    10   1     0.01  -0.32   0.00    -0.13   0.79   0.00     0.06   0.35   0.00
    11   7     0.01   0.01   0.00     0.16  -0.06   0.00    -0.01   0.08   0.00
                     22                     23                     24
                      A                      A                      A
 Frequencies --   1604.0325              1613.1032              3184.4040
 Red. masses --      5.6562                 5.2007                 1.0883
 Frc consts  --      8.5744                 7.9732                 6.5019
 IR Inten    --      5.2400                12.8259                10.9118
  Atom  AN      X      Y      Z        X      Y      Z        X      Y      Z
     1   6     0.15   0.01   0.00     0.03  -0.28   0.00     0.00   0.00   0.00
     2   6    -0.27  -0.09   0.00     0.07   0.15   0.00     0.00   0.01   0.00
     3   6    -0.33   0.06   0.00    -0.14   0.22   0.00     0.00   0.01   0.00
     4   1     0.34   0.22   0.00    -0.24   0.00   0.00     0.03  -0.06   0.00
     5   6     0.34   0.12   0.00    -0.05  -0.22   0.00     0.02  -0.03   0.00
     6   1     0.33  -0.31   0.00     0.39  -0.05   0.00    -0.04  -0.08   0.00
     7   6    -0.15  -0.01   0.00    -0.01   0.36   0.00    -0.08  -0.01   0.00
     8   1    -0.31  -0.32   0.00     0.32  -0.01   0.00    -0.23   0.34   0.00
     9  53     0.00   0.00   0.00     0.00   0.00   0.00     0.00   0.00   0.00
    10   1    -0.16  -0.01   0.00     0.09  -0.55   0.00     0.90   0.07   0.00
    11   7     0.21  -0.04   0.00     0.05  -0.15   0.00     0.00   0.00   0.00
                     25                     26                     27
                      A                      A                      A
 Frequencies --   3200.4296              3205.1954              3222.2211
 Red. masses --      1.0917                 1.0928                 1.0958
 Frc consts  --      6.5880                 6.6144                 6.7037
 IR Inten    --      9.3752                10.2800                 6.6471
  Atom  AN      X      Y      Z        X      Y      Z        X      Y      Z
     1   6     0.00   0.00   0.00     0.00   0.00   0.00     0.00   0.00   0.00
[...]
    A2        2.09125   0.00001   0.00000   0.00006   0.00006   2.09131
    A3        2.10498   0.00000   0.00000  -0.00001  -0.00001   2.10497
    A4        2.11159  -0.00003   0.00000  -0.00022  -0.00022   2.11138
    A5        2.13681   0.00000   0.00000  -0.00001  -0.00001   2.13679
    A6        2.03479   0.00003   0.00000   0.00023   0.00023   2.03502
    A7        2.05688   0.00001   0.00000   0.00005   0.00005   2.05693
    A8        2.11556  -0.00001   0.00000  -0.00007  -0.00007   2.11549
    A9        2.11075   0.00000   0.00000   0.00002   0.00002   2.11077
   A10        2.07203  -0.00001   0.00000  -0.00004  -0.00004   2.07198
   A11        2.10642   0.00001   0.00000   0.00010   0.00010   2.10652
   A12        2.10474   0.00000   0.00000  -0.00006  -0.00006   2.10468
   A13        2.10625  -0.00002   0.00000  -0.00017  -0.00017   2.10608
   A14        2.15243   0.00000   0.00000  -0.00002  -0.00002   2.15241
   A15        2.02450   0.00002   0.00000   0.00019   0.00019   2.02469
   A16        2.06128   0.00001   0.00000   0.00007   0.00007   2.06135
    D1        3.14159   0.00000   0.00000   0.00000   0.00000   3.14159
    D2        0.00000   0.00000   0.00000   0.00000   0.00000   0.00000
    D3        0.00000   0.00000   0.00000   0.00000   0.00000   0.00000
    D4        3.14159   0.00000   0.00000   0.00000   0.00000   3.14159
    D5        0.00000   0.00000   0.00000   0.00000   0.00000   0.00000
    D6        3.14159   0.00000   0.00000   0.00000   0.00000  -3.14159
    D7       -3.14159   0.00000   0.00000   0.00000   0.00000  -3.14159
    D8        0.00000   0.00000   0.00000   0.00000   0.00000   0.00000
    D9        0.00000   0.00000   0.00000   0.00000   0.00000   0.00000
   D10       -3.14159   0.00000   0.00000   0.00000   0.00000  -3.14159
   D11        0.00000   0.00000   0.00000   0.00000   0.00000   0.00000
   D12       -3.14159   0.00000   0.00000   0.00000   0.00000   3.14159
   D13       -3.14159   0.00000   0.00000   0.00000   0.00000  -3.14159
   D14        0.00000   0.00000   0.00000   0.00000   0.00000   0.00000
   D15        3.14159   0.00000   0.00000   0.00000   0.00000   3.14159
   D16        0.00000   0.00000   0.00000   0.00000   0.00000   0.00000
   D17        0.00000   0.00000   0.00000   0.00000   0.00000   0.00000
   D18        3.14159   0.00000   0.00000   0.00000   0.00000   3.14159
   D19        0.00000   0.00000   0.00000   0.00000   0.00000   0.00000
   D20       -3.14159   0.00000   0.00000   0.00000   0.00000  -3.14159
         Item               Value     Threshold  Converged?
 Maximum Force            0.000083     0.000450     YES
 RMS     Force            0.000020     0.000300     YES
 Maximum Displacement     0.000258     0.001800     YES
 RMS     Displacement     0.000079     0.001200     YES
 Predicted change in Energy=-3.093972D-08
 Optimization completed.
    -- Stationary point found.
                           ----------------------------
                           !   Optimized Parameters   !
                           ! (Angstroms and Degrees)  !
 --------------------------                            --------------------------
 ! Name  Definition              Value          Derivative Info.                !
 --------------------------------------------------------------------------------
 ! R1    R(1,2)                  1.3992         -DE/DX =    0.0                 !
 ! R2    R(1,3)                  1.3944         -DE/DX =   -0.0001              !
 ! R3    R(1,9)                  2.1441         -DE/DX =    0.0                 !
 ! R4    R(2,4)                  1.0869         -DE/DX =    0.0                 !
 ! R5    R(2,11)                 1.3384         -DE/DX =   -0.0001              !
 ! R6    R(3,5)                  1.3971         -DE/DX =    0.0                 !
 ! R7    R(3,6)                  1.0853         -DE/DX =    0.0                 !
 ! R8    R(5,7)                  1.397          -DE/DX =    0.0                 !
 ! R9    R(5,8)                  1.0865         -DE/DX =    0.0                 !
 ! R10   R(7,10)                 1.0879         -DE/DX =    0.0                 !
 ! R11   R(7,11)                 1.3397         -DE/DX =   -0.0001              !
 ! A1    A(2,1,3)              119.5735         -DE/DX =    0.0                 !
 ! A2    A(2,1,9)              119.82           -DE/DX =    0.0                 !
 ! A3    A(3,1,9)              120.6065         -DE/DX =    0.0                 !
 ! A4    A(1,2,4)              120.9853         -DE/DX =    0.0                 !
 ! A5    A(1,2,11)             122.43           -DE/DX =    0.0                 !
 ! A6    A(4,2,11)             116.5847         -DE/DX =    0.0                 !
 ! A7    A(1,3,5)              117.8505         -DE/DX =    0.0                 !
 ! A8    A(1,3,6)              121.2125         -DE/DX =    0.0                 !
 ! A9    A(5,3,6)              120.937          -DE/DX =    0.0                 !
 ! A10   A(3,5,7)              118.7183         -DE/DX =    0.0                 !
 ! A11   A(3,5,8)              120.689          -DE/DX =    0.0                 !
 ! A12   A(7,5,8)              120.5927         -DE/DX =    0.0                 !
 ! A13   A(5,7,10)             120.6794         -DE/DX =    0.0                 !
 ! A14   A(5,7,11)             123.3252         -DE/DX =    0.0                 !
 ! A15   A(10,7,11)            115.9955         -DE/DX =    0.0                 !
 ! A16   A(2,11,7)             118.1026         -DE/DX =    0.0                 !
 ! D1    D(3,1,2,4)            180.0            -DE/DX =    0.0                 !
 ! D2    D(3,1,2,11)             0.0001         -DE/DX =    0.0                 !
 ! D3    D(9,1,2,4)             -0.0001         -DE/DX =    0.0                 !
 ! D4    D(9,1,2,11)           180.0            -DE/DX =    0.0                 !
 ! D5    D(2,1,3,5)             -0.0001         -DE/DX =    0.0                 !
 ! D6    D(2,1,3,6)           -180.0            -DE/DX =    0.0                 !
 ! D7    D(9,1,3,5)           -180.0            -DE/DX =    0.0                 !
 ! D8    D(9,1,3,6)              0.0001         -DE/DX =    0.0                 !
 ! D9    D(1,2,11,7)            -0.0001         -DE/DX =    0.0                 !
 ! D10   D(4,2,11,7)          -180.0            -DE/DX =    0.0                 !
 ! D11   D(1,3,5,7)              0.0001         -DE/DX =    0.0                 !
 ! D12   D(1,3,5,8)            180.0            -DE/DX =    0.0                 !
 ! D13   D(6,3,5,7)           -180.0            -DE/DX =    0.0                 !
 ! D14   D(6,3,5,8)              0.0            -DE/DX =    0.0                 !
 ! D15   D(3,5,7,10)           180.0            -DE/DX =    0.0                 !
 ! D16   D(3,5,7,11)            -0.0001         -DE/DX =    0.0                 !
 ! D17   D(8,5,7,10)             0.0            -DE/DX =    0.0                 !
 ! D18   D(8,5,7,11)           180.0            -DE/DX =    0.0                 !
 ! D19   D(5,7,11,2)             0.0001         -DE/DX =    0.0                 !
 ! D20   D(10,7,11,2)         -180.0            -DE/DX =    0.0                 !
 --------------------------------------------------------------------------------
 GradGradGradGradGradGradGradGradGradGradGradGradGradGradGradGradGradGrad


 ----------------------------------------------------------------------

 Electric dipole moment (input orientation):
 (Debye = 10**-18 statcoulomb cm , SI units = C m)
                  (au)            (Debye)         (10**-30 SI)
   Tot        0.836062D+00      0.212506D+01      0.708843D+01
   x          0.190094D+00      0.483172D+00      0.161169D+01
   y         -0.814164D+00     -0.206940D+01     -0.690277D+01
   z         -0.537450D-04     -0.136606D-03     -0.455669D-03

 Dipole polarizability, Alpha (input orientation).
 (esu units = cm**3 , SI units = C**2 m**2 J**-1)
 Alpha(0;0):
               (au)            (10**-24 esu)      (10**-40 SI)
   iso        0.899785D+02      0.133334D+02      0.148354D+02
   aniso      0.732559D+02      0.108554D+02      0.120783D+02
   xx         0.134998D+03      0.200047D+02      0.222582D+02
   yx        -0.215406D+01     -0.319199D+00     -0.355157D+00
   yy         0.837196D+02      0.124060D+02      0.138035D+02
   zx         0.609627D-02      0.903374D-03      0.100514D-02
   zy         0.256280D-02      0.379768D-03      0.422548D-03
   zz         0.512177D+02      0.758968D+01      0.844466D+01

 ----------------------------------------------------------------------

 Dipole orientation:
     6         -0.81307871         -0.19007868         -0.19020713
     6          0.96011187          0.22410752         -2.10733162
     6         -0.06713194         -0.01583862          2.33096366
     1          0.42597547          0.09934207         -4.08669517
     6          2.45703617          0.57375935          2.83245859
     1         -1.40060487         -0.32731360          3.85785931
     6          4.09807688          0.95707723          0.80029998
     1          3.13230598          0.73148965          4.76500441
    53         -4.64623875         -1.08543094         -1.15019871
     1          6.07549749          1.41896565          1.12151075
     7          3.37703250          0.78865422         -1.62057945

 Electric dipole moment (dipole orientation):
 (Debye = 10**-18 statcoulomb cm , SI units = C m)
                  (au)            (Debye)         (10**-30 SI)
   Tot        0.836062D+00      0.212506D+01      0.708843D+01
   x          0.000000D+00      0.000000D+00      0.000000D+00
   y          0.000000D+00      0.000000D+00      0.000000D+00
   z          0.836062D+00      0.212506D+01      0.708843D+01

 Dipole polarizability, Alpha (dipole orientation).
 (esu units = cm**3 , SI units = C**2 m**2 J**-1)
 Alpha(0;0):
               (au)            (10**-24 esu)      (10**-40 SI)
   iso        0.899785D+02      0.133334D+02      0.148354D+02
   aniso      0.732559D+02      0.108554D+02      0.120783D+02
   xx         0.127245D+03      0.188558D+02      0.209799D+02
   yx         0.177586D+02      0.263155D+01      0.292800D+01
   yy         0.553658D+02      0.820436D+01      0.912858D+01
   zx         0.129369D+02      0.191705D+01      0.213301D+01
   zy         0.302181D+01      0.447785D+00      0.498229D+00
   zz         0.873244D+02      0.129401D+02      0.143978D+02

 ----------------------------------------------------------------------
 1\1\GINC-IP-172-31-38-84\Freq\RB3LYP\Gen\C5H4I1N1\UBUNTU\13-Sep-2023\0
 \\#N Geom=AllCheck Guess=TCheck SCRF=Check GenChk RB3LYP/ChkBas Freq\\
 reac1\\0,1\C,-0.453176,-0.002449,-0.000116\C,0.254511,1.204569,0.00003
 9\C,0.244914,-1.209485,-0.000164\H,-0.266302,2.158573,0.000079\C,1.641
 014,-1.156035,-0.000055\H,-0.277031,-2.161081,-0.000283\C,2.264928,0.0
 93934,0.000097\H,2.23088,-2.068475,-0.000087\I,-2.597145,0.018637,-0.0
 00274\H,3.350004,0.172733,0.000185\N,1.592083,1.252365,0.000143\\Versi
 on=EM64L-G16RevB.01\HF=-259.1062035\RMSD=2.138e-10\RMSF=3.440e-05\Zero
 Point=0.0784186\Thermal=0.0841926\Dipole=0.1900944,-0.8141641,-0.00005
 37\DipoleDeriv=1.1833015,-0.0497734,0.0000917,0.1019519,-0.2547694,-0.
 0000057,0.000103,-0.0000172,-0.0942257,-0.1914828,0.0094891,-0.0000172
 ,0.0632245,0.3451725,0.0000293,-0.0000121,0.0000249,0.0499452,-0.21785
 86,0.0821933,-0.0000057,-0.0734115,0.1318239,0.0000098,-0.0000182,0.00
 00218,-0.0503128,0.0144051,0.0634539,-0.0000009,0.0669505,-0.0037542,-
 0.0000035,-0.0000008,-0.0000033,0.097363,-0.1299878,-0.0874249,-0.0000
 102,-0.1184816,0.0155271,0.,-0.0000128,0.0000022,-0.0924221,0.0659168,
 -0.063015,-0.0000095,-0.0443862,0.0056541,-0.000013,-0.0000079,-0.0000
 146,0.1214901,0.3594969,-0.0320056,0.0000245,0.1826777,0.1969129,0.000
 0303,0.0000422,0.0000143,-0.0011023,-0.0137759,0.0779455,-0.0000049,0.
 0711394,-0.0363271,-0.0000093,-0.0000056,-0.0000086,0.1384612,-0.48971
 ,0.0040509,-0.0000358,-0.0064665,-0.0217905,-0.0000016,-0.000036,-0.00
 00008,-0.0089698,-0.117645,0.0188889,-0.0000156,-0.0005818,0.0664757,-
 0.0000037,-0.0000169,-0.0000023,0.1106067,-0.4626601,-0.0238027,-0.000
 0166,-0.2426166,-0.4449249,-0.0000327,-0.0000349,-0.0000163,-0.2708336
 \Polar=134.9981317,-2.1540643,83.7195696,0.0060963,0.0025628,51.217704
 5\Quadrupole=1.4432858,0.786956,-2.2302418,-3.7427459,-0.0000677,0.000
 0964\PG=C01 [X(C5H4I1N1)]\NImag=0\\0.44495996,-0.00852851,0.62542428,0
 .00002522,0.00004332,0.10096712,-0.14303967,-0.03851683,-0.00000913,0.
 66576104,-0.10894441,-0.27592585,-0.00002590,-0.06912361,0.73371806,-0
 .00001501,-0.00002063,-0.06573660,0.00003294,0.00004345,0.15171472,-0.
 15693161,0.06270956,-0.00000221,0.06940624,0.02343293,0.00000673,0.674
 12584,0.11832616,-0.29030947,-0.00001045,-0.02192205,-0.05398794,-0.00
 000665,0.04782977,0.73416683,0.00000247,-0.00001459,-0.05849045,0.0000
 0292,-0.00000330,0.00611912,0.00004453,0.00005373,0.13493247,0.0091296
 6,-0.01626443,-0.00000105,-0.10818329,0.11377927,0.00000442,-0.0016759
 0,-0.00324041,-0.00000088,0.13310116,0.01416296,-0.01902999,-0.0000009
 4,0.11257439,-0.28403410,-0.00001171,-0.00395708,-0.00305104,-0.000001
 08,-0.12240922,0.29522568,0.00000147,-0.00000330,0.00508739,0.00000430
 ,-0.00001155,-0.04127703,-0.00000094,-0.00000103,0.00633172,-0.0000021
 1,0.00001316,0.02610918,-0.03005962,0.07825556,0.00000378,-0.05187218,
 -0.02605171,-0.00000549,-0.34078750,-0.04475393,-0.00002474,-0.0006437
 2,-0.00080798,-0.00000009,0.69010709,0.02732850,0.03880943,0.00000471,
 -0.04200569,-0.02129058,-0.00000428,0.02375647,-0.12993153,-0.00000404
 ,0.00011306,0.00042086,0.00000008,-0.04222253,0.72193918,-0.00000049,0
 .00000856,0.00674766,-0.00000682,-0.00000308,-0.00771232,-0.00001902,-
 0.00000920,-0.06024791,-0.00000001,0.,-0.00035029,0.00003868,0.0000466
 2,0.12800153,0.00994005,0.01641018,0.00000189,-0.00143924,0.00358605,-
 0.00000037,-0.12406464,-0.12284234,-0.00001662,0.00072032,0.00076881,0
 .00000014,-0.00932999,-0.02864683,-0.00000351,0.13005706,-0.01482657,-
 0.01889700,-0.00000297,0.00441931,-0.00288658,-0.00000052,-0.12003012,
 -0.27934821,-0.00002906,-0.00077639,-0.00083216,-0.00000011,0.00122859
 ,0.00422506,-0.00000001,0.12832033,0.29443317,-0.00000073,-0.00000059,
 0.00315279,-0.00000030,-0.00000059,0.00740101,-0.00001640,-0.00002930,
 -0.04016075,0.,0.,-0.00024101,-0.00000101,-0.00000225,0.00545006,0.000
 01862,0.00003216,0.02570866,0.00052622,0.00951028,0.00000157,-0.059197
 02,0.03630996,-0.00000172,-0.02116852,-0.03364744,-0.00000499,-0.00386
 581,-0.00201552,-0.00000124,-0.18096893,-0.11573796,-0.00001820,-0.005
 90760,0.00061742,-0.00000102,0.76944763,-0.00625694,-0.07777700,-0.000
 00616,0.08935059,0.02538810,0.00000853,-0.08069455,0.03544279,-0.00000
 374,-0.00012668,0.00269640,-0.00000067,-0.04739844,-0.28092782,-0.0000
 2150,0.00131381,0.00191190,-0.00000044,0.00886115,0.65687037,0.0000002
 4,-0.00000498,-0.00973353,0.00000277,0.00000452,0.00365662,-0.00000890
 ,-0.00000018,0.00758187,-0.00000109,-0.00000080,0.01053862,-0.00001248
 ,-0.00002661,-0.06795017,-0.00000096,-0.00000050,0.00843559,0.00004697
 ,0.00004276,0.15444713,-0.00410683,-0.00121324,-0.00000100,-0.00136469
 ,-0.00090654,-0.00000017,-0.01254125,0.02785427,0.00000115,0.00019371,
 0.00006129,0.00000015,-0.14232608,0.12842860,0.00000276,0.00082360,-0.
 00029330,0.00000035,0.01289403,-0.01257820,-0.00000016,0.14687621,-0.0
 0059056,0.00171105,-0.00000056,-0.00204152,0.00034367,-0.00000011,-0.0
 0321938,0.00568193,-0.00000003,0.00025094,-0.00003684,0.00000016,0.128
 35784,-0.26014543,-0.00000911,0.00036936,0.00074905,0.00000044,0.01973
 758,-0.01564820,0.00000009,-0.13868100,0.27202661,-0.00000095,-0.00000
 061,0.00787734,-0.00000026,-0.00000002,-0.00012891,-0.00000144,0.00000
 230,0.00309490,0.00000017,0.00000015,-0.00177261,0.00000274,-0.0000090
 8,-0.03611354,0.00000040,0.00000039,-0.00413897,0.00000254,-0.00000236
 ,0.00110379,-0.00000245,0.00001024,0.02519285,-0.08743180,-0.00046874,
 -0.00000554,-0.02959177,0.00613090,-0.00000180,-0.02816549,-0.00010662
 ,-0.00000227,-0.00017226,-0.00105652,0.,0.00408570,0.00395850,0.000000
 34,0.00014147,0.00048338,0.00000018,-0.00088368,-0.00069733,-0.0000001
 0,-0.00085710,-0.00058425,-0.00000013,0.14153104,0.00028170,-0.0220488
 4,-0.00000069,-0.01660403,0.00301665,-0.00000110,0.01717747,0.00199089
 ,0.00000127,-0.00142241,-0.00016342,0.,-0.00060237,-0.00226475,-0.0000
 0057,0.00151629,0.00012923,0.00000027,0.00017366,0.00050061,0.00000008
 ,0.00057245,0.00013721,0.00000004,-0.00139272,0.02062912,-0.00000545,-
 0.00000072,-0.01351925,-0.00000372,0.00000059,0.00133032,-0.00000083,-
 0.00000002,0.00210323,-0.00000005,0.00000001,-0.00121967,-0.00000004,-
 0.00000022,0.00396402,0.00000027,0.00000019,-0.00172656,-0.00000002,0.
 00000002,-0.00034074,-0.00000003,-0.00000005,0.00019724,0.00000996,0.0
 0000107,0.00638555,0.00075438,-0.00018591,0.00000006,0.00137848,0.0019
 3197,-0.00000048,0.00047179,-0.00262091,-0.00000069,-0.00048880,-0.000
 11339,-0.00000008,-0.00891611,0.00126001,-0.00000103,-0.00050143,0.000
 19954,0.,-0.33213415,-0.03230004,-0.00002456,0.00034543,-0.00057321,0.
 00000020,-0.00012828,-0.00006700,0.00000007,0.35655577,0.00052777,-0.0
 0112015,-0.00000004,0.00408631,-0.00302803,-0.00000077,-0.00192815,-0.
 00515701,-0.00000114,0.00095401,0.00010493,0.00000004,-0.02822753,0.00
 287791,-0.00000240,-0.00143977,0.00009052,-0.00000007,-0.03398009,-0.0
 6022900,-0.00000416,0.00045694,0.00035029,0.00000031,0.00013115,0.0002
 5873,0.00000012,0.02273521,0.06776276,0.00000012,-0.00000009,-0.000170
 91,-0.00000030,-0.00000094,0.00989077,-0.00000062,-0.00000119,0.006659
 64,0.00000001,-0.00000004,0.00043550,-0.00000352,-0.00000020,0.0062586
 6,-0.00000013,0.00000005,-0.00038307,-0.00002467,-0.00000403,-0.041060
 23,0.00000029,0.00000023,-0.00293919,0.00000008,0.00000011,-0.00108271
 ,0.00002668,0.00000516,0.02651782,-0.04374074,-0.10170793,-0.00001358,
 -0.34185790,0.01985519,-0.00001905,-0.05866897,0.03512348,-0.00000088,
 -0.02811506,0.00279225,-0.00000160,0.07071134,0.04376787,0.00000733,-0
 .00043960,0.00065782,0.00000029,-0.17874216,0.08052661,-0.00000171,0.0
 0006295,-0.00302580,-0.00000083,0.00147217,0.00036696,-0.00000015,-0.0
 1733708,0.03668415,0.00000207,0.59665503,-0.02148012,0.03916354,-0.000
 00032,-0.02021688,-0.12131340,-0.00000620,0.03492308,-0.01549723,0.000
 00199,0.02914227,0.00869967,0.00000321,-0.01777751,-0.07371234,-0.0000
 0933,0.00064412,0.00042503,0.00000037,0.11017094,-0.28822816,-0.000010
 21,-0.00370127,-0.00516935,-0.00000135,-0.00639775,-0.00218545,-0.0000
 0099,0.00973373,-0.00191096,0.00000092,-0.11504061,0.45972864,-0.00000
 688,-0.00000636,0.02381845,-0.00002239,-0.00000318,-0.06525770,-0.0000
 0089,0.00000199,-0.00792382,0.00000059,0.00000124,-0.00364179,0.000002
 18,-0.00000473,0.02195231,0.00000028,0.00000038,-0.00349776,0.00000078
 ,-0.00001241,-0.06667895,-0.00000088,-0.00000130,0.00762711,-0.0000007
 2,-0.00000049,0.00390857,-0.00000017,0.00000294,-0.00412627,0.00002811
 ,0.00002191,0.09381986\\0.00000404,0.00003711,-0.00000018,-0.00008750,
 -0.00004489,0.00000020,-0.00001623,-0.00004550,0.00000012,0.00001060,0
 .00003885,-0.00000003,0.00002790,0.00002497,-0.00000010,-0.00000168,-0
 .00001418,0.,0.00001539,-0.00010438,0.00000011,-0.00000246,-0.00001332
 ,0.,-0.00000370,0.00000468,0.00000002,0.00002270,0.00002093,0.,0.00003
 094,0.00009573,-0.00000012\\\@


 GOD GAVE US TWO ENDS... ONE TO SIT ON...    
 AND THE OTHER TO THINK WITH...              
 YOUR SUCCESS DEPENDS UPON WHICH END YOU     
 USE THE MOST...                             
                                             
 IT'S A CASE OF HEADS YOU WIN TAILS YOU LOSE.
          SOURCE UNKNOWN(IT'S JUST AS WELL.) 
 Job cpu time:       0 days  0 hours 15 minutes 48.9 seconds.
 Elapsed time:       0 days  0 hours  0 minutes 29.7 seconds.
 File lengths (MBytes):  RWF=     25 Int=      0 D2E=      0 Chk=      2 Scr=      1
 Normal termination of Gaussian 16 at Wed Sep 13 08:49:32 2023.
