 Entering Gaussian System, Link 0=g16
 Input=/home/ubuntu/Downloads/h-gen-volume.gjf
 Output=/home/ubuntu/Downloads/h-gen-volume.log
 Initial command:
 /home/ubuntu/g16/l1.exe "/home/ubuntu/Scratch/Gau-18887.inp" -scrdir="/home/ubuntu/Scratch/"
 Entering Link 1 = /home/ubuntu/g16/l1.exe PID=     18891.
  
 Copyright (c) 1988-2017, Gaussian, Inc.  All Rights Reserved.
  
 This is part of the Gaussian(R) 16 program.  It is based on
 the Gaussian(R) 09 system (copyright 2009, Gaussian, Inc.),
 the Gaussian(R) 03 system (copyright 2003, Gaussian, Inc.),
 the Gaussian(R) 98 system (copyright 1998, Gaussian, Inc.),
 the Gaussian(R) 94 system (copyright 1995, Gaussian, Inc.),
 the Gaussian 92(TM) system (copyright 1992, Gaussian, Inc.),
 the Gaussian 90(TM) system (copyright 1990, Gaussian, Inc.),
 the Gaussian 88(TM) system (copyright 1988, Gaussian, Inc.),
 the Gaussian 86(TM) system (copyright 1986, Carnegie Mellon
 University), and the Gaussian 82(TM) system (copyright 1983,
 Carnegie Mellon University). Gaussian is a federally registered
 trademark of Gaussian, Inc.
  
 This software contains proprietary and confidential information,
 including trade secrets, belonging to Gaussian, Inc.
  
 This software is provided under written license and may be
 used, copied, transmitted, or stored only in accord with that
 written license.
  
 The following legend is applicable only to US Government
 contracts under FAR:
  
                    RESTRICTED RIGHTS LEGEND
  
 Use, reproduction and disclosure by the US Government is
 subject to restrictions as set forth in subparagraphs (a)
 and (c) of the Commercial Computer Software - Restricted
 Rights clause in FAR 52.227-19.
  
 Gaussian, Inc.
 340 Quinnipiac St., Bldg. 40, Wallingford CT 06492
  
  
 ---------------------------------------------------------------
 Warning -- This program may not be used in any manner that
 competes with the business of Gaussian, Inc. or will provide
 assistance to any competitor of Gaussian, Inc.  The licensee
 of this program is prohibited from giving any competitor of
 Gaussian, Inc. access to this program.  By using this program,
 the user acknowledges that Gaussian, Inc. is engaged in the
 business of creating and licensing software in the field of
 computational chemistry and represents and warrants to the
 licensee that it is not a competitor of Gaussian, Inc. and that
 it will not use this program in any manner prohibited above.
 ---------------------------------------------------------------
  

 Cite this work as:
 Gaussian 16, Revision B.01,
 M. J. Frisch, G. W. Trucks, H. B. Schlegel, G. E. Scuseria, 
 M. A. Robb, J. R. Cheeseman, G. Scalmani, V. Barone, 
 G. A. Petersson, H. Nakatsuji, X. Li, M. Caricato, A. V. Marenich, 
 J. Bloino, B. G. Janesko, R. Gomperts, B. Mennucci, H. P. Hratchian, 
 J. V. Ortiz, A. F. Izmaylov, J. L. Sonnenberg, D. Williams-Young, 
 F. Ding, F. Lipparini, F. Egidi, J. Goings, B. Peng, A. Petrone, 
 T. Henderson, D. Ranasinghe, V. G. Zakrzewski, J. Gao, N. Rega, 
 G. Zheng, W. Liang, M. Hada, M. Ehara, K. Toyota, R. Fukuda, 
 J. Hasegawa, M. Ishida, T. Nakajima, Y. Honda, O. Kitao, H. Nakai, 
 T. Vreven, K. Throssell, J. A. Montgomery, Jr., J. E. Peralta, 
 F. Ogliaro, M. J. Bearpark, J. J. Heyd, E. N. Brothers, K. N. Kudin, 
 V. N. Staroverov, T. A. Keith, R. Kobayashi, J. Normand, 
 K. Raghavachari, A. P. Rendell, J. C. Burant, S. S. Iyengar, 
 J. Tomasi, M. Cossi, J. M. Millam, M. Klene, C. Adamo, R. Cammi, 
 J. W. Ochterski, R. L. Martin, K. Morokuma, O. Farkas, 
 J. B. Foresman, and D. J. Fox, Gaussian, Inc., Wallingford CT, 2016.
 
 ******************************************
 Gaussian 16:  EM64L-G16RevB.01 20-Dec-2017
                13-Sep-2023 
 ******************************************
 %nprocshared=32
 Will use up to   32 processors via shared memory.
 %mem=60GB
 %chk=h-gen-volume.chk
 ----------------------------------------------------------------------
 # opt freq rb3lyp/gen nosymm empiricaldispersion=gd3 pseudo=read scf=m
 axcycle=1000 volume
 ----------------------------------------------------------------------
 1/18=20,19=15,26=3,38=1/1,3;
 2/9=110,12=2,15=1,17=6,18=5,40=1/2;
 3/5=7,11=2,16=1,17=8,25=1,30=1,71=1,74=-5,116=1,124=31/1,2,3;
 4//1;
 5/5=2,7=1000,38=5/2;
 6/7=2,8=2,9=2,10=2,28=1,44=1/1,4;
 7/30=1/1,2,3,16;
 1/18=20,19=15,26=3/3(2);
 2/9=110,15=1/2;
 99//99;
 2/9=110,15=1/2;
 3/5=7,6=1,11=2,16=1,17=8,25=1,30=1,71=1,74=-5,82=7,116=1,124=31/1,2,3;
 4/5=5,16=3,69=1/1;
 5/5=2,7=1000,38=5/2;
 7/30=1/1,2,3,16;
 1/18=20,19=15,26=3/3(-5);
 2/9=110,15=1/2;
 6/7=2,8=2,9=2,10=2,19=2,28=1,44=1/1,4;
 99/9=1/99;
 -----
 reac1
 -----
 Symbolic Z-matrix:
 Charge =  0 Multiplicity = 1
 C                    -0.45526   0.01815  -0.00012 
 C                     0.20603   1.24801   0.00005 
 C                     0.2526   -1.18542  -0.00018 
 C                     1.60525   1.26661   0.00016 
 H                    -0.35314   2.17792   0.00009 
 C                     1.65159  -1.15044  -0.00006 
 H                    -0.27047  -2.13612  -0.00031 
 C                     2.32989   0.07149   0.00011 
 H                     2.12432   2.2217    0.00029 
 H                     2.20672  -2.08502  -0.0001 
 I                    -2.60639  -0.0229   -0.0003 
 H                     3.41628   0.09237   0.0002 
 

 GradGradGradGradGradGradGradGradGradGradGradGradGradGradGradGradGradGrad
 Berny optimization.
 Initialization pass.
                           ----------------------------
                           !    Initial Parameters    !
                           ! (Angstroms and Degrees)  !
 --------------------------                            --------------------------
 ! Name  Definition              Value          Derivative Info.                !
 --------------------------------------------------------------------------------
 ! R1    R(1,2)                  1.3964         estimate D2E/DX2                !
 ! R2    R(1,3)                  1.3963         estimate D2E/DX2                !
 ! R3    R(1,11)                 2.1515         estimate D2E/DX2                !
 ! R4    R(2,4)                  1.3993         estimate D2E/DX2                !
 ! R5    R(2,5)                  1.0851         estimate D2E/DX2                !
 ! R6    R(3,6)                  1.3994         estimate D2E/DX2                !
 ! R7    R(3,7)                  1.0851         estimate D2E/DX2                !
 ! R8    R(4,8)                  1.3977         estimate D2E/DX2                !
 ! R9    R(4,9)                  1.087          estimate D2E/DX2                !
 ! R10   R(6,8)                  1.3976         estimate D2E/DX2                !
 ! R11   R(6,10)                 1.087          estimate D2E/DX2                !
 ! R12   R(8,12)                 1.0866         estimate D2E/DX2                !
 ! A1    A(2,1,3)              121.2726         estimate D2E/DX2                !
 ! A2    A(2,1,11)             119.3595         estimate D2E/DX2                !
 ! A3    A(3,1,11)             119.3678         estimate D2E/DX2                !
 ! A4    A(1,2,4)              119.028          estimate D2E/DX2                !
 ! A5    A(1,2,5)              120.7142         estimate D2E/DX2                !
 ! A6    A(4,2,5)              120.2578         estimate D2E/DX2                !
 ! A7    A(1,3,6)              119.0283         estimate D2E/DX2                !
 ! A8    A(1,3,7)              120.7198         estimate D2E/DX2                !
 ! A9    A(6,3,7)              120.2518         estimate D2E/DX2                !
 ! A10   A(2,4,8)              120.468          estimate D2E/DX2                !
 ! A11   A(2,4,9)              119.2853         estimate D2E/DX2                !
 ! A12   A(8,4,9)              120.2467         estimate D2E/DX2                !
 ! A13   A(3,6,8)              120.4676         estimate D2E/DX2                !
 ! A14   A(3,6,10)             119.2772         estimate D2E/DX2                !
 ! A15   A(8,6,10)             120.2552         estimate D2E/DX2                !
 ! A16   A(4,8,6)              119.7354         estimate D2E/DX2                !
 ! A17   A(4,8,12)             120.1286         estimate D2E/DX2                !
 ! A18   A(6,8,12)             120.1359         estimate D2E/DX2                !
 ! D1    D(3,1,2,4)              0.0            estimate D2E/DX2                !
 ! D2    D(3,1,2,5)           -180.0            estimate D2E/DX2                !
 ! D3    D(11,1,2,4)           180.0            estimate D2E/DX2                !
 ! D4    D(11,1,2,5)             0.0            estimate D2E/DX2                !
 ! D5    D(2,1,3,6)              0.0            estimate D2E/DX2                !
 ! D6    D(2,1,3,7)            179.9999         estimate D2E/DX2                !
 ! D7    D(11,1,3,6)          -180.0            estimate D2E/DX2                !
 ! D8    D(11,1,3,7)             0.0            estimate D2E/DX2                !
 ! D9    D(1,2,4,8)              0.0            estimate D2E/DX2                !
 ! D10   D(1,2,4,9)            179.9999         estimate D2E/DX2                !
 ! D11   D(5,2,4,8)            180.0            estimate D2E/DX2                !
 ! D12   D(5,2,4,9)             -0.0001         estimate D2E/DX2                !
 ! D13   D(1,3,6,8)              0.0            estimate D2E/DX2                !
 ! D14   D(1,3,6,10)           180.0            estimate D2E/DX2                !
 ! D15   D(7,3,6,8)           -179.9999         estimate D2E/DX2                !
 ! D16   D(7,3,6,10)             0.0            estimate D2E/DX2                !
 ! D17   D(2,4,8,6)              0.0            estimate D2E/DX2                !
 ! D18   D(2,4,8,12)           180.0            estimate D2E/DX2                !
 ! D19   D(9,4,8,6)           -179.9999         estimate D2E/DX2                !
 ! D20   D(9,4,8,12)             0.0            estimate D2E/DX2                !
 ! D21   D(3,6,8,4)              0.0            estimate D2E/DX2                !
 ! D22   D(3,6,8,12)          -180.0            estimate D2E/DX2                !
 ! D23   D(10,6,8,4)          -180.0            estimate D2E/DX2                !
 ! D24   D(10,6,8,12)            0.0001         estimate D2E/DX2                !
 --------------------------------------------------------------------------------
 Trust Radius=3.00D-01 FncErr=1.00D-07 GrdErr=1.00D-06 EigMax=2.50D+02 EigMin=1.00D-04
 Number of steps in this run=     64 maximum allowed number of steps=    100.
 GradGradGradGradGradGradGradGradGradGradGradGradGradGradGradGradGradGrad

                          Input orientation:                          
 ---------------------------------------------------------------------
 Center     Atomic      Atomic             Coordinates (Angstroms)
 Number     Number       Type             X           Y           Z
 ---------------------------------------------------------------------
      1          6           0       -0.455257    0.018145   -0.000121
      2          6           0        0.206030    1.248014    0.000047
      3          6           0        0.252595   -1.185424   -0.000175
      4          6           0        1.605246    1.266614    0.000163
      5          1           0       -0.353144    2.177923    0.000088
      6          6           0        1.651589   -1.150436   -0.000058
      7          1           0       -0.270467   -2.136115   -0.000305
      8          6           0        2.329886    0.071487    0.000111
      9          1           0        2.124324    2.221696    0.000293
     10          1           0        2.206722   -2.085021   -0.000099
     11         53           0       -2.606387   -0.022900   -0.000299
     12          1           0        3.416279    0.092366    0.000201
 ---------------------------------------------------------------------
                    Distance matrix (angstroms):
                    1          2          3          4          5
     1  C    0.000000
     2  C    1.396380   0.000000
     3  C    1.396293   2.433883   0.000000
     4  C    2.409221   1.399340   2.800385   0.000000
     5  H    2.162191   1.085084   3.417459   2.160041   0.000000
     6  C    2.409228   2.800393   1.399431   2.417494   3.885477
     7  H    2.162171   3.417511   1.085084   3.885468   4.314830
     8  C    2.785654   2.427958   2.427955   1.397652   3.411118
     9  H    3.392621   2.151257   3.887395   1.087025   2.477855
    10  H    3.392556   3.887402   2.151252   3.405177   4.972485
    11  I    2.151522   3.086246   3.086299   4.404622   3.149718
    12  H    3.872247   3.411923   3.411985   2.158402   4.307911
                    6          7          8          9         10
     6  C    0.000000
     7  H    2.160061   0.000000
     8  C    1.397563   3.411062   0.000000
     9  H    3.405107   4.972478   2.160013   0.000000
    10  H    1.087024   2.477716   2.160022   4.307505   0.000000
    11  I    4.404736   3.149952   4.937175   5.236205   5.236255
    12  H    2.158399   4.307926   1.086594   2.490621   2.490792
                   11         12
    11  I    0.000000
    12  H    6.023769   0.000000
 Symmetry turned off by external request.
 Stoichiometry    C6H5I
 Framework group  C1[X(C6H5I)]
 Deg. of freedom    30
 Full point group                 C1      NOp   1
 Rotational constants (GHZ):           5.6568042           0.7285499           0.6454245
 General basis read from cards:  (5D, 7F)
 ======================================================================================================
                                       Pseudopotential Parameters
 ======================================================================================================
  Center     Atomic      Valence      Angular      Power
  Number     Number     Electrons     Momentum     of R      Exponent        Coefficient   SO-Coeffient
 ======================================================================================================
    1          6
                                   No pseudopotential on this center.
    2          6
                                   No pseudopotential on this center.
    3          6
                                   No pseudopotential on this center.
    4          6
                                   No pseudopotential on this center.
    5          1
                                   No pseudopotential on this center.
    6          6
                                   No pseudopotential on this center.
    7          1
                                   No pseudopotential on this center.
    8          6
                                   No pseudopotential on this center.
    9          1
                                   No pseudopotential on this center.
   10          1
                                   No pseudopotential on this center.
   11         53            7
                                      G and up 
                                                     2        1.0000000        0.00000000    0.00000000
                                      S - G
                                                     2        3.5112000       83.11386300    0.00000000
                                                     2        1.7556000        5.20187600    0.00000000
                                      P - G
                                                     2        2.9688000       82.81110900    0.00000000
                                                     2        1.4844000        3.37968200    0.00000000
                                      D - G
                                                     2        1.9066000       10.30427700    0.00000000
                                                     2        0.9533000        7.58803200    0.00000000
                                      F - G
                                                     2        2.3075000      -21.47793600    0.00000000
   12          1
                                   No pseudopotential on this center.
 ======================================================================================================
   129 basis functions,   231 primitive gaussians,   135 cartesian basis functions
    24 alpha electrons       24 beta electrons
       nuclear repulsion energy       237.4289930961 Hartrees.
 NAtoms=   12 NActive=   12 NUniq=   12 SFac= 1.00D+00 NAtFMM=   60 NAOKFM=F Big=F
 Integral buffers will be    131072 words long.
 Raffenetti 2 integral format.
 Two-electron integral symmetry is turned off.
 Nuclear repulsion after empirical dispersion term =      237.4209863992 Hartrees.
 One-electron integrals computed using PRISM.
   1 Symmetry operations used in ECPInt.
 ECPInt:  NShTT=    1035 NPrTT=    5280 LenC2=    1036 LenP2D=    4195.
 LDataN:  DoStor=T MaxTD1= 6 Len=  172
 NBasis=   129 RedAO= T EigKep=  5.65D-06  NBF=   129
 NBsUse=   129 1.00D-06 EigRej= -1.00D+00 NBFU=   129
 Defaulting to unpruned grid for atomic number  53.
 ExpMin= 3.26D-02 ExpMax= 3.05D+03 ExpMxC= 4.57D+02 IAcc=3 IRadAn=         5 AccDes= 0.00D+00
 Harris functional with IExCor=  402 and IRadAn=       5 diagonalized for initial guess.
 HarFok:  IExCor=  402 AccDes= 0.00D+00 IRadAn=         5 IDoV= 1 UseB2=F ITyADJ=14
 ICtDFT=  3500011 ScaDFX=  1.000000  1.000000  1.000000  1.000000
 Defaulting to unpruned grid for atomic number  53.
 FoFCou: FMM=F IPFlag=           0 FMFlag=      100000 FMFlg1=           0
         NFxFlg=           0 DoJE=T BraDBF=F KetDBF=T FulRan=T
         wScrn=  0.000000 ICntrl=       500 IOpCl=  0 I1Cent=   200000004 NGrid=           0
         NMat0=    1 NMatS0=      1 NMatT0=    0 NMatD0=    1 NMtDS0=    0 NMtDT0=    0
 Symmetry not used in FoFCou.
 Keep R1 ints in memory in canonical form, NReq=65875266.
 Requested convergence on RMS density matrix=1.00D-08 within1000 cycles.
 Requested convergence on MAX density matrix=1.00D-06.
 Requested convergence on             energy=1.00D-06.
 No special actions if energy rises.
 Defaulting to unpruned grid for atomic number  53.
 Defaulting to unpruned grid for atomic number  53.
 Defaulting to unpruned grid for atomic number  53.
 Defaulting to unpruned grid for atomic number  53.
 Defaulting to unpruned grid for atomic number  53.
 Defaulting to unpruned grid for atomic number  53.
 Defaulting to unpruned grid for atomic number  53.
 Defaulting to unpruned grid for atomic number  53.
 Defaulting to unpruned grid for atomic number  53.
 Defaulting to unpruned grid for atomic number  53.
 Defaulting to unpruned grid for atomic number  53.
 Defaulting to unpruned grid for atomic number  53.
 Defaulting to unpruned grid for atomic number  53.
 Defaulting to unpruned grid for atomic number  53.
 Defaulting to unpruned grid for atomic number  53.
 Defaulting to unpruned grid for atomic number  53.
 Defaulting to unpruned grid for atomic number  53.
 Defaulting to unpruned grid for atomic number  53.
 Defaulting to unpruned grid for atomic number  53.
 Defaulting to unpruned grid for atomic number  53.
 Defaulting to unpruned grid for atomic number  53.
 Defaulting to unpruned grid for atomic number  53.
 Defaulting to unpruned grid for atomic number  53.
 Defaulting to unpruned grid for atomic number  53.
 Defaulting to unpruned grid for atomic number  53.
 Defaulting to unpruned grid for atomic number  53.
 Defaulting to unpruned grid for atomic number  53.
 Defaulting to unpruned grid for atomic number  53.
 Defaulting to unpruned grid for atomic number  53.
 Defaulting to unpruned grid for atomic number  53.
 Defaulting to unpruned grid for atomic number  53.
 Defaulting to unpruned grid for atomic number  53.
 SCF Done:  E(RB3LYP) =  -243.071199052     A.U. after   14 cycles
            NFock= 14  Conv=0.52D-08     -V/T= 2.0412

 **********************************************************************

            Population analysis using the SCF Density.

 **********************************************************************

 Alpha  occ. eigenvalues --  -10.24917 -10.21055 -10.21054 -10.20793 -10.20788
 Alpha  occ. eigenvalues --  -10.20511  -0.87645  -0.77636  -0.76705  -0.69273
 Alpha  occ. eigenvalues --   -0.62603  -0.60523  -0.53057  -0.47089  -0.47048
 Alpha  occ. eigenvalues --   -0.44290  -0.41722  -0.39058  -0.36874  -0.34524
 Alpha  occ. eigenvalues --   -0.30089  -0.27214  -0.27138  -0.24649
 Alpha virt. eigenvalues --   -0.04577  -0.02914  -0.02899   0.00624   0.01992
 Alpha virt. eigenvalues --    0.02115   0.04236   0.04530   0.04585   0.06023
 Alpha virt. eigenvalues --    0.06790   0.07370   0.07640   0.08614   0.11134
 Alpha virt. eigenvalues --    0.11343   0.11774   0.11919   0.13310   0.13622
 Alpha virt. eigenvalues --    0.14812   0.15473   0.16146   0.17774   0.18850
 Alpha virt. eigenvalues --    0.19463   0.19631   0.20533   0.21069   0.22647
 Alpha virt. eigenvalues --    0.23676   0.23895   0.26206   0.26439   0.27788
 Alpha virt. eigenvalues --    0.30734   0.32381   0.32523   0.33582   0.33753
 Alpha virt. eigenvalues --    0.53831   0.54220   0.58012   0.61983   0.65464
 Alpha virt. eigenvalues --    0.65564   0.70284   0.70464   0.71408   0.71533
 Alpha virt. eigenvalues --    0.72697   0.73337   0.75238   0.76238   0.76732
 Alpha virt. eigenvalues --    0.82875   0.83586   0.86112   0.90367   0.92624
 Alpha virt. eigenvalues --    0.94813   0.95690   1.01573   1.04977   1.07661
 Alpha virt. eigenvalues --    1.09695   1.14774   1.16093   1.19833   1.23159
 Alpha virt. eigenvalues --    1.24401   1.31249   1.37945   1.42504   1.44679
 Alpha virt. eigenvalues --    1.45547   1.46363   1.48893   1.48926   1.69820
 Alpha virt. eigenvalues --    1.76954   1.81039   1.91693   1.97425   2.01172
 Alpha virt. eigenvalues --    2.08753   2.08761   2.13067   2.13433   2.14877
 Alpha virt. eigenvalues --    2.14886   2.28252   2.28318   2.30331   2.52019
 Alpha virt. eigenvalues --    2.56167   2.62433   2.64164   2.67816   2.72066
 Alpha virt. eigenvalues --    2.72586   2.84033   3.00839   3.35368  14.99113
          Condensed to atoms (all electrons):
               1          2          3          4          5          6
     1  C    6.782240   0.134800   0.134372  -0.322202   0.007579  -0.322121
     2  C    0.134800   6.343658  -0.814363   0.545721   0.257727  -0.093138
     3  C    0.134372  -0.814363   6.344123  -0.093241   0.044548   0.545616
     4  C   -0.322202   0.545721  -0.093241   5.390380  -0.008619  -0.273086
     5  H    0.007579   0.257727   0.044548  -0.008619   0.510661  -0.010685
     6  C   -0.322121  -0.093138   0.545616  -0.273086  -0.010685   5.390303
     7  H    0.007638   0.044538   0.257712  -0.010682  -0.000148  -0.008647
     8  C   -0.460016  -0.117738  -0.117694   0.578408   0.012361   0.578427
     9  H    0.026577  -0.037474  -0.013176   0.307883  -0.005674   0.017505
    10  H    0.026580  -0.013178  -0.037469   0.017504   0.000012   0.307873
    11  I   -0.630203   0.207868   0.207740   0.100165  -0.004227   0.100118
    12  H   -0.005243   0.011631   0.011628  -0.000593  -0.000139  -0.000593
               7          8          9         10         11         12
     1  C    0.007638  -0.460016   0.026577   0.026580  -0.630203  -0.005243
     2  C    0.044538  -0.117738  -0.037474  -0.013178   0.207868   0.011631
     3  C    0.257712  -0.117694  -0.013176  -0.037469   0.207740   0.011628
     4  C   -0.010682   0.578408   0.307883   0.017504   0.100165  -0.000593
     5  H   -0.000148   0.012361  -0.005674   0.000012  -0.004227  -0.000139
     6  C   -0.008647   0.578427   0.017505   0.307873   0.100118  -0.000593
     7  H    0.510665   0.012351   0.000012  -0.005675  -0.004227  -0.000139
     8  C    0.012351   5.434630  -0.006737  -0.006734   0.047709   0.277376
     9  H    0.000012  -0.006737   0.531743  -0.000156  -0.000607  -0.005166
    10  H   -0.005675  -0.006734  -0.000156   0.531744  -0.000607  -0.005165
    11  I   -0.004227   0.047709  -0.000607  -0.000607   6.908319   0.000130
    12  H   -0.000139   0.277376  -0.005166  -0.005165   0.000130   0.532444
 Mulliken charges:
               1
     1  C    0.620000
     2  C   -0.470051
     3  C   -0.469797
     4  C   -0.231637
     5  H    0.196604
     6  C   -0.231573
     7  H    0.196601
     8  C   -0.232343
     9  H    0.185272
    10  H    0.185272
    11  I    0.067822
    12  H    0.183830
 Sum of Mulliken charges =   0.00000
 Mulliken charges with hydrogens summed into heavy atoms:
               1
     1  C    0.620000
     2  C   -0.273447
     3  C   -0.273196
     4  C   -0.046366
     6  C   -0.046301
     8  C   -0.048513
    11  I    0.067822
 Electronic spatial extent (au):  <R**2>=            797.0348
 Charge=              0.0000 electrons
 Dipole moment (field-independent basis, Debye):
    X=              1.8311    Y=              0.0350    Z=              0.0002  Tot=              1.8314
 Quadrupole moment (field-independent basis, Debye-Ang):
   XX=            -52.8063   YY=            -50.8582   ZZ=            -60.2781
   XY=              0.0119   XZ=              0.0005   YZ=              0.0009
 Traceless Quadrupole moment (field-independent basis, Debye-Ang):
   XX=              1.8412   YY=              3.7893   ZZ=             -5.6306
   XY=              0.0119   XZ=              0.0005   YZ=              0.0009
 Octapole moment (field-independent basis, Debye-Ang**2):
  XXX=             63.3707  YYY=             -2.6319  ZZZ=              0.0193  XYY=             25.7651
  XXY=             -1.1929  XXZ=              0.0067  XZZ=             17.2602  YZZ=             -1.2930
  YYZ=              0.0064  XYZ=              0.0008
 Hexadecapole moment (field-independent basis, Debye-Ang**3):
 XXXX=          -1223.9652 YYYY=           -309.9394 ZZZZ=            -89.2905 XXXY=             -5.9089
 XXXZ=             -0.0428 YYYX=             -7.7849 YYYZ=             -0.0074 ZZZX=             -0.0606
 ZZZY=             -0.0139 XXYY=           -275.2350 XXZZ=           -256.8874 YYZZ=            -78.2947
 XXYZ=             -0.0016 YYXZ=             -0.0184 ZZXY=             -2.9509
 N-N= 2.374209863992D+02 E-N=-1.032793792752D+03  KE= 2.334536862315D+02
 Evaluate density.
 Using the total density.
 Monte-Carlo method of calculating molar volume:
 based on  0.001 e/bohr**3 density envelope.
 Number of points per bohr**3 =   20 CutOff= 1.00D-04
 Using the SCF density.
 There are       483 points.  Will hold       483 in memory.
 LenV=  8052978978 MDV=  8053063680.
 Box volume =14152.877 fraction occupied=0.079
 Integrated density= 4.9211764056035392D+01 error= 1.2117640560353919D+00
 Molar volume = 1113.477 bohr**3/mol ( 99.365 cm**3/mol)
 Recommended a0 for SCRF calculation =  4.24 angstrom (  8.02 bohr)
   1 Symmetry operations used in ECPInt.
 ECPInt:  NShTT=    1035 NPrTT=    5280 LenC2=    1036 LenP2D=    4195.
 LDataN:  DoStor=T MaxTD1= 7 Len=  274
 Calling FoFJK, ICntrl=      2127 FMM=F ISym2X=0 I1Cent= 0 IOpClX= 0 NMat=1 NMatS=1 NMatT=0.
 Defaulting to unpruned grid for atomic number  53.
 Defaulting to unpruned grid for atomic number  53.
 Defaulting to unpruned grid for atomic number  53.
 Defaulting to unpruned grid for atomic number  53.
 Defaulting to unpruned grid for atomic number  53.
 Defaulting to unpruned grid for atomic number  53.
 Defaulting to unpruned grid for atomic number  53.
 Defaulting to unpruned grid for atomic number  53.
 Defaulting to unpruned grid for atomic number  53.
 Defaulting to unpruned grid for atomic number  53.
 Defaulting to unpruned grid for atomic number  53.
 Defaulting to unpruned grid for atomic number  53.
 Defaulting to unpruned grid for atomic number  53.
 Defaulting to unpruned grid for atomic number  53.
 Defaulting to unpruned grid for atomic number  53.
 Defaulting to unpruned grid for atomic number  53.
 Defaulting to unpruned grid for atomic number  53.
 Defaulting to unpruned grid for atomic number  53.
 Defaulting to unpruned grid for atomic number  53.
 Defaulting to unpruned grid for atomic number  53.
 Defaulting to unpruned grid for atomic number  53.
 Defaulting to unpruned grid for atomic number  53.
 Defaulting to unpruned grid for atomic number  53.
 Defaulting to unpruned grid for atomic number  53.
 Defaulting to unpruned grid for atomic number  53.
 Defaulting to unpruned grid for atomic number  53.
 Defaulting to unpruned grid for atomic number  53.
 Defaulting to unpruned grid for atomic number  53.
 Defaulting to unpruned grid for atomic number  53.
 Defaulting to unpruned grid for atomic number  53.
 Defaulting to unpruned grid for atomic number  53.
 Defaulting to unpruned grid for atomic number  53.
 -------------------------------------------------------------------
 Center     Atomic                   Forces (Hartrees/Bohr)
 Number     Number              X              Y              Z
 -------------------------------------------------------------------
      1        6           0.000123156    0.000041869    0.000000045
      2        6          -0.000175851    0.000002242    0.000000029
      3        6          -0.000108596   -0.000049690    0.000000008
      4        6           0.000036058    0.000014719   -0.000000096
      5        1           0.000004337    0.000005387   -0.000000018
      6        6          -0.000032595   -0.000052041    0.000000071
      7        1          -0.000002987   -0.000001151   -0.000000034
      8        6           0.000066500    0.000040332   -0.000000050
      9        1          -0.000008697    0.000006288    0.000000052
     10        1           0.000002244   -0.000000626   -0.000000027
     11       53           0.000098703   -0.000002036   -0.000000003
     12        1          -0.000002271   -0.000005293    0.000000023
 -------------------------------------------------------------------
 Cartesian Forces:  Max     0.000175851 RMS     0.000048133

 GradGradGradGradGradGradGradGradGradGradGradGradGradGradGradGradGradGrad
 Berny optimization.
 FormGI is forming the generalized inverse of G from B-inverse, IUseBI=4.
 Internal  Forces:  Max     0.000121028 RMS     0.000033250
 Search for a local minimum.
 Step number   1 out of a maximum of   64
 All quantities printed in internal units (Hartrees-Bohrs-Radians)
 Mixed Optimization -- En-DIIS/RFO-DIIS
 Second derivative matrix not updated -- first step.
 ITU=  0
     Eigenvalues ---    0.02106   0.02107   0.02111   0.02112   0.02118
     Eigenvalues ---    0.02120   0.02121   0.02132   0.02137   0.12374
     Eigenvalues ---    0.16000   0.16000   0.16000   0.16000   0.16000
     Eigenvalues ---    0.22000   0.22000   0.23497   0.25000   0.35159
     Eigenvalues ---    0.35159   0.35209   0.35387   0.35387   0.41657
     Eigenvalues ---    0.42014   0.45722   0.45953   0.46128   0.46175
 RFO step:  Lambda=-2.46468780D-07 EMin= 2.10606252D-02
 Linear search not attempted -- first point.
 Iteration  1 RMS(Cart)=  0.00020320 RMS(Int)=  0.00000001
 Iteration  2 RMS(Cart)=  0.00000002 RMS(Int)=  0.00000001
 Variable       Old X    -DE/DX   Delta X   Delta X   Delta X     New X
                                 (Linear)    (Quad)   (Total)
    R1        2.63878  -0.00007   0.00000  -0.00016  -0.00016   2.63861
    R2        2.63861  -0.00003   0.00000  -0.00008  -0.00008   2.63853
    R3        4.06579  -0.00010   0.00000  -0.00080  -0.00080   4.06499
    R4        2.64437   0.00005   0.00000   0.00011   0.00011   2.64448
    R5        2.05051   0.00000   0.00000   0.00001   0.00001   2.05052
    R6        2.64454   0.00001   0.00000   0.00002   0.00002   2.64457
    R7        2.05051   0.00000   0.00000   0.00001   0.00001   2.05052
    R8        2.64118   0.00005   0.00000   0.00012   0.00012   2.64130
    R9        2.05418   0.00000   0.00000   0.00000   0.00000   2.05418
   R10        2.64101   0.00009   0.00000   0.00020   0.00020   2.64122
   R11        2.05418   0.00000   0.00000   0.00000   0.00000   2.05418
   R12        2.05336   0.00000   0.00000  -0.00001  -0.00001   2.05336
    A1        2.11661   0.00012   0.00000   0.00046   0.00046   2.11707
    A2        2.08322  -0.00005   0.00000  -0.00020  -0.00020   2.08301
    A3        2.08336  -0.00007   0.00000  -0.00026  -0.00026   2.08311
    A4        2.07743  -0.00005   0.00000  -0.00024  -0.00024   2.07719
    A5        2.10686   0.00003   0.00000   0.00016   0.00016   2.10702
    A6        2.09889   0.00002   0.00000   0.00008   0.00008   2.09897
    A7        2.07744  -0.00005   0.00000  -0.00025  -0.00025   2.07719
    A8        2.10696   0.00002   0.00000   0.00011   0.00011   2.10707
    A9        2.09879   0.00003   0.00000   0.00014   0.00014   2.09893
   A10        2.10256  -0.00001   0.00000  -0.00001  -0.00001   2.10256
   A11        2.08192  -0.00001   0.00000  -0.00006  -0.00006   2.08186
   A12        2.09870   0.00001   0.00000   0.00007   0.00007   2.09877
   A13        2.10256  -0.00001   0.00000   0.00000   0.00000   2.10256
   A14        2.08178   0.00000   0.00000   0.00001   0.00001   2.08179
   A15        2.09885   0.00000   0.00000  -0.00001  -0.00001   2.09884
   A16        2.08978   0.00000   0.00000   0.00003   0.00003   2.08981
   A17        2.09664   0.00001   0.00000   0.00002   0.00002   2.09666
   A18        2.09677   0.00000   0.00000  -0.00005  -0.00005   2.09672
    D1        0.00000   0.00000   0.00000   0.00000   0.00000   0.00000
    D2       -3.14159   0.00000   0.00000   0.00000   0.00000   3.14159
    D3        3.14159   0.00000   0.00000   0.00000   0.00000  -3.14159
    D4        0.00000   0.00000   0.00000   0.00000   0.00000   0.00000
    D5        0.00000   0.00000   0.00000   0.00000   0.00000   0.00000
    D6        3.14159   0.00000   0.00000   0.00000   0.00000  -3.14159
    D7       -3.14159   0.00000   0.00000   0.00000   0.00000   3.14159
    D8        0.00000   0.00000   0.00000   0.00000   0.00000   0.00000
    D9        0.00000   0.00000   0.00000   0.00000   0.00000   0.00000
   D10        3.14159   0.00000   0.00000   0.00000   0.00000   3.14159
   D11        3.14159   0.00000   0.00000   0.00000   0.00000   3.14159
   D12        0.00000   0.00000   0.00000   0.00000   0.00000   0.00000
   D13        0.00000   0.00000   0.00000   0.00000   0.00000   0.00000
   D14        3.14159   0.00000   0.00000   0.00000   0.00000   3.14159
   D15       -3.14159   0.00000   0.00000   0.00000   0.00000   3.14159
   D16        0.00000   0.00000   0.00000   0.00000   0.00000   0.00000
   D17        0.00000   0.00000   0.00000   0.00000   0.00000   0.00000
   D18        3.14159   0.00000   0.00000   0.00000   0.00000  -3.14159
   D19       -3.14159   0.00000   0.00000   0.00000   0.00000   3.14159
   D20        0.00000   0.00000   0.00000   0.00000   0.00000   0.00000
   D21        0.00000   0.00000   0.00000   0.00000   0.00000   0.00000
   D22       -3.14159   0.00000   0.00000   0.00000   0.00000  -3.14159
   D23       -3.14159   0.00000   0.00000   0.00000   0.00000  -3.14159
   D24        0.00000   0.00000   0.00000   0.00000   0.00000   0.00000
         Item               Value     Threshold  Converged?
 Maximum Force            0.000121     0.000450     YES
 RMS     Force            0.000033     0.000300     YES
 Maximum Displacement     0.001213     0.001800     YES
 RMS     Displacement     0.000203     0.001200     YES
 Predicted change in Energy=-1.232351D-07
 Optimization completed.
    -- Stationary point found.
                           ----------------------------
                           !   Optimized Parameters   !
                           ! (Angstroms and Degrees)  !
 --------------------------                            --------------------------
 ! Name  Definition              Value          Derivative Info.                !
 --------------------------------------------------------------------------------
 ! R1    R(1,2)                  1.3964         -DE/DX =   -0.0001              !
 ! R2    R(1,3)                  1.3963         -DE/DX =    0.0                 !
 ! R3    R(1,11)                 2.1515         -DE/DX =   -0.0001              !
 ! R4    R(2,4)                  1.3993         -DE/DX =    0.0001              !
 ! R5    R(2,5)                  1.0851         -DE/DX =    0.0                 !
 ! R6    R(3,6)                  1.3994         -DE/DX =    0.0                 !
 ! R7    R(3,7)                  1.0851         -DE/DX =    0.0                 !
 ! R8    R(4,8)                  1.3977         -DE/DX =    0.0001              !
 ! R9    R(4,9)                  1.087          -DE/DX =    0.0                 !
 ! R10   R(6,8)                  1.3976         -DE/DX =    0.0001              !
 ! R11   R(6,10)                 1.087          -DE/DX =    0.0                 !
 ! R12   R(8,12)                 1.0866         -DE/DX =    0.0                 !
 ! A1    A(2,1,3)              121.2726         -DE/DX =    0.0001              !
 ! A2    A(2,1,11)             119.3595         -DE/DX =   -0.0001              !
 ! A3    A(3,1,11)             119.3678         -DE/DX =   -0.0001              !
 ! A4    A(1,2,4)              119.028          -DE/DX =   -0.0001              !
 ! A5    A(1,2,5)              120.7142         -DE/DX =    0.0                 !
 ! A6    A(4,2,5)              120.2578         -DE/DX =    0.0                 !
 ! A7    A(1,3,6)              119.0283         -DE/DX =   -0.0001              !
 ! A8    A(1,3,7)              120.7198         -DE/DX =    0.0                 !
 ! A9    A(6,3,7)              120.2518         -DE/DX =    0.0                 !
 ! A10   A(2,4,8)              120.468          -DE/DX =    0.0                 !
 ! A11   A(2,4,9)              119.2853         -DE/DX =    0.0                 !
 ! A12   A(8,4,9)              120.2467         -DE/DX =    0.0                 !
 ! A13   A(3,6,8)              120.4676         -DE/DX =    0.0                 !
 ! A14   A(3,6,10)             119.2772         -DE/DX =    0.0                 !
 ! A15   A(8,6,10)             120.2552         -DE/DX =    0.0                 !
 ! A16   A(4,8,6)              119.7354         -DE/DX =    0.0                 !
 ! A17   A(4,8,12)             120.1286         -DE/DX =    0.0                 !
 ! A18   A(6,8,12)             120.1359         -DE/DX =    0.0                 !
 ! D1    D(3,1,2,4)              0.0            -DE/DX =    0.0                 !
 ! D2    D(3,1,2,5)            180.0            -DE/DX =    0.0                 !
 ! D3    D(11,1,2,4)          -180.0            -DE/DX =    0.0                 !
 ! D4    D(11,1,2,5)             0.0            -DE/DX =    0.0                 !
 ! D5    D(2,1,3,6)              0.0            -DE/DX =    0.0                 !
 ! D6    D(2,1,3,7)           -180.0001         -DE/DX =    0.0                 !
 ! D7    D(11,1,3,6)           180.0            -DE/DX =    0.0                 !
 ! D8    D(11,1,3,7)             0.0            -DE/DX =    0.0                 !
 ! D9    D(1,2,4,8)              0.0            -DE/DX =    0.0                 !
 ! D10   D(1,2,4,9)            179.9999         -DE/DX =    0.0                 !
 ! D11   D(5,2,4,8)            180.0            -DE/DX =    0.0                 !
 ! D12   D(5,2,4,9)             -0.0001         -DE/DX =    0.0                 !
 ! D13   D(1,3,6,8)              0.0            -DE/DX =    0.0                 !
 ! D14   D(1,3,6,10)           180.0            -DE/DX =    0.0                 !
 ! D15   D(7,3,6,8)            180.0001         -DE/DX =    0.0                 !
 ! D16   D(7,3,6,10)             0.0            -DE/DX =    0.0                 !
 ! D17   D(2,4,8,6)              0.0            -DE/DX =    0.0                 !
 ! D18   D(2,4,8,12)          -180.0            -DE/DX =    0.0                 !
 ! D19   D(9,4,8,6)            180.0001         -DE/DX =    0.0                 !
 ! D20   D(9,4,8,12)             0.0            -DE/DX =    0.0                 !
 ! D21   D(3,6,8,4)              0.0            -DE/DX =    0.0                 !
 ! D22   D(3,6,8,12)          -180.0            -DE/DX =    0.0                 !
 ! D23   D(10,6,8,4)          -180.0            -DE/DX =    0.0                 !
 ! D24   D(10,6,8,12)            0.0001         -DE/DX =    0.0                 !
 --------------------------------------------------------------------------------
 GradGradGradGradGradGradGradGradGradGradGradGradGradGradGradGradGradGrad

                          Input orientation:                          
 ---------------------------------------------------------------------
 Center     Atomic      Atomic             Coordinates (Angstroms)
 Number     Number       Type             X           Y           Z
 ---------------------------------------------------------------------
      1          6           0       -0.455257    0.018145   -0.000121
      2          6           0        0.206030    1.248014    0.000047
      3          6           0        0.252595   -1.185424   -0.000175
      4          6           0        1.605246    1.266614    0.000163
      5          1           0       -0.353144    2.177923    0.000088
      6          6           0        1.651589   -1.150436   -0.000058
      7          1           0       -0.270467   -2.136115   -0.000305
      8          6           0        2.329886    0.071487    0.000111
      9          1           0        2.124324    2.221696    0.000293
     10          1           0        2.206722   -2.085021   -0.000099
     11         53           0       -2.606387   -0.022900   -0.000299
     12          1           0        3.416279    0.092366    0.000201
 ---------------------------------------------------------------------
                    Distance matrix (angstroms):
                    1          2          3          4          5
     1  C    0.000000
     2  C    1.396380   0.000000
     3  C    1.396293   2.433883   0.000000
     4  C    2.409221   1.399340   2.800385   0.000000
     5  H    2.162191   1.085084   3.417459   2.160041   0.000000
     6  C    2.409228   2.800393   1.399431   2.417494   3.885477
     7  H    2.162171   3.417511   1.085084   3.885468   4.314830
     8  C    2.785654   2.427958   2.427955   1.397652   3.411118
     9  H    3.392621   2.151257   3.887395   1.087025   2.477855
    10  H    3.392556   3.887402   2.151252   3.405177   4.972485
    11  I    2.151522   3.086246   3.086299   4.404622   3.149718
    12  H    3.872247   3.411923   3.411985   2.158402   4.307911
                    6          7          8          9         10
     6  C    0.000000
     7  H    2.160061   0.000000
     8  C    1.397563   3.411062   0.000000
     9  H    3.405107   4.972478   2.160013   0.000000
    10  H    1.087024   2.477716   2.160022   4.307505   0.000000
    11  I    4.404736   3.149952   4.937175   5.236205   5.236255
    12  H    2.158399   4.307926   1.086594   2.490621   2.490792
                   11         12
    11  I    0.000000
    12  H    6.023769   0.000000
 Symmetry turned off by external request.
 Stoichiometry    C6H5I
 Framework group  C1[X(C6H5I)]
 Deg. of freedom    30
 Full point group                 C1      NOp   1
 Rotational constants (GHZ):           5.6568042           0.7285499           0.6454245
 1\1\GINC-IP-172-31-38-84\FOpt\RB3LYP\Gen\C6H5I1\UBUNTU\13-Sep-2023\0\\
 # opt freq rb3lyp/gen nosymm empiricaldispersion=gd3 pseudo=read scf=m
 axcycle=1000 volume\\reac1\\0,1\C,-0.455257,0.018145,-0.000121\C,0.206
 03,1.248014,0.000047\C,0.252595,-1.185424,-0.000175\C,1.605246,1.26661
 4,0.000163\H,-0.353144,2.177923,0.000088\C,1.651589,-1.150436,-0.00005
 8\H,-0.270467,-2.136115,-0.000305\C,2.329886,0.071487,0.000111\H,2.124
 324,2.221696,0.000293\H,2.206722,-2.085021,-0.000099\I,-2.606387,-0.02
 29,-0.000299\H,3.416279,0.092366,0.000201\\Version=EM64L-G16RevB.01\HF
 =-243.0711991\RMSD=5.173e-09\RMSF=4.813e-05\Dipole=0.7204024,0.013773,
 0.00006\Quadrupole=1.3689197,2.8172819,-4.1862016,0.0088622,0.0003347,
 0.0006459\PG=C01 [X(C6H5I1)]\\@


 ALTHOUGH J.J. COULD DIAGNOSE THE FAULTS OF AN
 APPARATUS WITH UNCANNY ACCURACY, IT WAS JUST AS
 WELL NOT TO LET HIM HANDLE IT.
   -- GEORGE THOMPSON, ABOUT HIS FATHER
 Job cpu time:       0 days  0 hours  3 minutes 32.8 seconds.
 Elapsed time:       0 days  0 hours  0 minutes  6.7 seconds.
 File lengths (MBytes):  RWF=     10 Int=      0 D2E=      0 Chk=      2 Scr=      1
 Normal termination of Gaussian 16 at Wed Sep 13 08:20:41 2023.
 Link1:  Proceeding to internal job step number  2.
 ------------------------------------------------------------------
 #N Geom=AllCheck Guess=TCheck SCRF=Check GenChk RB3LYP/ChkBas Freq
 ------------------------------------------------------------------
 1/10=4,29=7,30=1,38=1,40=1/1,3;
 2/12=2,15=1,40=1/2;
 3/5=7,6=2,11=2,14=-4,16=1,17=8,25=1,30=1,67=1,70=2,71=2,74=-5,82=7,116=1,124=31,140=1/1,2,3;
 4/5=101/1;
 5/5=2,7=1000,38=6,98=1/2;
 8/6=4,10=90,11=11/1;
 11/6=1,8=1,9=11,15=111,16=1,31=1/1,2,10;
 10/6=1,31=1/2;
 6/7=2,8=2,9=2,10=2,28=1/1;
 7/8=1,10=1,25=1,30=1/1,2,3,16;
 1/10=4,30=1/3;
 99//99;
 Structure from the checkpoint file:  "h-gen-volume.chk"
 -----
 reac1
 -----
 Charge =  0 Multiplicity = 1
 Redundant internal coordinates found in file.  (old form).
 C,0,-0.455257,0.018145,-0.000121
 C,0,0.20603,1.248014,0.000047
 C,0,0.252595,-1.185424,-0.000175
 C,0,1.605246,1.266614,0.000163
 H,0,-0.353144,2.177923,0.000088
 C,0,1.651589,-1.150436,-0.000058
 H,0,-0.270467,-2.136115,-0.000305
 C,0,2.329886,0.071487,0.000111
 H,0,2.124324,2.221696,0.000293
 H,0,2.206722,-2.085021,-0.000099
 I,0,-2.606387,-0.0229,-0.000299
 H,0,3.416279,0.092366,0.000201
 Recover connectivity data from disk.

 GradGradGradGradGradGradGradGradGradGradGradGradGradGradGradGradGradGrad
 Berny optimization.
 Initialization pass.
                           ----------------------------
                           !    Initial Parameters    !
                           ! (Angstroms and Degrees)  !
 --------------------------                            --------------------------
 ! Name  Definition              Value          Derivative Info.                !
 --------------------------------------------------------------------------------
 ! R1    R(1,2)                  1.3964         calculate D2E/DX2 analytically  !
 ! R2    R(1,3)                  1.3963         calculate D2E/DX2 analytically  !
 ! R3    R(1,11)                 2.1515         calculate D2E/DX2 analytically  !
 ! R4    R(2,4)                  1.3993         calculate D2E/DX2 analytically  !
 ! R5    R(2,5)                  1.0851         calculate D2E/DX2 analytically  !
 ! R6    R(3,6)                  1.3994         calculate D2E/DX2 analytically  !
 ! R7    R(3,7)                  1.0851         calculate D2E/DX2 analytically  !
 ! R8    R(4,8)                  1.3977         calculate D2E/DX2 analytically  !
 ! R9    R(4,9)                  1.087          calculate D2E/DX2 analytically  !
 ! R10   R(6,8)                  1.3976         calculate D2E/DX2 analytically  !
 ! R11   R(6,10)                 1.087          calculate D2E/DX2 analytically  !
 ! R12   R(8,12)                 1.0866         calculate D2E/DX2 analytically  !
 ! A1    A(2,1,3)              121.2726         calculate D2E/DX2 analytically  !
 ! A2    A(2,1,11)             119.3595         calculate D2E/DX2 analytically  !
 ! A3    A(3,1,11)             119.3678         calculate D2E/DX2 analytically  !
 ! A4    A(1,2,4)              119.028          calculate D2E/DX2 analytically  !
 ! A5    A(1,2,5)              120.7142         calculate D2E/DX2 analytically  !
 ! A6    A(4,2,5)              120.2578         calculate D2E/DX2 analytically  !
 ! A7    A(1,3,6)              119.0283         calculate D2E/DX2 analytically  !
 ! A8    A(1,3,7)              120.7198         calculate D2E/DX2 analytically  !
 ! A9    A(6,3,7)              120.2518         calculate D2E/DX2 analytically  !
 ! A10   A(2,4,8)              120.468          calculate D2E/DX2 analytically  !
 ! A11   A(2,4,9)              119.2853         calculate D2E/DX2 analytically  !
 ! A12   A(8,4,9)              120.2467         calculate D2E/DX2 analytically  !
 ! A13   A(3,6,8)              120.4676         calculate D2E/DX2 analytically  !
 ! A14   A(3,6,10)             119.2772         calculate D2E/DX2 analytically  !
 ! A15   A(8,6,10)             120.2552         calculate D2E/DX2 analytically  !
 ! A16   A(4,8,6)              119.7354         calculate D2E/DX2 analytically  !
 ! A17   A(4,8,12)             120.1286         calculate D2E/DX2 analytically  !
 ! A18   A(6,8,12)             120.1359         calculate D2E/DX2 analytically  !
 ! D1    D(3,1,2,4)              0.0            calculate D2E/DX2 analytically  !
 ! D2    D(3,1,2,5)           -180.0            calculate D2E/DX2 analytically  !
 ! D3    D(11,1,2,4)           180.0            calculate D2E/DX2 analytically  !
 ! D4    D(11,1,2,5)             0.0            calculate D2E/DX2 analytically  !
 ! D5    D(2,1,3,6)              0.0            calculate D2E/DX2 analytically  !
 ! D6    D(2,1,3,7)            179.9999         calculate D2E/DX2 analytically  !
 ! D7    D(11,1,3,6)          -180.0            calculate D2E/DX2 analytically  !
 ! D8    D(11,1,3,7)             0.0            calculate D2E/DX2 analytically  !
 ! D9    D(1,2,4,8)              0.0            calculate D2E/DX2 analytically  !
 ! D10   D(1,2,4,9)            179.9999         calculate D2E/DX2 analytically  !
 ! D11   D(5,2,4,8)            180.0            calculate D2E/DX2 analytically  !
 ! D12   D(5,2,4,9)             -0.0001         calculate D2E/DX2 analytically  !
 ! D13   D(1,3,6,8)              0.0            calculate D2E/DX2 analytically  !
 ! D14   D(1,3,6,10)           180.0            calculate D2E/DX2 analytically  !
 ! D15   D(7,3,6,8)           -179.9999         calculate D2E/DX2 analytically  !
 ! D16   D(7,3,6,10)             0.0            calculate D2E/DX2 analytically  !
 ! D17   D(2,4,8,6)              0.0            calculate D2E/DX2 analytically  !
 ! D18   D(2,4,8,12)           180.0            calculate D2E/DX2 analytically  !
 ! D19   D(9,4,8,6)           -179.9999         calculate D2E/DX2 analytically  !
 ! D20   D(9,4,8,12)             0.0            calculate D2E/DX2 analytically  !
 ! D21   D(3,6,8,4)              0.0            calculate D2E/DX2 analytically  !
 ! D22   D(3,6,8,12)          -180.0            calculate D2E/DX2 analytically  !
 ! D23   D(10,6,8,4)          -180.0            calculate D2E/DX2 analytically  !
 ! D24   D(10,6,8,12)            0.0001         calculate D2E/DX2 analytically  !
 --------------------------------------------------------------------------------
 Trust Radius=3.00D-01 FncErr=1.00D-07 GrdErr=1.00D-07 EigMax=2.50D+02 EigMin=1.00D-04
 Number of steps in this run=      2 maximum allowed number of steps=      2.
 GradGradGradGradGradGradGradGradGradGradGradGradGradGradGradGradGradGrad

                          Input orientation:                          
 ---------------------------------------------------------------------
 Center     Atomic      Atomic             Coordinates (Angstroms)
 Number     Number       Type             X           Y           Z
 ---------------------------------------------------------------------
      1          6           0       -0.455257    0.018145   -0.000121
      2          6           0        0.206030    1.248014    0.000047
      3          6           0        0.252595   -1.185424   -0.000175
      4          6           0        1.605246    1.266614    0.000163
      5          1           0       -0.353144    2.177923    0.000088
      6          6           0        1.651589   -1.150436   -0.000058
      7          1           0       -0.270467   -2.136115   -0.000305
      8          6           0        2.329886    0.071487    0.000111
      9          1           0        2.124324    2.221696    0.000293
     10          1           0        2.206722   -2.085021   -0.000099
     11         53           0       -2.606387   -0.022900   -0.000299
     12          1           0        3.416279    0.092366    0.000201
 ---------------------------------------------------------------------
                    Distance matrix (angstroms):
                    1          2          3          4          5
     1  C    0.000000
     2  C    1.396380   0.000000
     3  C    1.396293   2.433883   0.000000
     4  C    2.409221   1.399340   2.800385   0.000000
     5  H    2.162191   1.085084   3.417459   2.160041   0.000000
     6  C    2.409228   2.800393   1.399431   2.417494   3.885477
     7  H    2.162171   3.417511   1.085084   3.885468   4.314830
     8  C    2.785654   2.427958   2.427955   1.397652   3.411118
     9  H    3.392621   2.151257   3.887395   1.087025   2.477855
    10  H    3.392556   3.887402   2.151252   3.405177   4.972485
    11  I    2.151522   3.086246   3.086299   4.404622   3.149718
    12  H    3.872247   3.411923   3.411985   2.158402   4.307911
                    6          7          8          9         10
     6  C    0.000000
     7  H    2.160061   0.000000
     8  C    1.397563   3.411062   0.000000
     9  H    3.405107   4.972478   2.160013   0.000000
    10  H    1.087024   2.477716   2.160022   4.307505   0.000000
    11  I    4.404736   3.149952   4.937175   5.236205   5.236255
    12  H    2.158399   4.307926   1.086594   2.490621   2.490792
                   11         12
    11  I    0.000000
    12  H    6.023769   0.000000
 Symmetry turned off by external request.
 Stoichiometry    C6H5I
 Framework group  C1[X(C6H5I)]
 Deg. of freedom    30
 Full point group                 C1      NOp   1
 Rotational constants (GHZ):           5.6568042           0.7285499           0.6454245
 Basis read from chk: "h-gen-volume.chk" (5D, 7F)
 Pseudo-potential data read from chk file.
   129 basis functions,   231 primitive gaussians,   135 cartesian basis functions
    24 alpha electrons       24 beta electrons
       nuclear repulsion energy       237.4289930961 Hartrees.
 NAtoms=   12 NActive=   12 NUniq=   12 SFac= 1.00D+00 NAtFMM=   60 NAOKFM=F Big=F
 Integral buffers will be    131072 words long.
 Raffenetti 2 integral format.
 Two-electron integral symmetry is turned off.
 Nuclear repulsion after empirical dispersion term =      237.4209863992 Hartrees.
 One-electron integrals computed using PRISM.
   1 Symmetry operations used in ECPInt.
 ECPInt:  NShTT=    1035 NPrTT=    5280 LenC2=    1036 LenP2D=    4195.
 LDataN:  DoStor=T MaxTD1= 6 Len=  172
 NBasis=   129 RedAO= T EigKep=  5.65D-06  NBF=   129
 NBsUse=   129 1.00D-06 EigRej= -1.00D+00 NBFU=   129
 Defaulting to unpruned grid for atomic number  53.
 Initial guess from the checkpoint file:  "h-gen-volume.chk"
 B after Tr=     0.000000    0.000000    0.000000
         Rot=    1.000000    0.000000    0.000000    0.000000 Ang=   0.00 deg.
 Keep R1 ints in memory in canonical form, NReq=65875266.
 Requested convergence on RMS density matrix=1.00D-08 within1000 cycles.
 Requested convergence on MAX density matrix=1.00D-06.
 Requested convergence on             energy=1.00D-06.
 No special actions if energy rises.
 Defaulting to unpruned grid for atomic number  53.
 Defaulting to unpruned grid for atomic number  53.
 Defaulting to unpruned grid for atomic number  53.
 Defaulting to unpruned grid for atomic number  53.
 Defaulting to unpruned grid for atomic number  53.
 Defaulting to unpruned grid for atomic number  53.
 Defaulting to unpruned grid for atomic number  53.
 Defaulting to unpruned grid for atomic number  53.
 Defaulting to unpruned grid for atomic number  53.
 Defaulting to unpruned grid for atomic number  53.
 Defaulting to unpruned grid for atomic number  53.
 Defaulting to unpruned grid for atomic number  53.
 Defaulting to unpruned grid for atomic number  53.
 Defaulting to unpruned grid for atomic number  53.
 Defaulting to unpruned grid for atomic number  53.
 Defaulting to unpruned grid for atomic number  53.
 Defaulting to unpruned grid for atomic number  53.
 Defaulting to unpruned grid for atomic number  53.
 Defaulting to unpruned grid for atomic number  53.
 Defaulting to unpruned grid for atomic number  53.
 Defaulting to unpruned grid for atomic number  53.
 Defaulting to unpruned grid for atomic number  53.
 Defaulting to unpruned grid for atomic number  53.
 Defaulting to unpruned grid for atomic number  53.
 Defaulting to unpruned grid for atomic number  53.
 Defaulting to unpruned grid for atomic number  53.
 Defaulting to unpruned grid for atomic number  53.
 Defaulting to unpruned grid for atomic number  53.
 Defaulting to unpruned grid for atomic number  53.
 Defaulting to unpruned grid for atomic number  53.
 Defaulting to unpruned grid for atomic number  53.
 Defaulting to unpruned grid for atomic number  53.
 SCF Done:  E(RB3LYP) =  -243.071199052     A.U. after    1 cycles
            NFock=  1  Conv=0.41D-09     -V/T= 2.0412
 DoSCS=F DFT=T ScalE2(SS,OS)=  1.000000  1.000000
 Range of M.O.s used for correlation:     1   129
 NBasis=   129 NAE=    24 NBE=    24 NFC=     0 NFV=     0
 NROrb=    129 NOA=    24 NOB=    24 NVA=   105 NVB=   105

 **** Warning!!: The largest alpha MO coefficient is  0.10952289D+03

   1 Symmetry operations used in ECPInt.
 ECPInt:  NShTT=    1035 NPrTT=    5280 LenC2=    1036 LenP2D=    4195.
 LDataN:  DoStor=T MaxTD1= 7 Len=  274
 Symmetrizing basis deriv contribution to polar:
 IMax=3 JMax=2 DiffMx= 0.00D+00
 G2DrvN: will do    13 centers at a time, making    1 passes.
 Calling FoFCou, ICntrl=  3107 FMM=F I1Cent=   0 AccDes= 0.00D+00.
 Defaulting to unpruned grid for atomic number  53.
 Defaulting to unpruned grid for atomic number  53.
 Defaulting to unpruned grid for atomic number  53.
 Defaulting to unpruned grid for atomic number  53.
 Defaulting to unpruned grid for atomic number  53.
 Defaulting to unpruned grid for atomic number  53.
 Defaulting to unpruned grid for atomic number  53.
 Defaulting to unpruned grid for atomic number  53.
 Defaulting to unpruned grid for atomic number  53.
 Defaulting to unpruned grid for atomic number  53.
 Defaulting to unpruned grid for atomic number  53.
 Defaulting to unpruned grid for atomic number  53.
 Defaulting to unpruned grid for atomic number  53.
 Defaulting to unpruned grid for atomic number  53.
 Defaulting to unpruned grid for atomic number  53.
 Defaulting to unpruned grid for atomic number  53.
 Defaulting to unpruned grid for atomic number  53.
 Defaulting to unpruned grid for atomic number  53.
 Defaulting to unpruned grid for atomic number  53.
 Defaulting to unpruned grid for atomic number  53.
 Defaulting to unpruned grid for atomic number  53.
 Defaulting to unpruned grid for atomic number  53.
 Defaulting to unpruned grid for atomic number  53.
 Defaulting to unpruned grid for atomic number  53.
 Defaulting to unpruned grid for atomic number  53.
 Defaulting to unpruned grid for atomic number  53.
 Defaulting to unpruned grid for atomic number  53.
 Defaulting to unpruned grid for atomic number  53.
 Defaulting to unpruned grid for atomic number  53.
 Defaulting to unpruned grid for atomic number  53.
 Defaulting to unpruned grid for atomic number  53.
 Defaulting to unpruned grid for atomic number  53.
 End of G2Drv F.D. properties file   721 does not exist.
 End of G2Drv F.D. properties file   722 does not exist.
 End of G2Drv F.D. properties file   788 does not exist.
          IDoAtm=111111111111
          Differentiating once with respect to electric field.
                with respect to dipole field.
          Differentiating once with respect to nuclear coordinates.
 Defaulting to unpruned grid for atomic number  53.
 Keep R1 ints in memory in canonical form, NReq=65775105.
 Defaulting to unpruned grid for atomic number  53.
 Defaulting to unpruned grid for atomic number  53.
 Defaulting to unpruned grid for atomic number  53.
 Defaulting to unpruned grid for atomic number  53.
 Defaulting to unpruned grid for atomic number  53.
 Defaulting to unpruned grid for atomic number  53.
 Defaulting to unpruned grid for atomic number  53.
 Defaulting to unpruned grid for atomic number  53.
 Defaulting to unpruned grid for atomic number  53.
 Defaulting to unpruned grid for atomic number  53.
 Defaulting to unpruned grid for atomic number  53.
 Defaulting to unpruned grid for atomic number  53.
 Defaulting to unpruned grid for atomic number  53.
 Defaulting to unpruned grid for atomic number  53.
 Defaulting to unpruned grid for atomic number  53.
 Defaulting to unpruned grid for atomic number  53.
 Defaulting to unpruned grid for atomic number  53.
 Defaulting to unpruned grid for atomic number  53.
 Defaulting to unpruned grid for atomic number  53.
 Defaulting to unpruned grid for atomic number  53.
 Defaulting to unpruned grid for atomic number  53.
 Defaulting to unpruned grid for atomic number  53.
 Defaulting to unpruned grid for atomic number  53.
 Defaulting to unpruned grid for atomic number  53.
 Defaulting to unpruned grid for atomic number  53.
 Defaulting to unpruned grid for atomic number  53.
 Defaulting to unpruned grid for atomic number  53.
 Defaulting to unpruned grid for atomic number  53.
 Defaulting to unpruned grid for atomic number  53.
 Defaulting to unpruned grid for atomic number  53.
 Defaulting to unpruned grid for atomic number  53.
 Defaulting to unpruned grid for atomic number  53.
          There are    39 degrees of freedom in the 1st order CPHF.  IDoFFX=6 NUNeed=     3.
     36 vectors produced by pass  0 Test12= 6.46D-15 2.56D-09 XBig12= 1.63D+02 7.15D+00.
 AX will form    36 AO Fock derivatives at one time.
     36 vectors produced by pass  1 Test12= 6.46D-15 2.56D-09 XBig12= 1.93D+01 1.30D+00.
     36 vectors produced by pass  2 Test12= 6.46D-15 2.56D-09 XBig12= 1.52D-01 9.12D-02.
     36 vectors produced by pass  3 Test12= 6.46D-15 2.56D-09 XBig12= 6.20D-04 5.16D-03.
     36 vectors produced by pass  4 Test12= 6.46D-15 2.56D-09 XBig12= 9.55D-07 2.17D-04.
     32 vectors produced by pass  5 Test12= 6.46D-15 2.56D-09 XBig12= 1.03D-09 8.56D-06.
      4 vectors produced by pass  6 Test12= 6.46D-15 2.56D-09 XBig12= 8.61D-13 2.22D-07.
      3 vectors produced by pass  7 Test12= 6.46D-15 2.56D-09 XBig12= 5.87D-16 4.80D-09.
 InvSVY:  IOpt=1 It=  1 EMax= 1.07D-14
 Solved reduced A of dimension   219 with    39 vectors.
 Isotropic polarizability for W=    0.000000       95.03 Bohr**3.
 End of Minotr F.D. properties file   721 does not exist.
 End of Minotr F.D. properties file   722 does not exist.
 End of Minotr F.D. properties file   788 does not exist.

 **********************************************************************

            Population analysis using the SCF Density.

 **********************************************************************

 Alpha  occ. eigenvalues --  -10.24917 -10.21055 -10.21054 -10.20793 -10.20788
 Alpha  occ. eigenvalues --  -10.20511  -0.87645  -0.77636  -0.76705  -0.69273
 Alpha  occ. eigenvalues --   -0.62603  -0.60523  -0.53057  -0.47089  -0.47048
 Alpha  occ. eigenvalues --   -0.44290  -0.41722  -0.39058  -0.36874  -0.34524
 Alpha  occ. eigenvalues --   -0.30089  -0.27214  -0.27138  -0.24649
 Alpha virt. eigenvalues --   -0.04577  -0.02914  -0.02899   0.00624   0.01992
 Alpha virt. eigenvalues --    0.02115   0.04236   0.04530   0.04585   0.06023
 Alpha virt. eigenvalues --    0.06790   0.07370   0.07640   0.08614   0.11134
 Alpha virt. eigenvalues --    0.11343   0.11774   0.11919   0.13310   0.13622
 Alpha virt. eigenvalues --    0.14812   0.15473   0.16146   0.17774   0.18850
 Alpha virt. eigenvalues --    0.19463   0.19631   0.20533   0.21069   0.22647
 Alpha virt. eigenvalues --    0.23676   0.23895   0.26206   0.26439   0.27788
 Alpha virt. eigenvalues --    0.30734   0.32381   0.32523   0.33582   0.33753
 Alpha virt. eigenvalues --    0.53831   0.54220   0.58012   0.61983   0.65464
 Alpha virt. eigenvalues --    0.65564   0.70284   0.70464   0.71408   0.71533
 Alpha virt. eigenvalues --    0.72697   0.73337   0.75238   0.76238   0.76732
 Alpha virt. eigenvalues --    0.82875   0.83586   0.86112   0.90367   0.92624
 Alpha virt. eigenvalues --    0.94813   0.95690   1.01573   1.04977   1.07661
 Alpha virt. eigenvalues --    1.09695   1.14774   1.16093   1.19833   1.23159
 Alpha virt. eigenvalues --    1.24401   1.31249   1.37945   1.42504   1.44679
 Alpha virt. eigenvalues --    1.45547   1.46363   1.48893   1.48926   1.69820
 Alpha virt. eigenvalues --    1.76954   1.81039   1.91693   1.97425   2.01172
 Alpha virt. eigenvalues --    2.08753   2.08761   2.13067   2.13433   2.14877
 Alpha virt. eigenvalues --    2.14886   2.28252   2.28318   2.30331   2.52019
 Alpha virt. eigenvalues --    2.56167   2.62433   2.64164   2.67816   2.72066
 Alpha virt. eigenvalues --    2.72586   2.84033   3.00839   3.35368  14.99113
          Condensed to atoms (all electrons):
               1          2          3          4          5          6
     1  C    6.782240   0.134800   0.134372  -0.322202   0.007579  -0.322121
     2  C    0.134800   6.343658  -0.814363   0.545721   0.257727  -0.093138
     3  C    0.134372  -0.814363   6.344123  -0.093241   0.044548   0.545616
     4  C   -0.322202   0.545721  -0.093241   5.390380  -0.008619  -0.273086
     5  H    0.007579   0.257727   0.044548  -0.008619   0.510661  -0.010685
     6  C   -0.322121  -0.093138   0.545616  -0.273086  -0.010685   5.390303
     7  H    0.007638   0.044538   0.257712  -0.010682  -0.000148  -0.008647
     8  C   -0.460016  -0.117738  -0.117694   0.578408   0.012361   0.578427
     9  H    0.026577  -0.037474  -0.013176   0.307883  -0.005674   0.017505
    10  H    0.026580  -0.013178  -0.037469   0.017504   0.000012   0.307873
    11  I   -0.630203   0.207868   0.207740   0.100165  -0.004227   0.100118
    12  H   -0.005243   0.011631   0.011628  -0.000593  -0.000139  -0.000593
               7          8          9         10         11         12
     1  C    0.007638  -0.460016   0.026577   0.026580  -0.630203  -0.005243
     2  C    0.044538  -0.117738  -0.037474  -0.013178   0.207868   0.011631
     3  C    0.257712  -0.117694  -0.013176  -0.037469   0.207740   0.011628
     4  C   -0.010682   0.578408   0.307883   0.017504   0.100165  -0.000593
     5  H   -0.000148   0.012361  -0.005674   0.000012  -0.004227  -0.000139
     6  C   -0.008647   0.578427   0.017505   0.307873   0.100118  -0.000593
     7  H    0.510665   0.012351   0.000012  -0.005675  -0.004227  -0.000139
     8  C    0.012351   5.434630  -0.006737  -0.006734   0.047709   0.277376
     9  H    0.000012  -0.006737   0.531743  -0.000156  -0.000607  -0.005166
    10  H   -0.005675  -0.006734  -0.000156   0.531744  -0.000607  -0.005165
    11  I   -0.004227   0.047709  -0.000607  -0.000607   6.908319   0.000130
    12  H   -0.000139   0.277376  -0.005166  -0.005165   0.000130   0.532444
 Mulliken charges:
               1
     1  C    0.620000
     2  C   -0.470051
     3  C   -0.469797
     4  C   -0.231637
     5  H    0.196604
     6  C   -0.231573
     7  H    0.196601
     8  C   -0.232343
     9  H    0.185272
    10  H    0.185272
    11  I    0.067822
    12  H    0.183830
 Sum of Mulliken charges =   0.00000
 Mulliken charges with hydrogens summed into heavy atoms:
               1
     1  C    0.620000
     2  C   -0.273447
     3  C   -0.273196
     4  C   -0.046366
     6  C   -0.046301
     8  C   -0.048513
    11  I    0.067822
 APT charges:
               1
     1  C    0.368425
     2  C   -0.172315
     3  C   -0.172328
     4  C    0.011397
     5  H    0.057075
     6  C    0.011366
     7  H    0.057076
     8  C   -0.047248
     9  H    0.020044
    10  H    0.020047
    11  I   -0.185744
    12  H    0.032208
 Sum of APT charges =   0.00000
 APT charges with hydrogens summed into heavy atoms:
               1
     1  C    0.368425
     2  C   -0.115240
     3  C   -0.115253
     4  C    0.031441
     6  C    0.031412
     8  C   -0.015040
    11  I   -0.185744
 Electronic spatial extent (au):  <R**2>=            797.0348
 Charge=              0.0000 electrons
 Dipole moment (field-independent basis, Debye):
    X=              1.8311    Y=              0.0350    Z=              0.0002  Tot=              1.8314
 Quadrupole moment (field-independent basis, Debye-Ang):
   XX=            -52.8063   YY=            -50.8582   ZZ=            -60.2781
   XY=              0.0119   XZ=              0.0005   YZ=              0.0009
 Traceless Quadrupole moment (field-independent basis, Debye-Ang):
   XX=              1.8412   YY=              3.7893   ZZ=             -5.6306
   XY=              0.0119   XZ=              0.0005   YZ=              0.0009
 Octapole moment (field-independent basis, Debye-Ang**2):
  XXX=             63.3707  YYY=             -2.6319  ZZZ=              0.0193  XYY=             25.7651
  XXY=             -1.1929  XXZ=              0.0067  XZZ=             17.2602  YZZ=             -1.2930
  YYZ=              0.0064  XYZ=              0.0008
 Hexadecapole moment (field-independent basis, Debye-Ang**3):
 XXXX=          -1223.9652 YYYY=           -309.9394 ZZZZ=            -89.2905 XXXY=             -5.9089
 XXXZ=             -0.0428 YYYX=             -7.7849 YYYZ=             -0.0074 ZZZX=             -0.0606
 ZZZY=             -0.0139 XXYY=           -275.2350 XXZZ=           -256.8874 YYZZ=            -78.2947
 XXYZ=             -0.0016 YYXZ=             -0.0184 ZZXY=             -2.9509
 N-N= 2.374209863992D+02 E-N=-1.032793792805D+03  KE= 2.334536862471D+02
  Exact polarizability: 138.629   0.910  91.002   0.007   0.003  55.445
 Approx polarizability: 200.102   1.044 145.338   0.010   0.007  74.810
   1 Symmetry operations used in ECPInt.
 ECPInt:  NShTT=    1035 NPrTT=    5280 LenC2=    1036 LenP2D=    4195.
 LDataN:  DoStor=T MaxTD1= 8 Len=  415
 Calling FoFJK, ICntrl=    100127 FMM=F ISym2X=0 I1Cent= 0 IOpClX= 0 NMat=1 NMatS=1 NMatT=0.
 Defaulting to unpruned grid for atomic number  53.
 Defaulting to unpruned grid for atomic number  53.
 Defaulting to unpruned grid for atomic number  53.
 Defaulting to unpruned grid for atomic number  53.
 Defaulting to unpruned grid for atomic number  53.
 Defaulting to unpruned grid for atomic number  53.
 Defaulting to unpruned grid for atomic number  53.
 Defaulting to unpruned grid for atomic number  53.
 Defaulting to unpruned grid for atomic number  53.
 Defaulting to unpruned grid for atomic number  53.
 Defaulting to unpruned grid for atomic number  53.
 Defaulting to unpruned grid for atomic number  53.
 Defaulting to unpruned grid for atomic number  53.
 Defaulting to unpruned grid for atomic number  53.
 Defaulting to unpruned grid for atomic number  53.
 Defaulting to unpruned grid for atomic number  53.
 Defaulting to unpruned grid for atomic number  53.
 Defaulting to unpruned grid for atomic number  53.
 Defaulting to unpruned grid for atomic number  53.
 Defaulting to unpruned grid for atomic number  53.
 Defaulting to unpruned grid for atomic number  53.
 Defaulting to unpruned grid for atomic number  53.
 Defaulting to unpruned grid for atomic number  53.
 Defaulting to unpruned grid for atomic number  53.
 Defaulting to unpruned grid for atomic number  53.
 Defaulting to unpruned grid for atomic number  53.
 Defaulting to unpruned grid for atomic number  53.
 Defaulting to unpruned grid for atomic number  53.
 Defaulting to unpruned grid for atomic number  53.
 Defaulting to unpruned grid for atomic number  53.
 Defaulting to unpruned grid for atomic number  53.
 Defaulting to unpruned grid for atomic number  53.
 Full mass-weighted force constant matrix:
 Low frequencies ---   -6.8506   -2.4916   -0.0003    0.0001    0.0004    1.7954
 Low frequencies ---  151.8782  227.0197  256.5584
 Diagonal vibrational polarizability:
        4.7080174       0.3558289       6.3833763
 Harmonic frequencies (cm**-1), IR intensities (KM/Mole), Raman scattering
 activities (A**4/AMU), depolarization ratios for plane and unpolarized
 incident light, reduced masses (AMU), force constants (mDyne/A),
 and normal coordinates:
                      1                      2                      3
                      A                      A                      A
 Frequencies --    151.8780               227.0196               256.5584
 Red. masses --      4.7541                 4.8883                10.1585
 Frc consts  --      0.0646                 0.1484                 0.3940
 IR Inten    --      0.8692                 0.1321                 1.1955
  Atom  AN      X      Y      Z        X      Y      Z        X      Y      Z
     1   6     0.00   0.00   0.32    -0.01   0.30   0.00    -0.18   0.00   0.00
     2   6     0.00   0.00   0.26     0.16   0.22   0.00    -0.28   0.02   0.00
     3   6     0.00   0.00   0.26    -0.17   0.22   0.00    -0.27  -0.04   0.00
     4   6     0.00   0.00  -0.06     0.18  -0.01   0.00    -0.30   0.02   0.00
     5   1     0.00   0.00   0.36     0.30   0.31   0.00    -0.33  -0.01   0.00
     6   6     0.00   0.00  -0.06    -0.18  -0.02   0.00    -0.30  -0.03   0.00
     7   1     0.00   0.00   0.36    -0.31   0.29   0.00    -0.33  -0.01   0.00
     8   6     0.00   0.00  -0.28     0.00  -0.12   0.00    -0.35  -0.01   0.00
     9   1     0.00   0.00  -0.17     0.33  -0.10   0.00    -0.27   0.00   0.00
    10   1     0.00   0.00  -0.17    -0.33  -0.11   0.00    -0.27  -0.01   0.00
    11  53     0.00   0.00  -0.04     0.00  -0.06   0.00     0.17   0.00   0.00
    12   1     0.00   0.00  -0.60     0.01  -0.28   0.00    -0.35  -0.01   0.00
                      4                      5                      6
                      A                      A                      A
 Frequencies --    411.9873               458.7914               622.9024
 Red. masses --      2.8893                 3.4986                 6.4745
 Frc consts  --      0.2889                 0.4339                 1.4801
 IR Inten    --      0.0000                 8.6392                 0.2445
  Atom  AN      X      Y      Z        X      Y      Z        X      Y      Z
     1   6     0.00   0.00   0.00     0.00   0.00   0.35     0.00   0.15   0.00
     2   6     0.00   0.00   0.21     0.00   0.00  -0.07    -0.24   0.21   0.00
     3   6     0.00   0.00  -0.21     0.00   0.00  -0.07     0.23   0.22   0.00
     4   6     0.00   0.00  -0.21     0.00   0.00  -0.14    -0.25  -0.25   0.00
     5   1     0.00   0.00   0.46     0.00   0.00  -0.35    -0.10   0.30   0.00
     6   6     0.00   0.00   0.21     0.00   0.00  -0.14     0.26  -0.24   0.00
     7   1     0.00   0.00  -0.46     0.00   0.00  -0.35     0.09   0.30   0.00
     8   6     0.00   0.00   0.00     0.00   0.00   0.23     0.00  -0.15   0.00
     9   1     0.00   0.00  -0.45     0.00   0.00  -0.42    -0.10  -0.33   0.00
    10   1     0.00   0.00   0.45     0.00   0.00  -0.42     0.12  -0.32   0.00
    11  53     0.00   0.00   0.00     0.00   0.00  -0.01     0.00   0.00   0.00
    12   1     0.00   0.00   0.00     0.00   0.00   0.41    -0.01   0.27   0.00
                      7                      8                      9
                      A                      A                      A
 Frequencies --    658.1546               693.6287               744.6121
 Red. masses --      6.9706                 2.7454                 1.3328
 Frc consts  --      1.7790                 0.7782                 0.4354
 IR Inten    --     25.5003                14.9517                69.9258
  Atom  AN      X      Y      Z        X      Y      Z        X      Y      Z
     1   6     0.40   0.01   0.00     0.00   0.00   0.17     0.00   0.00   0.11
     2   6     0.05   0.26   0.00     0.00   0.00  -0.14     0.00   0.00  -0.07
     3   6     0.06  -0.26   0.00     0.00   0.00  -0.14     0.00   0.00  -0.07
     4   6     0.02   0.25   0.00     0.00   0.00   0.19     0.00   0.00  -0.02
     5   1    -0.22   0.09   0.00     0.00   0.00  -0.51     0.00   0.00   0.26
     6   6     0.03  -0.25   0.00     0.00   0.00   0.19     0.00   0.00  -0.02
     7   1    -0.21  -0.10   0.00     0.00   0.00  -0.51     0.00   0.00   0.26
     8   6    -0.34  -0.01   0.00     0.00   0.00  -0.15     0.00   0.00  -0.08
     9   1     0.33   0.08   0.00     0.00   0.00   0.06     0.00   0.00   0.53
    10   1     0.33  -0.07   0.00     0.00   0.00   0.06     0.00   0.00   0.53
    11  53    -0.02   0.00   0.00     0.00   0.00   0.00     0.00   0.00   0.00
    12   1    -0.34  -0.01   0.00     0.00   0.00  -0.56     0.00   0.00   0.51
                     10                     11                     12
                      A                      A                      A
 Frequencies --    845.6885               920.1426               980.3092
 Red. masses --      1.2480                 1.3297                 1.3702
 Frc consts  --      0.5259                 0.6633                 0.7758
 IR Inten    --      0.0000                 1.0252                 0.0000
  Atom  AN      X      Y      Z        X      Y      Z        X      Y      Z
     1   6     0.00   0.00   0.00     0.00   0.00  -0.04     0.00   0.00   0.00
     2   6     0.00   0.00   0.08     0.00   0.00   0.09     0.00   0.00   0.09
     3   6     0.00   0.00  -0.08     0.00   0.00   0.09     0.00   0.00  -0.09
     4   6     0.00   0.00   0.07     0.00   0.00  -0.01     0.00   0.00  -0.09
     5   1     0.00   0.00  -0.51     0.00   0.00  -0.56     0.00   0.00  -0.47
     6   6     0.00   0.00  -0.07     0.00   0.00  -0.01     0.00   0.00   0.09
     7   1     0.00   0.00   0.51     0.00   0.00  -0.56     0.00   0.00   0.47
     8   6     0.00   0.00   0.00     0.00   0.00  -0.10     0.00   0.00   0.00
     9   1     0.00   0.00  -0.47     0.00   0.00   0.09     0.00   0.00   0.51
    10   1     0.00   0.00   0.47     0.00   0.00   0.09     0.00   0.00  -0.51
    11  53     0.00   0.00   0.00     0.00   0.00   0.00     0.00   0.00   0.00
    12   1     0.00   0.00   0.00     0.00   0.00   0.58     0.00   0.00   0.00
                     13                     14                     15
                      A                      A                      A
 Frequencies --   1003.6499              1003.8667              1031.3849
 Red. masses --      1.2888                 6.8999                 5.6912
 Frc consts  --      0.7649                 4.0968                 3.5670
 IR Inten    --      0.0719                41.4631                21.1846
  Atom  AN      X      Y      Z        X      Y      Z        X      Y      Z
     1   6     0.00   0.00   0.00     0.28   0.01   0.00     0.29   0.01   0.00
     2   6     0.00   0.00  -0.03    -0.18   0.29   0.00     0.13  -0.13   0.00
     3   6     0.00   0.00  -0.03    -0.16  -0.29   0.00     0.13   0.14   0.00
     4   6     0.00   0.00   0.08    -0.11  -0.21   0.00    -0.12  -0.29   0.00
     5   1     0.00   0.00   0.25    -0.19   0.28   0.00     0.28  -0.07   0.00
     6   6     0.00   0.00   0.08    -0.12   0.21   0.00    -0.13   0.28   0.00
     7   1     0.00   0.00   0.25    -0.18  -0.29   0.00     0.28   0.09   0.00
     8   6     0.00   0.00  -0.10     0.35   0.01   0.00    -0.27  -0.01   0.00
     9   1     0.00   0.00  -0.50    -0.15  -0.19   0.00     0.03  -0.40   0.00
    10   1     0.00   0.00  -0.50    -0.15   0.18   0.00     0.01   0.40   0.00
    11  53     0.00   0.00   0.00     0.00   0.00   0.00    -0.01   0.00   0.00
    12   1     0.00   0.00   0.59     0.35   0.01   0.00    -0.30  -0.01   0.00
                     16                     17                     18
                      A                      A                      A
 Frequencies --   1081.7627              1106.0832              1200.3822
 Red. masses --      1.8882                 1.6636                 1.1087
 Frc consts  --      1.3019                 1.1991                 0.9412
 IR Inten    --      7.3456                 3.5999                 0.0046
  Atom  AN      X      Y      Z        X      Y      Z        X      Y      Z
[...]
   D17        0.00000   0.00000   0.00000   0.00000   0.00000   0.00000
   D18        3.14159   0.00000   0.00000   0.00000   0.00000  -3.14159
   D19       -3.14159   0.00000   0.00000   0.00000   0.00000  -3.14159
   D20        0.00000   0.00000   0.00000   0.00000   0.00000   0.00000
   D21        0.00000   0.00000   0.00000   0.00000   0.00000   0.00000
   D22       -3.14159   0.00000   0.00000   0.00000   0.00000   3.14159
   D23       -3.14159   0.00000   0.00000   0.00000   0.00000  -3.14159
   D24        0.00000   0.00000   0.00000   0.00000   0.00000   0.00000
         Item               Value     Threshold  Converged?
 Maximum Force            0.000121     0.000450     YES
 RMS     Force            0.000033     0.000300     YES
 Maximum Displacement     0.000923     0.001800     YES
 RMS     Displacement     0.000174     0.001200     YES
 Predicted change in Energy=-1.162766D-07
 Optimization completed.
    -- Stationary point found.
                           ----------------------------
                           !   Optimized Parameters   !
                           ! (Angstroms and Degrees)  !
 --------------------------                            --------------------------
 ! Name  Definition              Value          Derivative Info.                !
 --------------------------------------------------------------------------------
 ! R1    R(1,2)                  1.3964         -DE/DX =   -0.0001              !
 ! R2    R(1,3)                  1.3963         -DE/DX =    0.0                 !
 ! R3    R(1,11)                 2.1515         -DE/DX =   -0.0001              !
 ! R4    R(2,4)                  1.3993         -DE/DX =    0.0001              !
 ! R5    R(2,5)                  1.0851         -DE/DX =    0.0                 !
 ! R6    R(3,6)                  1.3994         -DE/DX =    0.0                 !
 ! R7    R(3,7)                  1.0851         -DE/DX =    0.0                 !
 ! R8    R(4,8)                  1.3977         -DE/DX =    0.0001              !
 ! R9    R(4,9)                  1.087          -DE/DX =    0.0                 !
 ! R10   R(6,8)                  1.3976         -DE/DX =    0.0001              !
 ! R11   R(6,10)                 1.087          -DE/DX =    0.0                 !
 ! R12   R(8,12)                 1.0866         -DE/DX =    0.0                 !
 ! A1    A(2,1,3)              121.2726         -DE/DX =    0.0001              !
 ! A2    A(2,1,11)             119.3595         -DE/DX =   -0.0001              !
 ! A3    A(3,1,11)             119.3678         -DE/DX =   -0.0001              !
 ! A4    A(1,2,4)              119.028          -DE/DX =   -0.0001              !
 ! A5    A(1,2,5)              120.7142         -DE/DX =    0.0                 !
 ! A6    A(4,2,5)              120.2578         -DE/DX =    0.0                 !
 ! A7    A(1,3,6)              119.0283         -DE/DX =   -0.0001              !
 ! A8    A(1,3,7)              120.7198         -DE/DX =    0.0                 !
 ! A9    A(6,3,7)              120.2518         -DE/DX =    0.0                 !
 ! A10   A(2,4,8)              120.468          -DE/DX =    0.0                 !
 ! A11   A(2,4,9)              119.2853         -DE/DX =    0.0                 !
 ! A12   A(8,4,9)              120.2467         -DE/DX =    0.0                 !
 ! A13   A(3,6,8)              120.4676         -DE/DX =    0.0                 !
 ! A14   A(3,6,10)             119.2772         -DE/DX =    0.0                 !
 ! A15   A(8,6,10)             120.2552         -DE/DX =    0.0                 !
 ! A16   A(4,8,6)              119.7354         -DE/DX =    0.0                 !
 ! A17   A(4,8,12)             120.1286         -DE/DX =    0.0                 !
 ! A18   A(6,8,12)             120.1359         -DE/DX =    0.0                 !
 ! D1    D(3,1,2,4)              0.0            -DE/DX =    0.0                 !
 ! D2    D(3,1,2,5)            180.0            -DE/DX =    0.0                 !
 ! D3    D(11,1,2,4)           180.0            -DE/DX =    0.0                 !
 ! D4    D(11,1,2,5)             0.0            -DE/DX =    0.0                 !
 ! D5    D(2,1,3,6)              0.0            -DE/DX =    0.0                 !
 ! D6    D(2,1,3,7)            179.9999         -DE/DX =    0.0                 !
 ! D7    D(11,1,3,6)           180.0            -DE/DX =    0.0                 !
 ! D8    D(11,1,3,7)             0.0            -DE/DX =    0.0                 !
 ! D9    D(1,2,4,8)              0.0            -DE/DX =    0.0                 !
 ! D10   D(1,2,4,9)            179.9999         -DE/DX =    0.0                 !
 ! D11   D(5,2,4,8)           -180.0            -DE/DX =    0.0                 !
 ! D12   D(5,2,4,9)             -0.0001         -DE/DX =    0.0                 !
 ! D13   D(1,3,6,8)              0.0            -DE/DX =    0.0                 !
 ! D14   D(1,3,6,10)           180.0            -DE/DX =    0.0                 !
 ! D15   D(7,3,6,8)           -179.9999         -DE/DX =    0.0                 !
 ! D16   D(7,3,6,10)             0.0            -DE/DX =    0.0                 !
 ! D17   D(2,4,8,6)              0.0            -DE/DX =    0.0                 !
 ! D18   D(2,4,8,12)          -180.0            -DE/DX =    0.0                 !
 ! D19   D(9,4,8,6)           -179.9999         -DE/DX =    0.0                 !
 ! D20   D(9,4,8,12)             0.0            -DE/DX =    0.0                 !
 ! D21   D(3,6,8,4)              0.0            -DE/DX =    0.0                 !
 ! D22   D(3,6,8,12)           180.0            -DE/DX =    0.0                 !
 ! D23   D(10,6,8,4)          -180.0            -DE/DX =    0.0                 !
 ! D24   D(10,6,8,12)            0.0001         -DE/DX =    0.0                 !
 --------------------------------------------------------------------------------
 GradGradGradGradGradGradGradGradGradGradGradGradGradGradGradGradGradGrad


 ----------------------------------------------------------------------

 Electric dipole moment (input orientation):
 (Debye = 10**-18 statcoulomb cm , SI units = C m)
                  (au)            (Debye)         (10**-30 SI)
   Tot        0.720534D+00      0.183141D+01      0.610894D+01
   x          0.720402D+00      0.183108D+01      0.610783D+01
   y          0.137730D-01      0.350075D-01      0.116772D+00
   z          0.599989D-04      0.152502D-03      0.508692D-03

 Dipole polarizability, Alpha (input orientation).
 (esu units = cm**3 , SI units = C**2 m**2 J**-1)
 Alpha(0;0):
               (au)            (10**-24 esu)      (10**-40 SI)
   iso        0.950255D+02      0.140813D+02      0.156676D+02
   aniso      0.723090D+02      0.107151D+02      0.119221D+02
   xx         0.138629D+03      0.205427D+02      0.228568D+02
   yx         0.909824D+00      0.134822D+00      0.150010D+00
   yy         0.910024D+02      0.134852D+02      0.150043D+02
   zx         0.684182D-02      0.101385D-02      0.112806D-02
   zy         0.337577D-02      0.500237D-03      0.556589D-03
   zz         0.554450D+02      0.821611D+01      0.914165D+01

 ----------------------------------------------------------------------

 Dipole orientation:
     6         -0.00081260          0.05072140         -0.85949844
     6         -0.04498306          2.35010105          0.43435006
     6          0.04335342         -2.24842378          0.43442810
     6         -0.04468770          2.33470372          3.07867386
     1         -0.07911592          4.12692405         -0.58855230
     6          0.04305489         -2.23285562          3.07892443
     1          0.07748745         -4.02541925         -0.58817622
     6         -0.00081608          0.05089945          4.40462427
     1         -0.07898367          4.12013781          4.09390950
     1          0.07735320         -4.01836582          4.09402289
    53         -0.00081773          0.05087507         -4.92528493
     1         -0.00081910          0.05110499          6.45798861

 Electric dipole moment (dipole orientation):
 (Debye = 10**-18 statcoulomb cm , SI units = C m)
                  (au)            (Debye)         (10**-30 SI)
   Tot        0.720534D+00      0.183141D+01      0.610894D+01
   x          0.000000D+00      0.000000D+00      0.000000D+00
   y          0.000000D+00      0.000000D+00      0.000000D+00
   z          0.720534D+00      0.183141D+01      0.610894D+01

 Dipole polarizability, Alpha (dipole orientation).
 (esu units = cm**3 , SI units = C**2 m**2 J**-1)
 Alpha(0;0):
               (au)            (10**-24 esu)      (10**-40 SI)
   iso        0.950255D+02      0.140813D+02      0.156676D+02
   aniso      0.723090D+02      0.107151D+02      0.119221D+02
   xx         0.554581D+02      0.821805D+01      0.914381D+01
   yx        -0.682465D+00     -0.101131D+00     -0.112523D+00
   yy         0.909719D+02      0.134806D+02      0.149992D+02
   zx         0.432968D-04      0.641592D-05      0.713868D-05
   zy        -0.105712D-02     -0.156649D-03     -0.174295D-03
   zz         0.138646D+03      0.205453D+02      0.228597D+02

 ----------------------------------------------------------------------
 1\1\GINC-IP-172-31-38-84\Freq\RB3LYP\Gen\C6H5I1\UBUNTU\13-Sep-2023\0\\
 #N Geom=AllCheck Guess=TCheck SCRF=Check GenChk RB3LYP/ChkBas Freq\\re
 ac1\\0,1\C,-0.455257,0.018145,-0.000121\C,0.20603,1.248014,0.000047\C,
 0.252595,-1.185424,-0.000175\C,1.605246,1.266614,0.000163\H,-0.353144,
 2.177923,0.000088\C,1.651589,-1.150436,-0.000058\H,-0.270467,-2.136115
 ,-0.000305\C,2.329886,0.071487,0.000111\H,2.124324,2.221696,0.000293\H
 ,2.206722,-2.085021,-0.000099\I,-2.606387,-0.0229,-0.000299\H,3.416279
 ,0.092366,0.000201\\Version=EM64L-G16RevB.01\HF=-243.0711991\RMSD=4.06
 0e-10\RMSF=4.813e-05\ZeroPoint=0.0901698\Thermal=0.0960623\Dipole=0.72
 04024,0.013773,0.00006\DipoleDeriv=1.2231712,0.0237444,0.0001099,0.023
 6702,-0.0172295,0.0000096,0.0001094,0.0000097,-0.1006666,-0.429963,-0.
 1337098,-0.0000397,0.0369025,0.0074921,0.0000123,-0.0000237,-0.0000011
 ,-0.0944755,-0.4330596,0.1168621,-0.0000169,-0.0537125,0.0105439,0.000
 0054,-0.0000325,0.000019,-0.0944693,0.065594,0.0904801,0.0000227,-0.06
 57698,0.0794755,0.0000124,0.000008,0.0000244,-0.1108792,0.0470128,0.06
 77478,-0.0000005,0.0496551,-0.0065959,-0.0000087,-0.0000022,-0.0000073
 ,0.1308082,0.0665205,-0.0910162,0.000006,0.065266,0.0784599,0.0000228,
 0.0000208,0.0000098,-0.110883,0.051449,-0.0655166,-0.0000125,-0.047422
 5,-0.0110253,-0.000017,-0.0000107,-0.0000183,0.1308029,0.0473779,0.001
 8191,0.0000158,0.0017934,-0.046651,0.0000091,0.0000152,0.0000093,-0.14
 24716,-0.0157252,-0.0733113,-0.0000194,-0.0712757,-0.063536,-0.0000246
 ,-0.0000191,-0.0000244,0.1393926,-0.0213097,0.0749095,-0.0000061,0.072
 9011,-0.0579514,-0.0000124,-0.0000065,-0.000012,0.1394011,-0.4856279,-
 0.0084179,-0.0000381,-0.0083963,-0.0446459,-0.0000023,-0.0000378,-0.00
 00024,-0.0269593,-0.11544,-0.0035912,-0.0000211,-0.0036115,0.0716636,-
 0.0000067,-0.0000209,-0.0000067,0.1403998\Polar=138.6290611,0.9098243,
 91.002401,0.0068418,0.0033758,55.4450381\Quadrupole=1.3689197,2.817281
 9,-4.1862016,0.0088622,0.0003347,0.0006459\PG=C01 [X(C6H5I1)]\NImag=0\
 \0.43025994,-0.00400449,0.63387489,0.00002624,0.00004899,0.10293837,-0
 .14661710,-0.05629685,-0.00001243,0.67116975,-0.11359237,-0.28724559,-
 0.00003055,-0.04760869,0.72157946,-0.00001779,-0.00002593,-0.05779871,
 0.00003972,0.00005118,0.12924290,-0.15336516,0.06151555,-0.00000205,0.
 06001071,0.02448971,0.00000669,0.66740726,0.11880539,-0.28068368,-0.00
 001101,-0.02010801,-0.05411028,-0.00000720,0.04542012,0.72532539,0.000
 00326,-0.00001564,-0.05777719,0.00000254,-0.00000355,0.00578402,0.0000
 4790,0.00005879,0.12923667,-0.02749489,-0.08320263,-0.00001065,-0.3326
 0532,0.03414465,-0.00001898,-0.05011631,0.02845611,-0.00000104,0.67645
 626,-0.02504433,0.03004640,-0.00000004,-0.03595856,-0.12646628,-0.0000
 0898,0.02767839,-0.01695232,0.00000112,0.02805915,0.72391283,-0.000005
 23,-0.00000477,0.00831986,-0.00002549,-0.00000328,-0.06127228,-0.00000
 113,0.00000119,-0.00489454,0.00004680,0.00005692,0.13292685,0.00933662
 ,-0.01567105,-0.00000081,-0.13302580,0.12881897,0.00000410,-0.00109707
 ,-0.00319514,-0.00000087,-0.01123982,0.02801584,0.00000137,0.14128840,
 0.01590560,-0.01941703,-0.00000065,0.12582592,-0.26865314,-0.00001138,
 -0.00404175,-0.00288621,-0.00000115,-0.00232380,0.00502185,-0.00000009
 ,-0.13399020,0.28405255,0.00000209,-0.00000324,0.00140493,0.00000384,-
 0.00001115,-0.03622208,-0.00000096,-0.00000108,0.00600672,-0.00000147,
 0.00000240,0.00393093,-0.00000296,0.00001321,0.02477954,-0.03154712,0.
 08084153,0.00000424,-0.04792314,-0.02964647,-0.00000625,-0.33215843,-0
 .04202790,-0.00002592,0.06375082,-0.02044365,0.00000270,-0.00080583,-0
 .00084422,-0.00000008,0.67845803,0.02268492,0.03410403,0.00000421,-0.0
 2887285,-0.01914722,-0.00000366,0.02808456,-0.12670947,-0.00000378,0.0
 2510219,-0.05752722,-0.00000397,-0.00088874,0.00028052,0.00000002,-0.0
 2969626,0.72191457,-0.00000115,0.00000896,0.00832729,-0.00000617,-0.00
 000373,-0.00489585,-0.00001944,-0.00000947,-0.06128688,0.00000692,-0.0
 0000769,0.00740891,-0.00000009,0.00000003,-0.00073658,0.00004174,0.000
 05218,0.13292817,0.00929799,0.01678092,0.00000219,-0.00137680,0.003252
 45,-0.00000030,-0.12345792,-0.12324030,-0.00001846,-0.00087111,0.00084
 516,0.00000007,0.00070665,0.00081195,0.00000010,-0.01023257,-0.0286011
 8,-0.00000379,0.13122167,-0.01479618,-0.01938972,-0.00000312,0.0040998
 9,-0.00260491,-0.00000046,-0.12025167,-0.27821692,-0.00003206,0.000799
 35,0.00034512,0.00000017,-0.00075255,-0.00084226,-0.00000018,0.0017400
 1,0.00401327,0.00000015,0.12811994,0.29412439,-0.00000073,-0.00000057,
 0.00140564,-0.00000022,-0.00000054,0.00600885,-0.00001817,-0.00003228,
 -0.03621717,0.00000007,0.00000017,-0.00073676,-0.00000005,-0.00000005,
 0.00040575,-0.00000100,-0.00000232,0.00393035,0.00002047,0.00003522,0.
 02478475,-0.00002844,0.00135323,0.00000066,-0.02904424,0.02642088,-0.0
 0000052,-0.02515165,-0.02877493,-0.00000531,-0.18508337,0.12478650,0.0
 0000161,-0.00524736,-0.00083492,-0.00000108,-0.17813927,-0.12088013,-0
 .00002069,-0.00533499,0.00057492,-0.00000095,0.74563434,0.00135549,-0.
 07076702,-0.00000583,0.07297657,0.03640921,0.00000864,-0.07533620,0.03
 251216,-0.00000380,0.06137722,-0.28247800,-0.00001542,-0.00169911,0.00
 144964,-0.00000066,-0.05747084,-0.28962365,-0.00002586,0.00143867,0.00
 153634,-0.00000039,0.00162471,0.66677908,0.00000066,-0.00000584,-0.006
 75198,0.00000379,0.00000484,0.00740618,-0.00000965,-0.00000001,0.00740
 064,-0.00000426,-0.00001029,-0.06240971,-0.00000116,-0.00000059,0.0070
 2077,-0.00001476,-0.00003100,-0.06239774,-0.00000087,-0.00000046,0.007
 01742,0.00004996,0.00004978,0.13280941,-0.00407732,0.00075480,-0.00000
 082,-0.01137487,-0.02908263,-0.00000390,-0.00094386,0.00079624,0.00000
 005,-0.12331698,-0.11762932,-0.00001790,0.00066626,0.00024593,0.000000
 41,-0.00122221,0.00320650,-0.00000035,0.00013401,-0.00009277,0.0000000
 8,0.01226564,0.01571147,0.00000217,0.12782469,0.00023812,0.00161181,-0
 .00000047,0.00208056,0.00316857,0.00000014,0.00077392,0.00027690,0.000
 00015,-0.11746041,-0.27585301,-0.00003156,-0.00028348,0.00082703,0.000
 00043,0.00420273,-0.00288529,-0.00000054,-0.00011148,-0.00000188,0.000
 00008,-0.01545494,-0.01823938,-0.00000326,0.12610234,0.29132814,-0.000
 00088,-0.00000042,0.00690810,-0.00000104,-0.00000241,0.00350440,0.0000
 0005,0.00000015,-0.00066426,-0.00001785,-0.00003154,-0.03655300,0.0000
 0036,0.00000048,-0.00414160,-0.00000025,-0.00000063,0.00672787,0.00000
 008,0.00000008,-0.00096896,-0.00000071,-0.00000074,0.00340957,0.000019
 96,0.00003473,0.02533068,-0.00403214,-0.00097078,-0.00000098,-0.000881
 39,-0.00084077,-0.00000010,-0.01238945,0.02848810,0.00000134,-0.000940
 53,-0.00313216,-0.00000092,0.00012601,0.00009760,0.00000010,-0.1325021
 1,0.12310041,0.00000354,0.00066482,-0.00025197,0.00000037,0.01223151,-
 0.01454394,-0.00000063,0.00046263,-0.00084139,-0.00000006,0.13768306,-
 0.00045384,0.00156532,-0.00000053,-0.00081843,0.00021478,0.00000001,-0
 .00267712,0.00417816,-0.00000016,-0.00412775,-0.00316526,-0.00000125,0
 .00011645,0.00000616,0.00000010,0.12293565,-0.26667630,-0.00001124,0.0
 0027680,0.00082854,0.00000048,0.01662079,-0.01820112,-0.00000064,0.000
 89709,-0.00099206,-0.00000004,-0.13197037,0.28147833,-0.00000093,-0.00
 000058,0.00690566,-0.00000009,0.00000002,-0.00066400,-0.00000154,0.000
 00238,0.00350403,-0.00000102,-0.00000117,0.00673083,0.00000010,0.00000
 010,-0.00096913,0.00000352,-0.00001119,-0.03655645,0.00000041,0.000000
 44,-0.00413955,0.00000226,-0.00000322,0.00340921,0.00000010,-0.0000001
 8,0.00021759,-0.00000302,0.00001291,0.02533381,-0.08272536,-0.00114980
 ,-0.00000572,-0.02886675,0.00048983,-0.00000246,-0.02947472,-0.0016658
 0,-0.00000271,0.00325523,-0.00430372,-0.00000041,-0.00007391,-0.000621
 47,0.00000008,0.00311325,0.00450553,0.00000039,-0.00016283,0.00060883,
 0.00000018,-0.00145102,-0.00004157,-0.00000008,-0.00117885,0.00032824,
 -0.00000008,-0.00118742,-0.00037601,-0.00000014,0.13885329,-0.00114811
 ,-0.02210013,-0.00000091,-0.01760633,0.00134151,-0.00000150,0.01643034
 ,0.00195262,0.00000132,0.00081931,-0.00221396,-0.00000046,-0.00185360,
 0.00000856,0.00000003,-0.00061595,-0.00207295,-0.00000057,0.00183811,0
 .00010094,0.00000031,-0.00004232,0.00077278,0.00000011,-0.00059544,0.0
 0006082,-0.00000006,0.00054786,0.00006922,0.00000004,0.00223241,0.0218
 5309,-0.00000568,-0.00000087,-0.01333794,-0.00000416,-0.00000003,0.002
 10568,-0.00000103,-0.00000015,0.00210478,0.00000006,-0.00000088,0.0034
 7958,-0.00000006,0.00000011,-0.00165693,-0.00000009,-0.00000015,0.0034
 8094,0.00000029,0.00000021,-0.00166804,-0.00000008,0.00000012,-0.00049
 805,-0.00000016,0.00000002,0.00015259,-0.00000006,-0.00000004,0.000152
 65,0.00001092,0.00000158,0.00637620,0.00099296,0.00004958,0.00000013,0
 .00053495,0.00315443,-0.00000022,0.00073659,-0.00295386,-0.00000076,-0
 .01179397,-0.00287331,-0.00000147,-0.00063415,-0.00023064,-0.00000009,
 -0.01079143,0.00225506,-0.00000091,-0.00058891,0.00020221,-0.00000004,
 -0.34065116,-0.00539247,-0.00002518,0.00076088,0.00042580,0.00000042,0
 .00076502,-0.00042325,0.00000034,-0.00010091,-0.00000626,0.00000005,0.
 36077013,0.00004981,-0.00159928,-0.00000009,0.00228677,-0.00448610,-0.
 00000086,-0.00208584,-0.00468633,-0.00000124,0.02835661,0.00532985,0.0
 0000252,0.00138262,0.00015231,0.00000011,-0.02897462,0.00432972,-0.000
 00224,-0.00141105,0.00010709,-0.00000012,-0.00539377,-0.06015002,-0.00
 000265,-0.00031421,0.00069836,0.00000040,0.00031742,0.00069424,0.00000
 046,-0.00000645,0.00022752,0.00000009,0.00579271,0.05938263,0.00000013
 ,-0.00000009,-0.00054402,-0.00000030,-0.00000079,0.00680090,-0.0000006
 8,-0.00000131,0.00680318,0.00000143,-0.00000003,0.00306933,0.00000006,
 -0.00000002,0.00017768,-0.00000384,0.00000029,0.00306998,-0.00000019,0
 .00000001,0.00017772,-0.00002515,-0.00000262,-0.03641572,0.00000035,0.
 00000046,-0.00392298,0.00000041,0.00000039,-0.00392465,0.00000005,0.00
 000009,-0.00069147,0.00002774,0.00000363,0.02540005\\-0.00012315,-0.00
 004187,-0.00000004,0.00017585,-0.00000224,-0.00000003,0.00010860,0.000
 04969,0.,-0.00003606,-0.00001472,0.00000010,-0.00000434,-0.00000539,0.
 00000002,0.00003260,0.00005204,-0.00000007,0.00000299,0.00000115,0.000
 00003,-0.00006650,-0.00004033,0.00000005,0.00000870,-0.00000629,-0.000
 00005,-0.00000224,0.00000063,0.00000003,-0.00009870,0.00000204,0.,0.00
 000227,0.00000529,-0.00000002\\\@


 DON'T WORRY CHARLIE BROWN...WE LEARN MORE FROM LOSING 
 THAN WE DO FROM WINNING.
 THEN THAT MAKES ME THE SMARTEST PERSON IN THE WORLD...
 CHARLES SCHULZ 'PEANUTS'
 Job cpu time:       0 days  0 hours 14 minutes 54.4 seconds.
 Elapsed time:       0 days  0 hours  0 minutes 28.0 seconds.
 File lengths (MBytes):  RWF=     27 Int=      0 D2E=      0 Chk=      3 Scr=      1
 Normal termination of Gaussian 16 at Wed Sep 13 08:21:09 2023.
