 Entering Gaussian System, Link 0=/home/ubuntu/g16/g16
 Input=/home/ubuntu/Downloads/OCH3-Br-vol.gjf
 Output=/home/ubuntu/Downloads/OCH3-Br-vol.log
 Initial command:
 /home/ubuntu/g16/l1.exe "/home/ubuntu/Scratch/Gau-22033.inp" -scrdir="/home/ubuntu/Scratch/"
 Entering Link 1 = /home/ubuntu/g16/l1.exe PID=     22035.
  
 Copyright (c) 1988-2017, Gaussian, Inc.  All Rights Reserved.
  
 This is part of the Gaussian(R) 16 program.  It is based on
 the Gaussian(R) 09 system (copyright 2009, Gaussian, Inc.),
 the Gaussian(R) 03 system (copyright 2003, Gaussian, Inc.),
 the Gaussian(R) 98 system (copyright 1998, Gaussian, Inc.),
 the Gaussian(R) 94 system (copyright 1995, Gaussian, Inc.),
 the Gaussian 92(TM) system (copyright 1992, Gaussian, Inc.),
 the Gaussian 90(TM) system (copyright 1990, Gaussian, Inc.),
 the Gaussian 88(TM) system (copyright 1988, Gaussian, Inc.),
 the Gaussian 86(TM) system (copyright 1986, Carnegie Mellon
 University), and the Gaussian 82(TM) system (copyright 1983,
 Carnegie Mellon University). Gaussian is a federally registered
 trademark of Gaussian, Inc.
  
 This software contains proprietary and confidential information,
 including trade secrets, belonging to Gaussian, Inc.
  
 This software is provided under written license and may be
 used, copied, transmitted, or stored only in accord with that
 written license.
  
 The following legend is applicable only to US Government
 contracts under FAR:
  
                    RESTRICTED RIGHTS LEGEND
  
 Use, reproduction and disclosure by the US Government is
 subject to restrictions as set forth in subparagraphs (a)
 and (c) of the Commercial Computer Software - Restricted
 Rights clause in FAR 52.227-19.
  
 Gaussian, Inc.
 340 Quinnipiac St., Bldg. 40, Wallingford CT 06492
  
  
 ---------------------------------------------------------------
 Warning -- This program may not be used in any manner that
 competes with the business of Gaussian, Inc. or will provide
 assistance to any competitor of Gaussian, Inc.  The licensee
 of this program is prohibited from giving any competitor of
 Gaussian, Inc. access to this program.  By using this program,
 the user acknowledges that Gaussian, Inc. is engaged in the
 business of creating and licensing software in the field of
 computational chemistry and represents and warrants to the
 licensee that it is not a competitor of Gaussian, Inc. and that
 it will not use this program in any manner prohibited above.
 ---------------------------------------------------------------
  

 Cite this work as:
 Gaussian 16, Revision B.01,
 M. J. Frisch, G. W. Trucks, H. B. Schlegel, G. E. Scuseria, 
 M. A. Robb, J. R. Cheeseman, G. Scalmani, V. Barone, 
 G. A. Petersson, H. Nakatsuji, X. Li, M. Caricato, A. V. Marenich, 
 J. Bloino, B. G. Janesko, R. Gomperts, B. Mennucci, H. P. Hratchian, 
 J. V. Ortiz, A. F. Izmaylov, J. L. Sonnenberg, D. Williams-Young, 
 F. Ding, F. Lipparini, F. Egidi, J. Goings, B. Peng, A. Petrone, 
 T. Henderson, D. Ranasinghe, V. G. Zakrzewski, J. Gao, N. Rega, 
 G. Zheng, W. Liang, M. Hada, M. Ehara, K. Toyota, R. Fukuda, 
 J. Hasegawa, M. Ishida, T. Nakajima, Y. Honda, O. Kitao, H. Nakai, 
 T. Vreven, K. Throssell, J. A. Montgomery, Jr., J. E. Peralta, 
 F. Ogliaro, M. J. Bearpark, J. J. Heyd, E. N. Brothers, K. N. Kudin, 
 V. N. Staroverov, T. A. Keith, R. Kobayashi, J. Normand, 
 K. Raghavachari, A. P. Rendell, J. C. Burant, S. S. Iyengar, 
 J. Tomasi, M. Cossi, J. M. Millam, M. Klene, C. Adamo, R. Cammi, 
 J. W. Ochterski, R. L. Martin, K. Morokuma, O. Farkas, 
 J. B. Foresman, and D. J. Fox, Gaussian, Inc., Wallingford CT, 2016.
 
 ******************************************
 Gaussian 16:  EM64L-G16RevB.01 20-Dec-2017
                20-Sep-2023 
 ******************************************
 %nprocshared=32
 Will use up to   32 processors via shared memory.
 %mem=60GB
 %chk=OCH3-Br-vol.chk
 ----------------------------------------------------------------------
 # opt freq b3lyp/gen empiricaldispersion=gd3 pseudo=read scf=maxcycle=
 1000 volume
 ----------------------------------------------------------------------
 1/18=20,19=15,26=3,38=1/1,3;
 2/9=110,12=2,17=6,18=5,40=1/2;
 3/5=7,11=2,16=1,17=8,25=1,30=1,71=1,74=-5,124=31/1,2,3;
 4//1;
 5/5=2,7=1000,38=5/2;
 6/7=2,8=2,9=2,10=2,28=1,44=1/1,4;
 7//1,2,3,16;
 1/18=20,19=15,26=3/3(2);
 2/9=110/2;
 99//99;
 2/9=110/2;
 3/5=7,6=1,11=2,16=1,17=8,25=1,30=1,71=1,74=-5,82=7,124=31/1,2,3;
 4/5=5,16=3,69=1/1;
 5/5=2,7=1000,38=5/2;
 7//1,2,3,16;
 1/18=20,19=15,26=3/3(-5);
 2/9=110/2;
 6/7=2,8=2,9=2,10=2,19=2,28=1,44=1/1,4;
 99/9=1/99;
 -------------------
 Title Card Required
 -------------------
 Symbolic Z-matrix:
 Charge =  0 Multiplicity = 1
 C                    -2.55276   1.21463  -0.24591 
 C                    -1.16136   1.21502  -0.17318 
 C                    -0.44644   0.00074  -0.13415 
 C                    -1.16202  -1.21308  -0.17594 
 C                    -2.55339  -1.21176  -0.24875 
 C                    -3.24917   0.00168  -0.28276 
 H                    -3.11045   2.14577  -0.28839 
 H                    -0.61634   2.15413  -0.15024 
 H                    -0.61749  -2.15252  -0.1552 
 H                    -3.11151  -2.14254  -0.2935 
 C                     0.98054   0.00026  -0.06079 
 C                     2.19143   0.00034   0.00428 
 Br                    4.0182   -0.00063   0.09593 
 O                    -4.62392   0.00242  -0.39671 
 C                    -5.32189  -0.00487   0.85259 
 H                    -6.38709  -0.00329   0.61078 
 H                    -5.07631  -0.90388   1.4349 
 H                    -5.07597   0.88719   1.44537 
 

 GradGradGradGradGradGradGradGradGradGradGradGradGradGradGradGradGradGrad
 Berny optimization.
 Initialization pass.
                           ----------------------------
                           !    Initial Parameters    !
                           ! (Angstroms and Degrees)  !
 --------------------------                            --------------------------
 ! Name  Definition              Value          Derivative Info.                !
 --------------------------------------------------------------------------------
 ! R1    R(1,2)                  1.3933         estimate D2E/DX2                !
 ! R2    R(1,6)                  1.3991         estimate D2E/DX2                !
 ! R3    R(1,7)                  1.0862         estimate D2E/DX2                !
 ! R4    R(2,3)                  1.4096         estimate D2E/DX2                !
 ! R5    R(2,8)                  1.086          estimate D2E/DX2                !
 ! R6    R(3,4)                  1.4097         estimate D2E/DX2                !
 ! R7    R(3,11)                 1.4289         estimate D2E/DX2                !
 ! R8    R(4,5)                  1.3933         estimate D2E/DX2                !
 ! R9    R(4,9)                  1.086          estimate D2E/DX2                !
 ! R10   R(5,6)                  1.3992         estimate D2E/DX2                !
 ! R11   R(5,10)                 1.0862         estimate D2E/DX2                !
 ! R12   R(6,14)                 1.3795         estimate D2E/DX2                !
 ! R13   R(11,12)                1.2126         estimate D2E/DX2                !
 ! R14   R(12,13)                1.8291         estimate D2E/DX2                !
 ! R15   R(14,15)                1.4311         estimate D2E/DX2                !
 ! R16   R(15,16)                1.0923         estimate D2E/DX2                !
 ! R17   R(15,17)                1.0989         estimate D2E/DX2                !
 ! R18   R(15,18)                1.0989         estimate D2E/DX2                !
 ! A1    A(2,1,6)              119.913          estimate D2E/DX2                !
 ! A2    A(2,1,7)              120.9665         estimate D2E/DX2                !
 ! A3    A(6,1,7)              119.1153         estimate D2E/DX2                !
 ! A4    A(1,2,3)              120.5091         estimate D2E/DX2                !
 ! A5    A(1,2,8)              120.1655         estimate D2E/DX2                !
 ! A6    A(3,2,8)              119.3249         estimate D2E/DX2                !
 ! A7    A(2,3,4)              118.9116         estimate D2E/DX2                !
 ! A8    A(2,3,11)             120.5444         estimate D2E/DX2                !
 ! A9    A(4,3,11)             120.5431         estimate D2E/DX2                !
 ! A10   A(3,4,5)              120.5085         estimate D2E/DX2                !
 ! A11   A(3,4,9)              119.3244         estimate D2E/DX2                !
 ! A12   A(5,4,9)              120.1666         estimate D2E/DX2                !
 ! A13   A(4,5,6)              119.9134         estimate D2E/DX2                !
 ! A14   A(4,5,10)             120.9618         estimate D2E/DX2                !
 ! A15   A(6,5,10)             119.1196         estimate D2E/DX2                !
 ! A16   A(1,6,5)              120.2438         estimate D2E/DX2                !
 ! A17   A(1,6,14)             119.8517         estimate D2E/DX2                !
 ! A18   A(5,6,14)             119.8711         estimate D2E/DX2                !
 ! A19   A(6,14,15)            114.4524         estimate D2E/DX2                !
 ! A20   A(14,15,16)           106.4008         estimate D2E/DX2                !
 ! A21   A(14,15,17)           110.9627         estimate D2E/DX2                !
 ! A22   A(14,15,18)           110.9547         estimate D2E/DX2                !
 ! A23   A(16,15,17)           109.659          estimate D2E/DX2                !
 ! A24   A(16,15,18)           109.662          estimate D2E/DX2                !
 ! A25   A(17,15,18)           109.162          estimate D2E/DX2                !
 ! A26   L(3,11,12,8,-1)       179.9774         estimate D2E/DX2                !
 ! A27   L(11,12,13,9,-1)      179.9648         estimate D2E/DX2                !
 ! A28   L(3,11,12,8,-2)       179.8342         estimate D2E/DX2                !
 ! A29   L(11,12,13,9,-2)      179.6652         estimate D2E/DX2                !
 ! D1    D(6,1,2,3)             -0.099          estimate D2E/DX2                !
 ! D2    D(6,1,2,8)            179.6411         estimate D2E/DX2                !
 ! D3    D(7,1,2,3)           -179.2598         estimate D2E/DX2                !
 ! D4    D(7,1,2,8)              0.4803         estimate D2E/DX2                !
 ! D5    D(2,1,6,5)             -0.0912         estimate D2E/DX2                !
 ! D6    D(2,1,6,14)          -177.9866         estimate D2E/DX2                !
 ! D7    D(7,1,6,5)            179.0852         estimate D2E/DX2                !
 ! D8    D(7,1,6,14)             1.1898         estimate D2E/DX2                !
 ! D9    D(1,2,3,4)              0.2807         estimate D2E/DX2                !
 ! D10   D(1,2,3,11)           179.9426         estimate D2E/DX2                !
 ! D11   D(8,2,3,4)           -179.4615         estimate D2E/DX2                !
 ! D12   D(8,2,3,11)             0.2004         estimate D2E/DX2                !
 ! D13   D(2,3,4,5)             -0.2771         estimate D2E/DX2                !
 ! D14   D(2,3,4,9)            179.4579         estimate D2E/DX2                !
 ! D15   D(11,3,4,5)          -179.9391         estimate D2E/DX2                !
 ! D16   D(11,3,4,9)            -0.204          estimate D2E/DX2                !
 ! D17   D(3,4,5,6)              0.092          estimate D2E/DX2                !
 ! D18   D(3,4,5,10)           179.2501         estimate D2E/DX2                !
 ! D19   D(9,4,5,6)           -179.6408         estimate D2E/DX2                !
 ! D20   D(9,4,5,10)            -0.4827         estimate D2E/DX2                !
 ! D21   D(4,5,6,1)              0.0946         estimate D2E/DX2                !
 ! D22   D(4,5,6,14)           177.9896         estimate D2E/DX2                !
 ! D23   D(10,5,6,1)          -179.079          estimate D2E/DX2                !
 ! D24   D(10,5,6,14)           -1.184          estimate D2E/DX2                !
 ! D25   D(1,6,14,15)          -91.3172         estimate D2E/DX2                !
 ! D26   D(5,6,14,15)           90.7795         estimate D2E/DX2                !
 ! D27   D(6,14,15,16)         179.994          estimate D2E/DX2                !
 ! D28   D(6,14,15,17)         -60.7764         estimate D2E/DX2                !
 ! D29   D(6,14,15,18)          60.7652         estimate D2E/DX2                !
 --------------------------------------------------------------------------------
 Trust Radius=3.00D-01 FncErr=1.00D-07 GrdErr=1.00D-06 EigMax=2.50D+02 EigMin=1.00D-04
 Number of steps in this run=     86 maximum allowed number of steps=    108.
 GradGradGradGradGradGradGradGradGradGradGradGradGradGradGradGradGradGrad

                          Input orientation:                          
 ---------------------------------------------------------------------
 Center     Atomic      Atomic             Coordinates (Angstroms)
 Number     Number       Type             X           Y           Z
 ---------------------------------------------------------------------
      1          6           0       -2.552756    1.214633   -0.245914
      2          6           0       -1.161357    1.215023   -0.173181
      3          6           0       -0.446436    0.000744   -0.134147
      4          6           0       -1.162019   -1.213078   -0.175944
      5          6           0       -2.553388   -1.211761   -0.248747
      6          6           0       -3.249174    0.001682   -0.282755
      7          1           0       -3.110452    2.145767   -0.288391
      8          1           0       -0.616336    2.154131   -0.150243
      9          1           0       -0.617491   -2.152522   -0.155203
     10          1           0       -3.111511   -2.142540   -0.293497
     11          6           0        0.980542    0.000261   -0.060788
     12          6           0        2.191429    0.000337    0.004281
     13         35           0        4.018195   -0.000630    0.095931
     14          8           0       -4.623922    0.002419   -0.396710
     15          6           0       -5.321888   -0.004866    0.852592
     16          1           0       -6.387090   -0.003285    0.610780
     17          1           0       -5.076307   -0.903875    1.434902
     18          1           0       -5.075970    0.887185    1.445370
 ---------------------------------------------------------------------
                    Distance matrix (angstroms):
                    1          2          3          4          5
     1  C    0.000000
     2  C    1.393299   0.000000
     3  C    2.433640   1.409649   0.000000
     4  C    2.798719   2.428103   1.409670   0.000000
     5  C    2.426396   2.798703   2.433629   1.393273   0.000000
     6  C    1.399145   2.417268   2.806675   2.417285   1.399185
     7  H    1.086204   2.162991   3.423725   3.884698   3.403658
     8  H    2.154421   1.086047   2.160139   3.411235   3.884727
     9  H    3.884741   3.411227   2.160152   1.086046   2.154409
    10  H    3.403687   3.884689   3.423694   2.162923   1.086211
    11  C    3.740744   2.464956   1.428862   2.464958   3.740720
    12  C    4.903509   3.570452   2.641495   3.570780   4.903722
    13  Br   6.691122   5.327100   4.470556   5.327153   6.691139
    14  O    2.404565   3.675558   4.185729   3.675723   2.404836
    15  C    3.219004   4.455374   4.974306   4.452210   3.214675
    16  H    4.113316   5.422836   5.987178   5.420692   4.110532
    17  H    3.698855   4.733127   4.971514   4.244064   3.048703
    18  H    3.055204   4.248692   4.971241   4.728507   3.693105
                    6          7          8          9         10
     6  C    0.000000
     7  H    2.148575   0.000000
     8  H    3.403297   2.497953   0.000000
     9  H    3.403325   4.970702   4.306656   0.000000
    10  H    2.148663   4.288310   4.970694   2.497871   0.000000
    11  C    4.235536   4.625066   2.682756   2.682741   4.625002
    12  C    5.448170   5.726995   3.542069   3.542636   5.727283
    13  Br   7.277229   7.454685   5.116881   5.116961   7.454672
    14  O    1.379463   2.626074   4.555366   4.555610   2.626574
    15  C    2.363303   3.288999   5.273440   5.268722   3.281606
    16  H    3.262659   4.020359   6.207673   6.204371   4.015414
    17  H    2.666232   4.016795   5.635195   4.895773   2.895182
    18  H    2.666030   2.907442   4.903006   5.628471   4.007741
                   11         12         13         14         15
    11  C    0.000000
    12  C    1.212634   0.000000
    13  Br   3.041693   1.829064   0.000000
    14  O    5.614523   6.827138   8.656148   0.000000
    15  C    6.368274   7.561058   9.370683   1.431071   0.000000
    16  H    7.398177   8.599933  10.418015   2.030722   1.092305
    17  H    6.303965   7.462189   9.236810   2.093042   1.098914
    18  H    6.303688   7.461791   9.236506   2.092945   1.098916
                   16         17         18
    16  H    0.000000
    17  H    1.791198   0.000000
    18  H    1.791232   1.791091   0.000000
 Stoichiometry    C9H7BrO
 Framework group  C1[X(C9H7BrO)]
 Deg. of freedom    48
 Full point group                 C1      NOp   1
 Largest Abelian subgroup         C1      NOp   1
 Largest concise Abelian subgroup C1      NOp   1
                         Standard orientation:                         
 ---------------------------------------------------------------------
 Center     Atomic      Atomic             Coordinates (Angstroms)
 Number     Number       Type             X           Y           Z
 ---------------------------------------------------------------------
      1          6           0       -2.552756    1.214633   -0.245914
      2          6           0       -1.161357    1.215023   -0.173181
      3          6           0       -0.446436    0.000744   -0.134147
      4          6           0       -1.162019   -1.213078   -0.175944
      5          6           0       -2.553388   -1.211761   -0.248747
      6          6           0       -3.249174    0.001682   -0.282755
      7          1           0       -3.110452    2.145767   -0.288391
      8          1           0       -0.616336    2.154131   -0.150243
      9          1           0       -0.617491   -2.152522   -0.155203
     10          1           0       -3.111511   -2.142540   -0.293497
     11          6           0        0.980542    0.000261   -0.060788
     12          6           0        2.191429    0.000337    0.004281
     13         35           0        4.018195   -0.000630    0.095931
     14          8           0       -4.623922    0.002419   -0.396710
     15          6           0       -5.321888   -0.004866    0.852592
     16          1           0       -6.387090   -0.003285    0.610780
     17          1           0       -5.076307   -0.903875    1.434902
     18          1           0       -5.075970    0.887185    1.445370
 ---------------------------------------------------------------------
 Rotational constants (GHZ):           4.5569112           0.2054684           0.1997074
 General basis read from cards:  (5D, 7F)
 ======================================================================================================
                                       Pseudopotential Parameters
 ======================================================================================================
  Center     Atomic      Valence      Angular      Power
  Number     Number     Electrons     Momentum     of R      Exponent        Coefficient   SO-Coeffient
 ======================================================================================================
    1          6
                                   No pseudopotential on this center.
    2          6
                                   No pseudopotential on this center.
    3          6
                                   No pseudopotential on this center.
    4          6
                                   No pseudopotential on this center.
    5          6
                                   No pseudopotential on this center.
    6          6
                                   No pseudopotential on this center.
    7          1
                                   No pseudopotential on this center.
    8          1
                                   No pseudopotential on this center.
    9          1
                                   No pseudopotential on this center.
   10          1
                                   No pseudopotential on this center.
   11          6
                                   No pseudopotential on this center.
   12          6
                                   No pseudopotential on this center.
   13         35            7
                                      G and up 
                                                     2        1.0000000        0.00000000    0.00000000
                                      S - G
                                                     2        5.0218000       61.51372100    0.00000000
                                                     2        2.5109000        9.02149300    0.00000000
                                      P - G
                                                     2        4.2814000       53.87586400    0.00000000
                                                     2        2.1407000        4.62940200    0.00000000
                                      D - G
                                                     2        2.8800000       20.84967700    0.00000000
                                                     2        1.4400000        2.96544400    0.00000000
                                      F - G
                                                     2        2.7207000       -8.16149300    0.00000000
   14          8
                                   No pseudopotential on this center.
   15          6
                                   No pseudopotential on this center.
   16          1
                                   No pseudopotential on this center.
   17          1
                                   No pseudopotential on this center.
   18          1
                                   No pseudopotential on this center.
 ======================================================================================================
 There are   215 symmetry adapted cartesian basis functions of A   symmetry.
 There are   205 symmetry adapted basis functions of A   symmetry.
   205 basis functions,   367 primitive gaussians,   215 cartesian basis functions
    38 alpha electrons       38 beta electrons
       nuclear repulsion energy       496.8143629775 Hartrees.
 NAtoms=   18 NActive=   18 NUniq=   18 SFac= 1.00D+00 NAtFMM=   60 NAOKFM=F Big=F
 Integral buffers will be    131072 words long.
 Raffenetti 2 integral format.
 Two-electron integral symmetry is turned on.
 Nuclear repulsion after empirical dispersion term =      496.8017640929 Hartrees.
 One-electron integrals computed using PRISM.
   1 Symmetry operations used in ECPInt.
 ECPInt:  NShTT=    2415 NPrTT=   12610 LenC2=    2329 LenP2D=    8505.
 LDataN:  DoStor=T MaxTD1= 6 Len=  172
 NBasis=   205 RedAO= T EigKep=  1.76D-06  NBF=   205
 NBsUse=   204 1.00D-06 EigRej=  6.68D-08 NBFU=   204
 ExpMin= 3.61D-02 ExpMax= 5.48D+03 ExpMxC= 8.25D+02 IAcc=3 IRadAn=         5 AccDes= 0.00D+00
 Harris functional with IExCor=  402 and IRadAn=       5 diagonalized for initial guess.
 HarFok:  IExCor=  402 AccDes= 0.00D+00 IRadAn=         5 IDoV= 1 UseB2=F ITyADJ=14
 ICtDFT=  3500011 ScaDFX=  1.000000  1.000000  1.000000  1.000000
 FoFCou: FMM=F IPFlag=           0 FMFlag=      100000 FMFlg1=           0
         NFxFlg=           0 DoJE=T BraDBF=F KetDBF=T FulRan=T
         wScrn=  0.000000 ICntrl=       500 IOpCl=  0 I1Cent=   200000004 NGrid=           0
         NMat0=    1 NMatS0=      1 NMatT0=    0 NMatD0=    1 NMtDS0=    0 NMtDT0=    0
 Petite list used in FoFCou.
 Requested convergence on RMS density matrix=1.00D-08 within1000 cycles.
 Requested convergence on MAX density matrix=1.00D-06.
 Requested convergence on             energy=1.00D-06.
 No special actions if energy rises.
 SCF Done:  E(RB3LYP) =  -435.694586329     A.U. after   14 cycles
            NFock= 14  Conv=0.73D-08     -V/T= 2.0276

 **********************************************************************

            Population analysis using the SCF Density.

 **********************************************************************

 Orbital symmetries:
       Occupied  (A) (A) (A) (A) (A) (A) (A) (A) (A) (A) (A) (A)
                 (A) (A) (A) (A) (A) (A) (A) (A) (A) (A) (A) (A)
                 (A) (A) (A) (A) (A) (A) (A) (A) (A) (A) (A) (A)
                 (A) (A)
       Virtual   (A) (A) (A) (A) (A) (A) (A) (A) (A) (A) (A) (A)
                 (A) (A) (A) (A) (A) (A) (A) (A) (A) (A) (A) (A)
                 (A) (A) (A) (A) (A) (A) (A) (A) (A) (A) (A) (A)
                 (A) (A) (A) (A) (A) (A) (A) (A) (A) (A) (A) (A)
                 (A) (A) (A) (A) (A) (A) (A) (A) (A) (A) (A) (A)
                 (A) (A) (A) (A) (A) (A) (A) (A) (A) (A) (A) (A)
                 (A) (A) (A) (A) (A) (A) (A) (A) (A) (A) (A) (A)
                 (A) (A) (A) (A) (A) (A) (A) (A) (A) (A) (A) (A)
                 (A) (A) (A) (A) (A) (A) (A) (A) (A) (A) (A) (A)
                 (A) (A) (A) (A) (A) (A) (A) (A) (A) (A) (A) (A)
                 (A) (A) (A) (A) (A) (A) (A) (A) (A) (A) (A) (A)
                 (A) (A) (A) (A) (A) (A) (A) (A) (A) (A) (A) (A)
                 (A) (A) (A) (A) (A) (A) (A) (A) (A) (A) (A) (A)
                 (A) (A) (A) (A) (A) (A) (A) (A) (A) (A)
 The electronic state is 1-A.
 Alpha  occ. eigenvalues --  -19.17473 -10.25605 -10.23998 -10.23374 -10.22537
 Alpha  occ. eigenvalues --  -10.20768 -10.20767 -10.20509 -10.20137 -10.20135
 Alpha  occ. eigenvalues --   -1.06382  -0.87635  -0.86970  -0.79141  -0.76602
 Alpha  occ. eigenvalues --   -0.73792  -0.69982  -0.63091  -0.61817  -0.55400
 Alpha  occ. eigenvalues --   -0.52529  -0.49398  -0.48783  -0.47013  -0.45786
 Alpha  occ. eigenvalues --   -0.44610  -0.43844  -0.41002  -0.39267  -0.37579
 Alpha  occ. eigenvalues --   -0.36725  -0.36096  -0.35333  -0.29879  -0.28697
 Alpha  occ. eigenvalues --   -0.27067  -0.27019  -0.23380
 Alpha virt. eigenvalues --   -0.04268  -0.03082  -0.02579   0.00199   0.01556
 Alpha virt. eigenvalues --    0.02177   0.02992   0.03172   0.03774   0.04174
 Alpha virt. eigenvalues --    0.04802   0.04972   0.05160   0.05914   0.06263
 Alpha virt. eigenvalues --    0.07359   0.07513   0.07897   0.09220   0.09378
 Alpha virt. eigenvalues --    0.10119   0.10646   0.11731   0.12978   0.13093
 Alpha virt. eigenvalues --    0.14381   0.14587   0.15436   0.15831   0.16009
 Alpha virt. eigenvalues --    0.16150   0.17090   0.18031   0.18205   0.18990
 Alpha virt. eigenvalues --    0.19973   0.20694   0.21253   0.21972   0.22890
 Alpha virt. eigenvalues --    0.23525   0.24565   0.24775   0.25247   0.26232
 Alpha virt. eigenvalues --    0.26322   0.27278   0.27936   0.28197   0.29244
 Alpha virt. eigenvalues --    0.29298   0.31029   0.31584   0.33112   0.34623
 Alpha virt. eigenvalues --    0.36385   0.36890   0.37890   0.38587   0.40616
 Alpha virt. eigenvalues --    0.40987   0.41966   0.44357   0.48853   0.51202
 Alpha virt. eigenvalues --    0.56969   0.59762   0.64792   0.65959   0.67613
 Alpha virt. eigenvalues --    0.68361   0.70169   0.70809   0.71620   0.71764
 Alpha virt. eigenvalues --    0.73924   0.74606   0.76771   0.77021   0.77284
 Alpha virt. eigenvalues --    0.78100   0.79709   0.80929   0.82177   0.83323
 Alpha virt. eigenvalues --    0.86165   0.86575   0.90195   0.91936   0.92154
 Alpha virt. eigenvalues --    0.94093   0.94485   0.97789   0.98134   1.02206
 Alpha virt. eigenvalues --    1.04635   1.05651   1.08227   1.08308   1.12903
 Alpha virt. eigenvalues --    1.16129   1.18435   1.21334   1.22909   1.24137
 Alpha virt. eigenvalues --    1.25679   1.26478   1.29425   1.31447   1.35081
 Alpha virt. eigenvalues --    1.38510   1.39529   1.42923   1.43176   1.44647
 Alpha virt. eigenvalues --    1.48583   1.51986   1.52407   1.53965   1.55762
 Alpha virt. eigenvalues --    1.60102   1.63338   1.71908   1.75931   1.79032
 Alpha virt. eigenvalues --    1.81725   1.82631   1.87418   1.89968   1.90760
 Alpha virt. eigenvalues --    1.95042   1.96114   1.98505   1.98777   2.04782
 Alpha virt. eigenvalues --    2.09676   2.09877   2.10411   2.12246   2.16927
 Alpha virt. eigenvalues --    2.16992   2.18721   2.23871   2.25796   2.27206
 Alpha virt. eigenvalues --    2.28986   2.29993   2.40049   2.45127   2.46003
 Alpha virt. eigenvalues --    2.53688   2.60251   2.63938   2.65278   2.66452
 Alpha virt. eigenvalues --    2.73751   2.75549   2.80804   2.81521   2.85059
 Alpha virt. eigenvalues --    2.97872   3.07650   3.17258   3.28793   3.49820
 Alpha virt. eigenvalues --    7.60124
          Condensed to atoms (all electrons):
               1          2          3          4          5          6
     1  C   11.334759  -4.810295   1.476893   2.764096  -3.308637  -0.430368
     2  C   -4.810295  17.216971  -2.536821  -8.202547   2.765322   0.388263
     3  C    1.476893  -2.536821  22.130064  -2.527246   1.471125  -0.420804
     4  C    2.764096  -8.202547  -2.527246  17.227369  -4.815169   0.383137
     5  C   -3.308637   2.765322   1.471125  -4.815169  11.322095  -0.405695
     6  C   -0.430368   0.388263  -0.420804   0.383137  -0.405695   7.180327
     7  H    0.323467  -0.066932   0.004983  -0.020137   0.037297   0.017296
     8  H   -0.052520   0.279855   0.003888   0.059600  -0.028714   0.010056
     9  H   -0.028794   0.059709   0.004006   0.279964  -0.052642   0.010059
    10  H    0.036946  -0.020075   0.005245  -0.067006   0.324407   0.016350
    11  C   -1.956491   1.981423 -22.849681   1.980637  -1.963631  -0.887350
    12  C    0.615770  -0.757553   9.557415  -0.763589   0.617066   0.214648
    13  Br   0.007988   0.019487   0.020465   0.019552   0.007978   0.001001
    14  O   -0.235880   0.065398  -0.034215   0.065017  -0.234712   0.461937
    15  C    0.083190  -0.033261   0.014912  -0.032947   0.086057  -0.315279
    16  H    0.005272  -0.001671   0.000624  -0.001591   0.005500  -0.002740
    17  H   -0.055210   0.025413   0.000702  -0.036344   0.064973  -0.000801
    18  H    0.065540  -0.036045   0.000819   0.025291  -0.055124  -0.001339
               7          8          9         10         11         12
     1  C    0.323467  -0.052520  -0.028794   0.036946  -1.956491   0.615770
     2  C   -0.066932   0.279855   0.059709  -0.020075   1.981423  -0.757553
     3  C    0.004983   0.003888   0.004006   0.005245 -22.849681   9.557415
     4  C   -0.020137   0.059600   0.279964  -0.067006   1.980637  -0.763589
     5  C    0.037297  -0.028714  -0.052642   0.324407  -1.963631   0.617066
     6  C    0.017296   0.010056   0.010059   0.016350  -0.887350   0.214648
     7  H    0.518506  -0.004391   0.000015  -0.000150   0.000412  -0.000003
     8  H   -0.004391   0.519144  -0.000154   0.000015   0.026163  -0.008455
     9  H    0.000015  -0.000154   0.519169  -0.004392   0.025910  -0.008356
    10  H   -0.000150   0.000015  -0.004392   0.518623   0.000489  -0.000020
    11  C    0.000412   0.026163   0.025910   0.000489  46.909887 -17.934562
    12  C   -0.000003  -0.008455  -0.008356  -0.000020 -17.934562  15.163365
    13  Br   0.000002   0.000013   0.000013   0.000002  -0.173864   0.184540
    14  O   -0.003050  -0.000607  -0.000606  -0.003015   0.010084  -0.002324
    15  C   -0.000300  -0.000242  -0.000240  -0.000323  -0.018198   0.004452
    16  H   -0.000062   0.000000   0.000000  -0.000062   0.000073  -0.000004
    17  H    0.000042   0.000000   0.000007   0.000111  -0.000394   0.000011
    18  H    0.000102   0.000007   0.000000   0.000043  -0.000363   0.000009
              13         14         15         16         17         18
     1  C    0.007988  -0.235880   0.083190   0.005272  -0.055210   0.065540
     2  C    0.019487   0.065398  -0.033261  -0.001671   0.025413  -0.036045
     3  C    0.020465  -0.034215   0.014912   0.000624   0.000702   0.000819
     4  C    0.019552   0.065017  -0.032947  -0.001591  -0.036344   0.025291
     5  C    0.007978  -0.234712   0.086057   0.005500   0.064973  -0.055124
     6  C    0.001001   0.461937  -0.315279  -0.002740  -0.000801  -0.001339
     7  H    0.000002  -0.003050  -0.000300  -0.000062   0.000042   0.000102
     8  H    0.000013  -0.000607  -0.000242   0.000000   0.000000   0.000007
     9  H    0.000013  -0.000606  -0.000240   0.000000   0.000007   0.000000
    10  H    0.000002  -0.003015  -0.000323  -0.000062   0.000111   0.000043
    11  C   -0.173864   0.010084  -0.018198   0.000073  -0.000394  -0.000363
    12  C    0.184540  -0.002324   0.004452  -0.000004   0.000011   0.000009
    13  Br   6.613146   0.000005   0.000006   0.000000   0.000000   0.000000
    14  O    0.000005   8.322411   0.131467  -0.052408  -0.049618  -0.049763
    15  C    0.000006   0.131467   5.269470   0.393385   0.388396   0.388069
    16  H    0.000000  -0.052408   0.393385   0.508398  -0.029454  -0.029432
    17  H    0.000000  -0.049618   0.388396  -0.029454   0.541634  -0.043629
    18  H    0.000000  -0.049763   0.388069  -0.029432  -0.043629   0.541504
 Mulliken charges:
               1
     1  C    0.164274
     2  C   -0.336641
     3  C   -0.322372
     4  C   -0.338086
     5  C    0.162504
     6  C   -0.218699
     7  H    0.192903
     8  H    0.196345
     9  H    0.196334
    10  H    0.192813
    11  C    0.849457
    12  C   -0.882410
    13  Br   0.299665
    14  O   -0.390121
    15  C   -0.358614
    16  H    0.204171
    17  H    0.194164
    18  H    0.194313
 Sum of Mulliken charges =   0.00000
 Mulliken charges with hydrogens summed into heavy atoms:
               1
     1  C    0.357177
     2  C   -0.140296
     3  C   -0.322372
     4  C   -0.141752
     5  C    0.355317
     6  C   -0.218699
    11  C    0.849457
    12  C   -0.882410
    13  Br   0.299665
    14  O   -0.390121
    15  C    0.234035
 Electronic spatial extent (au):  <R**2>=           3109.9300
 Charge=              0.0000 electrons
 Dipole moment (field-independent basis, Debye):
    X=             -1.0127    Y=             -0.0083    Z=              1.3773  Tot=              1.7095
 Quadrupole moment (field-independent basis, Debye-Ang):
   XX=            -63.2402   YY=            -68.1607   ZZ=            -76.7373
   XY=              0.0427   XZ=             -7.2853   YZ=              0.0095
 Traceless Quadrupole moment (field-independent basis, Debye-Ang):
   XX=              6.1392   YY=              1.2187   ZZ=             -7.3579
   XY=              0.0427   XZ=             -7.2853   YZ=              0.0095
 Octapole moment (field-independent basis, Debye-Ang**2):
  XXX=            147.5830  YYY=             -0.0126  ZZZ=              5.9711  XYY=             39.3867
  XXY=             -0.2647  XXZ=             43.0301  XZZ=             54.2179  YZZ=             -0.0115
  YYZ=              0.3710  XYZ=             -0.0165
 Hexadecapole moment (field-independent basis, Debye-Ang**3):
 XXXX=          -4057.0960 YYYY=           -324.2447 ZZZZ=           -155.0796 XXXY=              1.0201
 XXXZ=           -181.0920 YYYX=             -0.1260 YYYZ=              0.0440 ZZZX=             12.8839
 ZZZY=             -0.0011 XXYY=           -806.7216 XXZZ=           -811.1455 YYZZ=            -90.3579
 XXYZ=              0.0349 YYXZ=              7.2445 ZZXY=             -0.0461
 N-N= 4.968017640929D+02 E-N=-2.001185311432D+03  KE= 4.239952579484D+02
 Evaluate density.
 Using the total density.
 Monte-Carlo method of calculating molar volume:
 based on  0.001 e/bohr**3 density envelope.
 Number of points per bohr**3 =   20 CutOff= 1.00D-04
 Using the SCF density.
 There are       469 points.  Will hold       469 in memory.
 LenV=  8052916634 MDV=  8053063680.
 Box volume =12953.349 fraction occupied=0.098
 Integrated density= 6.6039077244685942D+01 error=-9.9609227553140585D+00
 Molar volume = 1270.478 bohr**3/mol (113.376 cm**3/mol)
 Recommended a0 for SCRF calculation =  4.41 angstrom (  8.34 bohr)
   1 Symmetry operations used in ECPInt.
 ECPInt:  NShTT=    2415 NPrTT=   12610 LenC2=    2329 LenP2D=    8505.
 LDataN:  DoStor=T MaxTD1= 7 Len=  274
 Calling FoFJK, ICntrl=      2127 FMM=F ISym2X=0 I1Cent= 0 IOpClX= 0 NMat=1 NMatS=1 NMatT=0.
 ***** Axes restored to original set *****
 -------------------------------------------------------------------
 Center     Atomic                   Forces (Hartrees/Bohr)
 Number     Number              X              Y              Z
 -------------------------------------------------------------------
      1        6          -0.000131716   -0.000015385   -0.000010221
      2        6           0.000124640    0.000041655    0.000006135
      3        6          -0.000083501   -0.000006175   -0.000004448
      4        6           0.000124245   -0.000039649    0.000012152
      5        6          -0.000129601    0.000018941    0.000000698
      6        6          -0.000025814   -0.000016526    0.000018436
      7        1           0.000001473   -0.000005338    0.000000856
      8        1          -0.000031190   -0.000025246   -0.000001990
      9        1          -0.000031425    0.000023591   -0.000003469
     10        1           0.000004086    0.000002938   -0.000000453
     11        6           0.000103949    0.000018390    0.000000680
     12        6           0.000063295   -0.000018032    0.000006097
     13       35          -0.000085746    0.000005109   -0.000003925
     14        8           0.000020402    0.000030372    0.000006127
     15        6           0.000119132   -0.000014996   -0.000064859
     16        1          -0.000006995   -0.000002061   -0.000016804
     17        1          -0.000017794   -0.000011407    0.000028759
     18        1          -0.000017440    0.000013820    0.000026229
 -------------------------------------------------------------------
 Cartesian Forces:  Max     0.000131716 RMS     0.000048409

 GradGradGradGradGradGradGradGradGradGradGradGradGradGradGradGradGradGrad
 Berny optimization.
 FormGI is forming the generalized inverse of G from B-inverse, IUseBI=4.
 Internal  Forces:  Max     0.000095918 RMS     0.000029190
 Search for a local minimum.
 Step number   1 out of a maximum of   86
 All quantities printed in internal units (Hartrees-Bohrs-Radians)
 Mixed Optimization -- En-DIIS/RFO-DIIS
 Second derivative matrix not updated -- first step.
 ITU=  0
     Eigenvalues ---    0.00780   0.00780   0.01281   0.01961   0.01963
     Eigenvalues ---    0.02000   0.02057   0.02072   0.02086   0.02115
     Eigenvalues ---    0.02119   0.02142   0.02147   0.04567   0.04567
     Eigenvalues ---    0.10092   0.10567   0.15998   0.15999   0.16000
     Eigenvalues ---    0.16000   0.16000   0.16000   0.16000   0.22000
     Eigenvalues ---    0.22206   0.22970   0.23998   0.24983   0.25000
     Eigenvalues ---    0.25000   0.33802   0.33802   0.34548   0.35254
     Eigenvalues ---    0.35255   0.35273   0.35274   0.40836   0.41099
     Eigenvalues ---    0.41153   0.41590   0.44690   0.45059   0.46021
     Eigenvalues ---    0.46752   0.49201   0.98723
 RFO step:  Lambda=-2.71320310D-07 EMin= 7.79792932D-03
 Linear search not attempted -- first point.
 Iteration  1 RMS(Cart)=  0.00067090 RMS(Int)=  0.00000065
 Iteration  2 RMS(Cart)=  0.00000067 RMS(Int)=  0.00000001
 Variable       Old X    -DE/DX   Delta X   Delta X   Delta X     New X
                                 (Linear)    (Quad)   (Total)
    R1        2.63295   0.00009   0.00000   0.00020   0.00020   2.63315
    R2        2.64400  -0.00004   0.00000  -0.00009  -0.00009   2.64391
    R3        2.05263  -0.00001   0.00000  -0.00002  -0.00002   2.05261
    R4        2.66385   0.00002   0.00000   0.00004   0.00004   2.66389
    R5        2.05233  -0.00004   0.00000  -0.00011  -0.00011   2.05222
    R6        2.66389   0.00002   0.00000   0.00004   0.00004   2.66393
    R7        2.70016   0.00008   0.00000   0.00020   0.00020   2.70036
    R8        2.63290   0.00009   0.00000   0.00020   0.00020   2.63310
    R9        2.05233  -0.00004   0.00000  -0.00010  -0.00010   2.05223
   R10        2.64408  -0.00004   0.00000  -0.00009  -0.00009   2.64399
   R11        2.05264   0.00000   0.00000  -0.00001  -0.00001   2.05263
   R12        2.60681  -0.00010   0.00000  -0.00019  -0.00019   2.60661
   R13        2.29155  -0.00002   0.00000  -0.00002  -0.00002   2.29152
   R14        3.45643  -0.00009   0.00000  -0.00039  -0.00039   3.45604
   R15        2.70433  -0.00006   0.00000  -0.00015  -0.00015   2.70419
   R16        2.06416   0.00001   0.00000   0.00003   0.00003   2.06419
   R17        2.07665   0.00002   0.00000   0.00006   0.00006   2.07671
   R18        2.07665   0.00002   0.00000   0.00006   0.00006   2.07671
    A1        2.09288   0.00000   0.00000  -0.00003  -0.00003   2.09285
    A2        2.11126   0.00000   0.00000   0.00002   0.00002   2.11129
    A3        2.07895   0.00000   0.00000   0.00000   0.00000   2.07896
    A4        2.10328  -0.00001   0.00000  -0.00003  -0.00003   2.10325
    A5        2.09728  -0.00001   0.00000  -0.00008  -0.00008   2.09721
    A6        2.08261   0.00002   0.00000   0.00011   0.00011   2.08272
    A7        2.07540   0.00000   0.00000   0.00002   0.00002   2.07542
    A8        2.10390   0.00000   0.00000  -0.00001  -0.00001   2.10388
    A9        2.10387   0.00000   0.00000   0.00000   0.00000   2.10387
   A10        2.10327  -0.00001   0.00000  -0.00003  -0.00003   2.10324
   A11        2.08260   0.00002   0.00000   0.00011   0.00011   2.08272
   A12        2.09730  -0.00001   0.00000  -0.00008  -0.00008   2.09722
   A13        2.09288   0.00000   0.00000  -0.00003  -0.00003   2.09285
   A14        2.11118   0.00000   0.00000   0.00000   0.00000   2.11118
   A15        2.07903   0.00000   0.00000   0.00003   0.00003   2.07906
   A16        2.09865   0.00003   0.00000   0.00010   0.00010   2.09875
   A17        2.09181  -0.00002   0.00000  -0.00009  -0.00009   2.09172
   A18        2.09215  -0.00001   0.00000  -0.00001  -0.00001   2.09213
   A19        1.99757  -0.00006   0.00000  -0.00022  -0.00022   1.99735
   A20        1.85704  -0.00004   0.00000  -0.00030  -0.00030   1.85674
   A21        1.93667   0.00004   0.00000   0.00030   0.00030   1.93696
   A22        1.93652   0.00004   0.00000   0.00026   0.00026   1.93679
   A23        1.91391  -0.00001   0.00000  -0.00013  -0.00013   1.91379
   A24        1.91396  -0.00001   0.00000  -0.00012  -0.00012   1.91385
   A25        1.90524  -0.00002   0.00000  -0.00003  -0.00003   1.90521
   A26        3.14120   0.00001   0.00000   0.00026   0.00026   3.14146
   A27        3.14098   0.00002   0.00000   0.00225   0.00225   3.14323
   A28        3.13870   0.00000   0.00000  -0.00005  -0.00005   3.13865
   A29        3.13575   0.00000   0.00000  -0.00014  -0.00014   3.13561
    D1       -0.00173   0.00000   0.00000  -0.00005  -0.00005  -0.00178
    D2        3.13533   0.00000   0.00000  -0.00010  -0.00010   3.13523
    D3       -3.12867   0.00000   0.00000   0.00005   0.00005  -3.12862
    D4        0.00838   0.00000   0.00000   0.00000   0.00000   0.00838
    D5       -0.00159   0.00000   0.00000   0.00012   0.00012  -0.00147
    D6       -3.10645   0.00000   0.00000   0.00018   0.00018  -3.10627
    D7        3.12563   0.00000   0.00000   0.00002   0.00002   3.12565
    D8        0.02077   0.00000   0.00000   0.00009   0.00009   0.02085
    D9        0.00490   0.00000   0.00000  -0.00006  -0.00006   0.00484
   D10        3.14059   0.00000   0.00000  -0.00009  -0.00009   3.14050
   D11       -3.13219   0.00000   0.00000  -0.00001  -0.00001  -3.13220
   D12        0.00350   0.00000   0.00000  -0.00004  -0.00004   0.00346
   D13       -0.00484   0.00000   0.00000   0.00010   0.00010  -0.00473
   D14        3.13213   0.00000   0.00000  -0.00004  -0.00004   3.13209
   D15       -3.14053   0.00000   0.00000   0.00013   0.00013  -3.14040
   D16       -0.00356   0.00000   0.00000  -0.00001  -0.00001  -0.00357
   D17        0.00161   0.00000   0.00000  -0.00004  -0.00004   0.00157
   D18        3.12850   0.00000   0.00000  -0.00012  -0.00012   3.12839
   D19       -3.13532   0.00000   0.00000   0.00011   0.00011  -3.13522
   D20       -0.00842   0.00000   0.00000   0.00003   0.00003  -0.00840
   D21        0.00165   0.00000   0.00000  -0.00007  -0.00007   0.00158
   D22        3.10651   0.00000   0.00000  -0.00014  -0.00014   3.10636
   D23       -3.12552   0.00000   0.00000   0.00001   0.00001  -3.12551
   D24       -0.02066   0.00000   0.00000  -0.00006  -0.00006  -0.02073
   D25       -1.59378  -0.00001   0.00000  -0.00074  -0.00074  -1.59453
   D26        1.58440  -0.00001   0.00000  -0.00067  -0.00067   1.58373
   D27        3.14149   0.00000   0.00000   0.00022   0.00022  -3.14147
   D28       -1.06075  -0.00001   0.00000   0.00005   0.00005  -1.06069
   D29        1.06055   0.00002   0.00000   0.00040   0.00040   1.06095
         Item               Value     Threshold  Converged?
 Maximum Force            0.000096     0.000450     YES
 RMS     Force            0.000029     0.000300     YES
 Maximum Displacement     0.004058     0.001800     NO 
 RMS     Displacement     0.000671     0.001200     YES
 Predicted change in Energy=-1.356630D-07
 GradGradGradGradGradGradGradGradGradGradGradGradGradGradGradGradGradGrad

                          Input orientation:                          
 ---------------------------------------------------------------------
 Center     Atomic      Atomic             Coordinates (Angstroms)
 Number     Number       Type             X           Y           Z
 ---------------------------------------------------------------------
      1          6           0       -2.552610    1.214744   -0.245879
      2          6           0       -1.161106    1.214889   -0.173158
      3          6           0       -0.446430    0.000443   -0.134049
      4          6           0       -1.162264   -1.213262   -0.175679
      5          6           0       -2.553735   -1.211638   -0.248522
      6          6           0       -3.249187    0.001939   -0.282682
      7          1           0       -3.110153    2.145955   -0.288459
      8          1           0       -0.616013    2.153893   -0.150347
      9          1           0       -0.618051   -2.152825   -0.154925
     10          1           0       -3.112062   -2.142288   -0.293256
     11          6           0        0.980659   -0.000317   -0.060814
     12          6           0        2.191537   -0.000794    0.004193
     13         35           0        4.018108    0.001517    0.095623
     14          8           0       -4.623815    0.003001   -0.396833
     15          6           0       -5.321650   -0.004944    0.852450
     16          1           0       -6.386812   -0.003249    0.610390
     17          1           0       -5.076340   -0.904265    1.434455
     18          1           0       -5.076007    0.886826    1.445827
 ---------------------------------------------------------------------
                    Distance matrix (angstroms):
                    1          2          3          4          5
     1  C    0.000000
     2  C    1.393403   0.000000
     3  C    2.433727   1.409670   0.000000
     4  C    2.798786   2.428152   1.409692   0.000000
     5  C    2.426384   2.798773   2.433717   1.393377   0.000000
     6  C    1.399096   2.417297   2.806696   2.417315   1.399139
     7  H    1.086196   2.163091   3.423812   3.884756   3.403620
     8  H    2.154422   1.085991   2.160179   3.411270   3.884740
     9  H    3.884754   3.411266   2.160197   1.085992   2.154406
    10  H    3.403658   3.884750   3.423775   2.163013   1.086204
    11  C    3.740937   2.465056   1.428967   2.465066   3.740919
    12  C    4.903774   3.570652   2.641587   3.570773   4.903837
    13  Br   6.690507   5.326234   4.470442   5.327809   6.691734
    14  O    2.404371   3.675467   4.185643   3.675668   2.404698
    15  C    3.218936   4.455333   4.974031   4.451694   3.213970
    16  H    4.113127   5.422713   5.986848   5.420142   4.109795
    17  H    3.699045   4.733317   4.971395   4.243584   3.048020
    18  H    3.055639   4.249139   4.971385   4.728322   3.692726
                    6          7          8          9         10
     6  C    0.000000
     7  H    2.148527   0.000000
     8  H    3.403237   2.497974   0.000000
     9  H    3.403264   4.970706   4.306721   0.000000
    10  H    2.148633   4.288246   4.970699   2.497867   0.000000
    11  C    4.235661   4.625262   2.682909   2.682914   4.625196
    12  C    5.448283   5.727312   3.542443   3.542647   5.727359
    13  Br   7.277135   7.453740   5.115497   5.118392   7.455632
    14  O    1.379360   2.625866   4.555169   4.555464   2.626478
    15  C    2.362981   3.289189   5.273443   5.268021   3.280725
    16  H    3.262253   4.020386   6.207584   6.203627   4.014480
    17  H    2.666131   4.017234   5.635463   4.895035   2.894145
    18  H    2.666090   2.908218   4.903547   5.628077   4.007121
                   11         12         13         14         15
    11  C    0.000000
    12  C    1.212622   0.000000
    13  Br   3.041475   1.828859   0.000000
    14  O    5.614539   6.827142   8.655943   0.000000
    15  C    6.368138   7.560922   9.370375   1.430994   0.000000
    16  H    7.397983   8.599742  10.417647   2.030442   1.092321
    17  H    6.303982   7.462168   9.236986   2.093209   1.098947
    18  H    6.303982   7.462129   9.236328   2.093088   1.098950
                   16         17         18
    16  H    0.000000
    17  H    1.791159   0.000000
    18  H    1.791200   1.791127   0.000000
 Stoichiometry    C9H7BrO
 Framework group  C1[X(C9H7BrO)]
 Deg. of freedom    48
 Full point group                 C1      NOp   1
 Largest Abelian subgroup         C1      NOp   1
 Largest concise Abelian subgroup C1      NOp   1
                         Standard orientation:                         
 ---------------------------------------------------------------------
 Center     Atomic      Atomic             Coordinates (Angstroms)
 Number     Number       Type             X           Y           Z
 ---------------------------------------------------------------------
      1          6           0       -2.552315    1.214696   -0.245792
      2          6           0       -1.160811    1.214513   -0.173071
      3          6           0       -0.446421   -0.000101   -0.133962
      4          6           0       -1.162542   -1.213637   -0.175593
      5          6           0       -2.554013   -1.211685   -0.248435
      6          6           0       -3.249178    0.002056   -0.282595
      7          1           0       -3.109639    2.146039   -0.288373
      8          1           0       -0.615497    2.153389   -0.150260
      9          1           0       -0.618550   -2.153329   -0.154838
     10          1           0       -3.112559   -2.142203   -0.293169
     11          6           0        0.980667   -0.001197   -0.060727
     12          6           0        2.191545   -0.001960    0.004280
     13         35           0        4.018117   -0.000079    0.095709
     14          8           0       -4.623806    0.003442   -0.396746
     15          6           0       -5.321643   -0.004339    0.852537
     16          1           0       -6.386804   -0.002393    0.610477
     17          1           0       -5.076545   -0.903717    1.434542
     18          1           0       -5.075789    0.887374    1.445913
 ---------------------------------------------------------------------
 Rotational constants (GHZ):           4.5572337           0.2054759           0.1997137
 Basis read from rwf:  (5D, 7F)
 Pseudo-potential data read from rwf file.
 There are   215 symmetry adapted cartesian basis functions of A   symmetry.
 There are   205 symmetry adapted basis functions of A   symmetry.
   205 basis functions,   367 primitive gaussians,   215 cartesian basis functions
    38 alpha electrons       38 beta electrons
       nuclear repulsion energy       496.8191868749 Hartrees.
 NAtoms=   18 NActive=   18 NUniq=   18 SFac= 1.00D+00 NAtFMM=   60 NAOKFM=F Big=F
 Integral buffers will be    131072 words long.
 Raffenetti 2 integral format.
 Two-electron integral symmetry is turned on.
 Nuclear repulsion after empirical dispersion term =      496.8065877868 Hartrees.
 One-electron integrals computed using PRISM.
   1 Symmetry operations used in ECPInt.
 ECPInt:  NShTT=    2415 NPrTT=   12610 LenC2=    2329 LenP2D=    8505.
 LDataN:  DoStor=T MaxTD1= 6 Len=  172
 NBasis=   205 RedAO= T EigKep=  1.76D-06  NBF=   205
 NBsUse=   204 1.00D-06 EigRej=  6.69D-08 NBFU=   204
 Initial guess from the checkpoint file:  "OCH3-Br-vol.chk"
 B after Tr=     0.000000    0.000000    0.000000
         Rot=    1.000000    0.000056   -0.000017    0.000019 Ang=   0.01 deg.
 Requested convergence on RMS density matrix=1.00D-08 within1000 cycles.
 Requested convergence on MAX density matrix=1.00D-06.
 Requested convergence on             energy=1.00D-06.
 No special actions if energy rises.
 SCF Done:  E(RB3LYP) =  -435.694586378     A.U. after   10 cycles
            NFock= 10  Conv=0.79D-08     -V/T= 2.0276
   1 Symmetry operations used in ECPInt.
 ECPInt:  NShTT=    2415 NPrTT=   12610 LenC2=    2329 LenP2D=    8505.
 LDataN:  DoStor=T MaxTD1= 7 Len=  274
 Calling FoFJK, ICntrl=      2127 FMM=F ISym2X=0 I1Cent= 0 IOpClX= 0 NMat=1 NMatS=1 NMatT=0.
 ***** Axes restored to original set *****
 -------------------------------------------------------------------
 Center     Atomic                   Forces (Hartrees/Bohr)
 Number     Number              X              Y              Z
 -------------------------------------------------------------------
      1        6          -0.000011932   -0.000003054   -0.000010054
      2        6           0.000031481   -0.000005404    0.000001444
      3        6          -0.000035838   -0.000029849   -0.000000430
      4        6           0.000017861    0.000004424    0.000000869
      5        6          -0.000006261    0.000004205    0.000006262
      6        6           0.000019472   -0.000013578   -0.000007503
      7        1           0.000002539   -0.000000518    0.000000939
      8        1          -0.000004299    0.000002134    0.000000723
      9        1          -0.000003844   -0.000000945    0.000000458
     10        1           0.000004244   -0.000001630   -0.000000083
     11        6           0.000004620    0.000019127   -0.000000472
     12        6          -0.000002769    0.000034630    0.000001565
     13       35           0.000004396   -0.000024145    0.000000746
     14        8          -0.000010176    0.000030516    0.000033947
     15        6          -0.000002800   -0.000016266   -0.000041989
     16        1          -0.000011788   -0.000001836    0.000012600
     17        1           0.000002283    0.000000224    0.000001434
     18        1           0.000002813    0.000001965   -0.000000455
 -------------------------------------------------------------------
 Cartesian Forces:  Max     0.000041989 RMS     0.000014476

 GradGradGradGradGradGradGradGradGradGradGradGradGradGradGradGradGradGrad
 Berny optimization.
 Using GEDIIS/GDIIS optimizer.
 FormGI is forming the generalized inverse of G from B-inverse, IUseBI=4.
 Internal  Forces:  Max     0.000083369 RMS     0.000013704
 Search for a local minimum.
 Step number   2 out of a maximum of   86
 All quantities printed in internal units (Hartrees-Bohrs-Radians)
 Mixed Optimization -- En-DIIS/RFO-DIIS
 Swapping is turned off.
 Update second derivatives using D2CorX and points    1    2
 DE= -4.90D-08 DEPred=-1.36D-07 R= 3.61D-01
 Trust test= 3.61D-01 RLast= 2.70D-03 DXMaxT set to 3.00D-01
 ITU=  0  0
     Eigenvalues ---    0.00778   0.01220   0.01519   0.01918   0.01970
     Eigenvalues ---    0.02003   0.02057   0.02080   0.02097   0.02115
     Eigenvalues ---    0.02142   0.02143   0.02229   0.04276   0.04574
     Eigenvalues ---    0.10370   0.10568   0.15198   0.15998   0.15999
     Eigenvalues ---    0.16000   0.16000   0.16000   0.16695   0.21325
     Eigenvalues ---    0.22003   0.23043   0.23803   0.24781   0.24992
     Eigenvalues ---    0.25613   0.33424   0.33803   0.34388   0.34884
     Eigenvalues ---    0.35254   0.35258   0.35274   0.38533   0.41032
     Eigenvalues ---    0.41386   0.41595   0.44447   0.44695   0.45591
     Eigenvalues ---    0.46036   0.49393   0.98682
 En-DIIS/RFO-DIIS/Sim-DIIS IScMMF=       -3 using points:     2    1
 RFO step:  Lambda=-4.20308793D-07.
 DidBck=T Rises=F RFO-DIIS coefs:    0.39234    0.60766
 Iteration  1 RMS(Cart)=  0.00205317 RMS(Int)=  0.00000411
 Iteration  2 RMS(Cart)=  0.00000419 RMS(Int)=  0.00000001
 Iteration  3 RMS(Cart)=  0.00000000 RMS(Int)=  0.00000001
 Variable       Old X    -DE/DX   Delta X   Delta X   Delta X     New X
                                 (Linear)    (Quad)   (Total)
    R1        2.63315   0.00001  -0.00012   0.00039   0.00027   2.63342
    R2        2.64391   0.00000   0.00006  -0.00018  -0.00012   2.64378
    R3        2.05261   0.00000   0.00001  -0.00003  -0.00002   2.05259
    R4        2.66389  -0.00001  -0.00003   0.00006   0.00003   2.66392
    R5        2.05222   0.00000   0.00006  -0.00021  -0.00014   2.05208
    R6        2.66393  -0.00001  -0.00002   0.00006   0.00004   2.66397
    R7        2.70036   0.00001  -0.00012   0.00039   0.00027   2.70063
    R8        2.63310   0.00000  -0.00012   0.00039   0.00027   2.63337
    R9        2.05223   0.00000   0.00006  -0.00020  -0.00014   2.05209
   R10        2.64399   0.00000   0.00005  -0.00017  -0.00011   2.64388
   R11        2.05263   0.00000   0.00001  -0.00003  -0.00002   2.05261
   R12        2.60661   0.00002   0.00012  -0.00035  -0.00024   2.60638
   R13        2.29152   0.00000   0.00001  -0.00004  -0.00003   2.29149
   R14        3.45604   0.00000   0.00024  -0.00074  -0.00050   3.45554
   R15        2.70419  -0.00002   0.00009  -0.00031  -0.00022   2.70397
   R16        2.06419   0.00001  -0.00002   0.00007   0.00006   2.06424
   R17        2.07671   0.00000  -0.00004   0.00012   0.00008   2.07679
   R18        2.07671   0.00000  -0.00004   0.00013   0.00009   2.07680
    A1        2.09285   0.00000   0.00002  -0.00005  -0.00003   2.09282
    A2        2.11129   0.00000  -0.00001   0.00003   0.00002   2.11131
    A3        2.07896   0.00000   0.00000   0.00001   0.00001   2.07897
    A4        2.10325   0.00000   0.00002  -0.00008  -0.00006   2.10319
    A5        2.09721   0.00000   0.00005  -0.00016  -0.00011   2.09709
    A6        2.08272   0.00001  -0.00007   0.00024   0.00017   2.08289
    A7        2.07542   0.00001  -0.00001   0.00006   0.00005   2.07546
    A8        2.10388  -0.00002   0.00001  -0.00007  -0.00006   2.10383
    A9        2.10387   0.00001   0.00000   0.00001   0.00001   2.10388
   A10        2.10324   0.00000   0.00002  -0.00007  -0.00005   2.10319
   A11        2.08272   0.00001  -0.00007   0.00024   0.00017   2.08289
   A12        2.09722   0.00000   0.00005  -0.00017  -0.00012   2.09710
   A13        2.09285   0.00000   0.00002  -0.00006  -0.00004   2.09281
   A14        2.11118   0.00000   0.00000  -0.00001  -0.00002   2.11117
   A15        2.07906   0.00000  -0.00002   0.00007   0.00005   2.07911
   A16        2.09875   0.00000  -0.00006   0.00019   0.00013   2.09888
   A17        2.09172  -0.00001   0.00005  -0.00019  -0.00014   2.09158
   A18        2.09213   0.00001   0.00001   0.00000   0.00001   2.09214
   A19        1.99735   0.00002   0.00014  -0.00039  -0.00025   1.99710
   A20        1.85674   0.00003   0.00019  -0.00048  -0.00029   1.85645
   A21        1.93696   0.00000  -0.00018   0.00056   0.00037   1.93734
   A22        1.93679  -0.00001  -0.00016   0.00047   0.00031   1.93710
   A23        1.91379  -0.00001   0.00008  -0.00026  -0.00018   1.91360
   A24        1.91385   0.00000   0.00007  -0.00023  -0.00016   1.91369
   A25        1.90521   0.00000   0.00002  -0.00008  -0.00007   1.90514
   A26        3.14146   0.00006  -0.00016   0.00132   0.00116   3.14262
   A27        3.14323  -0.00008  -0.00137  -0.00235  -0.00372   3.13951
   A28        3.13865   0.00000   0.00003  -0.00010  -0.00007   3.13858
   A29        3.13561   0.00000   0.00008  -0.00028  -0.00020   3.13541
    D1       -0.00178   0.00000   0.00003  -0.00009  -0.00006  -0.00184
    D2        3.13523   0.00000   0.00006  -0.00017  -0.00011   3.13511
    D3       -3.12862   0.00000  -0.00003   0.00007   0.00004  -3.12859
    D4        0.00838   0.00000   0.00000  -0.00002  -0.00002   0.00836
    D5       -0.00147   0.00000  -0.00007   0.00021   0.00014  -0.00133
    D6       -3.10627   0.00000  -0.00011   0.00031   0.00020  -3.10607
    D7        3.12565   0.00000  -0.00001   0.00006   0.00005   3.12569
    D8        0.02085   0.00000  -0.00005   0.00016   0.00011   0.02096
    D9        0.00484   0.00000   0.00004  -0.00011  -0.00007   0.00476
   D10        3.14050   0.00000   0.00006  -0.00017  -0.00011   3.14039
   D11       -3.13220   0.00000   0.00000  -0.00003  -0.00002  -3.13222
   D12        0.00346   0.00000   0.00002  -0.00008  -0.00006   0.00340
   D13       -0.00473   0.00000  -0.00006   0.00019   0.00013  -0.00460
   D14        3.13209   0.00000   0.00002  -0.00007  -0.00005   3.13204
   D15       -3.14040   0.00000  -0.00008   0.00025   0.00017  -3.14023
   D16       -0.00357   0.00000   0.00001  -0.00001  -0.00001  -0.00358
   D17        0.00157   0.00000   0.00002  -0.00008  -0.00005   0.00151
   D18        3.12839   0.00000   0.00007  -0.00022  -0.00014   3.12824
   D19       -3.13522   0.00000  -0.00007   0.00019   0.00012  -3.13509
   D20       -0.00840   0.00000  -0.00002   0.00005   0.00003  -0.00837
   D21        0.00158   0.00000   0.00004  -0.00013  -0.00008   0.00150
   D22        3.10636   0.00000   0.00009  -0.00023  -0.00015   3.10621
   D23       -3.12551   0.00000   0.00000   0.00001   0.00001  -3.12550
   D24       -0.02073   0.00000   0.00004  -0.00010  -0.00006  -0.02078
   D25       -1.59453  -0.00002   0.00045  -0.00194  -0.00150  -1.59602
   D26        1.58373  -0.00002   0.00041  -0.00185  -0.00144   1.58229
   D27       -3.14147   0.00000  -0.00014   0.00054   0.00040  -3.14107
   D28       -1.06069   0.00001  -0.00003   0.00025   0.00021  -1.06048
   D29        1.06095   0.00000  -0.00024   0.00084   0.00060   1.06156
         Item               Value     Threshold  Converged?
 Maximum Force            0.000083     0.000450     YES
 RMS     Force            0.000014     0.000300     YES
 Maximum Displacement     0.013862     0.001800     NO 
 RMS     Displacement     0.002053     0.001200     NO 
 Predicted change in Energy=-2.101566D-07
 GradGradGradGradGradGradGradGradGradGradGradGradGradGradGradGradGradGrad

                          Input orientation:                          
 ---------------------------------------------------------------------
 Center     Atomic      Atomic             Coordinates (Angstroms)
 Number     Number       Type             X           Y           Z
 ---------------------------------------------------------------------
      1          6           0       -2.553083    1.215552   -0.246264
      2          6           0       -1.161435    1.216173   -0.173546
      3          6           0       -0.446431    0.001917   -0.133918
      4          6           0       -1.161905   -1.212045   -0.174927
      5          6           0       -2.553515   -1.210812   -0.247837
      6          6           0       -3.249199    0.002545   -0.282606
      7          1           0       -3.110934    2.146544   -0.289279
      8          1           0       -0.616784    2.155358   -0.151203
      9          1           0       -0.617597   -2.151462   -0.153822
     10          1           0       -3.111577   -2.141625   -0.292230
     11          6           0        0.980810    0.001646   -0.060825
     12          6           0        2.191675    0.000175    0.004130
     13         35           0        4.017991   -0.005818    0.095184
     14          8           0       -4.623683    0.003264   -0.396981
     15          6           0       -5.321359   -0.006198    0.852246
     16          1           0       -6.386498   -0.005032    0.609954
     17          1           0       -5.075771   -0.905836    1.433728
     18          1           0       -5.076634    0.885279    1.446531
 ---------------------------------------------------------------------
                    Distance matrix (angstroms):
                    1          2          3          4          5
     1  C    0.000000
     2  C    1.393546   0.000000
     3  C    2.433827   1.409688   0.000000
     4  C    2.798874   2.428219   1.409712   0.000000
     5  C    2.426365   2.798868   2.433822   1.393519   0.000000
     6  C    1.399030   2.417342   2.806709   2.417358   1.399078
     7  H    1.086184   2.163222   3.423908   3.884832   3.403568
     8  H    2.154420   1.085915   2.160238   3.411323   3.884760
     9  H    3.884769   3.411321   2.160262   1.085918   2.154399
    10  H    3.403625   3.884835   3.423863   2.163123   1.086194
    11  C    3.741170   2.465156   1.429111   2.465217   3.741187
    12  C    4.904341   3.571214   2.641715   3.570439   4.903754
    13  Br   6.692334   5.328408   4.470303   5.325341   6.689870
    14  O    2.404110   3.675355   4.185528   3.675622   2.404542
    15  C    3.219123   4.455491   4.973682   4.450867   3.212825
    16  H    4.113151   5.422776   5.986468   5.419345   4.108708
    17  H    3.699543   4.733738   4.971149   4.242627   3.046711
    18  H    3.056624   4.250050   4.971613   4.727896   3.691966
                    6          7          8          9         10
     6  C    0.000000
     7  H    2.148464   0.000000
     8  H    3.403157   2.497985   0.000000
     9  H    3.403183   4.970707   4.306820   0.000000
    10  H    2.148604   4.288171   4.970709   2.497837   0.000000
    11  C    4.235819   4.625489   2.683086   2.683175   4.625451
    12  C    5.448424   5.728058   3.543499   3.542104   5.727095
    13  Br   7.277007   7.456678   5.119817   5.114144   7.452684
    14  O    1.379235   2.625578   4.554905   4.555293   2.626402
    15  C    2.362587   3.289887   5.273732   5.266849   3.279178
    16  H    3.261805   4.020848   6.207757   6.202478   4.012989
    17  H    2.665957   4.018253   5.636087   4.893589   2.892086
    18  H    2.666206   2.909949   4.904703   5.627249   4.005856
                   11         12         13         14         15
    11  C    0.000000
    12  C    1.212607   0.000000
    13  Br   3.041194   1.828594   0.000000
    14  O    5.614566   6.827152   8.655682   0.000000
    15  C    6.367974   7.560755   9.369984   1.430877   0.000000
    16  H    7.397785   8.599541  10.417216   2.030149   1.092350
    17  H    6.303918   7.461928   9.235704   2.093403   1.098991
    18  H    6.304408   7.462723   9.237553   2.093240   1.098997
                   16         17         18
    16  H    0.000000
    17  H    1.791105   0.000000
    18  H    1.791161   1.791160   0.000000
 Stoichiometry    C9H7BrO
 Framework group  C1[X(C9H7BrO)]
 Deg. of freedom    48
 Full point group                 C1      NOp   1
 Largest Abelian subgroup         C1      NOp   1
 Largest concise Abelian subgroup C1      NOp   1
                         Standard orientation:                         
 ---------------------------------------------------------------------
 Center     Atomic      Atomic             Coordinates (Angstroms)
 Number     Number       Type             X           Y           Z
 ---------------------------------------------------------------------
      1          6           0       -2.553838    1.215625   -0.244308
      2          6           0       -1.162197    1.217040   -0.171475
      3          6           0       -0.446400    0.003191   -0.133738
      4          6           0       -1.161076   -1.211172   -0.176753
      5          6           0       -2.552680   -1.210733   -0.249774
      6          6           0       -3.249156    0.002222   -0.282653
      7          1           0       -3.112295    2.146320   -0.285874
      8          1           0       -0.618163    2.156545   -0.147580
      9          1           0       -0.616155   -2.150265   -0.157111
     10          1           0       -3.110130   -2.141839   -0.295706
     11          6           0        0.980834    0.003737   -0.060528
     12          6           0        2.191694    0.002955    0.004524
     13         35           0        4.018006   -0.001988    0.095716
     14          8           0       -4.623632    0.002224   -0.397139
     15          6           0       -5.321402   -0.009698    0.852015
     16          1           0       -6.386522   -0.008841    0.609638
     17          1           0       -5.075272   -0.910107    1.432072
     18          1           0       -5.077309    0.880984    1.447749
 ---------------------------------------------------------------------
 Rotational constants (GHZ):           4.5576182           0.2054857           0.1997218
 Basis read from rwf:  (5D, 7F)
 Pseudo-potential data read from rwf file.
 There are   215 symmetry adapted cartesian basis functions of A   symmetry.
 There are   205 symmetry adapted basis functions of A   symmetry.
   205 basis functions,   367 primitive gaussians,   215 cartesian basis functions
    38 alpha electrons       38 beta electrons
       nuclear repulsion energy       496.8252134341 Hartrees.
 NAtoms=   18 NActive=   18 NUniq=   18 SFac= 1.00D+00 NAtFMM=   60 NAOKFM=F Big=F
 Integral buffers will be    131072 words long.
 Raffenetti 2 integral format.
 Two-electron integral symmetry is turned on.
 Nuclear repulsion after empirical dispersion term =      496.8126141115 Hartrees.
 One-electron integrals computed using PRISM.
   1 Symmetry operations used in ECPInt.
 ECPInt:  NShTT=    2415 NPrTT=   12610 LenC2=    2329 LenP2D=    8505.
 LDataN:  DoStor=T MaxTD1= 6 Len=  172
 NBasis=   205 RedAO= T EigKep=  1.76D-06  NBF=   205
 NBsUse=   204 1.00D-06 EigRej=  6.69D-08 NBFU=   204
 Initial guess from the checkpoint file:  "OCH3-Br-vol.chk"
 B after Tr=     0.000000    0.000000    0.000000
         Rot=    1.000000   -0.000973    0.000016   -0.000052 Ang=  -0.11 deg.
 Requested convergence on RMS density matrix=1.00D-08 within1000 cycles.
 Requested convergence on MAX density matrix=1.00D-06.
 Requested convergence on             energy=1.00D-06.
 No special actions if energy rises.
 SCF Done:  E(RB3LYP) =  -435.694586116     A.U. after   11 cycles
            NFock= 11  Conv=0.34D-08     -V/T= 2.0276
   1 Symmetry operations used in ECPInt.
 ECPInt:  NShTT=    2415 NPrTT=   12610 LenC2=    2329 LenP2D=    8505.
 LDataN:  DoStor=T MaxTD1= 7 Len=  274
 Calling FoFJK, ICntrl=      2127 FMM=F ISym2X=0 I1Cent= 0 IOpClX= 0 NMat=1 NMatS=1 NMatT=0.
 ***** Axes restored to original set *****
 -------------------------------------------------------------------
 Center     Atomic                   Forces (Hartrees/Bohr)
 Number     Number              X              Y              Z
 -------------------------------------------------------------------
      1        6           0.000148113    0.000018957   -0.000008630
      2        6          -0.000128180   -0.000071470   -0.000007828
      3        6           0.000044098    0.000078239    0.000006014
      4        6          -0.000109852    0.000054336   -0.000012289
      5        6           0.000160240   -0.000012767    0.000014658
      6        6           0.000068990   -0.000006640   -0.000036131
      7        1           0.000000452    0.000005326    0.000000655
      8        1           0.000033369    0.000035705    0.000004104
      9        1           0.000034094   -0.000034510    0.000005155
     10        1           0.000004675   -0.000008098    0.000000094
     11        6          -0.000126682   -0.000073390   -0.000002302
     12        6          -0.000089475   -0.000036202   -0.000005360
     13       35           0.000121462    0.000037644    0.000007436
     14        8          -0.000049672    0.000031843    0.000053990
     15        6          -0.000154538   -0.000019339    0.000006208
     16        1          -0.000009572   -0.000001432    0.000042054
     17        1           0.000025673    0.000015430   -0.000033354
     18        1           0.000026803   -0.000013631   -0.000034473
 -------------------------------------------------------------------
 Cartesian Forces:  Max     0.000160240 RMS     0.000059000

 GradGradGradGradGradGradGradGradGradGradGradGradGradGradGradGradGradGrad
 Berny optimization.
 Using GEDIIS/GDIIS optimizer.
 FormGI is forming the generalized inverse of G from B-inverse, IUseBI=4.
 Internal  Forces:  Max     0.000157247 RMS     0.000046350
 Search for a local minimum.
 Step number   3 out of a maximum of   86
 All quantities printed in internal units (Hartrees-Bohrs-Radians)
 Mixed Optimization -- En-DIIS/RFO-DIIS
 Swapping is turned off.
 Update second derivatives using D2CorX and points    1    2    3
 DE=  2.62D-07 DEPred=-2.10D-07 R=-1.25D+00
 Trust test=-1.25D+00 RLast= 4.65D-03 DXMaxT set to 1.50D-01
 ITU= -1  0  0
     Eigenvalues ---    0.00778   0.01136   0.01398   0.01962   0.02000
     Eigenvalues ---    0.02057   0.02076   0.02089   0.02115   0.02130
     Eigenvalues ---    0.02142   0.02150   0.02614   0.04565   0.08641
     Eigenvalues ---    0.10486   0.10568   0.15175   0.15998   0.15999
     Eigenvalues ---    0.16000   0.16000   0.16002   0.17212   0.21991
     Eigenvalues ---    0.22214   0.23199   0.23773   0.24827   0.25228
     Eigenvalues ---    0.26799   0.33668   0.33804   0.34401   0.35224
     Eigenvalues ---    0.35254   0.35274   0.35331   0.39059   0.41053
     Eigenvalues ---    0.41593   0.42212   0.44678   0.44721   0.45958
     Eigenvalues ---    0.46539   0.52661   0.98778
 En-DIIS/RFO-DIIS/Sim-DIIS IScMMF=       -3 using points:     3    2    1
 RFO step:  Lambda=-7.24073668D-07.
 EnCoef did     3 forward-backward iterations
 DidBck=T Rises=T En-DIIS coefs:    0.36780    0.32596    0.30624
 Iteration  1 RMS(Cart)=  0.00117839 RMS(Int)=  0.00000153
 Iteration  2 RMS(Cart)=  0.00000181 RMS(Int)=  0.00000001
 Iteration  3 RMS(Cart)=  0.00000000 RMS(Int)=  0.00000001
 Variable       Old X    -DE/DX   Delta X   Delta X   Delta X     New X
                                 (Linear)    (Quad)   (Total)
    R1        2.63342  -0.00011  -0.00023   0.00004  -0.00019   2.63323
    R2        2.64378   0.00004   0.00011  -0.00002   0.00009   2.64387
    R3        2.05259   0.00000   0.00002  -0.00001   0.00001   2.05260
    R4        2.66392  -0.00004  -0.00003  -0.00002  -0.00006   2.66387
    R5        2.05208   0.00005   0.00012  -0.00002   0.00010   2.05219
    R6        2.66397  -0.00005  -0.00004  -0.00002  -0.00006   2.66391
    R7        2.70063  -0.00009  -0.00023   0.00005  -0.00019   2.70044
    R8        2.63337  -0.00011  -0.00023   0.00004  -0.00019   2.63318
    R9        2.05209   0.00005   0.00012  -0.00002   0.00010   2.05219
   R10        2.64388   0.00005   0.00010  -0.00001   0.00009   2.64397
   R11        2.05261   0.00000   0.00002   0.00000   0.00001   2.05262
   R12        2.60638   0.00016   0.00021   0.00001   0.00022   2.60659
   R13        2.29149   0.00003   0.00003   0.00000   0.00002   2.29152
   R14        3.45554   0.00012   0.00044  -0.00004   0.00040   3.45594
   R15        2.70397   0.00004   0.00018  -0.00007   0.00011   2.70408
   R16        2.06424   0.00000  -0.00004   0.00003  -0.00002   2.06423
   R17        2.07679  -0.00002  -0.00007   0.00001  -0.00006   2.07673
   R18        2.07680  -0.00002  -0.00008   0.00002  -0.00006   2.07674
    A1        2.09282   0.00000   0.00003   0.00000   0.00003   2.09284
    A2        2.11131   0.00000  -0.00002  -0.00001  -0.00002   2.11128
    A3        2.07897   0.00000  -0.00001   0.00001   0.00000   2.07897
    A4        2.10319   0.00001   0.00005  -0.00002   0.00002   2.10321
    A5        2.09709   0.00001   0.00010  -0.00003   0.00006   2.09716
    A6        2.08289  -0.00002  -0.00014   0.00005  -0.00009   2.08280
    A7        2.07546   0.00002  -0.00003   0.00004   0.00001   2.07547
    A8        2.10383   0.00002   0.00004  -0.00001   0.00003   2.10386
    A9        2.10388  -0.00004  -0.00001  -0.00003  -0.00004   2.10385
   A10        2.10319   0.00000   0.00004  -0.00003   0.00001   2.10320
   A11        2.08289  -0.00001  -0.00014   0.00006  -0.00009   2.08280
   A12        2.09710   0.00001   0.00010  -0.00003   0.00008   2.09717
   A13        2.09281   0.00001   0.00003   0.00000   0.00004   2.09285
   A14        2.11117  -0.00001   0.00001  -0.00004  -0.00003   2.11114
   A15        2.07911   0.00000  -0.00004   0.00003  -0.00001   2.07910
   A16        2.09888  -0.00004  -0.00011   0.00001  -0.00010   2.09878
   A17        2.09158   0.00001   0.00011  -0.00005   0.00007   2.09164
   A18        2.09214   0.00003   0.00000   0.00004   0.00004   2.09218
   A19        1.99710   0.00011   0.00023   0.00004   0.00027   1.99736
   A20        1.85645   0.00010   0.00028   0.00013   0.00040   1.85685
   A21        1.93734  -0.00006  -0.00033   0.00002  -0.00031   1.93703
   A22        1.93710  -0.00006  -0.00028  -0.00002  -0.00030   1.93680
   A23        1.91360   0.00001   0.00015  -0.00004   0.00011   1.91371
   A24        1.91369   0.00001   0.00014  -0.00003   0.00011   1.91379
   A25        1.90514   0.00002   0.00005  -0.00005   0.00000   1.90515
   A26        3.14262  -0.00013  -0.00082  -0.00005  -0.00086   3.14176
   A27        3.13951   0.00013   0.00166   0.00058   0.00225   3.14175
   A28        3.13858   0.00000   0.00006  -0.00003   0.00003   3.13861
   A29        3.13541   0.00000   0.00017  -0.00007   0.00010   3.13551
    D1       -0.00184   0.00000   0.00005  -0.00001   0.00005  -0.00179
    D2        3.13511   0.00000   0.00010   0.00002   0.00012   3.13523
    D3       -3.12859   0.00000  -0.00004  -0.00004  -0.00008  -3.12867
    D4        0.00836   0.00000   0.00001  -0.00001   0.00000   0.00836
    D5       -0.00133   0.00000  -0.00012   0.00000  -0.00013  -0.00146
    D6       -3.10607  -0.00001  -0.00018  -0.00003  -0.00022  -3.10628
    D7        3.12569   0.00000  -0.00004   0.00003  -0.00001   3.12569
    D8        0.02096   0.00000  -0.00009   0.00000  -0.00010   0.02087
    D9        0.00476   0.00000   0.00007   0.00001   0.00007   0.00483
   D10        3.14039   0.00000   0.00010   0.00000   0.00010   3.14048
   D11       -3.13222   0.00000   0.00002  -0.00002   0.00000  -3.13223
   D12        0.00340   0.00000   0.00005  -0.00003   0.00002   0.00342
   D13       -0.00460   0.00000  -0.00011   0.00001  -0.00011  -0.00471
   D14        3.13204   0.00000   0.00004   0.00000   0.00004   3.13209
   D15       -3.14023   0.00000  -0.00015   0.00001  -0.00014  -3.14036
   D16       -0.00358   0.00000   0.00001   0.00001   0.00001  -0.00356
   D17        0.00151   0.00000   0.00005  -0.00002   0.00003   0.00154
   D18        3.12824   0.00000   0.00013   0.00000   0.00013   3.12837
   D19       -3.13509   0.00000  -0.00011  -0.00001  -0.00012  -3.13521
   D20       -0.00837   0.00000  -0.00003   0.00001  -0.00002  -0.00839
   D21        0.00150   0.00000   0.00008   0.00001   0.00009   0.00158
   D22        3.10621   0.00001   0.00014   0.00004   0.00018   3.10639
   D23       -3.12550   0.00000  -0.00001   0.00000  -0.00001  -3.12551
   D24       -0.02078   0.00000   0.00006   0.00003   0.00008  -0.02070
   D25       -1.59602  -0.00002   0.00117  -0.00108   0.00009  -1.59593
   D26        1.58229  -0.00002   0.00112  -0.00111   0.00001   1.58230
[...]
 ,0.1126349,-0.0311689,-0.0675307,-0.0030154,0.1198827,0.001584,0.06237
 96,0.0332336,0.0912041,0.0010147,-0.0544801,0.0423413,-0.0518133,0.126
 2076,0.0459145,-0.0581212,-0.0103586,-0.0621325,-0.0324723,-0.0460391,
 -0.0116068,-0.0464122,0.1180322,0.0305363,0.0720842,0.0321858,0.064151
 4,-0.0046694,-0.0489763,0.0296876,-0.0497196,0.1129961,0.0271577,-0.06
 17405,-0.0083077,-0.0699688,-0.0146292,-0.0445746,-0.0109172,-0.045328
 2,0.1338695,0.0491833,-0.0052015,0.0005031,0.0014927,-0.0467675,-0.038
 354,0.0022916,-0.0377332,0.0620258,0.3505777,0.0606729,-0.0389019,0.05
 71103,-0.2042384,0.017099,-0.0397034,0.0167782,-0.266151,-0.4532216,-0
 .0492771,0.0395426,-0.059703,0.1173373,-0.001108,0.0360153,-0.0020973,
 0.1344338,-2.332455,0.1516888,0.2392579,0.1021988,-0.4559068,-0.064499
 6,0.223544,-0.0691548,-0.3246805,0.8174107,-0.1916713,-0.1034789,-0.63
 4608,0.4979814,0.1035059,-0.2434208,0.0621875,0.4001932,-0.1486362,-0.
 0163061,0.017216,-0.0754661,0.0427293,-0.0082234,-0.0014922,-0.013747,
 0.0868082,0.020287,-0.0127501,-0.0803567,0.1285337,0.0013657,-0.054412
 9,0.0504019,-0.0641997,-0.133555,0.0279815,-0.0343236,0.0438034,0.1521
 886,-0.0937966,0.0571698,0.0166466,0.0975597,-0.0461286\Polar=232.6164
 095,7.4300244,100.3395449,-13.1176151,9.9296024,71.0729345\Quadrupole=
 7.7250354,-1.7176147,-6.0074207,-4.2188802,-2.6968389,2.0306533\PG=C01
  [X(C9H7Br1O1)]\NImag=0\\0.69639496,-0.02271769,0.65424184,-0.06094897
 ,0.17081721,0.17992679,-0.33973462,0.00721417,0.02872957,0.68317909,-0
 .05118224,-0.12091803,-0.01564550,0.04640914,0.66513194,0.01028422,-0.
 02109640,-0.06389684,-0.03676538,0.16404846,0.18741259,-0.03816210,0.0
 1718880,0.00958117,-0.17094191,0.10478676,0.04323723,0.67873898,0.0593
 9545,0.03543224,0.00366139,0.05848566,-0.23469632,-0.05990276,0.012574
 11,0.58483441,0.02290972,0.00760151,0.00655622,0.02861095,-0.06421927,
 -0.08534167,-0.04649766,0.13999514,0.18645234,-0.04090235,-0.02396632,
 -0.00406742,0.05571689,-0.01037426,-0.00770078,-0.14243882,-0.04106880
 ,-0.00543868,0.71196168,-0.02894150,-0.02007812,-0.00257742,0.02914014
 ,-0.04964320,-0.02102067,-0.08774864,-0.25505864,-0.05284346,-0.025823
 60,0.64053108,-0.00563772,-0.00304201,-0.00380139,0.00478008,-0.017335
 28,0.00238094,-0.02018400,-0.05719693,-0.07796074,-0.06219411,0.162769
 57,0.18992946,0.05612671,0.02496838,0.00340510,-0.04751634,0.02192244,
 0.01108466,-0.02366060,-0.06952296,-0.01919991,-0.36254293,0.00247548,
 0.02935157,0.72147613,-0.01018884,-0.04079871,-0.01450349,0.01957018,-
 0.01147841,-0.00452140,-0.02921694,0.01937142,0.00697367,-0.05459563,-
 0.12569641,-0.01683164,0.05592639,0.66069249,-0.00769843,-0.01778346,0
 .00322877,0.01034097,-0.00474160,-0.00540751,-0.00646476,0.01073763,0.
 00991643,0.01132364,-0.02215960,-0.06432418,-0.03806161,0.16422874,0.1
 7961193,-0.15212304,-0.08575964,-0.01896333,-0.01768906,-0.03521683,-0
 .00935610,0.00604279,0.00827248,0.00164551,-0.03830368,0.01953003,0.00
 988956,-0.15948333,0.10479976,0.04166565,0.66352112,-0.02344802,-0.271
 50437,-0.06303490,-0.08084564,0.02204030,0.01410903,0.00743282,-0.0629
 3689,-0.01921068,0.06549758,0.04479088,0.00753435,0.04172214,-0.244384
 86,-0.05969677,0.00702359,0.65085018,0.00071838,-0.05721849,-0.0831839
 4,-0.02376795,0.00984943,0.00658849,0.00138219,-0.01928747,-0.01053612
 ,0.02440730,0.01182558,0.00303933,0.02174608,-0.06558670,-0.09045178,-
 0.04499678,0.15519642,0.21071720,-0.14148683,0.12067231,0.04839082,-0.
 01345151,0.02641866,0.00977915,-0.00444260,-0.00221097,0.00034224,-0.0
 0063690,-0.00081785,-0.00024519,-0.00099418,-0.00281562,-0.00031986,0.
 01264228,-0.01019791,-0.00407930,0.15402016,0.11986102,-0.23389769,-0.
 07512535,-0.00306855,0.00624183,0.00166044,-0.00177354,0.00210898,-0.0
 0128829,-0.00101791,-0.00011446,0.00021592,-0.00393231,-0.00297704,-0.
 00218728,0.01858974,-0.01601914,-0.00788974,-0.13035192,0.24314172,0.0
 4813501,-0.07520502,-0.05979110,0.00046282,-0.00109144,0.00150510,0.00
 048030,-0.00124653,0.00627097,-0.00030898,0.00019699,-0.00040613,-0.00
 067262,-0.00229128,0.00444677,0.00501719,-0.00519953,0.00134936,-0.053
 42238,0.08174441,0.05374300,-0.00915426,-0.02784576,-0.00761651,-0.110
 04797,-0.10645536,-0.02675860,0.01059896,0.01699389,0.00473010,-0.0020
 2046,0.00268697,0.00157481,-0.00065275,0.00045468,0.00013053,-0.004909
 58,0.00123096,0.00152384,0.00063469,0.00027736,-0.00035970,0.11457540,
 0.00094983,0.00168461,-0.00065870,-0.10492494,-0.27381909,-0.06521286,
 -0.01236135,-0.01629423,-0.00518150,0.00382513,-0.00160042,-0.00268191
 ,0.00065225,0.00036814,0.00030595,0.00025209,0.00234803,-0.00157392,-0
 .00017596,0.00050708,0.00149062,0.11271631,0.28758930,0.00147851,0.002
 02792,0.00399187,-0.02627358,-0.06507047,-0.05451275,-0.00454477,-0.00
 792051,0.00168262,0.00193425,-0.00257566,0.00476360,0.00019397,0.00032
 421,-0.00070860,0.00121504,-0.00166398,0.00661579,-0.00050308,0.001448
 32,-0.00365430,0.02725489,0.07242189,0.04539103,-0.00055239,-0.0005240
 3,-0.00017207,-0.00089190,-0.00291763,-0.00033550,0.01052525,-0.012254
 39,-0.00453136,-0.14849939,0.12309362,0.04925780,-0.01289509,0.0253265
 7,0.00954764,-0.00387925,-0.00272633,0.00025104,0.00004451,0.00011031,
 -0.00004698,0.00060402,-0.00065126,-0.00022905,0.15516409,-0.00071554,
 0.00018877,0.00032339,-0.00396400,-0.00299794,-0.00227814,0.01693573,-
 0.01612138,-0.00775776,0.12168571,-0.22709561,-0.07132803,-0.00379149,
 0.00677196,0.00132132,-0.00190941,0.00173255,-0.00181547,0.00009877,-0
 .00007411,0.00023026,0.00089669,-0.00088171,-0.00047493,-0.13012203,0.
 23760646,-0.00023207,0.00030519,-0.00050575,-0.00066523,-0.00237606,0.
 00470038,0.00468586,-0.00503443,0.00141131,0.04881378,-0.07145895,-0.0
 6428774,0.00035098,-0.00139495,0.00323474,0.00050988,-0.00174045,0.007
 44914,-0.00005069,0.00022936,-0.00075539,0.00025989,-0.00033018,0.0002
 2788,-0.05319309,0.07913798,0.05539509,-0.00196667,0.00250726,0.001410
 79,-0.00084410,0.00059719,0.00020351,-0.00460140,0.00080876,0.00136507
 ,-0.00869355,-0.02815261,-0.00784761,-0.11322577,-0.10956834,-0.027250
 28,0.01113361,0.01611964,0.00451891,0.00044052,0.00093357,0.00025857,0
 .00006992,-0.00005510,-0.00009307,0.00065897,0.00042882,-0.00035262,0.
 11650757,0.00370403,-0.00189901,-0.00241898,0.00096967,0.00025027,0.00
 020514,0.00036290,0.00259540,-0.00151827,0.00050207,0.00224385,-0.0001
 2332,-0.10768970,-0.27101448,-0.06468155,-0.01429667,-0.01758916,-0.00
 580131,-0.00069963,-0.00086961,-0.00022547,-0.00004329,-0.00008919,0.0
 0020990,-0.00018932,0.00035479,0.00157368,0.11786341,0.28452026,0.0017
 8915,-0.00230687,0.00376884,0.00032029,0.00024029,-0.00063949,0.001224
 48,-0.00156043,0.00668802,0.00120297,0.00255034,0.00317934,-0.02665760
 ,-0.06450437,-0.05228327,-0.00508676,-0.00864148,0.00275006,-0.0002572
 9,-0.00037773,-0.00004458,-0.00008938,0.00021109,-0.00066606,-0.000547
 77,0.00151569,-0.00404220,0.02861491,0.07120820,0.04405313,0.00599264,
 0.00488333,0.00163470,-0.04387256,0.01241897,0.00807733,-0.29466572,-0
 .02403464,0.01525484,-0.03596899,-0.02072955,-0.00315364,0.00719985,-0
 .00357638,-0.00118679,-0.00434955,-0.00025348,0.00023835,-0.00047140,-
 0.00004673,0.00010241,0.00113886,-0.00102631,-0.00075944,0.00117003,0.
 00142904,0.00005172,-0.00031813,-0.00007245,0.00007023,1.38895900,0.00
 263309,-0.00267201,-0.00329584,0.02395262,0.00887332,0.00036381,-0.023
 19638,-0.07330275,-0.00525928,-0.03267040,-0.00027326,0.00283441,-0.00
 110840,-0.00415481,-0.00329056,-0.00017753,-0.00176910,-0.00024748,0.0
 0113950,0.00031157,-0.00025544,0.00117286,-0.00001217,0.00100201,-0.00
 076183,0.00006735,0.00107724,-0.00125605,0.00012282,-0.00005840,0.1300
 2514,0.10297653,0.00092267,-0.00350668,0.00578676,0.01172337,0.0014386
 5,0.00001320,0.01549883,-0.00518372,-0.05287902,-0.00692380,0.00172113
 ,0.00158755,-0.00040773,-0.00305986,0.00566491,0.00026334,-0.00023939,
 -0.00103383,0.00047723,-0.00014464,0.00069328,-0.00006511,0.00120722,-
 0.00314305,-0.00064046,0.00087286,-0.00278293,-0.00030357,-0.00016887,
 0.00065374,-0.08235695,0.00027884,0.07150792,-0.00233323,-0.00024464,0
 .00009563,0.00673626,-0.00776495,-0.00289745,-0.02730241,-0.00249573,0
 .00210031,0.00545874,0.00872374,0.00241768,-0.00256449,-0.00017683,0.0
 0015260,0.00189704,0.00009701,-0.00015017,-0.00022837,-0.00012599,-0.0
 0003333,-0.00018379,0.00081044,0.00025958,-0.00010822,-0.00088309,-0.0
 0028429,-0.00022170,0.00010751,0.00003904,-1.01625849,-0.09931054,0.06
 168411,1.25417560,-0.00090706,0.00002786,0.00024775,0.00148738,-0.0016
 8812,-0.00129858,-0.00324870,0.00489287,0.00065742,-0.00019680,-0.0002
 4172,-0.00064153,0.00049301,0.00023046,0.00013333,0.00006897,0.0007383
 6,0.00023936,-0.00006817,-0.00008548,0.00002969,-0.00028952,0.00034015
 ,0.00017974,0.00023686,0.00023705,0.00010473,0.00003038,-0.00006037,0.
 00003079,-0.09882457,-0.02815404,0.00563534,0.12343426,0.03178237,-0.0
 0011338,0.00018665,-0.00041720,0.00002510,-0.00043447,0.00183957,0.001
 88052,0.00059028,0.00377515,-0.00039940,-0.00147431,0.00142218,0.00036
 453,0.00019513,-0.00031007,-0.00016033,0.00023609,0.00005030,-0.000015
 10,0.00003492,-0.00014668,-0.00008780,0.00007737,-0.00011121,0.0000695
 1,0.00020891,-0.00010460,0.00001472,0.00002372,-0.00016092,0.06181112,
 0.00567654,-0.02082035,-0.07655661,-0.00545016,0.01807038,-0.00045191,
 -0.00025136,-0.00006222,-0.00097856,-0.00035354,-0.00002014,0.00487437
 ,0.00000342,-0.00005610,-0.00121437,0.00019216,0.00018044,-0.00035174,
 0.00009532,0.00003470,0.00135675,0.00038078,0.00000372,-0.00017539,0.0
 0004939,0.00002884,0.00007266,0.00000864,0.00001437,0.00008527,0.00000
 562,0.00001046,-0.00016682,-0.00006305,-0.00000705,-0.01028901,-0.0004
 7376,0.00036856,-0.21880122,-0.02224918,0.01311972,0.22775562,-0.00001
 028,0.00007965,0.00011066,-0.00091982,-0.00024085,0.00000964,0.0000484
 7,0.00450086,0.00006870,0.00071234,-0.00003126,-0.00009795,-0.00009895
 ,0.00010080,0.00013723,0.00014058,0.00006610,-0.00002570,-0.00006653,-
 0.00001028,0.00001350,0.00003784,-0.00004730,-0.00008101,-0.00002388,-
 0.00005517,-0.00007180,0.00003404,-0.00001362,0.00000160,-0.00063084,-
 0.00239168,0.00077837,-0.02210758,-0.00799644,0.00016382,0.02305659,0.
 00610118,0.00001352,0.00013284,-0.00022707,-0.00019906,-0.00004382,0.0
 0000563,-0.00004113,0.00007264,0.00429673,0.00034464,-0.00004887,0.000
 02068,-0.00002729,0.00011934,-0.00026427,-0.00007133,-0.00004785,0.000
 09735,-0.00000786,0.00000274,-0.00003184,0.00002369,-0.00007828,0.0001
 7110,0.00000125,-0.00007453,0.00015545,0.00002356,0.00001061,-0.000027
 53,0.00032558,0.00076493,-0.00446128,0.01315831,0.00017617,-0.00317776
 ,-0.01364980,-0.00099931,0.00343517,-0.03483722,-0.01518341,-0.0007171
 3,0.00274922,-0.00043374,0.00021963,-0.00600963,-0.00357246,-0.0006757
 3,0.00783638,0.00370835,0.00084294,-0.05689301,0.00826446,0.00851414,-
 0.28101257,-0.05804953,0.00392179,-0.00002050,0.00041021,-0.00013007,-
 0.00112093,-0.00012174,0.00005245,-0.00110921,0.00006349,0.00014691,0.
 00113835,-0.00066287,-0.00061295,0.00238343,0.00008488,-0.00025428,-0.
 00037468,0.00001393,0.00004991,-0.00216920,-0.00021716,0.00013222,0.52
 838430,-0.04060318,-0.00098362,0.00066911,0.00513067,-0.00652230,-0.00
 461680,-0.00098264,0.00373333,0.00164256,-0.00167261,-0.00732315,-0.00
 351645,0.03931107,0.01235528,-0.00178189,-0.02129794,-0.11046623,-0.01
 953628,0.00187577,0.00132977,0.00112731,-0.00160300,-0.00001220,0.0001
 9236,0.00154024,0.00024524,-0.00014590,-0.00014899,0.00117286,0.001388
 97,0.00012251,0.00040031,0.00030416,-0.00007147,-0.00002044,-0.0000261
 5,-0.00002144,-0.00002928,-0.00000661,-0.06071403,0.31332487,-0.008743
 19,-0.00169968,0.00916362,0.00197588,-0.00409650,0.00509869,0.00014010
 ,0.00188191,-0.00059540,-0.00085456,-0.00401871,0.00311613,0.01832050,
 0.00111694,0.00503133,0.01554099,-0.01611049,-0.04889890,0.00033414,0.
 00126459,-0.00242487,-0.00041544,0.00005406,-0.00009147,0.00061387,-0.
 00000801,0.00019234,-0.00045002,0.00143687,-0.00268440,-0.00023928,0.0
 0030763,-0.00047875,0.00002010,-0.00003413,0.00007048,0.00019531,0.000
 01167,-0.00001651,-0.06214321,0.08315781,0.10024320,0.00279838,0.00051
 592,-0.00022489,-0.00073730,0.00176969,0.00066448,0.00137271,0.0004014
 9,0.00002370,-0.00153521,0.00126789,0.00069558,-0.00017086,-0.00496119
 ,-0.00127507,-0.04614672,0.02940867,0.01308691,-0.00241447,0.00069271,
 0.00043275,0.00045316,0.00010855,-0.00000753,-0.00020024,-0.00015834,-
 0.00005983,-0.00004379,0.00040393,0.00007149,-0.00076088,0.00000661,0.
 00004151,0.00013926,0.00000202,-0.00001226,0.00052296,0.00004959,-0.00
 003071,-0.12467423,0.04034161,0.01876807,0.56975773,-0.00890294,0.0011
 9067,0.00163777,0.00124418,-0.00109937,-0.00058848,-0.00140640,0.00038
 725,0.00016892,0.00015559,0.00017370,-0.00047597,-0.00507794,0.0010142
 4,-0.00013867,0.00900427,0.00683512,0.00306964,-0.00154565,-0.00083148
 ,-0.00007910,-0.00040832,-0.00013596,-0.00000648,-0.00035267,0.0000337
 2,0.00013993,0.00008139,0.00004616,0.00021141,0.00063891,-0.00008966,0
 .00002004,-0.00005106,-0.00000122,0.00000269,-0.00062592,-0.00005157,0
 .00003469,0.07018732,-0.16657097,-0.04017489,0.07903170,0.51887028,-0.
 00320242,0.00075668,-0.00082142,0.00049931,-0.00063730,0.00014637,-0.0
 0054739,0.00000040,0.00032074,0.00034387,-0.00057969,0.00141948,-0.001
 31422,-0.00014935,0.00302602,0.00663254,0.00116608,-0.00578511,-0.0002
 7488,-0.00028774,-0.00018968,-0.00017092,-0.00005479,0.00000396,-0.000
 12139,0.00012177,-0.00025522,-0.00003057,0.00018129,-0.00058763,0.0002
 4064,0.00007996,-0.00034215,-0.00002836,-0.00000314,0.00001006,-0.0002
 4453,-0.00002794,0.00003606,0.02820828,-0.03739095,-0.07466000,0.02554
 400,-0.02521825,0.56514592,0.00012816,0.00024437,0.00009424,0.00002326
 ,-0.00010586,-0.00001693,-0.00004058,-0.00001250,-0.00000707,0.0000103
 9,0.00036124,0.00011326,-0.00114142,-0.00042938,-0.00000826,0.00159373
 ,0.00338207,0.00097662,0.00011416,0.00000965,-0.00005111,-0.00004391,-
 0.00001529,0.00000220,-0.00010944,-0.00000927,0.00000321,0.00001773,0.
 00003085,0.00000989,0.00007178,-0.00001010,-0.00001138,0.00000173,0.00
 000576,0.00000144,-0.00009036,-0.00000939,0.00000562,-0.02826274,-0.00
 028800,0.00259889,-0.27516640,-0.10193492,-0.01151811,0.30617799,-0.00
 014197,-0.00113792,-0.00044494,0.00015812,0.00045136,0.00006488,-0.000
 08156,0.00014780,0.00007770,-0.00015713,-0.00044726,-0.00012702,0.0014
 0374,0.00049649,-0.00004484,0.00217320,-0.00352554,-0.00150657,-0.0003
 8219,0.00066824,0.00039403,0.00005456,-0.00000080,-0.00001529,0.000117
 54,0.00001837,0.00000860,-0.00004837,-0.00001419,-0.00000607,-0.000032
 81,0.00003927,0.00002015,0.00000055,0.00000287,0.00000196,0.00000152,-
 0.00000351,-0.00000194,0.03636820,0.00634922,-0.00156365,-0.11468704,-
 0.09746016,-0.00328952,0.10401825,0.10423780,-0.00002765,-0.00048097,0
 .00016287,0.00006650,0.00008936,0.00022162,-0.00002890,0.00007138,-0.0
 0004899,-0.00005050,-0.00017562,-0.00004918,0.00057110,0.00012647,0.00
 020980,0.00059469,-0.00161912,0.00003174,-0.00017495,0.00035732,-0.000
 33656,0.00002429,-0.00000876,0.00002643,0.00004331,0.00002040,-0.00004
 107,-0.00001516,-0.00001345,0.00001638,-0.00001844,0.00001799,-0.00000
 730,-0.00000032,0.00000151,-0.00000310,0.00000912,-0.00000093,0.000001
 06,0.01418613,0.00185746,-0.00017868,-0.01554961,-0.00448026,-0.053180
 38,0.00880571,0.00803419,0.04984267,0.00018860,-0.00098891,-0.00017138
 ,-0.00091168,0.00044372,-0.00034945,0.00006115,-0.00086178,-0.00034250
 ,0.00084835,0.00058482,-0.00012437,-0.00135765,0.00072667,-0.00029855,
 0.00487641,0.00092168,0.00215556,-0.00163697,-0.00069233,0.00149630,0.
 00000040,-0.00000901,0.00004421,0.00000275,-0.00000983,0.00004967,0.00
 006441,-0.00014887,0.00009376,0.00002528,-0.00006588,0.00013545,-0.000
 01690,0.00001121,-0.00001112,0.00001338,0.00000431,-0.00000694,-0.0007
 3850,0.01348681,0.02568258,-0.06790899,-0.01830802,-0.06015328,-0.0038
 9653,-0.00666652,-0.02812064,0.06882868,0.00049755,0.00071959,0.000591
 81,0.00002188,-0.00005830,-0.00008064,0.00030619,0.00020742,0.00000561
 ,-0.00033618,-0.00013658,0.00020292,0.00103405,-0.00055918,0.00018661,
 -0.00505855,-0.00033132,-0.00022782,-0.00047583,0.00000849,0.00028597,
 0.00005113,0.00002348,0.00001729,0.00003940,-0.00000475,-0.00004921,-0
 .00008331,0.00014873,-0.00011917,-0.00011991,0.00000271,0.00000265,0.0
 0002741,-0.00000448,-0.00000595,0.00011081,0.00001114,-0.00000434,0.00
 639179,-0.01700704,-0.02911793,-0.01621896,-0.06756121,-0.05775430,-0.
 00351757,-0.00211435,-0.01244435,0.01213667,0.07748663,0.00064192,-0.0
 0076211,-0.00022417,-0.00008094,0.00043988,0.00012038,0.00020356,0.000
 19031,-0.00001366,-0.00041009,-0.00006286,0.00009199,0.00103540,-0.000
 17121,-0.00019705,-0.00401695,-0.00090281,0.00030794,0.00018157,0.0009
 0293,0.00001302,0.00005821,0.00000491,0.00000356,0.00003481,0.00000161
 ,-0.00001238,-0.00009944,0.00014315,-0.00002073,-0.00012836,0.00004665
 ,0.00002643,0.00001769,0.00000195,0.00001014,0.00007436,0.00000373,-0.
 00000931,0.00907243,-0.01104454,-0.00519132,-0.05592446,-0.05975425,-0
 .27445723,-0.00081631,0.00107071,0.00112709,0.05640190,0.07491708,0.29
 624845,0.00007518,-0.00071280,-0.00039809,-0.00078719,0.00003785,0.000
 65011,0.00005155,-0.00090102,-0.00023343,0.00092421,0.00044931,0.00028
 292,-0.00135254,0.00036513,0.00085374,0.00483305,0.00230399,-0.0019364
 9,-0.00193720,0.00007532,-0.00138902,-0.00001441,0.00001771,-0.0000389
 4,-0.00000975,0.00001913,-0.00004455,0.00005084,-0.00007852,-0.0001774
 2,0.00001387,0.00001618,-0.00015179,-0.00001513,0.00000023,0.00001941,
 0.00000760,0.00000067,0.00000572,-0.00526925,0.02559464,-0.01134474,-0
 .05528511,-0.02172951,0.01613742,0.00061245,-0.02209808,0.01968531,0.0
 0155779,0.00519344,-0.00624531,0.05654403,0.00071828,0.00032426,-0.000
 35397,-0.00006085,0.00017289,0.00015532,0.00038037,0.00019824,0.000087
 30,-0.00049879,0.00000059,-0.00015911,0.00131281,-0.00033738,-0.000544
 59,-0.00613813,-0.00087491,0.00053651,-0.00039677,0.00056162,0.0000810
 3,0.00007200,0.00003227,-0.00001532,0.00005885,-0.00002559,0.00002521,
 -0.00009169,0.00009449,0.00021615,-0.00017023,0.00002560,0.00002375,0.
 00003098,0.00000033,-0.00000703,0.00013401,0.00001123,-0.00000842,0.01
 346231,-0.02997564,0.00759251,-0.01797485,-0.19474953,0.12308678,-0.00
 171989,-0.00770770,0.00864738,-0.00056473,0.00916901,-0.00502513,0.011
 44633,0.22308021,-0.00028928,0.00127369,0.00028313,0.00021730,-0.00041
 435,-0.00023472,-0.00000562,0.00013170,0.00000508,-0.00002213,-0.00006
 782,-0.00012131,-0.00008292,-0.00007023,-0.00042397,-0.00032280,-0.000
 13451,0.00089299,-0.00015460,-0.00056019,-0.00024040,-0.00001680,0.000
 00779,0.00000961,-0.00000156,-0.00001733,0.00002095,0.00003229,-0.0000
 4134,0.00004731,0.00003599,-0.00004301,0.00001489,0.00000548,-0.000010
 24,0.00000364,0.00000021,0.00000574,-0.00000366,-0.00081347,-0.0122741
 7,0.01230450,0.01375587,0.12563126,-0.15982979,-0.00018191,-0.00267239
 ,0.00220560,0.00351879,0.02359377,-0.01782315,-0.01567484,-0.13433837,
 0.16288929\\0.00001343,0.00001997,-0.00000407,-0.00001521,0.00000220,0
 .00001111,0.00001150,-0.00001237,-0.00001229,0.00000721,0.00000627,0.0
 0001241,-0.00001621,-0.00000502,-0.00000567,-0.00000658,-0.00001097,0.
 00000245,0.00000118,-0.00000576,0.00000041,0.00000090,0.00000018,0.000
 00179,-0.00000232,-0.00000558,0.00000121,0.00000851,-0.00000138,-0.000
 00162,0.00001474,0.00000840,-0.00001411,-0.00001510,-0.00000497,0.0000
 0255,0.00000030,-0.00000082,0.00000328,-0.00000179,0.00002460,0.000000
 32,0.00000234,-0.00002306,0.00002654,-0.00000139,0.00000105,-0.0000066
 5,-0.00000136,0.00000094,-0.00000873,-0.00000016,0.00000633,-0.0000089
 3\\\@


 A DANDELION FROM A LOVER MEANS MORE THAN AN ORCHID FROM A FRIEND.
 Job cpu time:       0 days  0 hours 55 minutes 37.3 seconds.
 Elapsed time:       0 days  0 hours  1 minutes 47.8 seconds.
 File lengths (MBytes):  RWF=     89 Int=      0 D2E=      0 Chk=      5 Scr=      1
 Normal termination of Gaussian 16 at Wed Sep 20 05:52:44 2023.
