 Entering Gaussian System, Link 0=/home/ubuntu/g16/g16
 Input=/home/ubuntu/Downloads/ARYLHALIDE-NO2-gen-Br-vol.gjf
 Output=/home/ubuntu/Downloads/ARYLHALIDE-NO2-gen-Br-vol.log
 Initial command:
 /home/ubuntu/g16/l1.exe "/home/ubuntu/Scratch/Gau-9823.inp" -scrdir="/home/ubuntu/Scratch/"
 Entering Link 1 = /home/ubuntu/g16/l1.exe PID=      9825.
  
 Copyright (c) 1988-2017, Gaussian, Inc.  All Rights Reserved.
  
 This is part of the Gaussian(R) 16 program.  It is based on
 the Gaussian(R) 09 system (copyright 2009, Gaussian, Inc.),
 the Gaussian(R) 03 system (copyright 2003, Gaussian, Inc.),
 the Gaussian(R) 98 system (copyright 1998, Gaussian, Inc.),
 the Gaussian(R) 94 system (copyright 1995, Gaussian, Inc.),
 the Gaussian 92(TM) system (copyright 1992, Gaussian, Inc.),
 the Gaussian 90(TM) system (copyright 1990, Gaussian, Inc.),
 the Gaussian 88(TM) system (copyright 1988, Gaussian, Inc.),
 the Gaussian 86(TM) system (copyright 1986, Carnegie Mellon
 University), and the Gaussian 82(TM) system (copyright 1983,
 Carnegie Mellon University). Gaussian is a federally registered
 trademark of Gaussian, Inc.
  
 This software contains proprietary and confidential information,
 including trade secrets, belonging to Gaussian, Inc.
  
 This software is provided under written license and may be
 used, copied, transmitted, or stored only in accord with that
 written license.
  
 The following legend is applicable only to US Government
 contracts under FAR:
  
                    RESTRICTED RIGHTS LEGEND
  
 Use, reproduction and disclosure by the US Government is
 subject to restrictions as set forth in subparagraphs (a)
 and (c) of the Commercial Computer Software - Restricted
 Rights clause in FAR 52.227-19.
  
 Gaussian, Inc.
 340 Quinnipiac St., Bldg. 40, Wallingford CT 06492
  
  
 ---------------------------------------------------------------
 Warning -- This program may not be used in any manner that
 competes with the business of Gaussian, Inc. or will provide
 assistance to any competitor of Gaussian, Inc.  The licensee
 of this program is prohibited from giving any competitor of
 Gaussian, Inc. access to this program.  By using this program,
 the user acknowledges that Gaussian, Inc. is engaged in the
 business of creating and licensing software in the field of
 computational chemistry and represents and warrants to the
 licensee that it is not a competitor of Gaussian, Inc. and that
 it will not use this program in any manner prohibited above.
 ---------------------------------------------------------------
  

 Cite this work as:
 Gaussian 16, Revision B.01,
 M. J. Frisch, G. W. Trucks, H. B. Schlegel, G. E. Scuseria, 
 M. A. Robb, J. R. Cheeseman, G. Scalmani, V. Barone, 
 G. A. Petersson, H. Nakatsuji, X. Li, M. Caricato, A. V. Marenich, 
 J. Bloino, B. G. Janesko, R. Gomperts, B. Mennucci, H. P. Hratchian, 
 J. V. Ortiz, A. F. Izmaylov, J. L. Sonnenberg, D. Williams-Young, 
 F. Ding, F. Lipparini, F. Egidi, J. Goings, B. Peng, A. Petrone, 
 T. Henderson, D. Ranasinghe, V. G. Zakrzewski, J. Gao, N. Rega, 
 G. Zheng, W. Liang, M. Hada, M. Ehara, K. Toyota, R. Fukuda, 
 J. Hasegawa, M. Ishida, T. Nakajima, Y. Honda, O. Kitao, H. Nakai, 
 T. Vreven, K. Throssell, J. A. Montgomery, Jr., J. E. Peralta, 
 F. Ogliaro, M. J. Bearpark, J. J. Heyd, E. N. Brothers, K. N. Kudin, 
 V. N. Staroverov, T. A. Keith, R. Kobayashi, J. Normand, 
 K. Raghavachari, A. P. Rendell, J. C. Burant, S. S. Iyengar, 
 J. Tomasi, M. Cossi, J. M. Millam, M. Klene, C. Adamo, R. Cammi, 
 J. W. Ochterski, R. L. Martin, K. Morokuma, O. Farkas, 
 J. B. Foresman, and D. J. Fox, Gaussian, Inc., Wallingford CT, 2016.
 
 ******************************************
 Gaussian 16:  EM64L-G16RevB.01 20-Dec-2017
                16-Sep-2023 
 ******************************************
 %nprocshared=32
 Will use up to   32 processors via shared memory.
 %mem=62GB
 %chk=ARYLHALIDE-NO2-gen-Br-vol.chk
 ----------------------------------------------------------------------
 # opt freq rb3lyp/gen nosymm empiricaldispersion=gd3 pseudo=read scf=m
 axcycle=1000 volume
 ----------------------------------------------------------------------
 1/18=20,19=15,26=3,38=1/1,3;
 2/9=110,12=2,15=1,17=6,18=5,40=1/2;
 3/5=7,11=2,16=1,17=8,25=1,30=1,71=1,74=-5,116=1,124=31/1,2,3;
 4//1;
 5/5=2,7=1000,38=5/2;
 6/7=2,8=2,9=2,10=2,28=1,44=1/1,4;
 7/30=1/1,2,3,16;
 1/18=20,19=15,26=3/3(2);
 2/9=110,15=1/2;
 99//99;
 2/9=110,15=1/2;
 3/5=7,6=1,11=2,16=1,17=8,25=1,30=1,71=1,74=-5,82=7,116=1,124=31/1,2,3;
 4/5=5,16=3,69=1/1;
 5/5=2,7=1000,38=5/2;
 7/30=1/1,2,3,16;
 1/18=20,19=15,26=3/3(-5);
 2/9=110,15=1/2;
 6/7=2,8=2,9=2,10=2,19=2,28=1,44=1/1,4;
 99/9=1/99;
 -----
 reac1
 -----
 Symbolic Z-matrix:
 Charge =  0 Multiplicity = 1
 C                    -0.43878   0.02235  -0.00029 
 C                     0.2197    1.24143   0.17444 
 C                     0.26002  -1.17517  -0.16724 
 C                     1.61383   1.26371   0.18228 
 H                    -0.34319   2.15937   0.30242 
 C                     1.65414  -1.15325  -0.15916 
 H                    -0.27196  -2.11051  -0.30137 
 C                     2.31041   0.06598   0.0154 
 H                     2.15734   2.19161   0.31531 
 H                     2.22834  -2.06339  -0.28578 
 Br                   -2.38031  -0.00848  -0.01157 
 N                     3.78382   0.08944   0.02358 
 O                     4.37497  -0.98168  -0.12493 
 O                     4.33921   1.1784    0.17834 
 

 GradGradGradGradGradGradGradGradGradGradGradGradGradGradGradGradGradGrad
 Berny optimization.
 Initialization pass.
                           ----------------------------
                           !    Initial Parameters    !
                           ! (Angstroms and Degrees)  !
 --------------------------                            --------------------------
 ! Name  Definition              Value          Derivative Info.                !
 --------------------------------------------------------------------------------
 ! R1    R(1,2)                  1.3965         estimate D2E/DX2                !
 ! R2    R(1,3)                  1.3965         estimate D2E/DX2                !
 ! R3    R(1,11)                 1.9418         estimate D2E/DX2                !
 ! R4    R(2,4)                  1.3943         estimate D2E/DX2                !
 ! R5    R(2,5)                  1.0844         estimate D2E/DX2                !
 ! R6    R(3,6)                  1.3943         estimate D2E/DX2                !
 ! R7    R(3,7)                  1.0844         estimate D2E/DX2                !
 ! R8    R(4,8)                  1.3956         estimate D2E/DX2                !
 ! R9    R(4,9)                  1.0836         estimate D2E/DX2                !
 ! R10   R(6,8)                  1.3956         estimate D2E/DX2                !
 ! R11   R(6,10)                 1.0836         estimate D2E/DX2                !
 ! R12   R(8,12)                 1.4736         estimate D2E/DX2                !
 ! R13   R(12,13)                1.2324         estimate D2E/DX2                !
 ! R14   R(12,14)                1.2322         estimate D2E/DX2                !
 ! A1    A(2,1,3)              121.8417         estimate D2E/DX2                !
 ! A2    A(2,1,11)             119.0802         estimate D2E/DX2                !
 ! A3    A(3,1,11)             119.0781         estimate D2E/DX2                !
 ! A4    A(1,2,4)              119.0846         estimate D2E/DX2                !
 ! A5    A(1,2,5)              120.5956         estimate D2E/DX2                !
 ! A6    A(4,2,5)              120.3199         estimate D2E/DX2                !
 ! A7    A(1,3,6)              119.0873         estimate D2E/DX2                !
 ! A8    A(1,3,7)              120.5951         estimate D2E/DX2                !
 ! A9    A(6,3,7)              120.3177         estimate D2E/DX2                !
 ! A10   A(2,4,8)              118.9911         estimate D2E/DX2                !
 ! A11   A(2,4,9)              121.0581         estimate D2E/DX2                !
 ! A12   A(8,4,9)              119.9508         estimate D2E/DX2                !
 ! A13   A(3,6,8)              118.9888         estimate D2E/DX2                !
 ! A14   A(3,6,10)             121.0618         estimate D2E/DX2                !
 ! A15   A(8,6,10)             119.9495         estimate D2E/DX2                !
 ! A16   A(4,8,6)              122.0066         estimate D2E/DX2                !
 ! A17   A(4,8,12)             118.9953         estimate D2E/DX2                !
 ! A18   A(6,8,12)             118.9981         estimate D2E/DX2                !
 ! A19   A(8,12,13)            117.7171         estimate D2E/DX2                !
 ! A20   A(8,12,14)            117.739          estimate D2E/DX2                !
 ! A21   A(13,12,14)           124.544          estimate D2E/DX2                !
 ! D1    D(3,1,2,4)              0.0083         estimate D2E/DX2                !
 ! D2    D(3,1,2,5)           -179.9933         estimate D2E/DX2                !
 ! D3    D(11,1,2,4)          -179.9869         estimate D2E/DX2                !
 ! D4    D(11,1,2,5)             0.0114         estimate D2E/DX2                !
 ! D5    D(2,1,3,6)              0.0055         estimate D2E/DX2                !
 ! D6    D(2,1,3,7)            179.9983         estimate D2E/DX2                !
 ! D7    D(11,1,3,6)          -179.9992         estimate D2E/DX2                !
 ! D8    D(11,1,3,7)            -0.0064         estimate D2E/DX2                !
 ! D9    D(1,2,4,8)             -0.0132         estimate D2E/DX2                !
 ! D10   D(1,2,4,9)            179.9934         estimate D2E/DX2                !
 ! D11   D(5,2,4,8)            179.9884         estimate D2E/DX2                !
 ! D12   D(5,2,4,9)             -0.005          estimate D2E/DX2                !
 ! D13   D(1,3,6,8)             -0.0141         estimate D2E/DX2                !
 ! D14   D(1,3,6,10)           179.9935         estimate D2E/DX2                !
 ! D15   D(7,3,6,8)            179.9931         estimate D2E/DX2                !
 ! D16   D(7,3,6,10)             0.0007         estimate D2E/DX2                !
 ! D17   D(2,4,8,6)              0.0046         estimate D2E/DX2                !
 ! D18   D(2,4,8,12)           179.9958         estimate D2E/DX2                !
 ! D19   D(9,4,8,6)            179.9981         estimate D2E/DX2                !
 ! D20   D(9,4,8,12)            -0.0107         estimate D2E/DX2                !
 ! D21   D(3,6,8,4)              0.0092         estimate D2E/DX2                !
 ! D22   D(3,6,8,12)          -179.9819         estimate D2E/DX2                !
 ! D23   D(10,6,8,4)          -179.9982         estimate D2E/DX2                !
 ! D24   D(10,6,8,12)            0.0106         estimate D2E/DX2                !
 ! D25   D(4,8,12,13)          179.9567         estimate D2E/DX2                !
 ! D26   D(4,8,12,14)           -0.0455         estimate D2E/DX2                !
 ! D27   D(6,8,12,13)           -0.0519         estimate D2E/DX2                !
 ! D28   D(6,8,12,14)          179.9459         estimate D2E/DX2                !
 --------------------------------------------------------------------------------
 Trust Radius=3.00D-01 FncErr=1.00D-07 GrdErr=1.00D-06 EigMax=2.50D+02 EigMin=1.00D-04
 Number of steps in this run=     73 maximum allowed number of steps=    100.
 GradGradGradGradGradGradGradGradGradGradGradGradGradGradGradGradGradGrad

                          Input orientation:                          
 ---------------------------------------------------------------------
 Center     Atomic      Atomic             Coordinates (Angstroms)
 Number     Number       Type             X           Y           Z
 ---------------------------------------------------------------------
      1          6           0       -0.438775    0.022353   -0.000294
      2          6           0        0.219701    1.241427    0.174438
      3          6           0        0.260015   -1.175167   -0.167241
      4          6           0        1.613829    1.263712    0.182276
      5          1           0       -0.343186    2.159371    0.302424
      6          6           0        1.654143   -1.153249   -0.159157
      7          1           0       -0.271960   -2.110507   -0.301370
      8          6           0        2.310413    0.065975    0.015401
      9          1           0        2.157344    2.191610    0.315307
     10          1           0        2.228336   -2.063389   -0.285779
     11         35           0       -2.380305   -0.008482   -0.011572
     12          7           0        3.783817    0.089435    0.023576
     13          8           0        4.374972   -0.981679   -0.124929
     14          8           0        4.339211    1.178402    0.178344
 ---------------------------------------------------------------------
                    Distance matrix (angstroms):
                    1          2          3          4          5
     1  C    0.000000
     2  C    1.396518   0.000000
     3  C    1.396507   2.440962   0.000000
     4  C    2.405720   1.394328   2.811246   0.000000
     5  H    2.160468   1.084363   3.421050   2.155585   0.000000
     6  C    2.405740   2.811296   1.394324   2.441291   3.895617
     7  H    2.160455   3.421050   1.084366   3.895570   4.312945
     8  C    2.749579   2.403759   2.403731   1.395582   3.392090
     9  H    3.397810   2.162672   3.894598   1.083559   2.500771
    10  H    3.397838   3.894640   2.162701   3.415596   4.978997
    11  Br   1.941808   2.890831   2.890792   4.196327   2.991326
    12  N    4.223192   3.748702   3.748708   2.472440   4.625424
    13  O    4.918920   4.722086   4.119721   3.572124   5.684175
    14  O    4.919097   4.119994   4.722135   2.726720   4.785660
                    6          7          8          9         10
     6  C    0.000000
     7  H    2.155560   0.000000
     8  C    1.395589   3.392060   0.000000
     9  H    3.415613   4.978958   2.152138   0.000000
    10  H    1.083552   2.500789   2.152124   4.297832   0.000000
    11  Br   4.196313   2.991256   4.691386   5.053465   5.053455
    12  N    2.472482   4.625436   1.473613   2.673885   2.673925
    13  O    2.726448   4.785328   2.319413   3.896337   2.409152
    14  O    3.572127   5.684184   2.319497   2.409542   3.896205
                   11         12         13         14
    11  Br   0.000000
    12  N    6.165000   0.000000
    13  O    6.825960   1.232397   0.000000
    14  O    6.826174   1.232179   2.181560   0.000000
 Symmetry turned off by external request.
 Stoichiometry    C6H4BrNO2
 Framework group  C1[X(C6H4BrNO2)]
 Deg. of freedom    36
 Full point group                 C1      NOp   1
 Rotational constants (GHZ):           3.9405095           0.3693024           0.3376573
 General basis read from cards:  (5D, 7F)
 ======================================================================================================
                                       Pseudopotential Parameters
 ======================================================================================================
  Center     Atomic      Valence      Angular      Power
  Number     Number     Electrons     Momentum     of R      Exponent        Coefficient   SO-Coeffient
 ======================================================================================================
    1          6
                                   No pseudopotential on this center.
    2          6
                                   No pseudopotential on this center.
    3          6
                                   No pseudopotential on this center.
    4          6
                                   No pseudopotential on this center.
    5          1
                                   No pseudopotential on this center.
    6          6
                                   No pseudopotential on this center.
    7          1
                                   No pseudopotential on this center.
    8          6
                                   No pseudopotential on this center.
    9          1
                                   No pseudopotential on this center.
   10          1
                                   No pseudopotential on this center.
   11         35            7
                                      G and up 
                                                     2        1.0000000        0.00000000    0.00000000
                                      S - G
                                                     2        5.0218000       61.51372100    0.00000000
                                                     2        2.5109000        9.02149300    0.00000000
                                      P - G
                                                     2        4.2814000       53.87586400    0.00000000
                                                     2        2.1407000        4.62940200    0.00000000
                                      D - G
                                                     2        2.8800000       20.84967700    0.00000000
                                                     2        1.4400000        2.96544400    0.00000000
                                      F - G
                                                     2        2.7207000       -8.16149300    0.00000000
   12          7
                                   No pseudopotential on this center.
   13          8
                                   No pseudopotential on this center.
   14          8
                                   No pseudopotential on this center.
 ======================================================================================================
   181 basis functions,   323 primitive gaussians,   190 cartesian basis functions
    35 alpha electrons       35 beta electrons
       nuclear repulsion energy       459.0487769916 Hartrees.
 NAtoms=   14 NActive=   14 NUniq=   14 SFac= 1.00D+00 NAtFMM=   60 NAOKFM=F Big=F
 Integral buffers will be    131072 words long.
 Raffenetti 2 integral format.
 Two-electron integral symmetry is turned off.
 Nuclear repulsion after empirical dispersion term =      459.0374402165 Hartrees.
 One-electron integrals computed using PRISM.
   1 Symmetry operations used in ECPInt.
 ECPInt:  NShTT=    1711 NPrTT=    9091 LenC2=    1689 LenP2D=    6487.
 LDataN:  DoStor=T MaxTD1= 6 Len=  172
 NBasis=   181 RedAO= T EigKep=  3.15D-06  NBF=   181
 NBsUse=   181 1.00D-06 EigRej= -1.00D+00 NBFU=   181
 ExpMin= 3.61D-02 ExpMax= 5.48D+03 ExpMxC= 8.25D+02 IAcc=3 IRadAn=         5 AccDes= 0.00D+00
 Harris functional with IExCor=  402 and IRadAn=       5 diagonalized for initial guess.
 HarFok:  IExCor=  402 AccDes= 0.00D+00 IRadAn=         5 IDoV= 1 UseB2=F ITyADJ=14
 ICtDFT=  3500011 ScaDFX=  1.000000  1.000000  1.000000  1.000000
 FoFCou: FMM=F IPFlag=           0 FMFlag=      100000 FMFlg1=           0
         NFxFlg=           0 DoJE=T BraDBF=F KetDBF=T FulRan=T
         wScrn=  0.000000 ICntrl=       500 IOpCl=  0 I1Cent=   200000004 NGrid=           0
         NMat0=    1 NMatS0=      1 NMatT0=    0 NMatD0=    1 NMtDS0=    0 NMtDT0=    0
 Symmetry not used in FoFCou.
 Requested convergence on RMS density matrix=1.00D-08 within1000 cycles.
 Requested convergence on MAX density matrix=1.00D-06.
 Requested convergence on             energy=1.00D-06.
 No special actions if energy rises.
 SCF Done:  E(RB3LYP) =  -449.542915166     A.U. after   14 cycles
            NFock= 14  Conv=0.96D-08     -V/T= 2.0271

 **********************************************************************

            Population analysis using the SCF Density.

 **********************************************************************

 Alpha  occ. eigenvalues --  -19.20329 -19.20320 -14.59147 -10.28877 -10.27465
 Alpha  occ. eigenvalues --  -10.24214 -10.24213 -10.24009 -10.24009  -1.24605
 Alpha  occ. eigenvalues --   -1.07378  -0.92340  -0.86508  -0.80742  -0.80226
 Alpha  occ. eigenvalues --   -0.71192  -0.66351  -0.61856  -0.58225  -0.55199
 Alpha  occ. eigenvalues --   -0.53611  -0.51059  -0.50233  -0.49272  -0.47579
 Alpha  occ. eigenvalues --   -0.42498  -0.40367  -0.40286  -0.34795  -0.33269
 Alpha  occ. eigenvalues --   -0.33121  -0.32003  -0.31249  -0.30370  -0.28431
 Alpha virt. eigenvalues --   -0.11543  -0.05704  -0.04218  -0.03014  -0.00484
 Alpha virt. eigenvalues --    0.01175   0.01910   0.03444   0.03737   0.04503
 Alpha virt. eigenvalues --    0.05319   0.06472   0.07363   0.07481   0.08026
 Alpha virt. eigenvalues --    0.08750   0.10227   0.11602   0.11982   0.12640
 Alpha virt. eigenvalues --    0.12677   0.13150   0.13622   0.13768   0.15089
 Alpha virt. eigenvalues --    0.15607   0.17943   0.18188   0.18224   0.19001
 Alpha virt. eigenvalues --    0.19869   0.20127   0.20209   0.21297   0.22297
 Alpha virt. eigenvalues --    0.22585   0.23878   0.24118   0.24550   0.24789
 Alpha virt. eigenvalues --    0.26060   0.27926   0.29253   0.29500   0.29775
 Alpha virt. eigenvalues --    0.30939   0.31478   0.32321   0.33031   0.35580
 Alpha virt. eigenvalues --    0.38989   0.39847   0.41447   0.42766   0.46142
 Alpha virt. eigenvalues --    0.48230   0.50653   0.53192   0.58469   0.60559
 Alpha virt. eigenvalues --    0.62193   0.62766   0.62982   0.67728   0.68889
 Alpha virt. eigenvalues --    0.70048   0.70099   0.70491   0.71747   0.75192
 Alpha virt. eigenvalues --    0.77671   0.79867   0.84937   0.85978   0.88986
 Alpha virt. eigenvalues --    0.91670   0.95281   0.96622   0.98463   1.05361
 Alpha virt. eigenvalues --    1.05608   1.07655   1.10578   1.13066   1.16497
 Alpha virt. eigenvalues --    1.16863   1.18661   1.19222   1.20486   1.21853
 Alpha virt. eigenvalues --    1.24386   1.27399   1.28447   1.29573   1.32592
 Alpha virt. eigenvalues --    1.36001   1.38100   1.38308   1.41107   1.43010
 Alpha virt. eigenvalues --    1.44282   1.44935   1.45132   1.45869   1.66325
 Alpha virt. eigenvalues --    1.67212   1.69488   1.74125   1.78728   1.80000
 Alpha virt. eigenvalues --    1.83808   1.86946   1.89615   1.92377   1.94269
 Alpha virt. eigenvalues --    1.94585   1.96721   2.03339   2.06240   2.10826
 Alpha virt. eigenvalues --    2.10882   2.13065   2.13953   2.14392   2.20163
 Alpha virt. eigenvalues --    2.23965   2.24070   2.26183   2.38586   2.47478
 Alpha virt. eigenvalues --    2.49661   2.55833   2.60340   2.61418   2.61882
 Alpha virt. eigenvalues --    2.68686   2.69865   2.71502   2.82864   2.87116
 Alpha virt. eigenvalues --    2.99954   3.02907   3.08449   3.16926   3.35845
 Alpha virt. eigenvalues --    7.98575
          Condensed to atoms (all electrons):
               1          2          3          4          5          6
     1  C    5.993366   0.451953   0.452007  -0.380145  -0.000510  -0.379942
     2  C    0.451953   7.560374   0.232590  -0.869040   0.297710  -0.685783
     3  C    0.452007   0.232590   7.561360  -0.686023   0.037596  -0.869717
     4  C   -0.380145  -0.869040  -0.686023   9.806762   0.005945  -2.490492
     5  H   -0.000510   0.297710   0.037596   0.005945   0.487020  -0.031547
     6  C   -0.379942  -0.685783  -0.869717  -2.490492  -0.031547   9.807769
     7  H   -0.000543   0.037572   0.297684  -0.031524  -0.000134   0.005954
     8  C   -0.478172  -0.599929  -0.599843   0.144203  -0.001560   0.143377
     9  H    0.007675  -0.090066  -0.015420   0.120427  -0.004466   0.103185
    10  H    0.007657  -0.015406  -0.090071   0.103178   0.000011   0.120415
    11  Br  -0.091661  -0.023103  -0.023034   0.119874  -0.003532   0.119895
    12  N    0.009086  -0.032665  -0.032766   0.218846   0.000025   0.218653
    13  O   -0.000224  -0.007826   0.157347   0.096355   0.000059  -0.096463
    14  O   -0.000198   0.157247  -0.007859  -0.096459  -0.000052   0.096534
               7          8          9         10         11         12
     1  C   -0.000543  -0.478172   0.007675   0.007657  -0.091661   0.009086
     2  C    0.037572  -0.599929  -0.090066  -0.015406  -0.023103  -0.032665
     3  C    0.297684  -0.599843  -0.015420  -0.090071  -0.023034  -0.032766
     4  C   -0.031524   0.144203   0.120427   0.103178   0.119874   0.218846
     5  H   -0.000134  -0.001560  -0.004466   0.000011  -0.003532   0.000025
     6  C    0.005954   0.143377   0.103185   0.120415   0.119895   0.218653
     7  H    0.487023  -0.001509   0.000011  -0.004466  -0.003533   0.000024
     8  C   -0.001509   8.219658   0.199027   0.199062   0.005444  -0.605070
     9  H    0.000011   0.199027   0.472467  -0.000130  -0.000439  -0.048759
    10  H   -0.004466   0.199062  -0.000130   0.472436  -0.000439  -0.048759
    11  Br  -0.003533   0.005444  -0.000439  -0.000439   6.776988   0.000652
    12  N    0.000024  -0.605070  -0.048759  -0.048759   0.000652   6.851331
    13  O   -0.000052  -0.224156  -0.002554   0.022895  -0.000061   0.265482
    14  O    0.000059  -0.224230   0.022902  -0.002555  -0.000061   0.265448
              13         14
     1  C   -0.000224  -0.000198
     2  C   -0.007826   0.157247
     3  C    0.157347  -0.007859
     4  C    0.096355  -0.096459
     5  H    0.000059  -0.000052
     6  C   -0.096463   0.096534
     7  H   -0.000052   0.000059
     8  C   -0.224156  -0.224230
     9  H   -0.002554   0.022902
    10  H    0.022895  -0.002555
    11  Br  -0.000061  -0.000061
    12  N    0.265482   0.265448
    13  O    7.993957  -0.083272
    14  O   -0.083272   7.993803
 Mulliken charges:
               1
     1  C    0.409649
     2  C   -0.413628
     3  C   -0.413851
     4  C   -0.061908
     5  H    0.213435
     6  C   -0.061836
     7  H    0.213434
     8  C   -0.176301
     9  H    0.236140
    10  H    0.236170
    11  Br   0.123012
    12  N   -0.061527
    13  O   -0.121485
    14  O   -0.121306
 Sum of Mulliken charges =   0.00000
 Mulliken charges with hydrogens summed into heavy atoms:
               1
     1  C    0.409649
     2  C   -0.200193
     3  C   -0.200417
     4  C    0.174232
     6  C    0.174334
     8  C   -0.176301
    11  Br   0.123012
    12  N   -0.061527
    13  O   -0.121485
    14  O   -0.121306
 Electronic spatial extent (au):  <R**2>=           2281.6089
 Charge=              0.0000 electrons
 Dipole moment (field-independent basis, Debye):
    X=             -3.3124    Y=             -0.0515    Z=             -0.0180  Tot=              3.3129
 Quadrupole moment (field-independent basis, Debye-Ang):
   XX=            -91.8299   YY=            -61.2507   ZZ=            -67.4810
   XY=             -0.5830   XZ=             -0.1568   YZ=              0.9015
 Traceless Quadrupole moment (field-independent basis, Debye-Ang):
   XX=            -18.3094   YY=             12.2698   ZZ=              6.0396
   XY=             -0.5830   XZ=             -0.1568   YZ=              0.9015
 Octapole moment (field-independent basis, Debye-Ang**2):
  XXX=           -338.6985  YYY=             -8.7340  ZZZ=             -1.4816  XYY=            -70.4633
  XXY=             -5.7967  XXZ=             -1.3672  XZZ=            -61.7187  YZZ=             -2.9652
  YYZ=             -0.5139  XYZ=             -1.2526
 Hexadecapole moment (field-independent basis, Debye-Ang**3):
 XXXX=          -3365.9667 YYYY=           -366.0518 ZZZZ=            -85.8896 XXXY=            -36.2305
 XXXZ=            -11.2870 YYYX=            -27.0677 YYYZ=            -15.2099 ZZZX=             -7.2861
 ZZZY=            -25.2734 XXYY=           -562.4597 XXZZ=           -456.0176 YYZZ=            -85.9955
 XXYZ=            -15.3291 YYXZ=             -3.1715 ZZXY=             -7.7133
 N-N= 4.590374402165D+02 E-N=-1.960885248833D+03  KE= 4.376704992236D+02
 Evaluate density.
 Using the total density.
 Monte-Carlo method of calculating molar volume:
 based on  0.001 e/bohr**3 density envelope.
 Number of points per bohr**3 =   20 CutOff= 1.00D-04
 Using the SCF density.
 There are       437 points.  Will hold       437 in memory.
 LenV=  8321379742 MDV=  8321499136.
 Box volume =10500.040 fraction occupied=0.105
 Integrated density= 6.1938183372085419D+01 error=-8.0618166279145811D+00
 Molar volume = 1105.267 bohr**3/mol ( 98.633 cm**3/mol)
 Recommended a0 for SCRF calculation =  4.24 angstrom (  8.00 bohr)
   1 Symmetry operations used in ECPInt.
 ECPInt:  NShTT=    1711 NPrTT=    9091 LenC2=    1689 LenP2D=    6487.
 LDataN:  DoStor=T MaxTD1= 7 Len=  274
 Calling FoFJK, ICntrl=      2127 FMM=F ISym2X=0 I1Cent= 0 IOpClX= 0 NMat=1 NMatS=1 NMatT=0.
 -------------------------------------------------------------------
 Center     Atomic                   Forces (Hartrees/Bohr)
 Number     Number              X              Y              Z
 -------------------------------------------------------------------
      1        6           0.000019894    0.000008584   -0.000004693
      2        6          -0.000031179   -0.000015653   -0.000005877
      3        6          -0.000030233   -0.000004786    0.000014880
      4        6           0.000062838    0.000005351    0.000013277
      5        1           0.000000138    0.000001693   -0.000004358
      6        6           0.000064284    0.000010002   -0.000008248
      7        1           0.000000636    0.000002066    0.000000026
      8        6          -0.000174293    0.000019642   -0.000005576
      9        1           0.000000046   -0.000002647    0.000000266
     10        1          -0.000003757    0.000000989   -0.000003309
     11       35          -0.000003488    0.000000254    0.000001873
     12        7           0.000198410   -0.000219650   -0.000028340
     13        8          -0.000084892    0.000222350    0.000030280
     14        8          -0.000018404   -0.000028196   -0.000000200
 -------------------------------------------------------------------
 Cartesian Forces:  Max     0.000222350 RMS     0.000067142

 GradGradGradGradGradGradGradGradGradGradGradGradGradGradGradGradGradGrad
 Berny optimization.
 FormGI is forming the generalized inverse of G from B-inverse, IUseBI=4.
 Internal  Forces:  Max     0.000237640 RMS     0.000034955
 Search for a local minimum.
 Step number   1 out of a maximum of   73
 All quantities printed in internal units (Hartrees-Bohrs-Radians)
 Mixed Optimization -- En-DIIS/RFO-DIIS
 Second derivative matrix not updated -- first step.
 ITU=  0
     Eigenvalues ---    0.00718   0.00718   0.01725   0.02135   0.02140
     Eigenvalues ---    0.02147   0.02148   0.02152   0.02153   0.02157
     Eigenvalues ---    0.02157   0.16000   0.16000   0.16000   0.16000
     Eigenvalues ---    0.16352   0.22000   0.23000   0.24000   0.25000
     Eigenvalues ---    0.25000   0.25000   0.25000   0.35311   0.35472
     Eigenvalues ---    0.35472   0.35568   0.35569   0.42213   0.42271
     Eigenvalues ---    0.46251   0.46283   0.46410   0.46574   0.90095
     Eigenvalues ---    0.90185
 RFO step:  Lambda=-1.42672774D-07 EMin= 7.18015798D-03
 Linear search not attempted -- first point.
 Iteration  1 RMS(Cart)=  0.00021407 RMS(Int)=  0.00000004
 Iteration  2 RMS(Cart)=  0.00000005 RMS(Int)=  0.00000001
 Variable       Old X    -DE/DX   Delta X   Delta X   Delta X     New X
                                 (Linear)    (Quad)   (Total)
    R1        2.63904  -0.00001   0.00000  -0.00002  -0.00002   2.63902
    R2        2.63902   0.00000   0.00000   0.00000   0.00000   2.63902
    R3        3.66948   0.00000   0.00000   0.00002   0.00002   3.66951
    R4        2.63490   0.00002   0.00000   0.00005   0.00005   2.63494
    R5        2.04915   0.00000   0.00000   0.00000   0.00000   2.04915
    R6        2.63489   0.00002   0.00000   0.00005   0.00005   2.63494
    R7        2.04915   0.00000   0.00000  -0.00001  -0.00001   2.04915
    R8        2.63727  -0.00003   0.00000  -0.00006  -0.00006   2.63721
    R9        2.04763   0.00000   0.00000  -0.00001  -0.00001   2.04762
   R10        2.63728  -0.00003   0.00000  -0.00006  -0.00006   2.63722
   R11        2.04762   0.00000   0.00000  -0.00001  -0.00001   2.04761
   R12        2.78473   0.00009   0.00000   0.00027   0.00027   2.78499
   R13        2.32889  -0.00024   0.00000  -0.00026  -0.00026   2.32863
   R14        2.32848  -0.00003   0.00000  -0.00004  -0.00004   2.32844
    A1        2.12654   0.00001   0.00000   0.00004   0.00004   2.12658
    A2        2.07834   0.00000   0.00000  -0.00002  -0.00002   2.07832
    A3        2.07830   0.00000   0.00000  -0.00002  -0.00002   2.07829
    A4        2.07842   0.00000   0.00000   0.00000   0.00000   2.07842
    A5        2.10479   0.00000   0.00000   0.00001   0.00001   2.10480
    A6        2.09998   0.00000   0.00000   0.00000   0.00000   2.09998
    A7        2.07846  -0.00001   0.00000  -0.00002  -0.00002   2.07844
    A8        2.10478   0.00000   0.00000   0.00001   0.00001   2.10479
    A9        2.09994   0.00000   0.00000   0.00001   0.00001   2.09995
   A10        2.07679  -0.00002   0.00000  -0.00009  -0.00009   2.07670
   A11        2.11286   0.00001   0.00000   0.00005   0.00005   2.11291
   A12        2.09354   0.00001   0.00000   0.00003   0.00003   2.09357
   A13        2.07675  -0.00002   0.00000  -0.00007  -0.00007   2.07668
   A14        2.11293   0.00000   0.00000   0.00002   0.00002   2.11294
   A15        2.09351   0.00001   0.00000   0.00005   0.00005   2.09357
   A16        2.12942   0.00004   0.00000   0.00014   0.00014   2.12956
   A17        2.07686  -0.00002   0.00000  -0.00009  -0.00009   2.07676
   A18        2.07691  -0.00001   0.00000  -0.00005  -0.00005   2.07686
   A19        2.05455   0.00005   0.00000   0.00022   0.00022   2.05477
   A20        2.05493  -0.00003   0.00000  -0.00013  -0.00013   2.05481
   A21        2.17370  -0.00002   0.00000  -0.00009  -0.00009   2.17361
    D1        0.00015   0.00000   0.00000  -0.00012  -0.00012   0.00002
    D2       -3.14148   0.00000   0.00000  -0.00004  -0.00004  -3.14151
    D3       -3.14136   0.00000   0.00000  -0.00021  -0.00021  -3.14158
    D4        0.00020   0.00000   0.00000  -0.00013  -0.00013   0.00007
    D5        0.00010   0.00000   0.00000  -0.00020  -0.00020  -0.00010
    D6        3.14156   0.00000   0.00000  -0.00001  -0.00001   3.14156
    D7       -3.14158   0.00000   0.00000  -0.00011  -0.00011   3.14150
    D8       -0.00011   0.00000   0.00000   0.00008   0.00008  -0.00003
    D9       -0.00023   0.00001   0.00000   0.00030   0.00030   0.00007
   D10        3.14148   0.00000   0.00000   0.00012   0.00012  -3.14158
   D11        3.14139   0.00000   0.00000   0.00021   0.00021  -3.14158
   D12       -0.00009   0.00000   0.00000   0.00004   0.00004  -0.00005
   D13       -0.00025   0.00001   0.00000   0.00034   0.00034   0.00009
   D14        3.14148   0.00000   0.00000   0.00015   0.00015  -3.14155
   D15        3.14147   0.00000   0.00000   0.00015   0.00015  -3.14156
   D16        0.00001   0.00000   0.00000  -0.00004  -0.00004  -0.00002
   D17        0.00008   0.00000   0.00000  -0.00015  -0.00015  -0.00007
   D18        3.14152   0.00000   0.00000  -0.00001  -0.00001   3.14151
   D19        3.14156   0.00000   0.00000   0.00002   0.00002   3.14158
   D20       -0.00019   0.00000   0.00000   0.00016   0.00016  -0.00003
   D21        0.00016   0.00000   0.00000  -0.00017  -0.00017  -0.00001
   D22       -3.14128  -0.00001   0.00000  -0.00031  -0.00031  -3.14159
   D23       -3.14156   0.00000   0.00000   0.00001   0.00001  -3.14155
   D24        0.00019   0.00000   0.00000  -0.00013  -0.00013   0.00006
   D25        3.14084   0.00000   0.00000   0.00001   0.00001   3.14085
   D26       -0.00079   0.00000   0.00000   0.00040   0.00040  -0.00039
   D27       -0.00091   0.00000   0.00000   0.00014   0.00014  -0.00076
   D28        3.14065   0.00000   0.00000   0.00054   0.00054   3.14119
         Item               Value     Threshold  Converged?
 Maximum Force            0.000238     0.000450     YES
 RMS     Force            0.000035     0.000300     YES
 Maximum Displacement     0.001075     0.001800     YES
 RMS     Displacement     0.000214     0.001200     YES
 Predicted change in Energy=-7.133638D-08
 Optimization completed.
    -- Stationary point found.
                           ----------------------------
                           !   Optimized Parameters   !
                           ! (Angstroms and Degrees)  !
 --------------------------                            --------------------------
 ! Name  Definition              Value          Derivative Info.                !
 --------------------------------------------------------------------------------
 ! R1    R(1,2)                  1.3965         -DE/DX =    0.0                 !
 ! R2    R(1,3)                  1.3965         -DE/DX =    0.0                 !
 ! R3    R(1,11)                 1.9418         -DE/DX =    0.0                 !
 ! R4    R(2,4)                  1.3943         -DE/DX =    0.0                 !
 ! R5    R(2,5)                  1.0844         -DE/DX =    0.0                 !
 ! R6    R(3,6)                  1.3943         -DE/DX =    0.0                 !
 ! R7    R(3,7)                  1.0844         -DE/DX =    0.0                 !
 ! R8    R(4,8)                  1.3956         -DE/DX =    0.0                 !
 ! R9    R(4,9)                  1.0836         -DE/DX =    0.0                 !
 ! R10   R(6,8)                  1.3956         -DE/DX =    0.0                 !
 ! R11   R(6,10)                 1.0836         -DE/DX =    0.0                 !
 ! R12   R(8,12)                 1.4736         -DE/DX =    0.0001              !
 ! R13   R(12,13)                1.2324         -DE/DX =   -0.0002              !
 ! R14   R(12,14)                1.2322         -DE/DX =    0.0                 !
 ! A1    A(2,1,3)              121.8417         -DE/DX =    0.0                 !
 ! A2    A(2,1,11)             119.0802         -DE/DX =    0.0                 !
 ! A3    A(3,1,11)             119.0781         -DE/DX =    0.0                 !
 ! A4    A(1,2,4)              119.0846         -DE/DX =    0.0                 !
 ! A5    A(1,2,5)              120.5956         -DE/DX =    0.0                 !
 ! A6    A(4,2,5)              120.3199         -DE/DX =    0.0                 !
 ! A7    A(1,3,6)              119.0873         -DE/DX =    0.0                 !
 ! A8    A(1,3,7)              120.5951         -DE/DX =    0.0                 !
 ! A9    A(6,3,7)              120.3177         -DE/DX =    0.0                 !
 ! A10   A(2,4,8)              118.9911         -DE/DX =    0.0                 !
 ! A11   A(2,4,9)              121.0581         -DE/DX =    0.0                 !
 ! A12   A(8,4,9)              119.9508         -DE/DX =    0.0                 !
 ! A13   A(3,6,8)              118.9888         -DE/DX =    0.0                 !
 ! A14   A(3,6,10)             121.0618         -DE/DX =    0.0                 !
 ! A15   A(8,6,10)             119.9495         -DE/DX =    0.0                 !
 ! A16   A(4,8,6)              122.0066         -DE/DX =    0.0                 !
 ! A17   A(4,8,12)             118.9953         -DE/DX =    0.0                 !
 ! A18   A(6,8,12)             118.9981         -DE/DX =    0.0                 !
 ! A19   A(8,12,13)            117.7171         -DE/DX =    0.0001              !
 ! A20   A(8,12,14)            117.739          -DE/DX =    0.0                 !
 ! A21   A(13,12,14)           124.544          -DE/DX =    0.0                 !
 ! D1    D(3,1,2,4)              0.0083         -DE/DX =    0.0                 !
 ! D2    D(3,1,2,5)           -179.9933         -DE/DX =    0.0                 !
 ! D3    D(11,1,2,4)          -179.9869         -DE/DX =    0.0                 !
 ! D4    D(11,1,2,5)             0.0114         -DE/DX =    0.0                 !
 ! D5    D(2,1,3,6)              0.0055         -DE/DX =    0.0                 !
 ! D6    D(2,1,3,7)            179.9983         -DE/DX =    0.0                 !
 ! D7    D(11,1,3,6)           180.0008         -DE/DX =    0.0                 !
 ! D8    D(11,1,3,7)            -0.0064         -DE/DX =    0.0                 !
 ! D9    D(1,2,4,8)             -0.0132         -DE/DX =    0.0                 !
 ! D10   D(1,2,4,9)           -180.0066         -DE/DX =    0.0                 !
 ! D11   D(5,2,4,8)           -180.0116         -DE/DX =    0.0                 !
 ! D12   D(5,2,4,9)             -0.005          -DE/DX =    0.0                 !
 ! D13   D(1,3,6,8)             -0.0141         -DE/DX =    0.0                 !
 ! D14   D(1,3,6,10)          -180.0065         -DE/DX =    0.0                 !
 ! D15   D(7,3,6,8)           -180.0069         -DE/DX =    0.0                 !
 ! D16   D(7,3,6,10)             0.0007         -DE/DX =    0.0                 !
 ! D17   D(2,4,8,6)              0.0046         -DE/DX =    0.0                 !
 ! D18   D(2,4,8,12)           179.9958         -DE/DX =    0.0                 !
 ! D19   D(9,4,8,6)            179.9981         -DE/DX =    0.0                 !
 ! D20   D(9,4,8,12)            -0.0107         -DE/DX =    0.0                 !
 ! D21   D(3,6,8,4)              0.0092         -DE/DX =    0.0                 !
 ! D22   D(3,6,8,12)          -179.9819         -DE/DX =    0.0                 !
 ! D23   D(10,6,8,4)          -179.9982         -DE/DX =    0.0                 !
 ! D24   D(10,6,8,12)            0.0106         -DE/DX =    0.0                 !
 ! D25   D(4,8,12,13)          179.9567         -DE/DX =    0.0                 !
 ! D26   D(4,8,12,14)           -0.0455         -DE/DX =    0.0                 !
 ! D27   D(6,8,12,13)           -0.0519         -DE/DX =    0.0                 !
 ! D28   D(6,8,12,14)          179.9459         -DE/DX =    0.0                 !
 --------------------------------------------------------------------------------
 GradGradGradGradGradGradGradGradGradGradGradGradGradGradGradGradGradGrad

                          Input orientation:                          
 ---------------------------------------------------------------------
 Center     Atomic      Atomic             Coordinates (Angstroms)
 Number     Number       Type             X           Y           Z
 ---------------------------------------------------------------------
      1          6           0       -0.438775    0.022353   -0.000294
      2          6           0        0.219701    1.241427    0.174438
      3          6           0        0.260015   -1.175167   -0.167241
      4          6           0        1.613829    1.263712    0.182276
      5          1           0       -0.343186    2.159371    0.302424
      6          6           0        1.654143   -1.153249   -0.159157
      7          1           0       -0.271960   -2.110507   -0.301370
      8          6           0        2.310413    0.065975    0.015401
      9          1           0        2.157344    2.191610    0.315307
     10          1           0        2.228336   -2.063389   -0.285779
     11         35           0       -2.380305   -0.008482   -0.011572
     12          7           0        3.783817    0.089435    0.023576
     13          8           0        4.374972   -0.981679   -0.124929
     14          8           0        4.339211    1.178402    0.178344
 ---------------------------------------------------------------------
                    Distance matrix (angstroms):
                    1          2          3          4          5
     1  C    0.000000
     2  C    1.396518   0.000000
     3  C    1.396507   2.440962   0.000000
     4  C    2.405720   1.394328   2.811246   0.000000
     5  H    2.160468   1.084363   3.421050   2.155585   0.000000
     6  C    2.405740   2.811296   1.394324   2.441291   3.895617
     7  H    2.160455   3.421050   1.084366   3.895570   4.312945
     8  C    2.749579   2.403759   2.403731   1.395582   3.392090
     9  H    3.397810   2.162672   3.894598   1.083559   2.500771
    10  H    3.397838   3.894640   2.162701   3.415596   4.978997
    11  Br   1.941808   2.890831   2.890792   4.196327   2.991326
    12  N    4.223192   3.748702   3.748708   2.472440   4.625424
    13  O    4.918920   4.722086   4.119721   3.572124   5.684175
    14  O    4.919097   4.119994   4.722135   2.726720   4.785660
                    6          7          8          9         10
     6  C    0.000000
     7  H    2.155560   0.000000
     8  C    1.395589   3.392060   0.000000
     9  H    3.415613   4.978958   2.152138   0.000000
    10  H    1.083552   2.500789   2.152124   4.297832   0.000000
    11  Br   4.196313   2.991256   4.691386   5.053465   5.053455
    12  N    2.472482   4.625436   1.473613   2.673885   2.673925
    13  O    2.726448   4.785328   2.319413   3.896337   2.409152
    14  O    3.572127   5.684184   2.319497   2.409542   3.896205
                   11         12         13         14
    11  Br   0.000000
    12  N    6.165000   0.000000
    13  O    6.825960   1.232397   0.000000
    14  O    6.826174   1.232179   2.181560   0.000000
 Symmetry turned off by external request.
 Stoichiometry    C6H4BrNO2
 Framework group  C1[X(C6H4BrNO2)]
 Deg. of freedom    36
 Full point group                 C1      NOp   1
 Rotational constants (GHZ):           3.9405095           0.3693024           0.3376573
 1\1\GINC-IP-172-31-8-94\FOpt\RB3LYP\Gen\C6H4Br1N1O2\UBUNTU\16-Sep-2023
 \0\\# opt freq rb3lyp/gen nosymm empiricaldispersion=gd3 pseudo=read s
 cf=maxcycle=1000 volume\\reac1\\0,1\C,-0.438775,0.022353,-0.000294\C,0
 .219701,1.241427,0.174438\C,0.260015,-1.175167,-0.167241\C,1.613829,1.
 263712,0.182276\H,-0.343186,2.159371,0.302424\C,1.654143,-1.153249,-0.
 159157\H,-0.27196,-2.110507,-0.30137\C,2.310413,0.065975,0.015401\H,2.
 157344,2.19161,0.315307\H,2.228336,-2.063389,-0.285779\Br,-2.380305,-0
 .008482,-0.011572\N,3.783817,0.089435,0.023576\O,4.374972,-0.981679,-0
 .124929\O,4.339211,1.178402,0.178344\\Version=EM64L-G16RevB.01\HF=-449
 .5429152\RMSD=9.603e-09\RMSF=6.714e-05\Dipole=-1.3032118,-0.0202593,-0
 .0070994\Quadrupole=-13.612561,9.1222935,4.4902675,-0.4334473,-0.11658
 75,0.6702757\PG=C01 [X(C6H4Br1N1O2)]\\@


 I FIND THAT THE THREE TRULY GREAT TIMES FOR THINKING THOUGHTS
 ARE WHEN I AM STANDING IN THE SHOWER, SITTING ON THE JOHN, OR WALKING.

                                    -- COLIN FLETCHER
 Job cpu time:       0 days  0 hours  6 minutes 19.6 seconds.
 Elapsed time:       0 days  0 hours  0 minutes 11.9 seconds.
 File lengths (MBytes):  RWF=     21 Int=      0 D2E=      0 Chk=      4 Scr=      1
 Normal termination of Gaussian 16 at Sat Sep 16 07:14:48 2023.
 Link1:  Proceeding to internal job step number  2.
 ------------------------------------------------------------------
 #N Geom=AllCheck Guess=TCheck SCRF=Check GenChk RB3LYP/ChkBas Freq
 ------------------------------------------------------------------
 1/10=4,29=7,30=1,38=1,40=1/1,3;
 2/12=2,15=1,40=1/2;
 3/5=7,6=2,11=2,14=-4,16=1,17=8,25=1,30=1,67=1,70=2,71=2,74=-5,82=7,116=1,124=31,140=1/1,2,3;
 4/5=101/1;
 5/5=2,7=1000,38=6,98=1/2;
 8/6=4,10=90,11=11/1;
 11/6=1,8=1,9=11,15=111,16=1,31=1/1,2,10;
 10/6=1,31=1/2;
 6/7=2,8=2,9=2,10=2,28=1/1;
 7/8=1,10=1,25=1,30=1/1,2,3,16;
 1/10=4,30=1/3;
 99//99;
 Structure from the checkpoint file:  "ARYLHALIDE-NO2-gen-Br-vol.chk"
 -----
 reac1
 -----
 Charge =  0 Multiplicity = 1
 Redundant internal coordinates found in file.  (old form).
 C,0,-0.438775,0.022353,-0.000294
 C,0,0.219701,1.241427,0.174438
 C,0,0.260015,-1.175167,-0.167241
 C,0,1.613829,1.263712,0.182276
 H,0,-0.343186,2.159371,0.302424
 C,0,1.654143,-1.153249,-0.159157
 H,0,-0.27196,-2.110507,-0.30137
 C,0,2.310413,0.065975,0.015401
 H,0,2.157344,2.19161,0.315307
 H,0,2.228336,-2.063389,-0.285779
 Br,0,-2.380305,-0.008482,-0.011572
 N,0,3.783817,0.089435,0.023576
 O,0,4.374972,-0.981679,-0.124929
 O,0,4.339211,1.178402,0.178344
 Recover connectivity data from disk.

 GradGradGradGradGradGradGradGradGradGradGradGradGradGradGradGradGradGrad
 Berny optimization.
 Initialization pass.
                           ----------------------------
                           !    Initial Parameters    !
                           ! (Angstroms and Degrees)  !
 --------------------------                            --------------------------
 ! Name  Definition              Value          Derivative Info.                !
 --------------------------------------------------------------------------------
 ! R1    R(1,2)                  1.3965         calculate D2E/DX2 analytically  !
 ! R2    R(1,3)                  1.3965         calculate D2E/DX2 analytically  !
 ! R3    R(1,11)                 1.9418         calculate D2E/DX2 analytically  !
 ! R4    R(2,4)                  1.3943         calculate D2E/DX2 analytically  !
 ! R5    R(2,5)                  1.0844         calculate D2E/DX2 analytically  !
 ! R6    R(3,6)                  1.3943         calculate D2E/DX2 analytically  !
 ! R7    R(3,7)                  1.0844         calculate D2E/DX2 analytically  !
 ! R8    R(4,8)                  1.3956         calculate D2E/DX2 analytically  !
 ! R9    R(4,9)                  1.0836         calculate D2E/DX2 analytically  !
 ! R10   R(6,8)                  1.3956         calculate D2E/DX2 analytically  !
 ! R11   R(6,10)                 1.0836         calculate D2E/DX2 analytically  !
 ! R12   R(8,12)                 1.4736         calculate D2E/DX2 analytically  !
 ! R13   R(12,13)                1.2324         calculate D2E/DX2 analytically  !
 ! R14   R(12,14)                1.2322         calculate D2E/DX2 analytically  !
 ! A1    A(2,1,3)              121.8417         calculate D2E/DX2 analytically  !
 ! A2    A(2,1,11)             119.0802         calculate D2E/DX2 analytically  !
 ! A3    A(3,1,11)             119.0781         calculate D2E/DX2 analytically  !
 ! A4    A(1,2,4)              119.0846         calculate D2E/DX2 analytically  !
 ! A5    A(1,2,5)              120.5956         calculate D2E/DX2 analytically  !
 ! A6    A(4,2,5)              120.3199         calculate D2E/DX2 analytically  !
 ! A7    A(1,3,6)              119.0873         calculate D2E/DX2 analytically  !
 ! A8    A(1,3,7)              120.5951         calculate D2E/DX2 analytically  !
 ! A9    A(6,3,7)              120.3177         calculate D2E/DX2 analytically  !
 ! A10   A(2,4,8)              118.9911         calculate D2E/DX2 analytically  !
 ! A11   A(2,4,9)              121.0581         calculate D2E/DX2 analytically  !
 ! A12   A(8,4,9)              119.9508         calculate D2E/DX2 analytically  !
 ! A13   A(3,6,8)              118.9888         calculate D2E/DX2 analytically  !
 ! A14   A(3,6,10)             121.0618         calculate D2E/DX2 analytically  !
 ! A15   A(8,6,10)             119.9495         calculate D2E/DX2 analytically  !
 ! A16   A(4,8,6)              122.0066         calculate D2E/DX2 analytically  !
 ! A17   A(4,8,12)             118.9953         calculate D2E/DX2 analytically  !
 ! A18   A(6,8,12)             118.9981         calculate D2E/DX2 analytically  !
 ! A19   A(8,12,13)            117.7171         calculate D2E/DX2 analytically  !
 ! A20   A(8,12,14)            117.739          calculate D2E/DX2 analytically  !
 ! A21   A(13,12,14)           124.544          calculate D2E/DX2 analytically  !
 ! D1    D(3,1,2,4)              0.0083         calculate D2E/DX2 analytically  !
 ! D2    D(3,1,2,5)           -179.9933         calculate D2E/DX2 analytically  !
 ! D3    D(11,1,2,4)          -179.9869         calculate D2E/DX2 analytically  !
 ! D4    D(11,1,2,5)             0.0114         calculate D2E/DX2 analytically  !
 ! D5    D(2,1,3,6)              0.0055         calculate D2E/DX2 analytically  !
 ! D6    D(2,1,3,7)            179.9983         calculate D2E/DX2 analytically  !
 ! D7    D(11,1,3,6)          -179.9992         calculate D2E/DX2 analytically  !
 ! D8    D(11,1,3,7)            -0.0064         calculate D2E/DX2 analytically  !
 ! D9    D(1,2,4,8)             -0.0132         calculate D2E/DX2 analytically  !
 ! D10   D(1,2,4,9)            179.9934         calculate D2E/DX2 analytically  !
 ! D11   D(5,2,4,8)            179.9884         calculate D2E/DX2 analytically  !
 ! D12   D(5,2,4,9)             -0.005          calculate D2E/DX2 analytically  !
 ! D13   D(1,3,6,8)             -0.0141         calculate D2E/DX2 analytically  !
 ! D14   D(1,3,6,10)           179.9935         calculate D2E/DX2 analytically  !
 ! D15   D(7,3,6,8)            179.9931         calculate D2E/DX2 analytically  !
 ! D16   D(7,3,6,10)             0.0007         calculate D2E/DX2 analytically  !
 ! D17   D(2,4,8,6)              0.0046         calculate D2E/DX2 analytically  !
 ! D18   D(2,4,8,12)           179.9958         calculate D2E/DX2 analytically  !
 ! D19   D(9,4,8,6)            179.9981         calculate D2E/DX2 analytically  !
 ! D20   D(9,4,8,12)            -0.0107         calculate D2E/DX2 analytically  !
 ! D21   D(3,6,8,4)              0.0092         calculate D2E/DX2 analytically  !
 ! D22   D(3,6,8,12)          -179.9819         calculate D2E/DX2 analytically  !
 ! D23   D(10,6,8,4)          -179.9982         calculate D2E/DX2 analytically  !
 ! D24   D(10,6,8,12)            0.0106         calculate D2E/DX2 analytically  !
 ! D25   D(4,8,12,13)          179.9567         calculate D2E/DX2 analytically  !
 ! D26   D(4,8,12,14)           -0.0455         calculate D2E/DX2 analytically  !
 ! D27   D(6,8,12,13)           -0.0519         calculate D2E/DX2 analytically  !
 ! D28   D(6,8,12,14)          179.9459         calculate D2E/DX2 analytically  !
 --------------------------------------------------------------------------------
 Trust Radius=3.00D-01 FncErr=1.00D-07 GrdErr=1.00D-07 EigMax=2.50D+02 EigMin=1.00D-04
 Number of steps in this run=      2 maximum allowed number of steps=      2.
 GradGradGradGradGradGradGradGradGradGradGradGradGradGradGradGradGradGrad

                          Input orientation:                          
 ---------------------------------------------------------------------
 Center     Atomic      Atomic             Coordinates (Angstroms)
 Number     Number       Type             X           Y           Z
 ---------------------------------------------------------------------
      1          6           0       -0.438775    0.022353   -0.000294
      2          6           0        0.219701    1.241427    0.174438
      3          6           0        0.260015   -1.175167   -0.167241
      4          6           0        1.613829    1.263712    0.182276
      5          1           0       -0.343186    2.159371    0.302424
      6          6           0        1.654143   -1.153249   -0.159157
      7          1           0       -0.271960   -2.110507   -0.301370
      8          6           0        2.310413    0.065975    0.015401
      9          1           0        2.157344    2.191610    0.315307
     10          1           0        2.228336   -2.063389   -0.285779
     11         35           0       -2.380305   -0.008482   -0.011572
     12          7           0        3.783817    0.089435    0.023576
     13          8           0        4.374972   -0.981679   -0.124929
     14          8           0        4.339211    1.178402    0.178344
 ---------------------------------------------------------------------
                    Distance matrix (angstroms):
                    1          2          3          4          5
     1  C    0.000000
     2  C    1.396518   0.000000
     3  C    1.396507   2.440962   0.000000
     4  C    2.405720   1.394328   2.811246   0.000000
     5  H    2.160468   1.084363   3.421050   2.155585   0.000000
     6  C    2.405740   2.811296   1.394324   2.441291   3.895617
     7  H    2.160455   3.421050   1.084366   3.895570   4.312945
     8  C    2.749579   2.403759   2.403731   1.395582   3.392090
     9  H    3.397810   2.162672   3.894598   1.083559   2.500771
    10  H    3.397838   3.894640   2.162701   3.415596   4.978997
    11  Br   1.941808   2.890831   2.890792   4.196327   2.991326
    12  N    4.223192   3.748702   3.748708   2.472440   4.625424
    13  O    4.918920   4.722086   4.119721   3.572124   5.684175
    14  O    4.919097   4.119994   4.722135   2.726720   4.785660
                    6          7          8          9         10
     6  C    0.000000
     7  H    2.155560   0.000000
     8  C    1.395589   3.392060   0.000000
     9  H    3.415613   4.978958   2.152138   0.000000
    10  H    1.083552   2.500789   2.152124   4.297832   0.000000
    11  Br   4.196313   2.991256   4.691386   5.053465   5.053455
    12  N    2.472482   4.625436   1.473613   2.673885   2.673925
    13  O    2.726448   4.785328   2.319413   3.896337   2.409152
    14  O    3.572127   5.684184   2.319497   2.409542   3.896205
                   11         12         13         14
    11  Br   0.000000
    12  N    6.165000   0.000000
    13  O    6.825960   1.232397   0.000000
    14  O    6.826174   1.232179   2.181560   0.000000
 Symmetry turned off by external request.
 Stoichiometry    C6H4BrNO2
 Framework group  C1[X(C6H4BrNO2)]
 Deg. of freedom    36
 Full point group                 C1      NOp   1
 Rotational constants (GHZ):           3.9405095           0.3693024           0.3376573
 Basis read from chk: "ARYLHALIDE-NO2-gen-Br-vol.chk" (5D, 7F)
 Pseudo-potential data read from chk file.
   181 basis functions,   323 primitive gaussians,   190 cartesian basis functions
    35 alpha electrons       35 beta electrons
       nuclear repulsion energy       459.0487769916 Hartrees.
 NAtoms=   14 NActive=   14 NUniq=   14 SFac= 1.00D+00 NAtFMM=   60 NAOKFM=F Big=F
 Integral buffers will be    131072 words long.
 Raffenetti 2 integral format.
 Two-electron integral symmetry is turned off.
 Nuclear repulsion after empirical dispersion term =      459.0374402165 Hartrees.
 One-electron integrals computed using PRISM.
   1 Symmetry operations used in ECPInt.
 ECPInt:  NShTT=    1711 NPrTT=    9091 LenC2=    1689 LenP2D=    6487.
 LDataN:  DoStor=T MaxTD1= 6 Len=  172
 NBasis=   181 RedAO= T EigKep=  3.15D-06  NBF=   181
 NBsUse=   181 1.00D-06 EigRej= -1.00D+00 NBFU=   181
 Initial guess from the checkpoint file:  "ARYLHALIDE-NO2-gen-Br-vol.chk"
 B after Tr=     0.000000    0.000000    0.000000
         Rot=    1.000000    0.000000    0.000000    0.000000 Ang=   0.00 deg.
 Requested convergence on RMS density matrix=1.00D-08 within1000 cycles.
 Requested convergence on MAX density matrix=1.00D-06.
 Requested convergence on             energy=1.00D-06.
 No special actions if energy rises.
 SCF Done:  E(RB3LYP) =  -449.542915166     A.U. after    1 cycles
            NFock=  1  Conv=0.20D-08     -V/T= 2.0271
 DoSCS=F DFT=T ScalE2(SS,OS)=  1.000000  1.000000
 Range of M.O.s used for correlation:     1   181
 NBasis=   181 NAE=    35 NBE=    35 NFC=     0 NFV=     0
 NROrb=    181 NOA=    35 NOB=    35 NVA=   146 NVB=   146

 **** Warning!!: The largest alpha MO coefficient is  0.13150612D+03

   1 Symmetry operations used in ECPInt.
 ECPInt:  NShTT=    1711 NPrTT=    9091 LenC2=    1689 LenP2D=    6487.
 LDataN:  DoStor=T MaxTD1= 7 Len=  274
 Symmetrizing basis deriv contribution to polar:
 IMax=3 JMax=2 DiffMx= 0.00D+00
 G2DrvN: will do    15 centers at a time, making    1 passes.
 Calling FoFCou, ICntrl=  3107 FMM=F I1Cent=   0 AccDes= 0.00D+00.
 End of G2Drv F.D. properties file   721 does not exist.
 End of G2Drv F.D. properties file   722 does not exist.
 End of G2Drv F.D. properties file   788 does not exist.
          IDoAtm=11111111111111
          Differentiating once with respect to electric field.
                with respect to dipole field.
          Differentiating once with respect to nuclear coordinates.
 Keep R1 ints in memory in canonical form, NReq=168129418.
          There are    45 degrees of freedom in the 1st order CPHF.  IDoFFX=6 NUNeed=     3.
     42 vectors produced by pass  0 Test12= 1.14D-14 2.22D-09 XBig12= 2.18D+02 1.07D+01.
 AX will form    42 AO Fock derivatives at one time.
     42 vectors produced by pass  1 Test12= 1.14D-14 2.22D-09 XBig12= 9.47D+01 3.60D+00.
     42 vectors produced by pass  2 Test12= 1.14D-14 2.22D-09 XBig12= 5.24D-01 1.45D-01.
     42 vectors produced by pass  3 Test12= 1.14D-14 2.22D-09 XBig12= 3.88D-03 1.29D-02.
     42 vectors produced by pass  4 Test12= 1.14D-14 2.22D-09 XBig12= 1.46D-05 9.42D-04.
     42 vectors produced by pass  5 Test12= 1.14D-14 2.22D-09 XBig12= 2.56D-08 2.76D-05.
     15 vectors produced by pass  6 Test12= 1.14D-14 2.22D-09 XBig12= 3.03D-11 1.04D-06.
      3 vectors produced by pass  7 Test12= 1.14D-14 2.22D-09 XBig12= 2.29D-14 2.90D-08.
 InvSVY:  IOpt=1 It=  1 EMax= 8.88D-15
 Solved reduced A of dimension   270 with    45 vectors.
 Isotropic polarizability for W=    0.000000      105.94 Bohr**3.
 End of Minotr F.D. properties file   721 does not exist.
 End of Minotr F.D. properties file   722 does not exist.
 End of Minotr F.D. properties file   788 does not exist.

 **********************************************************************

            Population analysis using the SCF Density.

 **********************************************************************

 Alpha  occ. eigenvalues --  -19.20329 -19.20320 -14.59147 -10.28877 -10.27465
 Alpha  occ. eigenvalues --  -10.24214 -10.24213 -10.24009 -10.24009  -1.24605
 Alpha  occ. eigenvalues --   -1.07378  -0.92340  -0.86508  -0.80742  -0.80226
 Alpha  occ. eigenvalues --   -0.71192  -0.66351  -0.61856  -0.58225  -0.55199
 Alpha  occ. eigenvalues --   -0.53611  -0.51059  -0.50233  -0.49272  -0.47579
 Alpha  occ. eigenvalues --   -0.42498  -0.40367  -0.40286  -0.34795  -0.33269
 Alpha  occ. eigenvalues --   -0.33121  -0.32003  -0.31249  -0.30370  -0.28431
 Alpha virt. eigenvalues --   -0.11543  -0.05704  -0.04218  -0.03014  -0.00484
 Alpha virt. eigenvalues --    0.01175   0.01910   0.03444   0.03737   0.04503
 Alpha virt. eigenvalues --    0.05319   0.06472   0.07363   0.07481   0.08026
 Alpha virt. eigenvalues --    0.08750   0.10227   0.11602   0.11982   0.12640
 Alpha virt. eigenvalues --    0.12677   0.13150   0.13622   0.13768   0.15089
 Alpha virt. eigenvalues --    0.15607   0.17943   0.18188   0.18224   0.19001
 Alpha virt. eigenvalues --    0.19869   0.20127   0.20209   0.21297   0.22297
 Alpha virt. eigenvalues --    0.22585   0.23878   0.24118   0.24550   0.24789
 Alpha virt. eigenvalues --    0.26060   0.27926   0.29253   0.29500   0.29775
 Alpha virt. eigenvalues --    0.30939   0.31478   0.32321   0.33031   0.35580
 Alpha virt. eigenvalues --    0.38989   0.39847   0.41447   0.42766   0.46142
 Alpha virt. eigenvalues --    0.48230   0.50653   0.53192   0.58469   0.60559
 Alpha virt. eigenvalues --    0.62193   0.62766   0.62982   0.67728   0.68889
 Alpha virt. eigenvalues --    0.70048   0.70099   0.70491   0.71747   0.75192
 Alpha virt. eigenvalues --    0.77671   0.79867   0.84937   0.85978   0.88986
 Alpha virt. eigenvalues --    0.91670   0.95281   0.96622   0.98463   1.05361
 Alpha virt. eigenvalues --    1.05608   1.07655   1.10578   1.13066   1.16497
 Alpha virt. eigenvalues --    1.16863   1.18661   1.19222   1.20486   1.21853
 Alpha virt. eigenvalues --    1.24386   1.27399   1.28447   1.29573   1.32592
 Alpha virt. eigenvalues --    1.36001   1.38100   1.38308   1.41107   1.43010
 Alpha virt. eigenvalues --    1.44282   1.44935   1.45132   1.45869   1.66325
 Alpha virt. eigenvalues --    1.67212   1.69488   1.74125   1.78728   1.80000
 Alpha virt. eigenvalues --    1.83808   1.86946   1.89615   1.92377   1.94269
 Alpha virt. eigenvalues --    1.94585   1.96721   2.03339   2.06240   2.10826
 Alpha virt. eigenvalues --    2.10882   2.13065   2.13953   2.14392   2.20163
 Alpha virt. eigenvalues --    2.23965   2.24070   2.26183   2.38586   2.47478
 Alpha virt. eigenvalues --    2.49661   2.55833   2.60340   2.61418   2.61882
 Alpha virt. eigenvalues --    2.68686   2.69865   2.71502   2.82864   2.87116
 Alpha virt. eigenvalues --    2.99954   3.02907   3.08449   3.16926   3.35845
 Alpha virt. eigenvalues --    7.98575
          Condensed to atoms (all electrons):
               1          2          3          4          5          6
     1  C    5.993366   0.451953   0.452007  -0.380145  -0.000510  -0.379942
     2  C    0.451953   7.560374   0.232590  -0.869040   0.297710  -0.685783
     3  C    0.452007   0.232590   7.561360  -0.686023   0.037596  -0.869717
     4  C   -0.380145  -0.869040  -0.686023   9.806762   0.005945  -2.490492
     5  H   -0.000510   0.297710   0.037596   0.005945   0.487020  -0.031547
     6  C   -0.379942  -0.685783  -0.869717  -2.490492  -0.031547   9.807769
     7  H   -0.000543   0.037572   0.297684  -0.031524  -0.000134   0.005954
     8  C   -0.478172  -0.599930  -0.599843   0.144203  -0.001560   0.143377
     9  H    0.007675  -0.090066  -0.015420   0.120427  -0.004466   0.103185
    10  H    0.007657  -0.015406  -0.090070   0.103178   0.000011   0.120415
    11  Br  -0.091661  -0.023103  -0.023034   0.119874  -0.003532   0.119895
    12  N    0.009086  -0.032665  -0.032766   0.218846   0.000025   0.218653
    13  O   -0.000224  -0.007826   0.157347   0.096355   0.000059  -0.096463
    14  O   -0.000198   0.157247  -0.007859  -0.096459  -0.000052   0.096534
               7          8          9         10         11         12
     1  C   -0.000543  -0.478172   0.007675   0.007657  -0.091661   0.009086
     2  C    0.037572  -0.599930  -0.090066  -0.015406  -0.023103  -0.032665
     3  C    0.297684  -0.599843  -0.015420  -0.090070  -0.023034  -0.032766
     4  C   -0.031524   0.144203   0.120427   0.103178   0.119874   0.218846
     5  H   -0.000134  -0.001560  -0.004466   0.000011  -0.003532   0.000025
     6  C    0.005954   0.143377   0.103185   0.120415   0.119895   0.218653
     7  H    0.487023  -0.001509   0.000011  -0.004466  -0.003533   0.000024
     8  C   -0.001509   8.219658   0.199027   0.199062   0.005444  -0.605070
     9  H    0.000011   0.199027   0.472467  -0.000130  -0.000439  -0.048759
    10  H   -0.004466   0.199062  -0.000130   0.472436  -0.000439  -0.048759
    11  Br  -0.003533   0.005444  -0.000439  -0.000439   6.776988   0.000652
    12  N    0.000024  -0.605070  -0.048759  -0.048759   0.000652   6.851331
    13  O   -0.000052  -0.224156  -0.002554   0.022895  -0.000061   0.265482
    14  O    0.000059  -0.224230   0.022902  -0.002555  -0.000061   0.265448
              13         14
     1  C   -0.000224  -0.000198
     2  C   -0.007826   0.157247
     3  C    0.157347  -0.007859
     4  C    0.096355  -0.096459
     5  H    0.000059  -0.000052
     6  C   -0.096463   0.096534
     7  H   -0.000052   0.000059
     8  C   -0.224156  -0.224230
     9  H   -0.002554   0.022902
    10  H    0.022895  -0.002555
    11  Br  -0.000061  -0.000061
    12  N    0.265482   0.265448
    13  O    7.993957  -0.083272
    14  O   -0.083272   7.993803
 Mulliken charges:
               1
     1  C    0.409649
     2  C   -0.413628
     3  C   -0.413851
     4  C   -0.061908
     5  H    0.213435
     6  C   -0.061836
     7  H    0.213434
     8  C   -0.176301
     9  H    0.236140
    10  H    0.236170
    11  Br   0.123013
    12  N   -0.061527
    13  O   -0.121485
    14  O   -0.121306
 Sum of Mulliken charges =   0.00000
 Mulliken charges with hydrogens summed into heavy atoms:
               1
     1  C    0.409649
     2  C   -0.200193
     3  C   -0.200417
     4  C    0.174233
     6  C    0.174334
     8  C   -0.176301
    11  Br   0.123013
    12  N   -0.061527
    13  O   -0.121485
    14  O   -0.121306
 APT charges:
               1
     1  C    0.512505
     2  C   -0.209688
     3  C   -0.209678
     4  C    0.051001
     5  H    0.067458
     6  C    0.050995
     7  H    0.067454
     8  C   -0.183606
     9  H    0.098208
    10  H    0.098248
    11  Br  -0.278484
    12  N    1.298503
    13  O   -0.681447
    14  O   -0.681468
 Sum of APT charges =   0.00000
 APT charges with hydrogens summed into heavy atoms:
               1
     1  C    0.512505
     2  C   -0.142229
     3  C   -0.142224
     4  C    0.149209
     6  C    0.149242
     8  C   -0.183606
    11  Br  -0.278484
    12  N    1.298503
    13  O   -0.681447
    14  O   -0.681468
 Electronic spatial extent (au):  <R**2>=           2281.6089
 Charge=              0.0000 electrons
 Dipole moment (field-independent basis, Debye):
    X=             -3.3124    Y=             -0.0515    Z=             -0.0180  Tot=              3.3129
 Quadrupole moment (field-independent basis, Debye-Ang):
   XX=            -91.8299   YY=            -61.2508   ZZ=            -67.4810
   XY=             -0.5830   XZ=             -0.1568   YZ=              0.9015
 Traceless Quadrupole moment (field-independent basis, Debye-Ang):
   XX=            -18.3094   YY=             12.2698   ZZ=              6.0396
   XY=             -0.5830   XZ=             -0.1568   YZ=              0.9015
 Octapole moment (field-independent basis, Debye-Ang**2):
  XXX=           -338.6985  YYY=             -8.7340  ZZZ=             -1.4816  XYY=            -70.4633
  XXY=             -5.7967  XXZ=             -1.3672  XZZ=            -61.7187  YZZ=             -2.9652
  YYZ=             -0.5139  XYZ=             -1.2526
 Hexadecapole moment (field-independent basis, Debye-Ang**3):
 XXXX=          -3365.9668 YYYY=           -366.0518 ZZZZ=            -85.8896 XXXY=            -36.2305
 XXXZ=            -11.2870 YYYX=            -27.0677 YYYZ=            -15.2099 ZZZX=             -7.2861
 ZZZY=            -25.2734 XXYY=           -562.4597 XXZZ=           -456.0176 YYZZ=            -85.9955
 XXYZ=            -15.3291 YYXZ=             -3.1715 ZZXY=             -7.7133
 N-N= 4.590374402165D+02 E-N=-1.960885248808D+03  KE= 4.376704991652D+02
  Exact polarizability: 163.462   0.960 100.502   0.518   6.718  53.870
 Approx polarizability: 234.993   0.642 188.678   0.646  16.060  77.073
   1 Symmetry operations used in ECPInt.
 ECPInt:  NShTT=    1711 NPrTT=    9091 LenC2=    1689 LenP2D=    6487.
 LDataN:  DoStor=T MaxTD1= 8 Len=  415
 Calling FoFJK, ICntrl=    100127 FMM=F ISym2X=0 I1Cent= 0 IOpClX= 0 NMat=1 NMatS=1 NMatT=0.
 Full mass-weighted force constant matrix:
 Low frequencies ---   -0.9530   -0.0005    0.0005    0.0009    1.7986    6.8968
 Low frequencies ---   58.1028   80.2739  173.3628
 Diagonal vibrational polarizability:
       15.0493810       6.1154162      18.2814993
 Harmonic frequencies (cm**-1), IR intensities (KM/Mole), Raman scattering
 activities (A**4/AMU), depolarization ratios for plane and unpolarized
 incident light, reduced masses (AMU), force constants (mDyne/A),
 and normal coordinates:
                      1                      2                      3
                      A                      A                      A
 Frequencies --     58.0987                80.2737               173.3628
 Red. masses --      7.9780                10.1475                11.1496
 Frc consts  --      0.0159                 0.0385                 0.1974
 IR Inten    --      0.0000                 3.1546                 2.6528
  Atom  AN      X      Y      Z        X      Y      Z        X      Y      Z
     1   6     0.00   0.00   0.00     0.00   0.04  -0.25     0.00  -0.29  -0.04
     2   6     0.00   0.03  -0.21     0.00   0.04  -0.32    -0.02  -0.29  -0.04
     3   6     0.00  -0.03   0.21     0.00   0.04  -0.32     0.03  -0.29  -0.04
     4   6     0.00   0.03  -0.18     0.00   0.04  -0.29    -0.04  -0.25  -0.04
     5   1     0.00   0.05  -0.38     0.00   0.04  -0.32    -0.04  -0.30  -0.04
     6   6     0.00  -0.03   0.18     0.00   0.04  -0.29     0.05  -0.25  -0.03
     7   1     0.00  -0.05   0.37     0.00   0.04  -0.32     0.05  -0.30  -0.04
     8   6     0.00   0.00   0.00     0.00   0.03  -0.20     0.00  -0.21  -0.03
     9   1     0.00   0.05  -0.32     0.00   0.04  -0.26    -0.08  -0.23  -0.03
    10   1     0.00  -0.04   0.32     0.00   0.04  -0.26     0.09  -0.23  -0.03
    11  35     0.00   0.00   0.00     0.00  -0.02   0.14     0.00   0.15   0.02
    12   7     0.00   0.00   0.00     0.00  -0.02   0.12     0.00   0.07   0.01
    13   8     0.00   0.06  -0.41     0.00  -0.04   0.27     0.26   0.22   0.03
    14   8     0.00  -0.06   0.42     0.00  -0.04   0.27    -0.27   0.21   0.03
                      4                      5                      6
                      A                      A                      A
 Frequencies --    243.1561               260.3921               315.1321
 Red. masses --     22.8073                 7.2182                 5.9763
 Frc consts  --      0.7945                 0.2884                 0.3497
 IR Inten    --      1.2486                 2.4335                 0.2589
  Atom  AN      X      Y      Z        X      Y      Z        X      Y      Z
     1   6     0.04   0.00   0.00     0.00   0.05  -0.37     0.00  -0.26  -0.04
     2   6    -0.11   0.05   0.01     0.00   0.03  -0.23    -0.14  -0.19  -0.03
     3   6    -0.11  -0.06  -0.01     0.00   0.03  -0.23     0.15  -0.18  -0.03
     4   6    -0.17   0.05   0.01     0.00  -0.03   0.21    -0.15   0.09   0.01
     5   1    -0.20   0.00   0.00     0.00   0.05  -0.37    -0.31  -0.29  -0.04
     6   6    -0.17  -0.06  -0.01     0.00  -0.03   0.21     0.15   0.09   0.01
     7   1    -0.20  -0.01   0.00     0.00   0.05  -0.37     0.32  -0.28  -0.04
     8   6    -0.29   0.00   0.00     0.00  -0.06   0.39     0.00   0.18   0.03
     9   1    -0.09   0.00   0.00     0.00  -0.04   0.30    -0.30   0.18   0.02
    10   1    -0.09  -0.01   0.00     0.00  -0.04   0.30     0.30   0.19   0.03
    11  35     0.39   0.01   0.00     0.00  -0.01   0.04     0.00   0.05   0.01
    12   7    -0.41  -0.01   0.00     0.00  -0.01   0.10     0.00   0.07   0.01
    13   8    -0.44  -0.02   0.00     0.00   0.02  -0.13    -0.23  -0.05  -0.01
    14   8    -0.44   0.01   0.00     0.00   0.02  -0.13     0.23  -0.05  -0.01
                      7                      8                      9
                      A                      A                      A
 Frequencies --    419.7745               470.0924               474.9357
 Red. masses --      2.9698                 3.4078                 9.0357
 Frc consts  --      0.3083                 0.4437                 1.2008
 IR Inten    --      0.0000                 9.9406                16.4306
  Atom  AN      X      Y      Z        X      Y      Z        X      Y      Z
     1   6     0.00   0.00   0.00     0.00  -0.04   0.30    -0.27   0.00   0.00
     2   6     0.00  -0.03   0.21     0.00   0.01  -0.07    -0.29  -0.03  -0.01
     3   6     0.00   0.03  -0.21     0.00   0.01  -0.07    -0.29   0.02   0.00
     4   6     0.00   0.03  -0.21     0.00   0.02  -0.12    -0.27  -0.05  -0.01
     5   1     0.00  -0.06   0.43     0.00   0.06  -0.40    -0.28  -0.02  -0.01
     6   6     0.00  -0.03   0.21     0.00   0.02  -0.12    -0.27   0.04   0.00
     7   1     0.00   0.06  -0.43     0.00   0.06  -0.40    -0.28   0.02   0.00
     8   6     0.00   0.00   0.00     0.00  -0.04   0.26    -0.10   0.00   0.00
     9   1     0.00   0.07  -0.47     0.00   0.07  -0.47    -0.34   0.00   0.00
    10   1     0.00  -0.07   0.47     0.00   0.07  -0.47    -0.34  -0.01   0.00
    11  35     0.00   0.00   0.00     0.00   0.00  -0.01     0.10   0.00   0.00
    12   7     0.00   0.00   0.00     0.00  -0.01   0.10     0.17   0.00   0.00
    13   8     0.00   0.00  -0.01     0.00   0.01  -0.04     0.28   0.06   0.01
    14   8     0.00   0.00   0.01     0.00   0.01  -0.04     0.29  -0.05  -0.01
                     10                     11                     12
                      A                      A                      A
 Frequencies --    531.2137               633.1147               671.7906
 Red. masses --      7.6251                 7.1288                 4.6013
 Frc consts  --      1.2678                 1.6836                 1.2235
 IR Inten    --      1.6107                 0.7994                 4.2423
  Atom  AN      X      Y      Z        X      Y      Z        X      Y      Z
     1   6     0.00  -0.08  -0.01     0.00  -0.13  -0.02     0.00  -0.04   0.28
     2   6    -0.11   0.00   0.00     0.30  -0.21  -0.03     0.00   0.03  -0.19
     3   6     0.11   0.01   0.00    -0.29  -0.22  -0.03     0.00   0.03  -0.19
     4   6    -0.10   0.23   0.03     0.29   0.21   0.03     0.00  -0.03   0.20
     5   1    -0.26  -0.08  -0.01     0.19  -0.28  -0.04     0.00   0.07  -0.50
     6   6     0.09   0.24   0.03    -0.29   0.20   0.03     0.00  -0.03   0.20
     7   1     0.26  -0.08  -0.01    -0.18  -0.28  -0.04     0.00   0.07  -0.50
     8   6     0.00   0.18   0.02     0.00   0.12   0.02     0.00   0.03  -0.18
     9   1    -0.26   0.32   0.05     0.17   0.28   0.04     0.00  -0.04   0.29
    10   1     0.25   0.33   0.05    -0.18   0.27   0.04     0.00  -0.04   0.29
    11  35     0.00   0.01   0.00     0.00  -0.01   0.00     0.00   0.00   0.00
    12   7     0.00  -0.26  -0.04     0.00   0.01   0.00     0.00   0.03  -0.19
    13   8     0.32  -0.14  -0.02     0.00   0.03   0.00     0.00  -0.01   0.06
    14   8    -0.31  -0.15  -0.02     0.00   0.03   0.00     0.00  -0.01   0.06
                     13                     14                     15
                      A                      A                      A
 Frequencies --    717.5154               743.3509               837.4672
 Red. masses --      8.0431                 4.5331                 1.2444
 Frc consts  --      2.4397                 1.4758                 0.5142
 IR Inten    --      2.3132                31.0299                 0.0000
  Atom  AN      X      Y      Z        X      Y      Z        X      Y      Z
     1   6     0.33   0.01   0.00     0.00  -0.02   0.13     0.00   0.00   0.00
     2   6    -0.02   0.28   0.04     0.00   0.01  -0.08     0.00   0.01  -0.08
     3   6    -0.01  -0.28  -0.04     0.00   0.01  -0.08     0.00  -0.01   0.08
     4   6    -0.02   0.26   0.04     0.00   0.00  -0.01     0.00   0.01  -0.07
     5   1    -0.31   0.11   0.01     0.00  -0.04   0.26     0.00  -0.07   0.52
     6   6    -0.01  -0.26  -0.04     0.00   0.00  -0.01     0.00  -0.01   0.07
     7   1    -0.30  -0.12  -0.02     0.00  -0.04   0.26     0.00   0.07  -0.52
     8   6    -0.31   0.00   0.00     0.00   0.03  -0.22     0.00   0.00   0.00
     9   1     0.29   0.10   0.01     0.00  -0.08   0.53     0.00  -0.06   0.45
    10   1     0.29  -0.09  -0.01     0.00  -0.08   0.53     0.00   0.06  -0.45
    11  35    -0.03   0.00   0.00     0.00   0.00   0.00     0.00   0.00   0.00
    12   7    -0.11   0.00   0.00     0.00  -0.06   0.41     0.00   0.00   0.00
    13   8     0.13   0.16   0.02     0.00   0.02  -0.12     0.00   0.00   0.00
    14   8     0.14  -0.15  -0.02     0.00   0.02  -0.12     0.00   0.00   0.00
                     16                     17                     18
                      A                      A                      A
 Frequencies --    857.0422               857.7088               983.3241
 Red. masses --      1.6450                10.5801                 1.2986
 Frc consts  --      0.7119                 4.5859                 0.7398
 IR Inten    --     37.7673                75.0102                 1.1020
  Atom  AN      X      Y      Z        X      Y      Z        X      Y      Z
     1   6     0.00  -0.01   0.07    -0.16   0.00   0.00     0.00   0.00   0.00
     2   6     0.00   0.01  -0.09     0.13  -0.21  -0.03     0.00  -0.01   0.06
     3   6     0.00   0.01  -0.09     0.12   0.22   0.03     0.00  -0.01   0.06
     4   6     0.00   0.01  -0.06     0.06  -0.13  -0.02     0.00   0.01  -0.09
     5   1     0.00  -0.08   0.58     0.34  -0.09  -0.02     0.00   0.06  -0.41
     6   6     0.00   0.01  -0.06     0.06   0.13   0.02     0.00   0.01  -0.09
     7   1     0.00  -0.08   0.59     0.33   0.11   0.00     0.00   0.06  -0.41
     8   6     0.00  -0.02   0.13    -0.05   0.00   0.00     0.00  -0.01   0.04
[...]
 ! A19   A(8,12,13)            117.7273         -DE/DX =    0.0001              !
 ! A20   A(8,12,14)            117.7273         -DE/DX =    0.0                 !
 ! A21   A(13,12,14)           124.5454         -DE/DX =    0.0                 !
 ! D1    D(3,1,2,4)              0.0005         -DE/DX =    0.0                 !
 ! D2    D(3,1,2,5)           -179.9995         -DE/DX =    0.0                 !
 ! D3    D(11,1,2,4)          -179.9991         -DE/DX =    0.0                 !
 ! D4    D(11,1,2,5)             0.0009         -DE/DX =    0.0                 !
 ! D5    D(2,1,3,6)             -0.003          -DE/DX =    0.0                 !
 ! D6    D(2,1,3,7)            179.9974         -DE/DX =    0.0                 !
 ! D7    D(11,1,3,6)           179.9966         -DE/DX =    0.0                 !
 ! D8    D(11,1,3,7)            -0.003          -DE/DX =    0.0                 !
 ! D9    D(1,2,4,8)              0.0021         -DE/DX =    0.0                 !
 ! D10   D(1,2,4,9)           -179.9978         -DE/DX =    0.0                 !
 ! D11   D(5,2,4,8)           -179.9979         -DE/DX =    0.0                 !
 ! D12   D(5,2,4,9)              0.0022         -DE/DX =    0.0                 !
 ! D13   D(1,3,6,8)              0.0028         -DE/DX =    0.0                 !
 ! D14   D(1,3,6,10)          -179.9962         -DE/DX =    0.0                 !
 ! D15   D(7,3,6,8)           -179.9976         -DE/DX =    0.0                 !
 ! D16   D(7,3,6,10)             0.0034         -DE/DX =    0.0                 !
 ! D17   D(2,4,8,6)             -0.0023         -DE/DX =    0.0                 !
 ! D18   D(2,4,8,12)           179.9963         -DE/DX =    0.0                 !
 ! D19   D(9,4,8,6)            179.9976         -DE/DX =    0.0                 !
 ! D20   D(9,4,8,12)            -0.0038         -DE/DX =    0.0                 !
 ! D21   D(3,6,8,4)             -0.0002         -DE/DX =    0.0                 !
 ! D22   D(3,6,8,12)          -179.9988         -DE/DX =    0.0                 !
 ! D23   D(10,6,8,4)           179.9988         -DE/DX =    0.0                 !
 ! D24   D(10,6,8,12)            0.0002         -DE/DX =    0.0                 !
 ! D25   D(4,8,12,13)          179.9971         -DE/DX =    0.0                 !
 ! D26   D(4,8,12,14)           -0.0034         -DE/DX =    0.0                 !
 ! D27   D(6,8,12,13)           -0.0043         -DE/DX =    0.0                 !
 ! D28   D(6,8,12,14)          179.9952         -DE/DX =    0.0                 !
 --------------------------------------------------------------------------------
 GradGradGradGradGradGradGradGradGradGradGradGradGradGradGradGradGradGrad


 ----------------------------------------------------------------------

 Electric dipole moment (input orientation):
 (Debye = 10**-18 statcoulomb cm , SI units = C m)
                  (au)            (Debye)         (10**-30 SI)
   Tot        0.130339D+01      0.331288D+01      0.110506D+02
   x         -0.130321D+01     -0.331243D+01     -0.110491D+02
   y         -0.202592D-01     -0.514938D-01     -0.171765D+00
   z         -0.709934D-02     -0.180447D-01     -0.601907D-01

 Dipole polarizability, Alpha (input orientation).
 (esu units = cm**3 , SI units = C**2 m**2 J**-1)
 Alpha(0;0):
               (au)            (10**-24 esu)      (10**-40 SI)
   iso        0.105945D+03      0.156994D+02      0.174679D+02
   aniso      0.959863D+02      0.142237D+02      0.158260D+02
   xx         0.163462D+03      0.242225D+02      0.269512D+02
   yx         0.960193D+00      0.142286D+00      0.158314D+00
   yy         0.100502D+03      0.148929D+02      0.165705D+02
   zx         0.517755D+00      0.767234D-01      0.853663D-01
   zy         0.671762D+01      0.995449D+00      0.110759D+01
   zz         0.538699D+02      0.798269D+01      0.888194D+01

 ----------------------------------------------------------------------

 Dipole orientation:
     6          0.00309931          0.05517908          0.82839856
     6          0.29077573          2.34402318         -0.45337824
     6         -0.28385137         -2.23279485         -0.45505098
     6          0.29121753          2.34518742         -3.08827624
     1          0.51103013          4.09864580          0.58189969
     6         -0.28293393         -2.23231675         -3.08994074
     1         -0.50443226         -3.98813257          0.57895397
     6          0.00443099          0.05687077         -4.36755198
     1          0.50983005          4.08609218         -4.14385578
     1         -0.50095273         -3.97248933         -4.14682427
    35          0.00179335          0.05392522          4.49788266
     7          0.00469524          0.05792380         -7.15227757
     8         -0.25008411         -1.98751531         -8.23625678
     8          0.25950602          2.10341862         -8.23525693

 Electric dipole moment (dipole orientation):
 (Debye = 10**-18 statcoulomb cm , SI units = C m)
                  (au)            (Debye)         (10**-30 SI)
   Tot        0.130339D+01      0.331288D+01      0.110506D+02
   x          0.000000D+00      0.000000D+00      0.000000D+00
   y          0.000000D+00      0.000000D+00      0.000000D+00
   z          0.130339D+01      0.331288D+01      0.110506D+02

 Dipole polarizability, Alpha (dipole orientation).
 (esu units = cm**3 , SI units = C**2 m**2 J**-1)
 Alpha(0;0):
               (au)            (10**-24 esu)      (10**-40 SI)
   iso        0.105945D+03      0.156994D+02      0.174679D+02
   aniso      0.959863D+02      0.142237D+02      0.158260D+02
   xx         0.536691D+02      0.795294D+01      0.884883D+01
   yx         0.598095D+01      0.886285D+00      0.986125D+00
   yy         0.100685D+03      0.149199D+02      0.166007D+02
   zx        -0.247947D-01     -0.367420D-02     -0.408809D-02
   zy        -0.181496D-01     -0.268950D-02     -0.299247D-02
   zz         0.163480D+03      0.242252D+02      0.269542D+02

 ----------------------------------------------------------------------
 1\1\GINC-IP-172-31-8-94\Freq\RB3LYP\Gen\C6H4Br1N1O2\UBUNTU\16-Sep-2023
 \0\\#N Geom=AllCheck Guess=TCheck SCRF=Check GenChk RB3LYP/ChkBas Freq
 \\reac1\\0,1\C,-0.438775,0.022353,-0.000294\C,0.219701,1.241427,0.1744
 38\C,0.260015,-1.175167,-0.167241\C,1.613829,1.263712,0.182276\H,-0.34
 3186,2.159371,0.302424\C,1.654143,-1.153249,-0.159157\H,-0.27196,-2.11
 0507,-0.30137\C,2.310413,0.065975,0.015401\H,2.157344,2.19161,0.315307
 \H,2.228336,-2.063389,-0.285779\Br,-2.380305,-0.008482,-0.011572\N,3.7
 83817,0.089435,0.023576\O,4.374972,-0.981679,-0.124929\O,4.339211,1.17
 8402,0.178344\\Version=EM64L-G16RevB.01\HF=-449.5429152\RMSD=2.036e-09
 \RMSF=6.714e-05\ZeroPoint=0.0928864\Thermal=0.1011738\Dipole=-1.303212
 2,-0.0202592,-0.0070993\DipoleDeriv=1.4474761,0.0204797,0.0082456,0.02
 04737,0.1462433,0.0293112,0.0082912,0.0292713,-0.0562047,-0.5249456,-0
 .2229293,-0.0330677,-0.1514102,-0.0170037,0.0095744,-0.0229699,0.00938
 18,-0.0871139,-0.5368744,0.2063404,0.0275872,0.134812,-0.0056334,0.012
 1897,0.0174562,0.0124027,-0.0865267,0.2368002,0.1250354,0.018634,-0.26
 92963,-0.0358966,0.0007909,-0.0369589,0.0021078,-0.0479011,0.0422372,0
 .0453418,0.0060827,0.0420118,0.0237745,-0.0161052,0.0056007,-0.0160972
 ,0.1363637,0.2316823,-0.116574,-0.0154633,0.2777767,-0.0310692,0.00333
 84,0.0401675,0.0019358,-0.0476291,0.0451176,-0.0444787,-0.0066091,-0.0
 411441,0.0210121,-0.0167892,-0.0061517,-0.0167576,0.1362334,-0.6527073
 ,-0.0113036,-0.0039844,-0.0112938,0.0559324,0.0014888,-0.0040082,0.001
 5119,0.0459568,0.0852413,-0.0321625,-0.004755,-0.0111983,0.0676721,-0.
 01072,-0.0018247,-0.0108117,0.1417097,0.0838503,0.0327687,0.0044235,0.
 0117828,0.0691157,-0.0104359,0.0015114,-0.010372,0.1417766,-0.7643011,
 -0.0113984,-0.0042089,-0.0113943,-0.0450443,-0.0027959,-0.0042463,-0.0
 027948,-0.0261074,2.1242207,0.0090599,0.007667,0.0089496,1.5113171,0.1
 790763,0.0075452,0.1792946,0.2599699,-0.9199139,0.3450132,0.0461249,0.
 3180707,-0.8695971,-0.0868674,0.042492,-0.0868971,-0.2548287,-0.897883
 4,-0.3451927,-0.0506764,-0.3181403,-0.890823,-0.0920561,-0.0469046,-0.
 0921755,-0.2556984\Polar=163.4616441,0.9601925,100.5020048,0.5177552,6
 .7176215,53.8698644\Quadrupole=-13.6125612,9.1222933,4.4902679,-0.4334
 471,-0.1165875,0.6702756\PG=C01 [X(C6H4Br1N1O2)]\NImag=0\\0.45569422,-
 0.00327380,0.63458289,0.00075505,0.07421994,0.12023692,-0.14684117,-0.
 05031141,-0.00744275,0.68654755,-0.10972424,-0.28531330,-0.03267663,-0
 .05015178,0.71178036,-0.01583930,-0.03247460,-0.06164955,-0.00518892,0
 .08279102,0.13710178,-0.15233699,0.05491649,0.00744641,0.06087209,0.02
 237590,0.00335700,0.68328116,0.11433135,-0.28010924,-0.03115912,-0.018
 74408,-0.05072547,-0.00793630,0.04826223,0.71493487,0.01583646,-0.0313
 5989,-0.06138489,-0.00246035,-0.00779235,0.00380274,0.00879935,0.08354
 470,0.13725492,-0.02856673,-0.08060877,-0.01151476,-0.34574192,0.03329
 611,0.00373896,-0.04711919,0.02582097,0.00349124,0.69955116,-0.0259030
 6,0.03190504,0.00378831,-0.03560909,-0.12655594,-0.00970460,0.02879652
 ,-0.01636626,-0.00206199,0.04148211,0.71817640,-0.00377986,0.00359273,
 0.00500690,-0.00598766,-0.00946587,-0.06019601,0.00391195,-0.00207450,
 -0.00135658,0.00777038,0.08273494,0.14565901,0.01001933,-0.01513342,-0
 .00211286,-0.13444903,0.12924325,0.01795663,-0.00147507,-0.00307596,-0
 .00045879,-0.01219269,0.02701994,0.00376781,0.14221290,0.01557044,-0.0
 1880727,-0.00288642,0.12677750,-0.26657125,-0.03219651,-0.00378217,-0.
 00264024,-0.00117032,-0.00239465,0.00582732,0.00031140,-0.13461842,0.2
 8023696,0.00222914,-0.00299250,0.00155625,0.01760712,-0.03219027,-0.04
 044972,-0.00055971,-0.00116669,0.00536929,-0.00039191,0.00041044,0.003
 63010,-0.01865105,0.03566871,0.02985188,-0.03204154,0.07853160,0.01097
 508,-0.04527254,-0.02671156,-0.00392500,-0.34560022,-0.04011220,-0.006
 69953,0.05805639,-0.01940776,-0.00256393,-0.00081187,-0.00087143,-0.00
 012389,0.70236159,0.02382718,0.03521840,0.00442945,-0.02968943,-0.0181
 1774,-0.00250746,0.02878839,-0.12669934,-0.00950803,0.02306938,-0.0541
 0315,-0.00835884,-0.00070497,0.00017409,0.00013783,-0.04298018,0.71549
 570,0.00324459,0.00461503,0.00517019,-0.00434822,-0.00250266,-0.001444
 69,0.00303550,-0.00973797,-0.06020521,0.00344753,-0.00850918,0.0043952
 8,-0.00009978,0.00013637,-0.00079293,-0.00407007,0.08203594,0.14551644
 ,0.01000363,0.01607977,0.00230152,-0.00170576,0.00311841,0.00041559,-0
 .12607339,-0.12441148,-0.01790804,-0.00086364,0.00067077,0.00009459,0.
 00072649,0.00078853,0.00011316,-0.01135365,-0.02756974,-0.00395057,0.1
 3340715,-0.01462378,-0.01879251,-0.00298719,0.00382427,-0.00242162,-0.
 00111257,-0.12194621,-0.27454692,-0.03416369,0.00083678,0.00022352,0.0
 0014910,-0.00073999,-0.00075541,-0.00015099,0.00184584,0.00502842,0.00
 021270,0.12954979,0.28862507,-0.00204044,-0.00288388,0.00155610,0.0005
 1731,-0.00111346,0.00538029,-0.01756006,-0.03416851,-0.04085259,0.0001
 1736,0.00015016,-0.00079027,-0.00010307,-0.00014564,0.00027247,0.00020
 827,0.00010692,0.00359010,0.01869933,0.03774609,0.03027508,0.00238977,
 0.00115013,0.00018731,-0.03488807,0.02102854,0.00284045,-0.03179469,-0
 .02316137,-0.00339523,-0.15313948,0.10726141,0.01484400,-0.00445957,-0
 .00097508,-0.00017690,-0.14797514,-0.10245990,-0.01480078,-0.00455178,
 0.00079550,0.00007097,0.54366303,0.00115171,-0.06691445,-0.00886950,0.
 06973491,0.03367473,0.00450643,-0.07186293,0.03072895,0.00360273,0.051
 51745,-0.28727714,-0.03214157,-0.00196298,0.00139716,-0.00082043,-0.04
 672304,-0.29215836,-0.03316399,0.00178288,0.00148458,-0.00079545,-0.00
 368975,0.74416835,0.00018365,-0.00886125,-0.00544050,0.00972963,0.0043
 3307,0.00416015,-0.01028707,0.00376512,0.00401585,0.00696931,-0.031949
 39,-0.06306943,-0.00031545,-0.00081777,0.00703616,-0.00691584,-0.03334
 981,-0.06330737,0.00020997,-0.00079895,0.00704068,0.00087663,0.0866212
 2,0.14294993,-0.00397562,0.00067652,0.00005767,-0.01037327,-0.02637781
 ,-0.00378062,-0.00085968,0.00068923,0.00009803,-0.12812697,-0.12526909
 ,-0.01801618,0.00084963,0.00019466,0.00004487,-0.00201413,0.00335983,0
 .00045101,0.00005412,-0.00006481,-0.00000692,0.01347266,0.01307638,0.0
 0188033,0.13493830,0.00073547,0.00124222,-0.00087138,0.00250088,0.0060
 0138,0.00018907,0.00057408,0.00042222,0.00020867,-0.12340558,-0.276254
 26,-0.03399757,-0.00019172,0.00062096,0.00071479,0.00402450,-0.0024822
 9,-0.00102035,-0.00008232,-0.00000948,0.00008551,-0.01400485,-0.018253
 34,-0.00330416,0.13318188,0.28901238,0.00006587,-0.00087094,0.00730392
 ,0.00029873,0.00009018,0.00473732,0.00008374,0.00020714,-0.00100996,-0
 .01774748,-0.03400940,-0.04359219,-0.00000922,0.00071694,-0.00433948,0
 .00054379,-0.00102443,0.00469165,-0.00000922,0.00008562,-0.00060471,-0
 .00195336,-0.00320330,0.00431754,0.01919664,0.03759358,0.03164792,-0.0
 0392279,-0.00083007,-0.00015855,-0.00081589,-0.00073096,-0.00010221,-0
 .01114936,0.02582744,0.00359530,-0.00176851,-0.00332572,-0.00049267,0.
 00004914,0.00006568,0.00001163,-0.13658667,0.13010472,0.01804964,0.000
 84969,-0.00019553,-0.00000831,0.01341115,-0.01203502,-0.00167527,0.000
 75290,-0.00082681,-0.00011733,0.14399194,-0.00088986,0.00119256,-0.000
 88387,-0.00061651,0.00038049,0.00019857,-0.00304851,0.00674388,0.00027
 525,-0.00398984,-0.00271635,-0.00108038,0.00008318,-0.00000476,0.00008
 672,0.12823709,-0.26822247,-0.03198153,0.00019101,0.00062084,0.0007160
 6,0.01505102,-0.01818885,-0.00319317,0.00087707,-0.00075609,-0.0002065
 5,-0.13822674,0.28040954,-0.00016594,-0.00088553,0.00730144,-0.0000860
 7,0.00019707,-0.00101230,-0.00048820,0.00037704,0.00477547,-0.00058602
 ,-0.00107808,0.00468013,0.00001400,0.00008683,-0.00060455,0.01778460,-
 0.03197734,-0.04318338,0.00004551,0.00071510,-0.00433982,0.00216336,-0
 .00328322,0.00432206,0.00012421,-0.00021229,0.00069590,-0.01912519,0.0
 3542925,0.03120748,-0.10793789,-0.00123012,-0.00049322,-0.03262445,-0.
 00068932,-0.00022302,-0.03334067,-0.00043570,-0.00019052,0.00402578,-0
 .00452440,-0.00064071,0.00014849,-0.00035123,-0.00004239,0.00390326,0.
 00475398,0.00067134,0.00008177,0.00034335,0.00005678,-0.00410637,-0.00
 008278,-0.00002535,-0.00094946,0.00051773,0.00007049,-0.00095160,-0.00
 055428,-0.00008125,0.17022541,-0.00123237,-0.02991710,-0.00166266,-0.0
 2175765,0.00222601,-0.00021997,0.02063422,0.00290152,0.00002460,0.0010
 6387,-0.00296484,-0.00099340,-0.00158633,0.00017835,0.00030468,-0.0008
 3440,-0.00284734,-0.00098312,0.00157866,0.00024025,0.00032256,-0.00008
 219,0.00100753,0.00017285,-0.00062768,0.00017681,0.00003766,0.00059119
 ,0.00017924,0.00004206,0.00223509,0.02844646,-0.00048915,-0.00166076,-
 0.01842538,-0.00320362,-0.00014425,0.00320611,0.00278816,-0.00004864,0
 .00324167,0.00015019,-0.00101269,0.00393971,-0.00021983,0.00030596,-0.
 00192873,-0.00011779,-0.00096287,0.00394587,0.00023079,0.00031744,-0.0
 0192473,-0.00002520,0.00017152,-0.00019383,-0.00009195,0.00004152,-0.0
 0009786,0.00008065,0.00003803,-0.00009792,0.00088753,0.00280166,0.0090
 2196,-0.00667289,-0.00002174,-0.00002282,0.00938748,0.00560413,0.00079
 717,0.00973037,-0.00507344,-0.00071059,-0.03642824,0.01824632,0.002463
 50,0.00035651,-0.00036261,-0.00005308,-0.03493165,-0.01982502,-0.00290
 264,0.00040246,0.00036557,0.00005020,-0.11816645,-0.00013252,-0.000161
 49,0.00069916,-0.00256194,-0.00034222,0.00064385,0.00269941,0.00039454
 ,0.00491220,0.00007915,0.00003155,0.63994094,-0.00002306,-0.00504356,-
 0.00050492,0.00516684,-0.00630538,-0.00207002,-0.00463410,-0.00663048,
 -0.00214910,0.02486530,0.01398155,0.00254819,0.00173912,0.00033538,-0.
 00006897,-0.02643527,0.01256864,0.00217669,-0.00173611,0.00029202,-0.0
 0008758,-0.00013616,-0.10757262,-0.00449770,0.00092784,-0.00384538,0.0
 0005592,-0.00078332,-0.00379069,0.00005685,0.00007958,-0.00011517,0.00
 010769,-0.00479891,0.93622423,-0.00002057,-0.00049766,-0.00155500,0.00
 072739,-0.00207229,0.00819658,-0.00064781,-0.00215580,0.00817868,0.003
 41274,0.00252460,-0.00311051,0.00024357,-0.00007630,0.00085443,-0.0038
 5391,0.00219666,-0.00318374,-0.00024712,-0.00007990,0.00085259,-0.0001
 5280,-0.00450574,-0.07641437,0.00014577,0.00004449,-0.00419762,-0.0000
 9207,0.00007002,-0.00419448,0.00003084,0.00010825,-0.00086141,0.000693
 53,0.10031895,0.23637368,0.00210033,0.00171386,0.00024980,-0.00360142,
 0.00111412,0.00015116,-0.00062986,0.00135470,0.00019289,-0.00405697,-0
 .00734254,-0.00106409,-0.00086014,-0.00011239,-0.00001706,-0.00342882,
 0.00221449,0.00029051,-0.00011987,-0.00007531,-0.00001128,-0.03830968,
 0.04801366,0.00656365,0.00044729,0.00006603,0.00000821,-0.00490965,0.0
 0027721,0.00001816,-0.00170855,-0.00010366,-0.00002118,-0.24062591,0.1
 7959993,0.02467981,0.24884042,-0.00205438,0.00037182,0.00002367,0.0016
 2359,0.00132560,0.00036152,0.00270643,0.00075203,0.00021283,-0.0002843
 9,0.00305380,-0.00005134,0.00017995,0.00000098,0.00006533,-0.00861305,
 -0.00713884,-0.00126070,0.00024757,0.00001334,0.00000379,0.03440857,-0
 .00973232,-0.00376078,-0.00134485,0.00115486,0.00010280,-0.00095560,0.
 00295752,0.00041497,0.00096377,0.00025877,0.00002828,0.17627735,-0.409
 14522,-0.04653616,-0.21760575,0.53188398,-0.00028267,0.00003463,0.0001
 6121,0.00022140,0.00036276,-0.00115822,0.00037987,0.00021084,-0.000667
 05,-0.00006778,-0.00007757,0.00339921,0.00002389,0.00006441,-0.0004477
 5,-0.00122733,-0.00122099,0.00139648,0.00003467,0.00000266,-0.00000715
 ,0.00464210,-0.00371562,0.01735729,-0.00018880,0.00010375,0.00042815,-
 0.00015097,0.00042261,0.00001990,0.00012968,0.00002422,0.00008803,0.02
 421450,-0.04653064,-0.08022824,-0.02982956,0.07019446,0.03689711,0.002
 08833,-0.00165903,-0.00022788,-0.00049361,-0.00139479,-0.00019788,-0.0
 0350450,-0.00127169,-0.00019023,-0.00362899,-0.00209541,-0.00030713,-0
 .00011413,0.00007117,0.00001006,-0.00430501,0.00711128,0.00098194,-0.0
 0085721,0.00008453,0.00000986,-0.03554538,-0.04878799,-0.00703271,-0.0
 0491492,-0.00052737,-0.00008865,0.00040582,-0.00009025,-0.00001171,-0.
 00167793,0.00004209,-0.00000016,-0.22924783,-0.17383167,-0.02491938,0.
 04686283,0.01445080,0.00210099,0.23493253,0.00210840,0.00038449,0.0000
 4032,-0.00274805,0.00062212,0.00017543,-0.00178036,0.00123448,0.000336
 59,0.00873127,-0.00692970,-0.00117289,-0.00025164,0.00000773,0.0000013
 6,0.00004986,0.00328429,-0.00001723,-0.00020773,-0.00000209,0.00006344
 ,-0.03518588,-0.01236423,-0.00435929,0.00070082,0.00297002,0.00042477,
 0.00132075,0.00119514,0.00011731,-0.00102567,0.00022952,0.00001712,-0.
 17049576,-0.42095333,-0.04933911,-0.00911433,-0.11575634,-0.01987553,0
 .20789832,0.54607789,0.00030317,0.00002466,0.00016239,-0.00038398,0.00
 018368,-0.00067448,-0.00025913,0.00034272,-0.00116234,0.00121024,-0.00
 120555,0.00140464,-0.00003586,0.00000237,-0.00000740,-0.00001445,0.000
 00296,0.00341131,-0.00003018,0.00006458,-0.00044804,-0.00512056,-0.004
 40308,0.01722585,0.00008592,0.00042436,0.00001943,0.00018536,0.0001090
 2,0.00043007,-0.00015021,0.00002061,0.00008652,-0.02445216,-0.04935537
 ,-0.08071060,-0.00121103,-0.01979867,0.02276104,0.02987289,0.07358772,
 0.03750161\\-0.00001989,-0.00000859,0.00000469,0.00003117,0.00001566,0
 .00000588,0.00003023,0.00000478,-0.00001488,-0.00006282,-0.00000535,-0
 .00001328,-0.00000014,-0.00000169,0.00000436,-0.00006427,-0.00001000,0
 .00000825,-0.00000064,-0.00000206,-0.00000003,0.00017429,-0.00001965,0
 .00000557,-0.00000005,0.00000265,-0.00000027,0.00000375,-0.00000098,0.
 00000331,0.00000348,-0.00000025,-0.00000187,-0.00019841,0.00021965,0.0
 0002834,0.00008489,-0.00022235,-0.00003028,0.00001840,0.00002819,0.000
 00020\\\@


 THERE IS NO SUBJECT, HOWEVER COMPLEX,
 WHICH, IF STUDIED WITH PATIENCE AND INTELLIGIENCE
 WILL NOT BECOME
 MORE COMPLEX
                        QUOTED BY D. GORDON ROHMAN
 Job cpu time:       0 days  0 hours 29 minutes 22.9 seconds.
 Elapsed time:       0 days  0 hours  0 minutes 55.1 seconds.
 File lengths (MBytes):  RWF=     60 Int=      0 D2E=      0 Chk=      4 Scr=      1
 Normal termination of Gaussian 16 at Sat Sep 16 07:15:44 2023.
