 Entering Gaussian System, Link 0=/home/ubuntu/g16/g16
 Input=/home/ubuntu/Downloads/p-py-vol.gjf
 Output=/home/ubuntu/Downloads/p-py-vol.log
 Initial command:
 /home/ubuntu/g16/l1.exe "/home/ubuntu/Scratch/Gau-166455.inp" -scrdir="/home/ubuntu/Scratch/"
 Entering Link 1 = /home/ubuntu/g16/l1.exe PID=    166457.
  
 Copyright (c) 1988-2017, Gaussian, Inc.  All Rights Reserved.
  
 This is part of the Gaussian(R) 16 program.  It is based on
 the Gaussian(R) 09 system (copyright 2009, Gaussian, Inc.),
 the Gaussian(R) 03 system (copyright 2003, Gaussian, Inc.),
 the Gaussian(R) 98 system (copyright 1998, Gaussian, Inc.),
 the Gaussian(R) 94 system (copyright 1995, Gaussian, Inc.),
 the Gaussian 92(TM) system (copyright 1992, Gaussian, Inc.),
 the Gaussian 90(TM) system (copyright 1990, Gaussian, Inc.),
 the Gaussian 88(TM) system (copyright 1988, Gaussian, Inc.),
 the Gaussian 86(TM) system (copyright 1986, Carnegie Mellon
 University), and the Gaussian 82(TM) system (copyright 1983,
 Carnegie Mellon University). Gaussian is a federally registered
 trademark of Gaussian, Inc.
  
 This software contains proprietary and confidential information,
 including trade secrets, belonging to Gaussian, Inc.
  
 This software is provided under written license and may be
 used, copied, transmitted, or stored only in accord with that
 written license.
  
 The following legend is applicable only to US Government
 contracts under FAR:
  
                    RESTRICTED RIGHTS LEGEND
  
 Use, reproduction and disclosure by the US Government is
 subject to restrictions as set forth in subparagraphs (a)
 and (c) of the Commercial Computer Software - Restricted
 Rights clause in FAR 52.227-19.
  
 Gaussian, Inc.
 340 Quinnipiac St., Bldg. 40, Wallingford CT 06492
  
  
 ---------------------------------------------------------------
 Warning -- This program may not be used in any manner that
 competes with the business of Gaussian, Inc. or will provide
 assistance to any competitor of Gaussian, Inc.  The licensee
 of this program is prohibited from giving any competitor of
 Gaussian, Inc. access to this program.  By using this program,
 the user acknowledges that Gaussian, Inc. is engaged in the
 business of creating and licensing software in the field of
 computational chemistry and represents and warrants to the
 licensee that it is not a competitor of Gaussian, Inc. and that
 it will not use this program in any manner prohibited above.
 ---------------------------------------------------------------
  

 Cite this work as:
 Gaussian 16, Revision B.01,
 M. J. Frisch, G. W. Trucks, H. B. Schlegel, G. E. Scuseria, 
 M. A. Robb, J. R. Cheeseman, G. Scalmani, V. Barone, 
 G. A. Petersson, H. Nakatsuji, X. Li, M. Caricato, A. V. Marenich, 
 J. Bloino, B. G. Janesko, R. Gomperts, B. Mennucci, H. P. Hratchian, 
 J. V. Ortiz, A. F. Izmaylov, J. L. Sonnenberg, D. Williams-Young, 
 F. Ding, F. Lipparini, F. Egidi, J. Goings, B. Peng, A. Petrone, 
 T. Henderson, D. Ranasinghe, V. G. Zakrzewski, J. Gao, N. Rega, 
 G. Zheng, W. Liang, M. Hada, M. Ehara, K. Toyota, R. Fukuda, 
 J. Hasegawa, M. Ishida, T. Nakajima, Y. Honda, O. Kitao, H. Nakai, 
 T. Vreven, K. Throssell, J. A. Montgomery, Jr., J. E. Peralta, 
 F. Ogliaro, M. J. Bearpark, J. J. Heyd, E. N. Brothers, K. N. Kudin, 
 V. N. Staroverov, T. A. Keith, R. Kobayashi, J. Normand, 
 K. Raghavachari, A. P. Rendell, J. C. Burant, S. S. Iyengar, 
 J. Tomasi, M. Cossi, J. M. Millam, M. Klene, C. Adamo, R. Cammi, 
 J. W. Ochterski, R. L. Martin, K. Morokuma, O. Farkas, 
 J. B. Foresman, and D. J. Fox, Gaussian, Inc., Wallingford CT, 2016.
 
 ******************************************
 Gaussian 16:  EM64L-G16RevB.01 20-Dec-2017
                20-Sep-2023 
 ******************************************
 %nprocshared=32
 Will use up to   32 processors via shared memory.
 %mem=62GB
 %chk=p-py-vol.chk
 ----------------------------------------------------------------------
 # opt freq b3lyp/gen empiricaldispersion=gd3 pseudo=read scf=maxcycle=
 1000 volume
 ----------------------------------------------------------------------
 1/18=20,19=15,26=3,38=1/1,3;
 2/9=110,12=2,17=6,18=5,40=1/2;
 3/5=7,11=2,16=1,17=8,25=1,30=1,71=1,74=-5,124=31/1,2,3;
 4//1;
 5/5=2,7=1000,38=5/2;
 6/7=2,8=2,9=2,10=2,28=1,44=1/1,4;
 7//1,2,3,16;
 1/18=20,19=15,26=3/3(2);
 2/9=110/2;
 99//99;
 2/9=110/2;
 3/5=7,6=1,11=2,16=1,17=8,25=1,30=1,71=1,74=-5,82=7,124=31/1,2,3;
 4/5=5,16=3,69=1/1;
 5/5=2,7=1000,38=5/2;
 7//1,2,3,16;
 1/18=20,19=15,26=3/3(-5);
 2/9=110/2;
 6/7=2,8=2,9=2,10=2,19=2,28=1,44=1/1,4;
 99/9=1/99;
 -------------------
 Title Card Required
 -------------------
 Symbolic Z-matrix:
 Charge =  0 Multiplicity = 1
 C                    -3.49631  -1.14311   0.00005 
 C                    -2.10255  -1.20327  -0.00004 
 C                    -1.37355  -0.00012  -0.00008 
 C                    -2.10228   1.20319  -0.00004 
 C                    -3.49604   1.14334   0.00005 
 N                    -4.19707   0.0002    0.0001 
 H                    -4.08104  -2.06099   0.00009 
 H                    -1.58864  -2.15943  -0.00007 
 H                    -1.58815   2.15923  -0.00007 
 H                    -4.08057   2.06136   0.00009 
 C                     0.05411  -0.00028  -0.00017 
 C                     1.2663   -0.0004   -0.0002 
 Br                    3.09199   0.00007   0.00005 
 

 GradGradGradGradGradGradGradGradGradGradGradGradGradGradGradGradGradGrad
 Berny optimization.
 Initialization pass.
                           ----------------------------
                           !    Initial Parameters    !
                           ! (Angstroms and Degrees)  !
 --------------------------                            --------------------------
 ! Name  Definition              Value          Derivative Info.                !
 --------------------------------------------------------------------------------
 ! R1    R(1,2)                  1.395          estimate D2E/DX2                !
 ! R2    R(1,6)                  1.341          estimate D2E/DX2                !
 ! R3    R(1,7)                  1.0883         estimate D2E/DX2                !
 ! R4    R(2,3)                  1.4068         estimate D2E/DX2                !
 ! R5    R(2,8)                  1.0855         estimate D2E/DX2                !
 ! R6    R(3,4)                  1.4068         estimate D2E/DX2                !
 ! R7    R(3,11)                 1.4277         estimate D2E/DX2                !
 ! R8    R(4,5)                  1.3951         estimate D2E/DX2                !
 ! R9    R(4,9)                  1.0855         estimate D2E/DX2                !
 ! R10   R(5,6)                  1.341          estimate D2E/DX2                !
 ! R11   R(5,10)                 1.0883         estimate D2E/DX2                !
 ! R12   R(11,12)                1.2122         estimate D2E/DX2                !
 ! R13   R(12,13)                1.8257         estimate D2E/DX2                !
 ! A1    A(2,1,6)              123.9773         estimate D2E/DX2                !
 ! A2    A(2,1,7)              120.0274         estimate D2E/DX2                !
 ! A3    A(6,1,7)              115.9954         estimate D2E/DX2                !
 ! A4    A(1,2,3)              118.7406         estimate D2E/DX2                !
 ! A5    A(1,2,8)              120.7288         estimate D2E/DX2                !
 ! A6    A(3,2,8)              120.5306         estimate D2E/DX2                !
 ! A7    A(2,3,4)              117.5885         estimate D2E/DX2                !
 ! A8    A(2,3,11)             121.206          estimate D2E/DX2                !
 ! A9    A(4,3,11)             121.2054         estimate D2E/DX2                !
 ! A10   A(3,4,5)              118.7406         estimate D2E/DX2                !
 ! A11   A(3,4,9)              120.5307         estimate D2E/DX2                !
 ! A12   A(5,4,9)              120.7287         estimate D2E/DX2                !
 ! A13   A(4,5,6)              123.9772         estimate D2E/DX2                !
 ! A14   A(4,5,10)             120.0273         estimate D2E/DX2                !
 ! A15   A(6,5,10)             115.9955         estimate D2E/DX2                !
 ! A16   A(1,6,5)              116.9758         estimate D2E/DX2                !
 ! A17   L(3,11,12,9,-1)       179.9994         estimate D2E/DX2                !
 ! A18   L(11,12,13,9,-1)      179.9797         estimate D2E/DX2                !
 ! A19   L(3,11,12,9,-2)       179.9973         estimate D2E/DX2                !
 ! A20   L(11,12,13,9,-2)      179.9843         estimate D2E/DX2                !
 ! D1    D(6,1,2,3)              0.0001         estimate D2E/DX2                !
 ! D2    D(6,1,2,8)           -179.9999         estimate D2E/DX2                !
 ! D3    D(7,1,2,3)           -179.9999         estimate D2E/DX2                !
 ! D4    D(7,1,2,8)              0.0001         estimate D2E/DX2                !
 ! D5    D(2,1,6,5)              0.0001         estimate D2E/DX2                !
 ! D6    D(7,1,6,5)           -179.9999         estimate D2E/DX2                !
 ! D7    D(1,2,3,4)             -0.0001         estimate D2E/DX2                !
 ! D8    D(1,2,3,11)           180.0            estimate D2E/DX2                !
 ! D9    D(8,2,3,4)            179.9999         estimate D2E/DX2                !
 ! D10   D(8,2,3,11)             0.0            estimate D2E/DX2                !
 ! D11   D(2,3,4,5)              0.0001         estimate D2E/DX2                !
 ! D12   D(2,3,4,9)           -179.9999         estimate D2E/DX2                !
 ! D13   D(11,3,4,5)           180.0            estimate D2E/DX2                !
 ! D14   D(11,3,4,9)            -0.0001         estimate D2E/DX2                !
 ! D15   D(3,4,5,6)              0.0            estimate D2E/DX2                !
 ! D16   D(3,4,5,10)           179.9999         estimate D2E/DX2                !
 ! D17   D(9,4,5,6)           -179.9999         estimate D2E/DX2                !
 ! D18   D(9,4,5,10)            -0.0001         estimate D2E/DX2                !
 ! D19   D(4,5,6,1)             -0.0001         estimate D2E/DX2                !
 ! D20   D(10,5,6,1)          -180.0            estimate D2E/DX2                !
 --------------------------------------------------------------------------------
 Trust Radius=3.00D-01 FncErr=1.00D-07 GrdErr=1.00D-06 EigMax=2.50D+02 EigMin=1.00D-04
 Number of steps in this run=     63 maximum allowed number of steps=    100.
 GradGradGradGradGradGradGradGradGradGradGradGradGradGradGradGradGradGrad

                          Input orientation:                          
 ---------------------------------------------------------------------
 Center     Atomic      Atomic             Coordinates (Angstroms)
 Number     Number       Type             X           Y           Z
 ---------------------------------------------------------------------
      1          6           0       -3.496305   -1.143106    0.000053
      2          6           0       -2.102554   -1.203269   -0.000036
      3          6           0       -1.373551   -0.000124   -0.000081
      4          6           0       -2.102278    1.203186   -0.000036
      5          6           0       -3.496044    1.143342    0.000052
      6          7           0       -4.197075    0.000198    0.000098
      7          1           0       -4.081042   -2.060992    0.000090
      8          1           0       -1.588639   -2.159426   -0.000070
      9          1           0       -1.588145    2.159228   -0.000069
     10          1           0       -4.080570    2.061362    0.000090
     11          6           0        0.054112   -0.000280   -0.000172
     12          6           0        1.266304   -0.000400   -0.000203
     13         35           0        3.091995    0.000067    0.000052
 ---------------------------------------------------------------------
                    Distance matrix (angstroms):
                    1          2          3          4          5
     1  C    0.000000
     2  C    1.395049   0.000000
     3  C    2.410911   1.406771   0.000000
     4  C    2.729175   2.406455   1.406769   0.000000
     5  C    2.286448   2.729175   2.410911   1.395050   0.000000
     6  N    1.340978   2.415647   2.823524   2.415648   1.340978
     7  H    1.088316   2.156410   3.402600   3.817115   3.257296
     8  H    2.161503   1.085516   2.169988   3.401615   3.813984
     9  H    3.813985   3.401618   2.169989   1.085518   2.161505
    10  H    3.257297   3.817114   3.402598   2.156410   1.088316
    11  C    3.729814   2.469492   1.427663   2.469483   3.729810
    12  C    4.897777   3.577163   2.639855   3.577145   4.897765
    13  Br   6.686744   5.332106   4.465546   5.331788   6.686504
                    6          7          8          9         10
     6  N    0.000000
     7  H    2.064453   0.000000
     8  H    3.386431   2.494346   0.000000
     9  H    3.386433   4.901509   4.318654   0.000000
    10  H    2.064454   4.122354   4.901507   2.494346   0.000000
    11  C    4.251187   4.620177   2.713032   2.713021   4.620169
    12  C    5.463379   5.730632   3.579398   3.579368   5.730613
    13  Br   7.289070   7.463272   5.154779   5.154191   7.462883
                   11         12         13
    11  C    0.000000
    12  C    1.212192   0.000000
    13  Br   3.037883   1.825691   0.000000
 Stoichiometry    C7H4BrN
 Framework group  C1[X(C7H4BrN)]
 Deg. of freedom    33
 Full point group                 C1      NOp   1
 Largest Abelian subgroup         C1      NOp   1
 Largest concise Abelian subgroup C1      NOp   1
                         Standard orientation:                         
 ---------------------------------------------------------------------
 Center     Atomic      Atomic             Coordinates (Angstroms)
 Number     Number       Type             X           Y           Z
 ---------------------------------------------------------------------
      1          6           0        3.496305   -1.143106   -0.000053
      2          6           0        2.102554   -1.203269    0.000036
      3          6           0        1.373551   -0.000124    0.000081
      4          6           0        2.102278    1.203186    0.000036
      5          6           0        3.496044    1.143342   -0.000052
      6          7           0        4.197075    0.000198   -0.000098
      7          1           0        4.081042   -2.060992   -0.000090
      8          1           0        1.588639   -2.159426    0.000070
      9          1           0        1.588145    2.159228    0.000069
     10          1           0        4.080570    2.061362   -0.000090
     11          6           0       -0.054112   -0.000280    0.000172
     12          6           0       -1.266304   -0.000400    0.000203
     13         35           0       -3.091995    0.000067   -0.000052
 ---------------------------------------------------------------------
 Rotational constants (GHZ):           6.0110516           0.3431301           0.3246008
 General basis read from cards:  (5D, 7F)
 ======================================================================================================
                                       Pseudopotential Parameters
 ======================================================================================================
  Center     Atomic      Valence      Angular      Power
  Number     Number     Electrons     Momentum     of R      Exponent        Coefficient   SO-Coeffient
 ======================================================================================================
    1          6
                                   No pseudopotential on this center.
    2          6
                                   No pseudopotential on this center.
    3          6
                                   No pseudopotential on this center.
    4          6
                                   No pseudopotential on this center.
    5          6
                                   No pseudopotential on this center.
    6          7
                                   No pseudopotential on this center.
    7          1
                                   No pseudopotential on this center.
    8          1
                                   No pseudopotential on this center.
    9          1
                                   No pseudopotential on this center.
   10          1
                                   No pseudopotential on this center.
   11          6
                                   No pseudopotential on this center.
   12          6
                                   No pseudopotential on this center.
   13         35            7
                                      G and up 
                                                     2        1.0000000        0.00000000    0.00000000
                                      S - G
                                                     2        5.0218000       61.51372100    0.00000000
                                                     2        2.5109000        9.02149300    0.00000000
                                      P - G
                                                     2        4.2814000       53.87586400    0.00000000
                                                     2        2.1407000        4.62940200    0.00000000
                                      D - G
                                                     2        2.8800000       20.84967700    0.00000000
                                                     2        1.4400000        2.96544400    0.00000000
                                      F - G
                                                     2        2.7207000       -8.16149300    0.00000000
 ======================================================================================================
 There are   171 symmetry adapted cartesian basis functions of A   symmetry.
 There are   163 symmetry adapted basis functions of A   symmetry.
   163 basis functions,   291 primitive gaussians,   171 cartesian basis functions
    30 alpha electrons       30 beta electrons
       nuclear repulsion energy       337.6825262502 Hartrees.
 NAtoms=   13 NActive=   13 NUniq=   13 SFac= 1.00D+00 NAtFMM=   60 NAOKFM=F Big=F
 Integral buffers will be    131072 words long.
 Raffenetti 2 integral format.
 Two-electron integral symmetry is turned on.
 Nuclear repulsion after empirical dispersion term =      337.6749650766 Hartrees.
 One-electron integrals computed using PRISM.
   1 Symmetry operations used in ECPInt.
 ECPInt:  NShTT=    1431 NPrTT=    7543 LenC2=    1415 LenP2D=    5477.
 LDataN:  DoStor=T MaxTD1= 6 Len=  172
 NBasis=   163 RedAO= T EigKep=  2.18D-06  NBF=   163
 NBsUse=   162 1.00D-06 EigRej=  8.73D-08 NBFU=   162
 ExpMin= 3.61D-02 ExpMax= 4.17D+03 ExpMxC= 6.27D+02 IAcc=3 IRadAn=         5 AccDes= 0.00D+00
 Harris functional with IExCor=  402 and IRadAn=       5 diagonalized for initial guess.
 HarFok:  IExCor=  402 AccDes= 0.00D+00 IRadAn=         5 IDoV= 1 UseB2=F ITyADJ=14
 ICtDFT=  3500011 ScaDFX=  1.000000  1.000000  1.000000  1.000000
 FoFCou: FMM=F IPFlag=           0 FMFlag=      100000 FMFlg1=           0
         NFxFlg=           0 DoJE=T BraDBF=F KetDBF=T FulRan=T
         wScrn=  0.000000 ICntrl=       500 IOpCl=  0 I1Cent=   200000004 NGrid=           0
         NMat0=    1 NMatS0=      1 NMatT0=    0 NMatD0=    1 NMtDS0=    0 NMtDT0=    0
 Petite list used in FoFCou.
 Requested convergence on RMS density matrix=1.00D-08 within1000 cycles.
 Requested convergence on MAX density matrix=1.00D-06.
 Requested convergence on             energy=1.00D-06.
 No special actions if energy rises.
 SCF Done:  E(RB3LYP) =  -337.204599763     A.U. after   15 cycles
            NFock= 15  Conv=0.38D-08     -V/T= 2.0340

 **********************************************************************

            Population analysis using the SCF Density.

 **********************************************************************

 Orbital symmetries:
       Occupied  (A) (A) (A) (A) (A) (A) (A) (A) (A) (A) (A) (A)
                 (A) (A) (A) (A) (A) (A) (A) (A) (A) (A) (A) (A)
                 (A) (A) (A) (A) (A) (A)
       Virtual   (A) (A) (A) (A) (A) (A) (A) (A) (A) (A) (A) (A)
                 (A) (A) (A) (A) (A) (A) (A) (A) (A) (A) (A) (A)
                 (A) (A) (A) (A) (A) (A) (A) (A) (A) (A) (A) (A)
                 (A) (A) (A) (A) (A) (A) (A) (A) (A) (A) (A) (A)
                 (A) (A) (A) (A) (A) (A) (A) (A) (A) (A) (A) (A)
                 (A) (A) (A) (A) (A) (A) (A) (A) (A) (A) (A) (A)
                 (A) (A) (A) (A) (A) (A) (A) (A) (A) (A) (A) (A)
                 (A) (A) (A) (A) (A) (A) (A) (A) (A) (A) (A) (A)
                 (A) (A) (A) (A) (A) (A) (A) (A) (A) (A) (A) (A)
                 (A) (A) (A) (A) (A) (A) (A) (A) (A) (A) (A) (A)
                 (A) (A) (A) (A) (A) (A) (A) (A) (A) (A) (A) (A)
 The electronic state is 1-A.
 Alpha  occ. eigenvalues --  -14.34644 -10.25009 -10.24694 -10.23481 -10.23479
 Alpha  occ. eigenvalues --  -10.21839 -10.21458 -10.21458  -0.95685  -0.88493
 Alpha  occ. eigenvalues --   -0.84442  -0.77844  -0.75879  -0.66119  -0.64848
 Alpha  occ. eigenvalues --   -0.56777  -0.50577  -0.50357  -0.48960  -0.44730
 Alpha  occ. eigenvalues --   -0.44537  -0.41934  -0.38884  -0.38024  -0.37228
 Alpha  occ. eigenvalues --   -0.33375  -0.28259  -0.28013  -0.27289  -0.26205
 Alpha virt. eigenvalues --   -0.06702  -0.04005  -0.03258   0.00052   0.01955
 Alpha virt. eigenvalues --    0.02222   0.02400   0.03547   0.04284   0.04671
 Alpha virt. eigenvalues --    0.04848   0.05349   0.06074   0.06418   0.06677
 Alpha virt. eigenvalues --    0.08594   0.08796   0.09015   0.10091   0.11574
 Alpha virt. eigenvalues --    0.12390   0.13541   0.13886   0.14704   0.15004
 Alpha virt. eigenvalues --    0.16018   0.17130   0.17497   0.18472   0.18493
 Alpha virt. eigenvalues --    0.21250   0.21266   0.22210   0.23246   0.23403
 Alpha virt. eigenvalues --    0.24730   0.25106   0.25602   0.26103   0.26819
 Alpha virt. eigenvalues --    0.28730   0.29084   0.30138   0.31113   0.32546
 Alpha virt. eigenvalues --    0.33575   0.36490   0.38606   0.39848   0.41122
 Alpha virt. eigenvalues --    0.47546   0.50303   0.54512   0.54842   0.65341
 Alpha virt. eigenvalues --    0.65912   0.69510   0.69517   0.70095   0.70146
 Alpha virt. eigenvalues --    0.71921   0.72823   0.72965   0.73287   0.75571
 Alpha virt. eigenvalues --    0.78417   0.82396   0.83210   0.85517   0.88736
 Alpha virt. eigenvalues --    0.90381   0.92478   0.93295   0.95616   0.96602
 Alpha virt. eigenvalues --    1.00964   1.04444   1.05002   1.05865   1.08906
 Alpha virt. eigenvalues --    1.13700   1.14501   1.18303   1.20786   1.22459
 Alpha virt. eigenvalues --    1.22782   1.23947   1.29305   1.37904   1.41475
 Alpha virt. eigenvalues --    1.41867   1.43835   1.47077   1.49357   1.50315
 Alpha virt. eigenvalues --    1.52220   1.53865   1.60917   1.70607   1.75075
 Alpha virt. eigenvalues --    1.76827   1.86265   1.86741   1.87369   1.88568
 Alpha virt. eigenvalues --    1.95306   1.98962   2.06684   2.11751   2.12030
 Alpha virt. eigenvalues --    2.12055   2.20990   2.21797   2.22172   2.27204
 Alpha virt. eigenvalues --    2.30015   2.35709   2.45793   2.46030   2.59866
 Alpha virt. eigenvalues --    2.62632   2.64956   2.66772   2.72564   2.74293
 Alpha virt. eigenvalues --    2.74375   2.81781   2.94682   3.13117   3.25717
 Alpha virt. eigenvalues --    3.48644   7.57105
          Condensed to atoms (all electrons):
               1          2          3          4          5          6
     1  C    6.548755  -1.779535   1.285389   0.284030   0.165041   0.206266
     2  C   -1.779535  11.937180  -1.693458  -3.950014   0.283057   0.081259
     3  C    1.285389  -1.693458  18.374252  -1.681833   1.282047  -0.022825
     4  C    0.284030  -3.950014  -1.681833  11.936327  -1.777571   0.081233
     5  C    0.165041   0.283057   1.282047  -1.777571   6.547084   0.206288
     6  N    0.206266   0.081259  -0.022825   0.081233   0.206288   6.811208
     7  H    0.492763  -0.205130   0.062917  -0.011191   0.024380  -0.090593
     8  H   -0.024385   0.286469  -0.031844   0.016460  -0.001245   0.004039
     9  H   -0.001240   0.016437  -0.031851   0.286521  -0.024389   0.004040
    10  H    0.024377  -0.011189   0.062912  -0.205128   0.492766  -0.090593
    11  C   -1.367903   1.324553 -18.294779   1.305161  -1.362168  -0.040713
    12  C    0.452056  -0.573244   7.059624  -0.567681   0.450408   0.006861
    13  Br   0.002199   0.011339   0.052636   0.011431   0.002196  -0.000006
               7          8          9         10         11         12
     1  C    0.492763  -0.024385  -0.001240   0.024377  -1.367903   0.452056
     2  C   -0.205130   0.286469   0.016437  -0.011189   1.324553  -0.573244
     3  C    0.062917  -0.031844  -0.031851   0.062912 -18.294779   7.059624
     4  C   -0.011191   0.016460   0.286521  -0.205128   1.305161  -0.567681
     5  C    0.024380  -0.001245  -0.024389   0.492766  -1.362168   0.450408
     6  N   -0.090593   0.004039   0.004040  -0.090593  -0.040713   0.006861
     7  H    0.549712  -0.001821   0.000021  -0.000038  -0.008654   0.003105
     8  H   -0.001821   0.510733  -0.000113   0.000021   0.054469  -0.011455
     9  H    0.000021  -0.000113   0.510735  -0.001821   0.054430  -0.011442
    10  H   -0.000038   0.000021  -0.001821   0.549714  -0.008653   0.003105
    11  C   -0.008654   0.054469   0.054430  -0.008653  36.722253 -12.480154
    12  C    0.003105  -0.011455  -0.011442   0.003105 -12.480154  12.226463
    13  Br  -0.000008   0.000028   0.000028  -0.000008  -0.162206   0.177205
              13
     1  C    0.002199
     2  C    0.011339
     3  C    0.052636
     4  C    0.011431
     5  C    0.002196
     6  N   -0.000006
     7  H   -0.000008
     8  H    0.000028
     9  H    0.000028
    10  H   -0.000008
    11  C   -0.162206
    12  C    0.177205
    13  Br   6.590215
 Mulliken charges:
               1
     1  C   -0.287812
     2  C    0.272275
     3  C   -0.423187
     4  C    0.272257
     5  C   -0.287895
     6  N   -0.156464
     7  H    0.184536
     8  H    0.198644
     9  H    0.198643
    10  H    0.184535
    11  C    0.264366
    12  C   -0.734851
    13  Br   0.314953
 Sum of Mulliken charges =   0.00000
 Mulliken charges with hydrogens summed into heavy atoms:
               1
     1  C   -0.103276
     2  C    0.470918
     3  C   -0.423187
     4  C    0.470901
     5  C   -0.103360
     6  N   -0.156464
    11  C    0.264366
    12  C   -0.734851
    13  Br   0.314953
 Electronic spatial extent (au):  <R**2>=           1923.8184
 Charge=              0.0000 electrons
 Dipole moment (field-independent basis, Debye):
    X=             -1.9826    Y=              0.0002    Z=             -0.0001  Tot=              1.9826
 Quadrupole moment (field-independent basis, Debye-Ang):
   XX=            -67.6340   YY=            -54.3095   ZZ=            -63.3777
   XY=             -0.0029   XZ=              0.0010   YZ=              0.0000
 Traceless Quadrupole moment (field-independent basis, Debye-Ang):
   XX=             -5.8603   YY=              7.4642   ZZ=             -1.6039
   XY=             -0.0029   XZ=              0.0010   YZ=              0.0000
 Octapole moment (field-independent basis, Debye-Ang**2):
  XXX=           -239.5591  YYY=              0.0062  ZZZ=             -0.0035  XYY=            -23.6451
  XXY=             -0.0038  XXZ=             -0.0015  XZZ=            -49.6341  YZZ=              0.0017
  YYZ=             -0.0013  XYZ=              0.0000
 Hexadecapole moment (field-independent basis, Debye-Ang**3):
 XXXX=          -3141.2068 YYYY=           -287.6699 ZZZZ=            -78.6339 XXXY=             -0.0877
 XXXZ=              0.0320 YYYX=             -0.0073 YYYZ=              0.0000 ZZZX=              0.0082
 ZZZY=              0.0000 XXYY=           -457.6691 XXZZ=           -507.7036 YYZZ=            -71.5740
 XXYZ=              0.0000 YYXZ=              0.0011 ZZXY=             -0.0036
 N-N= 3.376749650766D+02 E-N=-1.452532680188D+03  KE= 3.261150477547D+02
 Evaluate density.
 Using the total density.
 Monte-Carlo method of calculating molar volume:
 based on  0.001 e/bohr**3 density envelope.
 Number of points per bohr**3 =   20 CutOff= 1.00D-04
 Using the SCF density.
 There are       445 points.  Will hold       445 in memory.
 LenV=  8321393189 MDV=  8321499136.
 Box volume =11080.754 fraction occupied=0.121
 Integrated density= 3.7717314546039063D+01 error=-2.2282685453960937D+01
 Molar volume = 1344.631 bohr**3/mol (119.993 cm**3/mol)
 Recommended a0 for SCRF calculation =  4.49 angstrom (  8.48 bohr)
   1 Symmetry operations used in ECPInt.
 ECPInt:  NShTT=    1431 NPrTT=    7543 LenC2=    1415 LenP2D=    5477.
 LDataN:  DoStor=T MaxTD1= 7 Len=  274
 Calling FoFJK, ICntrl=      2127 FMM=F ISym2X=0 I1Cent= 0 IOpClX= 0 NMat=1 NMatS=1 NMatT=0.
 ***** Axes restored to original set *****
 -------------------------------------------------------------------
 Center     Atomic                   Forces (Hartrees/Bohr)
 Number     Number              X              Y              Z
 -------------------------------------------------------------------
      1        6          -0.000005284   -0.000010933    0.000000326
      2        6           0.000038625   -0.000006825    0.000000036
      3        6          -0.000137642   -0.000006340   -0.000004233
      4        6           0.000039113    0.000009461    0.000000006
      5        6          -0.000004664    0.000009988    0.000000612
      6        7          -0.000000045    0.000000488   -0.000000278
      7        1           0.000001225    0.000010700    0.000000006
      8        1          -0.000012456    0.000005294   -0.000000081
      9        1          -0.000013061   -0.000006351   -0.000000125
     10        1           0.000001136   -0.000010556   -0.000000089
     11        6           0.000083591    0.000002469    0.000003939
     12        6           0.000016776    0.000007632    0.000002272
     13       35          -0.000007315   -0.000005026   -0.000002391
 -------------------------------------------------------------------
 Cartesian Forces:  Max     0.000137642 RMS     0.000027962

 GradGradGradGradGradGradGradGradGradGradGradGradGradGradGradGradGradGrad
 Berny optimization.
 FormGI is forming the generalized inverse of G from B-inverse, IUseBI=4.
 Internal  Forces:  Max     0.000093052 RMS     0.000014579
 Search for a local minimum.
 Step number   1 out of a maximum of   63
 All quantities printed in internal units (Hartrees-Bohrs-Radians)
 Mixed Optimization -- En-DIIS/RFO-DIIS
 Second derivative matrix not updated -- first step.
 ITU=  0
     Eigenvalues ---    0.00824   0.00824   0.01999   0.02038   0.02072
     Eigenvalues ---    0.02087   0.02162   0.02241   0.02264   0.02395
     Eigenvalues ---    0.04573   0.04573   0.16000   0.16000   0.16000
     Eigenvalues ---    0.16000   0.22000   0.22421   0.22825   0.23880
     Eigenvalues ---    0.25000   0.35008   0.35008   0.35336   0.35336
     Eigenvalues ---    0.41327   0.41798   0.42644   0.45087   0.46448
     Eigenvalues ---    0.54828   0.56128   0.98928
 RFO step:  Lambda=-7.25833480D-08 EMin= 8.24408640D-03
 Linear search not attempted -- first point.
 Iteration  1 RMS(Cart)=  0.00093599 RMS(Int)=  0.00000108
 Iteration  2 RMS(Cart)=  0.00000113 RMS(Int)=  0.00000000
 Iteration  3 RMS(Cart)=  0.00000000 RMS(Int)=  0.00000000
 Variable       Old X    -DE/DX   Delta X   Delta X   Delta X     New X
                                 (Linear)    (Quad)   (Total)
    R1        2.63626   0.00000   0.00000   0.00001   0.00001   2.63627
    R2        2.53408   0.00000   0.00000   0.00000   0.00000   2.53408
    R3        2.05662  -0.00001   0.00000  -0.00003  -0.00003   2.05659
    R4        2.65841  -0.00001   0.00000  -0.00002  -0.00002   2.65839
    R5        2.05133  -0.00001   0.00000  -0.00003  -0.00003   2.05130
    R6        2.65841  -0.00001   0.00000  -0.00002  -0.00002   2.65839
    R7        2.69789   0.00009   0.00000   0.00023   0.00023   2.69812
    R8        2.63626   0.00000   0.00000   0.00001   0.00001   2.63627
    R9        2.05133  -0.00001   0.00000  -0.00003  -0.00003   2.05130
   R10        2.53408   0.00000   0.00000   0.00000   0.00000   2.53408
   R11        2.05662  -0.00001   0.00000  -0.00003  -0.00003   2.05659
   R12        2.29071   0.00001   0.00000   0.00001   0.00001   2.29072
   R13        3.45006  -0.00001   0.00000  -0.00003  -0.00003   3.45002
    A1        2.16381   0.00000   0.00000   0.00000   0.00000   2.16381
    A2        2.09487   0.00001   0.00000   0.00003   0.00003   2.09490
    A3        2.02450   0.00000   0.00000  -0.00003  -0.00003   2.02447
    A4        2.07241  -0.00001   0.00000  -0.00005  -0.00005   2.07237
    A5        2.10712   0.00000   0.00000  -0.00003  -0.00003   2.10708
    A6        2.10366   0.00001   0.00000   0.00008   0.00008   2.10373
    A7        2.05231   0.00002   0.00000   0.00008   0.00008   2.05238
    A8        2.11544  -0.00001   0.00000  -0.00003  -0.00003   2.11541
    A9        2.11543  -0.00001   0.00000  -0.00004  -0.00004   2.11539
   A10        2.07241  -0.00001   0.00000  -0.00005  -0.00005   2.07237
   A11        2.10366   0.00001   0.00000   0.00008   0.00008   2.10374
   A12        2.10711   0.00000   0.00000  -0.00003  -0.00003   2.10708
   A13        2.16381   0.00000   0.00000   0.00000   0.00000   2.16381
   A14        2.09487   0.00001   0.00000   0.00003   0.00003   2.09490
   A15        2.02450   0.00000   0.00000  -0.00003  -0.00003   2.02447
   A16        2.04161   0.00000   0.00000   0.00002   0.00002   2.04163
   A17        3.14158   0.00001   0.00000   0.00025   0.00025   3.14183
   A18        3.14124   0.00002   0.00000   0.00210   0.00210   3.14334
   A19        3.14154   0.00001   0.00000   0.00015   0.00015   3.14169
   A20        3.14132   0.00000   0.00000   0.00060   0.00060   3.14192
    D1        0.00000   0.00000   0.00000   0.00000   0.00000   0.00000
    D2       -3.14159   0.00000   0.00000   0.00000   0.00000   3.14159
    D3       -3.14159   0.00000   0.00000   0.00000   0.00000  -3.14159
    D4        0.00000   0.00000   0.00000   0.00000   0.00000   0.00000
    D5        0.00000   0.00000   0.00000   0.00000   0.00000   0.00000
    D6       -3.14159   0.00000   0.00000   0.00000   0.00000   3.14159
    D7        0.00000   0.00000   0.00000   0.00000   0.00000   0.00000
    D8        3.14159   0.00000   0.00000  -0.00002  -0.00002   3.14157
    D9        3.14159   0.00000   0.00000   0.00000   0.00000  -3.14159
   D10        0.00000   0.00000   0.00000  -0.00002  -0.00002  -0.00002
   D11        0.00000   0.00000   0.00000   0.00000   0.00000   0.00000
   D12       -3.14159   0.00000   0.00000   0.00000   0.00000   3.14159
   D13        3.14159   0.00000   0.00000   0.00002   0.00002  -3.14157
   D14        0.00000   0.00000   0.00000   0.00002   0.00002   0.00002
   D15        0.00000   0.00000   0.00000   0.00000   0.00000   0.00000
   D16        3.14159   0.00000   0.00000   0.00000   0.00000  -3.14159
   D17       -3.14159   0.00000   0.00000   0.00000   0.00000  -3.14159
   D18        0.00000   0.00000   0.00000   0.00001   0.00001   0.00000
   D19        0.00000   0.00000   0.00000   0.00001   0.00001   0.00000
   D20       -3.14159   0.00000   0.00000   0.00000   0.00000  -3.14159
         Item               Value     Threshold  Converged?
 Maximum Force            0.000093     0.000450     YES
 RMS     Force            0.000015     0.000300     YES
 Maximum Displacement     0.005305     0.001800     NO 
 RMS     Displacement     0.000936     0.001200     YES
 Predicted change in Energy=-3.629167D-08
 GradGradGradGradGradGradGradGradGradGradGradGradGradGradGradGradGradGrad

                          Input orientation:                          
 ---------------------------------------------------------------------
 Center     Atomic      Atomic             Coordinates (Angstroms)
 Number     Number       Type             X           Y           Z
 ---------------------------------------------------------------------
      1          6           0       -3.495984   -1.143214   -0.000008
      2          6           0       -2.102212   -1.202992    0.000019
      3          6           0       -1.373602    0.000376    0.000033
      4          6           0       -2.102617    1.203499    0.000019
      5          6           0       -3.496370    1.143248   -0.000007
      6          7           0       -4.197067   -0.000101   -0.000022
      7          1           0       -4.080489   -2.061230   -0.000019
      8          1           0       -1.588070   -2.159010    0.000031
      9          1           0       -1.588801    2.159691    0.000031
     10          1           0       -4.081184    2.061068   -0.000019
     11          6           0        0.054180    0.000631    0.000085
     12          6           0        1.266377    0.000559    0.000033
     13         35           0        3.092048   -0.002740   -0.000407
 ---------------------------------------------------------------------
                    Distance matrix (angstroms):
                    1          2          3          4          5
     1  C    0.000000
     2  C    1.395054   0.000000
     3  C    2.410872   1.406758   0.000000
     4  C    2.729199   2.406491   1.406757   0.000000
     5  C    2.286462   2.729198   2.410871   1.395054   0.000000
     6  N    1.340979   2.415650   2.823464   2.415651   1.340978
     7  H    1.088302   2.156421   3.402566   3.817123   3.257281
     8  H    2.161475   1.085500   2.170010   3.401650   3.813989
     9  H    3.813991   3.401651   2.170011   1.085500   2.161475
    10  H    3.257281   3.817122   3.402565   2.156421   1.088301
    11  C    3.729885   2.469562   1.427782   2.469547   3.729876
    12  C    4.897785   3.577139   2.639979   3.577315   4.897907
    13  Br   6.686018   5.331129   4.465651   5.332875   6.687341
                    6          7          8          9         10
     6  N    0.000000
     7  H    2.064424   0.000000
     8  H    3.386407   2.494336   0.000000
     9  H    3.386407   4.901498   4.318700   0.000000
    10  H    2.064424   4.122298   4.901497   2.494334   0.000000
    11  C    4.251247   4.620255   2.713123   2.713102   4.620241
    12  C    5.463444   5.730615   3.579330   3.579649   5.730803
    13  Br   7.289115   7.462082   5.152961   5.156205   7.464218
                   11         12         13
    11  C    0.000000
    12  C    1.212197   0.000000
    13  Br   3.037870   1.825674   0.000000
 Stoichiometry    C7H4BrN
 Framework group  C1[X(C7H4BrN)]
 Deg. of freedom    33
 Full point group                 C1      NOp   1
 Largest Abelian subgroup         C1      NOp   1
 Largest concise Abelian subgroup C1      NOp   1
                         Standard orientation:                         
 ---------------------------------------------------------------------
 Center     Atomic      Atomic             Coordinates (Angstroms)
 Number     Number       Type             X           Y           Z
 ---------------------------------------------------------------------
      1          6           0        3.495481   -1.143884   -0.000144
      2          6           0        2.101681   -1.203017   -0.000170
      3          6           0        1.373629    0.000689   -0.000185
      4          6           0        2.103201    1.203473   -0.000171
      5          6           0        3.496925    1.142578   -0.000145
      6          7           0        4.197093   -0.001095   -0.000129
      7          1           0        4.079561   -2.062171   -0.000133
      8          1           0        1.587097   -2.158796   -0.000182
      9          1           0        1.589827    2.159903   -0.000182
     10          1           0        4.082164    2.060127   -0.000133
     11          6           0       -0.054153    0.001605   -0.000237
     12          6           0       -1.266350    0.002094   -0.000185
     13         35           0       -3.092022   -0.000361    0.000256
 ---------------------------------------------------------------------
 Rotational constants (GHZ):           6.0109454           0.3431236           0.3245947
 Basis read from rwf:  (5D, 7F)
 Pseudo-potential data read from rwf file.
 There are   171 symmetry adapted cartesian basis functions of A   symmetry.
 There are   163 symmetry adapted basis functions of A   symmetry.
   163 basis functions,   291 primitive gaussians,   171 cartesian basis functions
    30 alpha electrons       30 beta electrons
       nuclear repulsion energy       337.6800950966 Hartrees.
 NAtoms=   13 NActive=   13 NUniq=   13 SFac= 1.00D+00 NAtFMM=   60 NAOKFM=F Big=F
 Integral buffers will be    131072 words long.
 Raffenetti 2 integral format.
 Two-electron integral symmetry is turned on.
 Nuclear repulsion after empirical dispersion term =      337.6725340714 Hartrees.
 One-electron integrals computed using PRISM.
   1 Symmetry operations used in ECPInt.
 ECPInt:  NShTT=    1431 NPrTT=    7543 LenC2=    1415 LenP2D=    5477.
 LDataN:  DoStor=T MaxTD1= 6 Len=  172
 NBasis=   163 RedAO= T EigKep=  2.18D-06  NBF=   163
 NBsUse=   162 1.00D-06 EigRej=  8.73D-08 NBFU=   162
 Initial guess from the checkpoint file:  "p-py-vol.chk"
 B after Tr=     0.000000    0.000000    0.000000
         Rot=    1.000000    0.000000   -0.000030    0.000049 Ang=   0.01 deg.
 Requested convergence on RMS density matrix=1.00D-08 within1000 cycles.
 Requested convergence on MAX density matrix=1.00D-06.
 Requested convergence on             energy=1.00D-06.
 No special actions if energy rises.
 SCF Done:  E(RB3LYP) =  -337.204599689     A.U. after   11 cycles
            NFock= 11  Conv=0.73D-09     -V/T= 2.0340
   1 Symmetry operations used in ECPInt.
 ECPInt:  NShTT=    1431 NPrTT=    7543 LenC2=    1415 LenP2D=    5477.
 LDataN:  DoStor=T MaxTD1= 7 Len=  274
 Calling FoFJK, ICntrl=      2127 FMM=F ISym2X=0 I1Cent= 0 IOpClX= 0 NMat=1 NMatS=1 NMatT=0.
 ***** Axes restored to original set *****
 -------------------------------------------------------------------
 Center     Atomic                   Forces (Hartrees/Bohr)
 Number     Number              X              Y              Z
 -------------------------------------------------------------------
      1        6          -0.000002993    0.000002072   -0.000000979
      2        6           0.000024079    0.000001005    0.000000042
      3        6          -0.000034487    0.000038491    0.000007403
      4        6           0.000010160   -0.000005273    0.000000093
      5        6          -0.000002867    0.000001582   -0.000001198
      6        7          -0.000000225   -0.000000207    0.000000650
      7        1          -0.000000498    0.000000226   -0.000000010
      8        1          -0.000001983   -0.000000427    0.000000251
      9        1          -0.000001678   -0.000000547    0.000000263
     10        1          -0.000001579   -0.000000530    0.000000068
     11        6           0.000016122   -0.000026942   -0.000007499
     12        6          -0.000005414   -0.000035961   -0.000002303
     13       35           0.000001362    0.000026511    0.000003220
 -------------------------------------------------------------------
 Cartesian Forces:  Max     0.000038491 RMS     0.000012969

 GradGradGradGradGradGradGradGradGradGradGradGradGradGradGradGradGradGrad
 Berny optimization.
 Using GEDIIS/GDIIS optimizer.
 FormGI is forming the generalized inverse of G from B-inverse, IUseBI=4.
 Internal  Forces:  Max     0.000091440 RMS     0.000016458
 Search for a local minimum.
 Step number   2 out of a maximum of   63
 All quantities printed in internal units (Hartrees-Bohrs-Radians)
 Mixed Optimization -- En-DIIS/RFO-DIIS
 Swapping is turned off.
 Update second derivatives using D2CorX and points    1    2
 DE=  7.38D-08 DEPred=-3.63D-08 R=-2.03D+00
 Trust test=-2.03D+00 RLast= 2.23D-03 DXMaxT set to 1.50D-01
 ITU= -1  0
     Eigenvalues ---    0.00802   0.01997   0.02038   0.02072   0.02087
     Eigenvalues ---    0.02162   0.02241   0.02263   0.02395   0.02601
     Eigenvalues ---    0.04528   0.08666   0.15037   0.16000   0.16000
     Eigenvalues ---    0.16001   0.21353   0.22007   0.22491   0.23183
     Eigenvalues ---    0.25213   0.31805   0.35008   0.35118   0.35336
     Eigenvalues ---    0.35888   0.41800   0.42671   0.45091   0.46445
     Eigenvalues ---    0.54827   0.56128   0.98883
 En-DIIS/RFO-DIIS/Sim-DIIS IScMMF=       -3 using points:     2    1
 RFO step:  Lambda=-1.90720263D-07.
 DidBck=T Rises=F RFO-DIIS coefs:    0.22124    0.77876
 Iteration  1 RMS(Cart)=  0.00083409 RMS(Int)=  0.00000081
 Iteration  2 RMS(Cart)=  0.00000081 RMS(Int)=  0.00000000
 Variable       Old X    -DE/DX   Delta X   Delta X   Delta X     New X
                                 (Linear)    (Quad)   (Total)
    R1        2.63627   0.00000  -0.00001   0.00001   0.00001   2.63628
    R2        2.53408   0.00000   0.00000   0.00000   0.00000   2.53408
    R3        2.05659   0.00000   0.00002  -0.00003  -0.00001   2.05658
    R4        2.65839  -0.00001   0.00002  -0.00004  -0.00002   2.65837
    R5        2.05130   0.00000   0.00002  -0.00004  -0.00001   2.05128
    R6        2.65839  -0.00001   0.00002  -0.00003  -0.00001   2.65837
    R7        2.69812   0.00001  -0.00018   0.00029   0.00011   2.69823
    R8        2.63627   0.00000  -0.00001   0.00001   0.00001   2.63628
    R9        2.05130   0.00000   0.00003  -0.00004  -0.00002   2.05128
   R10        2.53408   0.00000   0.00000   0.00000   0.00000   2.53408
   R11        2.05659   0.00000   0.00002  -0.00003  -0.00001   2.05658
   R12        2.29072   0.00000  -0.00001   0.00001   0.00000   2.29072
   R13        3.45002   0.00000   0.00003  -0.00004  -0.00001   3.45001
    A1        2.16381   0.00000   0.00000   0.00000   0.00000   2.16381
    A2        2.09490   0.00000  -0.00002   0.00004   0.00002   2.09492
    A3        2.02447   0.00000   0.00002  -0.00004  -0.00002   2.02446
    A4        2.07237   0.00000   0.00004  -0.00006  -0.00003   2.07234
    A5        2.10708   0.00000   0.00002  -0.00004  -0.00002   2.10707
    A6        2.10373   0.00000  -0.00006   0.00010   0.00004   2.10378
    A7        2.05238   0.00001  -0.00006   0.00011   0.00005   2.05243
    A8        2.11541  -0.00002   0.00003  -0.00006  -0.00003   2.11538
    A9        2.11539   0.00001   0.00003  -0.00004  -0.00001   2.11538
   A10        2.07237   0.00000   0.00004  -0.00006  -0.00003   2.07234
   A11        2.10374   0.00000  -0.00006   0.00010   0.00004   2.10378
   A12        2.10708   0.00000   0.00002  -0.00004  -0.00002   2.10707
   A13        2.16381   0.00000   0.00000   0.00000   0.00000   2.16381
   A14        2.09490   0.00000  -0.00002   0.00004   0.00002   2.09492
   A15        2.02447   0.00000   0.00002  -0.00004  -0.00002   2.02446
   A16        2.04163   0.00000  -0.00001   0.00002   0.00001   2.04164
   A17        3.14183  -0.00007  -0.00019  -0.00008  -0.00027   3.14156
   A18        3.14334  -0.00009  -0.00164  -0.00021  -0.00185   3.14149
   A19        3.14169  -0.00001  -0.00012   0.00013   0.00001   3.14170
   A20        3.14192  -0.00001  -0.00047   0.00055   0.00008   3.14200
    D1        0.00000   0.00000   0.00000   0.00000   0.00000   0.00000
    D2        3.14159   0.00000   0.00000   0.00000   0.00000   3.14159
    D3       -3.14159   0.00000   0.00000   0.00000   0.00000  -3.14159
    D4        0.00000   0.00000   0.00000   0.00000   0.00000   0.00000
    D5        0.00000   0.00000   0.00000   0.00000   0.00000   0.00000
    D6        3.14159   0.00000   0.00000   0.00000   0.00000   3.14159
    D7        0.00000   0.00000   0.00000   0.00000   0.00000   0.00000
    D8        3.14157   0.00000   0.00002  -0.00001   0.00000   3.14158
    D9       -3.14159   0.00000   0.00000   0.00000   0.00000  -3.14159
   D10       -0.00002   0.00000   0.00001  -0.00001   0.00000  -0.00001
   D11        0.00000   0.00000   0.00000   0.00000   0.00000   0.00000
   D12        3.14159   0.00000   0.00000   0.00000   0.00000   3.14159
   D13       -3.14157   0.00000  -0.00002   0.00001   0.00000  -3.14158
   D14        0.00002   0.00000  -0.00001   0.00001   0.00000   0.00002
   D15        0.00000   0.00000   0.00000   0.00000   0.00000   0.00000
   D16       -3.14159   0.00000   0.00000   0.00000   0.00000  -3.14159
   D17       -3.14159   0.00000   0.00000   0.00000   0.00000   3.14159
   D18        0.00000   0.00000   0.00000   0.00000   0.00000   0.00000
   D19        0.00000   0.00000   0.00000   0.00000   0.00000   0.00000
   D20       -3.14159   0.00000   0.00000   0.00000   0.00000   3.14159
         Item               Value     Threshold  Converged?
 Maximum Force            0.000091     0.000450     YES
 RMS     Force            0.000016     0.000300     YES
 Maximum Displacement     0.004802     0.001800     NO 
 RMS     Displacement     0.000834     0.001200     YES
 Predicted change in Energy=-9.536033D-08
 GradGradGradGradGradGradGradGradGradGradGradGradGradGradGradGradGradGrad

                          Input orientation:                          
 ---------------------------------------------------------------------
 Center     Atomic      Atomic             Coordinates (Angstroms)
 Number     Number       Type             X           Y           Z
 ---------------------------------------------------------------------
      1          6           0       -3.496279   -1.143125   -0.000016
      2          6           0       -2.102519   -1.203270    0.000027
      3          6           0       -1.373632   -0.000081    0.000050
      4          6           0       -2.102305    1.203239    0.000028
      5          6           0       -3.496076    1.143344   -0.000015
      6          7           0       -4.197062    0.000172   -0.000039
      7          1           0       -4.081036   -2.060973   -0.000034
      8          1           0       -1.588648   -2.159424    0.000045
      9          1           0       -1.588263    2.159300    0.000045
     10          1           0       -4.080669    2.061297   -0.000034
     11          6           0        0.054211   -0.000212    0.000115
     12          6           0        1.266410   -0.000281    0.000062
     13         35           0        3.092076   -0.000199   -0.000466
 ---------------------------------------------------------------------
                    Distance matrix (angstroms):
                    1          2          3          4          5
     1  C    0.000000
     2  C    1.395057   0.000000
     3  C    2.410847   1.406748   0.000000
     4  C    2.729210   2.406509   1.406750   0.000000
     5  C    2.286470   2.729212   2.410849   1.395057   0.000000
     6  N    1.340979   2.415654   2.823430   2.415652   1.340979
     7  H    1.088295   2.156428   3.402545   3.817127   3.257273
     8  H    2.161463   1.085492   2.170021   3.401668   3.813995
     9  H    3.813992   3.401667   2.170021   1.085491   2.161461
    10  H    3.257274   3.817129   3.402548   2.156429   1.088295
    11  C    3.729910   2.469582   1.427843   2.469586   3.729914
    12  C    4.897888   3.577271   2.640042   3.577248   4.897872
    13  Br   6.686756   5.332092   4.465708   5.331966   6.686662
                    6          7          8          9         10
     6  N    0.000000
     7  H    2.064409   0.000000
     8  H    3.386396   2.494332   0.000000
     9  H    3.386394   4.901492   4.318724   0.000000
    10  H    2.064408   4.122270   4.901495   2.494332   0.000000
    11  C    4.251273   4.620282   2.713149   2.713156   4.620287
    12  C    5.463472   5.730762   3.579560   3.579518   5.730738
    13  Br   7.289138   7.463265   5.154748   5.154514   7.463112
                   11         12         13
    11  C    0.000000
    12  C    1.212199   0.000000
    13  Br   3.037865   1.825666   0.000000
 Stoichiometry    C7H4BrN
 Framework group  C1[X(C7H4BrN)]
 Deg. of freedom    33
 Full point group                 C1      NOp   1
 Largest Abelian subgroup         C1      NOp   1
 Largest concise Abelian subgroup C1      NOp   1
                         Standard orientation:                         
 ---------------------------------------------------------------------
 Center     Atomic      Atomic             Coordinates (Angstroms)
 Number     Number       Type             X           Y           Z
 ---------------------------------------------------------------------
      1          6           0        3.496269   -1.143187   -0.000155
      2          6           0        2.102507   -1.203272   -0.000199
      3          6           0        1.373671   -0.000051   -0.000221
      4          6           0        2.102397    1.203237   -0.000199
      5          6           0        3.496165    1.143282   -0.000156
      6          7           0        4.197101    0.000080   -0.000132
      7          1           0        4.080986   -2.061061   -0.000137
      8          1           0        1.588593   -2.159403   -0.000216
      9          1           0        1.588397    2.159320   -0.000216
     10          1           0        4.080798    2.061209   -0.000137
     11          6           0       -0.054172   -0.000121   -0.000286
     12          6           0       -1.266370   -0.000136   -0.000233
     13         35           0       -3.092037    0.000025    0.000295
 ---------------------------------------------------------------------
 Rotational constants (GHZ):           6.0109008           0.3431203           0.3245916
 Basis read from rwf:  (5D, 7F)
 Pseudo-potential data read from rwf file.
 There are   171 symmetry adapted cartesian basis functions of A   symmetry.
 There are   163 symmetry adapted basis functions of A   symmetry.
   163 basis functions,   291 primitive gaussians,   171 cartesian basis functions
    30 alpha electrons       30 beta electrons
       nuclear repulsion energy       337.6789618056 Hartrees.
 NAtoms=   13 NActive=   13 NUniq=   13 SFac= 1.00D+00 NAtFMM=   60 NAOKFM=F Big=F
 Integral buffers will be    131072 words long.
 Raffenetti 2 integral format.
 Two-electron integral symmetry is turned on.
 Nuclear repulsion after empirical dispersion term =      337.6714008505 Hartrees.
 One-electron integrals computed using PRISM.
   1 Symmetry operations used in ECPInt.
 ECPInt:  NShTT=    1431 NPrTT=    7543 LenC2=    1415 LenP2D=    5477.
 LDataN:  DoStor=T MaxTD1= 6 Len=  172
 NBasis=   163 RedAO= T EigKep=  2.18D-06  NBF=   163
 NBsUse=   162 1.00D-06 EigRej=  8.73D-08 NBFU=   162
 Initial guess from the checkpoint file:  "p-py-vol.chk"
 B after Tr=     0.000000    0.000000    0.000000
         Rot=    1.000000    0.000000   -0.000004   -0.000045 Ang=   0.01 deg.
 Requested convergence on RMS density matrix=1.00D-08 within1000 cycles.
 Requested convergence on MAX density matrix=1.00D-06.
 Requested convergence on             energy=1.00D-06.
 No special actions if energy rises.
 SCF Done:  E(RB3LYP) =  -337.204599773     A.U. after   10 cycles
            NFock= 10  Conv=0.83D-08     -V/T= 2.0340
   1 Symmetry operations used in ECPInt.
 ECPInt:  NShTT=    1431 NPrTT=    7543 LenC2=    1415 LenP2D=    5477.
 LDataN:  DoStor=T MaxTD1= 7 Len=  274
 Calling FoFJK, ICntrl=      2127 FMM=F ISym2X=0 I1Cent= 0 IOpClX= 0 NMat=1 NMatS=1 NMatT=0.
 ***** Axes restored to original set *****
 -------------------------------------------------------------------
 Center     Atomic                   Forces (Hartrees/Bohr)
 Number     Number              X              Y              Z
 -------------------------------------------------------------------
      1        6          -0.000001916    0.000005102   -0.000000921
      2        6           0.000002885    0.000007563    0.000000009
      3        6           0.000020993   -0.000002617    0.000008267
      4        6           0.000004182   -0.000007859    0.000000077
      5        6          -0.000001208   -0.000005349   -0.000001282
      6        7          -0.000000078   -0.000000617    0.000000627
      7        1          -0.000002025   -0.000004546   -0.000000017
      8        1           0.000003433   -0.000002351    0.000000274
      9        1           0.000003919    0.000002963    0.000000306
     10        1          -0.000001762    0.000004531    0.000000110
     11        6          -0.000018695    0.000003023   -0.000008356
     12        6          -0.000014817    0.000001888   -0.000002975
     13       35           0.000005089   -0.000001731    0.000003881
 -------------------------------------------------------------------
 Cartesian Forces:  Max     0.000020993 RMS     0.000006239

 GradGradGradGradGradGradGradGradGradGradGradGradGradGradGradGradGradGrad
 Berny optimization.
 Using GEDIIS/GDIIS optimizer.
 FormGI is forming the generalized inverse of G from B-inverse, IUseBI=4.
 Internal  Forces:  Max     0.000028422 RMS     0.000005236
 Search for a local minimum.
 Step number   3 out of a maximum of   63
 All quantities printed in internal units (Hartrees-Bohrs-Radians)
 Mixed Optimization -- En-DIIS/RFO-DIIS
 Swapping is turned off.
 Update second derivatives using D2CorX and points    2    3
 DE= -8.42D-08 DEPred=-9.54D-08 R= 8.83D-01
 Trust test= 8.83D-01 RLast= 1.88D-03 DXMaxT set to 1.50D-01
 ITU=  0 -1  0
     Eigenvalues ---    0.00812   0.01999   0.02038   0.02072   0.02087
     Eigenvalues ---    0.02162   0.02241   0.02263   0.02395   0.02614
     Eigenvalues ---    0.04553   0.08983   0.15119   0.16000   0.16000
     Eigenvalues ---    0.16001   0.21463   0.22009   0.22476   0.23189
     Eigenvalues ---    0.25266   0.32230   0.35008   0.35118   0.35336
     Eigenvalues ---    0.35926   0.41801   0.42602   0.45092   0.46432
     Eigenvalues ---    0.54826   0.56129   0.98885
 En-DIIS/RFO-DIIS/Sim-DIIS IScMMF=       -3 using points:     3    2    1
 RFO step:  Lambda=-6.80074285D-09.
 DidBck=T Rises=F RFO-DIIS coefs:    0.34274    0.12667    0.53058
 Iteration  1 RMS(Cart)=  0.00013431 RMS(Int)=  0.00000002
 Iteration  2 RMS(Cart)=  0.00000004 RMS(Int)=  0.00000000
 Variable       Old X    -DE/DX   Delta X   Delta X   Delta X     New X
                                 (Linear)    (Quad)   (Total)
    R1        2.63628   0.00000  -0.00001   0.00001   0.00000   2.63628
    R2        2.53408   0.00000   0.00000   0.00000   0.00000   2.53408
    R3        2.05658   0.00000   0.00002  -0.00002   0.00001   2.05659
    R4        2.65837  -0.00001   0.00002  -0.00003   0.00000   2.65837
    R5        2.05128   0.00000   0.00003  -0.00002   0.00001   2.05129
    R6        2.65837  -0.00001   0.00002  -0.00003   0.00000   2.65837
    R7        2.69823  -0.00003  -0.00019   0.00015  -0.00005   2.69818
    R8        2.63628   0.00000  -0.00001   0.00001   0.00000   2.63628
    R9        2.05128   0.00000   0.00003  -0.00002   0.00001   2.05129
   R10        2.53408   0.00000   0.00000   0.00000   0.00000   2.53408
   R11        2.05658   0.00000   0.00002  -0.00001   0.00001   2.05659
   R12        2.29072  -0.00001  -0.00001   0.00000   0.00000   2.29072
   R13        3.45001   0.00001   0.00003  -0.00001   0.00001   3.45002
    A1        2.16381   0.00000   0.00000   0.00000   0.00000   2.16381
    A2        2.09492   0.00000  -0.00003   0.00002   0.00000   2.09492
    A3        2.02446   0.00000   0.00003  -0.00002   0.00001   2.02446
    A4        2.07234   0.00000   0.00004  -0.00004   0.00001   2.07235
    A5        2.10707   0.00000   0.00003  -0.00002   0.00001   2.10708
    A6        2.10378   0.00000  -0.00007   0.00006  -0.00001   2.10376
    A7        2.05243   0.00000  -0.00007   0.00007  -0.00001   2.05242
    A8        2.11538   0.00000   0.00004  -0.00004   0.00000   2.11538
    A9        2.11538   0.00000   0.00003  -0.00003   0.00000   2.11538
   A10        2.07234   0.00000   0.00004  -0.00004   0.00000   2.07235
   A11        2.10378   0.00000  -0.00007   0.00006  -0.00001   2.10376
   A12        2.10707   0.00000   0.00003  -0.00002   0.00001   2.10708
   A13        2.16381   0.00000   0.00000   0.00000   0.00000   2.16381
   A14        2.09492   0.00000  -0.00003   0.00002  -0.00001   2.09492
   A15        2.02446   0.00000   0.00003  -0.00002   0.00001   2.02446
   A16        2.04164   0.00000  -0.00002   0.00001   0.00000   2.04164
   A17        3.14156   0.00001   0.00005  -0.00002   0.00003   3.14159
   A18        3.14149   0.00001   0.00010   0.00002   0.00012   3.14161
   A19        3.14170  -0.00001  -0.00009  -0.00003  -0.00012   3.14159
   A20        3.14200  -0.00001  -0.00037  -0.00006  -0.00043   3.14157
    D1        0.00000   0.00000   0.00000   0.00000   0.00000   0.00000
    D2        3.14159   0.00000   0.00000   0.00000   0.00000  -3.14159
    D3       -3.14159   0.00000   0.00000   0.00000   0.00000   3.14159
    D4        0.00000   0.00000   0.00000   0.00000   0.00000   0.00000
    D5        0.00000   0.00000   0.00000   0.00000   0.00000   0.00000
    D6        3.14159   0.00000   0.00000   0.00000   0.00000  -3.14159
    D7        0.00000   0.00000   0.00000   0.00000   0.00000   0.00000
    D8        3.14158   0.00000   0.00001   0.00001   0.00002  -3.14159
    D9       -3.14159   0.00000   0.00000   0.00000   0.00000   3.14159
   D10       -0.00001   0.00000   0.00001   0.00001   0.00002   0.00000
   D11        0.00000   0.00000   0.00000   0.00000   0.00000   0.00000
   D12        3.14159   0.00000   0.00000   0.00000   0.00000  -3.14159
   D13       -3.14158   0.00000  -0.00001  -0.00001  -0.00002   3.14159
   D14        0.00002   0.00000  -0.00001  -0.00001  -0.00002   0.00000
   D15        0.00000   0.00000   0.00000   0.00000   0.00000   0.00000
   D16       -3.14159   0.00000   0.00000   0.00000   0.00000  -3.14159
   D17        3.14159   0.00000   0.00000   0.00000   0.00000   3.14159
   D18        0.00000   0.00000   0.00000   0.00000   0.00000   0.00000
   D19        0.00000   0.00000   0.00000   0.00000   0.00000   0.00000
   D20        3.14159   0.00000   0.00000   0.00000   0.00000   3.14159
         Item               Value     Threshold  Converged?
 Maximum Force            0.000028     0.000450     YES
 RMS     Force            0.000005     0.000300     YES
 Maximum Displacement     0.000624     0.001800     YES
 RMS     Displacement     0.000134     0.001200     YES
 Predicted change in Energy=-5.631173D-09
 Optimization completed.
    -- Stationary point found.
                           ----------------------------
                           !   Optimized Parameters   !
                           ! (Angstroms and Degrees)  !
 --------------------------                            --------------------------
 ! Name  Definition              Value          Derivative Info.                !
 --------------------------------------------------------------------------------
 ! R1    R(1,2)                  1.3951         -DE/DX =    0.0                 !
 ! R2    R(1,6)                  1.341          -DE/DX =    0.0                 !
 ! R3    R(1,7)                  1.0883         -DE/DX =    0.0                 !
 ! R4    R(2,3)                  1.4067         -DE/DX =    0.0                 !
 ! R5    R(2,8)                  1.0855         -DE/DX =    0.0                 !
 ! R6    R(3,4)                  1.4067         -DE/DX =    0.0                 !
 ! R7    R(3,11)                 1.4278         -DE/DX =    0.0                 !
 ! R8    R(4,5)                  1.3951         -DE/DX =    0.0                 !
 ! R9    R(4,9)                  1.0855         -DE/DX =    0.0                 !
 ! R10   R(5,6)                  1.341          -DE/DX =    0.0                 !
 ! R11   R(5,10)                 1.0883         -DE/DX =    0.0                 !
 ! R12   R(11,12)                1.2122         -DE/DX =    0.0                 !
 ! R13   R(12,13)                1.8257         -DE/DX =    0.0                 !
 ! A1    A(2,1,6)              123.9771         -DE/DX =    0.0                 !
 ! A2    A(2,1,7)              120.03           -DE/DX =    0.0                 !
 ! A3    A(6,1,7)              115.9928         -DE/DX =    0.0                 !
 ! A4    A(1,2,3)              118.7364         -DE/DX =    0.0                 !
 ! A5    A(1,2,8)              120.7262         -DE/DX =    0.0                 !
 ! A6    A(3,2,8)              120.5375         -DE/DX =    0.0                 !
 ! A7    A(2,3,4)              117.5956         -DE/DX =    0.0                 !
 ! A8    A(2,3,11)             121.2021         -DE/DX =    0.0                 !
 ! A9    A(4,3,11)             121.2024         -DE/DX =    0.0                 !
 ! A10   A(3,4,5)              118.7364         -DE/DX =    0.0                 !
 ! A11   A(3,4,9)              120.5375         -DE/DX =    0.0                 !
 ! A12   A(5,4,9)              120.7261         -DE/DX =    0.0                 !
 ! A13   A(4,5,6)              123.977          -DE/DX =    0.0                 !
 ! A14   A(4,5,10)             120.0301         -DE/DX =    0.0                 !
 ! A15   A(6,5,10)             115.9928         -DE/DX =    0.0                 !
 ! A16   A(1,6,5)              116.9775         -DE/DX =    0.0                 !
 ! A17   L(3,11,12,9,-1)       179.998          -DE/DX =    0.0                 !
 ! A18   L(11,12,13,9,-1)      179.9942         -DE/DX =    0.0                 !
 ! A19   L(3,11,12,9,-2)       180.0064         -DE/DX =    0.0                 !
 ! A20   L(11,12,13,9,-2)      180.0233         -DE/DX =    0.0                 !
 ! D1    D(6,1,2,3)              0.0            -DE/DX =    0.0                 !
 ! D2    D(6,1,2,8)           -180.0001         -DE/DX =    0.0                 !
 ! D3    D(7,1,2,3)            180.0            -DE/DX =    0.0                 !
 ! D4    D(7,1,2,8)             -0.0001         -DE/DX =    0.0                 !
 ! D5    D(2,1,6,5)             -0.0001         -DE/DX =    0.0                 !
 ! D6    D(7,1,6,5)           -180.0001         -DE/DX =    0.0                 !
 ! D7    D(1,2,3,4)              0.0            -DE/DX =    0.0                 !
 ! D8    D(1,2,3,11)          -180.0009         -DE/DX =    0.0                 !
 ! D9    D(8,2,3,4)            180.0001         -DE/DX =    0.0                 !
 ! D10   D(8,2,3,11)            -0.0008         -DE/DX =    0.0                 !
 ! D11   D(2,3,4,5)              0.0001         -DE/DX =    0.0                 !
 ! D12   D(2,3,4,9)           -180.0001         -DE/DX =    0.0                 !
 ! D13   D(11,3,4,5)           180.001          -DE/DX =    0.0                 !
 ! D14   D(11,3,4,9)             0.0009         -DE/DX =    0.0                 !
 ! D15   D(3,4,5,6)             -0.0002         -DE/DX =    0.0                 !
 ! D16   D(3,4,5,10)          -179.9999         -DE/DX =    0.0                 !
 ! D17   D(9,4,5,6)            180.0            -DE/DX =    0.0                 !
 ! D18   D(9,4,5,10)             0.0002         -DE/DX =    0.0                 !
 ! D19   D(4,5,6,1)              0.0002         -DE/DX =    0.0                 !
 ! D20   D(10,5,6,1)           180.0            -DE/DX =    0.0                 !
 --------------------------------------------------------------------------------
 GradGradGradGradGradGradGradGradGradGradGradGradGradGradGradGradGradGrad

                          Input orientation:                          
 ---------------------------------------------------------------------
 Center     Atomic      Atomic             Coordinates (Angstroms)
 Number     Number       Type             X           Y           Z
 ---------------------------------------------------------------------
      1          6           0       -3.496279   -1.143125   -0.000016
      2          6           0       -2.102519   -1.203270    0.000027
      3          6           0       -1.373632   -0.000081    0.000050
      4          6           0       -2.102305    1.203239    0.000028
      5          6           0       -3.496076    1.143344   -0.000015
      6          7           0       -4.197062    0.000172   -0.000039
      7          1           0       -4.081036   -2.060973   -0.000034
      8          1           0       -1.588648   -2.159424    0.000045
      9          1           0       -1.588263    2.159300    0.000045
     10          1           0       -4.080669    2.061297   -0.000034
     11          6           0        0.054211   -0.000212    0.000115
     12          6           0        1.266410   -0.000281    0.000062
     13         35           0        3.092076   -0.000199   -0.000466
 ---------------------------------------------------------------------
                    Distance matrix (angstroms):
                    1          2          3          4          5
     1  C    0.000000
     2  C    1.395057   0.000000
     3  C    2.410847   1.406748   0.000000
     4  C    2.729210   2.406509   1.406750   0.000000
     5  C    2.286470   2.729212   2.410849   1.395057   0.000000
     6  N    1.340979   2.415654   2.823430   2.415652   1.340979
     7  H    1.088295   2.156428   3.402545   3.817127   3.257273
     8  H    2.161463   1.085492   2.170021   3.401668   3.813995
     9  H    3.813992   3.401667   2.170021   1.085491   2.161461
    10  H    3.257274   3.817129   3.402548   2.156429   1.088295
    11  C    3.729910   2.469582   1.427843   2.469586   3.729914
    12  C    4.897888   3.577271   2.640042   3.577248   4.897872
    13  Br   6.686756   5.332092   4.465708   5.331966   6.686662
                    6          7          8          9         10
     6  N    0.000000
     7  H    2.064409   0.000000
     8  H    3.386396   2.494332   0.000000
     9  H    3.386394   4.901492   4.318724   0.000000
    10  H    2.064408   4.122270   4.901495   2.494332   0.000000
    11  C    4.251273   4.620282   2.713149   2.713156   4.620287
    12  C    5.463472   5.730762   3.579560   3.579518   5.730738
    13  Br   7.289138   7.463265   5.154748   5.154514   7.463112
                   11         12         13
    11  C    0.000000
    12  C    1.212199   0.000000
    13  Br   3.037865   1.825666   0.000000
 Stoichiometry    C7H4BrN
 Framework group  C1[X(C7H4BrN)]
 Deg. of freedom    33
 Full point group                 C1      NOp   1
 Largest Abelian subgroup         C1      NOp   1
 Largest concise Abelian subgroup C1      NOp   1
                         Standard orientation:                         
 ---------------------------------------------------------------------
 Center     Atomic      Atomic             Coordinates (Angstroms)
 Number     Number       Type             X           Y           Z
 ---------------------------------------------------------------------
      1          6           0        3.496269   -1.143187   -0.000155
      2          6           0        2.102507   -1.203272   -0.000199
      3          6           0        1.373671   -0.000051   -0.000221
      4          6           0        2.102397    1.203237   -0.000199
      5          6           0        3.496165    1.143282   -0.000156
      6          7           0        4.197101    0.000080   -0.000132
      7          1           0        4.080986   -2.061061   -0.000137
      8          1           0        1.588593   -2.159403   -0.000216
      9          1           0        1.588397    2.159320   -0.000216
     10          1           0        4.080798    2.061209   -0.000137
     11          6           0       -0.054172   -0.000121   -0.000286
     12          6           0       -1.266370   -0.000136   -0.000233
     13         35           0       -3.092037    0.000025    0.000295
 ---------------------------------------------------------------------
 Rotational constants (GHZ):           6.0109008           0.3431203           0.3245916

 **********************************************************************

            Population analysis using the SCF Density.

 **********************************************************************

 Orbital symmetries:
       Occupied  (A) (A) (A) (A) (A) (A) (A) (A) (A) (A) (A) (A)
                 (A) (A) (A) (A) (A) (A) (A) (A) (A) (A) (A) (A)
                 (A) (A) (A) (A) (A) (A)
       Virtual   (A) (A) (A) (A) (A) (A) (A) (A) (A) (A) (A) (A)
                 (A) (A) (A) (A) (A) (A) (A) (A) (A) (A) (A) (A)
                 (A) (A) (A) (A) (A) (A) (A) (A) (A) (A) (A) (A)
                 (A) (A) (A) (A) (A) (A) (A) (A) (A) (A) (A) (A)
                 (A) (A) (A) (A) (A) (A) (A) (A) (A) (A) (A) (A)
                 (A) (A) (A) (A) (A) (A) (A) (A) (A) (A) (A) (A)
                 (A) (A) (A) (A) (A) (A) (A) (A) (A) (A) (A) (A)
                 (A) (A) (A) (A) (A) (A) (A) (A) (A) (A) (A) (A)
                 (A) (A) (A) (A) (A) (A) (A) (A) (A) (A) (A) (A)
                 (A) (A) (A) (A) (A) (A) (A) (A) (A) (A) (A) (A)
                 (A) (A) (A) (A) (A) (A) (A) (A) (A) (A) (A) (A)
 The electronic state is 1-A.
 Alpha  occ. eigenvalues --  -14.34644 -10.25009 -10.24696 -10.23481 -10.23479
 Alpha  occ. eigenvalues --  -10.21840 -10.21458 -10.21458  -0.95685  -0.88493
 Alpha  occ. eigenvalues --   -0.84440  -0.77845  -0.75878  -0.66117  -0.64849
 Alpha  occ. eigenvalues --   -0.56776  -0.50577  -0.50357  -0.48960  -0.44729
 Alpha  occ. eigenvalues --   -0.44538  -0.41934  -0.38885  -0.38024  -0.37228
 Alpha  occ. eigenvalues --   -0.33374  -0.28258  -0.28013  -0.27288  -0.26205
 Alpha virt. eigenvalues --   -0.06701  -0.04005  -0.03258   0.00052   0.01956
 Alpha virt. eigenvalues --    0.02222   0.02400   0.03547   0.04285   0.04671
 Alpha virt. eigenvalues --    0.04848   0.05349   0.06074   0.06418   0.06677
 Alpha virt. eigenvalues --    0.08594   0.08795   0.09015   0.10091   0.11573
 Alpha virt. eigenvalues --    0.12389   0.13541   0.13886   0.14704   0.15004
 Alpha virt. eigenvalues --    0.16018   0.17129   0.17496   0.18472   0.18493
 Alpha virt. eigenvalues --    0.21249   0.21266   0.22210   0.23246   0.23403
 Alpha virt. eigenvalues --    0.24730   0.25105   0.25602   0.26102   0.26818
 Alpha virt. eigenvalues --    0.28730   0.29080   0.30138   0.31112   0.32546
 Alpha virt. eigenvalues --    0.33574   0.36490   0.38606   0.39846   0.41121
 Alpha virt. eigenvalues --    0.47546   0.50303   0.54511   0.54843   0.65341
 Alpha virt. eigenvalues --    0.65915   0.69509   0.69517   0.70095   0.70145
 Alpha virt. eigenvalues --    0.71921   0.72823   0.72964   0.73287   0.75570
 Alpha virt. eigenvalues --    0.78416   0.82395   0.83209   0.85517   0.88736
 Alpha virt. eigenvalues --    0.90381   0.92475   0.93297   0.95617   0.96603
 Alpha virt. eigenvalues --    1.00964   1.04446   1.05000   1.05864   1.08907
 Alpha virt. eigenvalues --    1.13699   1.14499   1.18300   1.20786   1.22459
 Alpha virt. eigenvalues --    1.22781   1.23944   1.29306   1.37904   1.41475
 Alpha virt. eigenvalues --    1.41864   1.43835   1.47078   1.49357   1.50315
 Alpha virt. eigenvalues --    1.52220   1.53865   1.60917   1.70605   1.75069
 Alpha virt. eigenvalues --    1.76823   1.86264   1.86742   1.87370   1.88569
 Alpha virt. eigenvalues --    1.95305   1.98961   2.06684   2.11752   2.12029
 Alpha virt. eigenvalues --    2.12054   2.20991   2.21789   2.22170   2.27204
 Alpha virt. eigenvalues --    2.30017   2.35707   2.45793   2.46033   2.59863
 Alpha virt. eigenvalues --    2.62631   2.64950   2.66771   2.72548   2.74295
 Alpha virt. eigenvalues --    2.74370   2.81779   2.94679   3.13105   3.25709
 Alpha virt. eigenvalues --    3.48639   7.57102
          Condensed to atoms (all electrons):
               1          2          3          4          5          6
     1  C    6.548062  -1.778870   1.284110   0.283733   0.165074   0.206301
     2  C   -1.778870  11.937094  -1.689130  -3.950130   0.283336   0.081249
     3  C    1.284110  -1.689130  18.370493  -1.686204   1.283206  -0.022844
     4  C    0.283733  -3.950130  -1.686204  11.936425  -1.777952   0.081225
     5  C    0.165074   0.283336   1.283206  -1.777952   6.547381   0.206313
     6  N    0.206301   0.081249  -0.022844   0.081225   0.206313   6.811193
     7  H    0.492769  -0.205127   0.062915  -0.011192   0.024381  -0.090600
     8  H   -0.024380   0.286496  -0.031828   0.016445  -0.001244   0.004040
     9  H   -0.001243   0.016440  -0.031825   0.286503  -0.024375   0.004040
    10  H    0.024380  -0.011191   0.062912  -0.205118   0.492763  -0.090600
    11  C   -1.365401   1.317077 -18.284250   1.312063  -1.363931  -0.040705
    12  C    0.451127  -0.570950   7.052765  -0.569392   0.450684   0.006855
    13  Br   0.002197   0.011371   0.052665   0.011397   0.002197  -0.000006
               7          8          9         10         11         12
     1  C    0.492769  -0.024380  -0.001243   0.024380  -1.365401   0.451127
     2  C   -0.205127   0.286496   0.016440  -0.011191   1.317077  -0.570950
     3  C    0.062915  -0.031828  -0.031825   0.062912 -18.284250   7.052765
     4  C   -0.011192   0.016445   0.286503  -0.205118   1.312063  -0.569392
     5  C    0.024381  -0.001244  -0.024375   0.492763  -1.363931   0.450684
     6  N   -0.090600   0.004040   0.004040  -0.090600  -0.040705   0.006855
     7  H    0.549718  -0.001821   0.000021  -0.000038  -0.008657   0.003104
     8  H   -0.001821   0.510720  -0.000113   0.000021   0.054418  -0.011433
     9  H    0.000021  -0.000113   0.510721  -0.001821   0.054403  -0.011429
    10  H   -0.000038   0.000021  -0.001821   0.549718  -0.008657   0.003104
    11  C   -0.008657   0.054418   0.054403  -0.008657  36.695105 -12.463041
    12  C    0.003104  -0.011433  -0.011429   0.003104 -12.463041  12.215927
    13  Br  -0.000008   0.000028   0.000028  -0.000008  -0.162283   0.177241
              13
     1  C    0.002197
     2  C    0.011371
     3  C    0.052665
     4  C    0.011397
     5  C    0.002197
     6  N   -0.000006
     7  H   -0.000008
     8  H    0.000028
     9  H    0.000028
    10  H   -0.000008
    11  C   -0.162283
    12  C    0.177241
    13  Br   6.590245
 Mulliken charges:
               1
     1  C   -0.287861
     2  C    0.272335
     3  C   -0.422983
     4  C    0.272197
     5  C   -0.287832
     6  N   -0.156460
     7  H    0.184536
     8  H    0.198649
     9  H    0.198649
    10  H    0.184536
    11  C    0.263861
    12  C   -0.734562
    13  Br   0.314936
 Sum of Mulliken charges =   0.00000
 Mulliken charges with hydrogens summed into heavy atoms:
               1
     1  C   -0.103325
     2  C    0.470984
     3  C   -0.422983
     4  C    0.470846
     5  C   -0.103296
     6  N   -0.156460
    11  C    0.263861
    12  C   -0.734562
    13  Br   0.314936
 Electronic spatial extent (au):  <R**2>=           1923.8705
 Charge=              0.0000 electrons
 Dipole moment (field-independent basis, Debye):
    X=             -1.9820    Y=              0.0001    Z=              0.0003  Tot=              1.9820
 Quadrupole moment (field-independent basis, Debye-Ang):
   XX=            -67.6334   YY=            -54.3087   ZZ=            -63.3779
   XY=             -0.0011   XZ=             -0.0013   YZ=              0.0000
 Traceless Quadrupole moment (field-independent basis, Debye-Ang):
   XX=             -5.8601   YY=              7.4646   ZZ=             -1.6045
   XY=             -0.0011   XZ=             -0.0013   YZ=              0.0000
 Octapole moment (field-independent basis, Debye-Ang**2):
  XXX=           -239.5558  YYY=              0.0023  ZZZ=              0.0158  XYY=            -23.6432
  XXY=             -0.0018  XXZ=              0.0119  XZZ=            -49.6343  YZZ=              0.0006
  YYZ=              0.0037  XYZ=              0.0000
[...]
 ! Name  Definition              Value          Derivative Info.                !
 --------------------------------------------------------------------------------
 ! R1    R(1,2)                  1.3951         -DE/DX =    0.0                 !
 ! R2    R(1,6)                  1.341          -DE/DX =    0.0                 !
 ! R3    R(1,7)                  1.0883         -DE/DX =    0.0                 !
 ! R4    R(2,3)                  1.4067         -DE/DX =    0.0                 !
 ! R5    R(2,8)                  1.0855         -DE/DX =    0.0                 !
 ! R6    R(3,4)                  1.4067         -DE/DX =    0.0                 !
 ! R7    R(3,11)                 1.4278         -DE/DX =    0.0                 !
 ! R8    R(4,5)                  1.3951         -DE/DX =    0.0                 !
 ! R9    R(4,9)                  1.0855         -DE/DX =    0.0                 !
 ! R10   R(5,6)                  1.341          -DE/DX =    0.0                 !
 ! R11   R(5,10)                 1.0883         -DE/DX =    0.0                 !
 ! R12   R(11,12)                1.2122         -DE/DX =    0.0                 !
 ! R13   R(12,13)                1.8257         -DE/DX =    0.0                 !
 ! A1    A(2,1,6)              123.9771         -DE/DX =    0.0                 !
 ! A2    A(2,1,7)              120.03           -DE/DX =    0.0                 !
 ! A3    A(6,1,7)              115.9928         -DE/DX =    0.0                 !
 ! A4    A(1,2,3)              118.7364         -DE/DX =    0.0                 !
 ! A5    A(1,2,8)              120.7262         -DE/DX =    0.0                 !
 ! A6    A(3,2,8)              120.5375         -DE/DX =    0.0                 !
 ! A7    A(2,3,4)              117.5956         -DE/DX =    0.0                 !
 ! A8    A(2,3,11)             121.2021         -DE/DX =    0.0                 !
 ! A9    A(4,3,11)             121.2024         -DE/DX =    0.0                 !
 ! A10   A(3,4,5)              118.7364         -DE/DX =    0.0                 !
 ! A11   A(3,4,9)              120.5375         -DE/DX =    0.0                 !
 ! A12   A(5,4,9)              120.7261         -DE/DX =    0.0                 !
 ! A13   A(4,5,6)              123.977          -DE/DX =    0.0                 !
 ! A14   A(4,5,10)             120.0301         -DE/DX =    0.0                 !
 ! A15   A(6,5,10)             115.9928         -DE/DX =    0.0                 !
 ! A16   A(1,6,5)              116.9775         -DE/DX =    0.0                 !
 ! A17   L(3,11,12,9,-1)       179.998          -DE/DX =    0.0                 !
 ! A18   L(11,12,13,9,-1)      179.9942         -DE/DX =    0.0                 !
 ! A19   L(3,11,12,9,-2)       180.0064         -DE/DX =    0.0                 !
 ! A20   L(11,12,13,9,-2)      180.0233         -DE/DX =    0.0                 !
 ! D1    D(6,1,2,3)              0.0            -DE/DX =    0.0                 !
 ! D2    D(6,1,2,8)            179.9999         -DE/DX =    0.0                 !
 ! D3    D(7,1,2,3)            180.0            -DE/DX =    0.0                 !
 ! D4    D(7,1,2,8)             -0.0001         -DE/DX =    0.0                 !
 ! D5    D(2,1,6,5)             -0.0001         -DE/DX =    0.0                 !
 ! D6    D(7,1,6,5)            179.9999         -DE/DX =    0.0                 !
 ! D7    D(1,2,3,4)              0.0            -DE/DX =    0.0                 !
 ! D8    D(1,2,3,11)           179.9991         -DE/DX =    0.0                 !
 ! D9    D(8,2,3,4)            180.0001         -DE/DX =    0.0                 !
 ! D10   D(8,2,3,11)            -0.0008         -DE/DX =    0.0                 !
 ! D11   D(2,3,4,5)              0.0001         -DE/DX =    0.0                 !
 ! D12   D(2,3,4,9)            179.9999         -DE/DX =    0.0                 !
 ! D13   D(11,3,4,5)          -179.999          -DE/DX =    0.0                 !
 ! D14   D(11,3,4,9)             0.0009         -DE/DX =    0.0                 !
 ! D15   D(3,4,5,6)             -0.0002         -DE/DX =    0.0                 !
 ! D16   D(3,4,5,10)           180.0001         -DE/DX =    0.0                 !
 ! D17   D(9,4,5,6)            180.0            -DE/DX =    0.0                 !
 ! D18   D(9,4,5,10)             0.0002         -DE/DX =    0.0                 !
 ! D19   D(4,5,6,1)              0.0002         -DE/DX =    0.0                 !
 ! D20   D(10,5,6,1)           180.0            -DE/DX =    0.0                 !
 --------------------------------------------------------------------------------
 GradGradGradGradGradGradGradGradGradGradGradGradGradGradGradGradGradGrad


 ----------------------------------------------------------------------

 Electric dipole moment (input orientation):
 (Debye = 10**-18 statcoulomb cm , SI units = C m)
                  (au)            (Debye)         (10**-30 SI)
   Tot        0.779783D+00      0.198201D+01      0.661127D+01
   x          0.779783D+00      0.198201D+01      0.661127D+01
   y          0.000000D+00      0.000000D+00      0.000000D+00
   z         -0.127901D-03     -0.325091D-03     -0.108439D-02

 Dipole polarizability, Alpha (input orientation).
 (esu units = cm**3 , SI units = C**2 m**2 J**-1)
 Alpha(0;0):
               (au)            (10**-24 esu)      (10**-40 SI)
   iso        0.107333D+03      0.159051D+02      0.176969D+02
   aniso      0.117198D+03      0.173669D+02      0.193233D+02
   xx         0.182425D+03      0.270326D+02      0.300778D+02
   yx        -0.347473D-02     -0.514901D-03     -0.572905D-03
   yy         0.884776D+02      0.131110D+02      0.145880D+02
   zx        -0.710216D-02     -0.105243D-02     -0.117099D-02
   zy         0.000000D+00      0.000000D+00      0.000000D+00
   zz         0.510969D+02      0.757178D+01      0.842474D+01

 ----------------------------------------------------------------------

 Dipole orientation:
     6          0.00109455         -2.16025296         -6.60699091
     6          0.00057930         -2.27388712         -3.97316525
     6          0.00033074         -0.00017690         -2.59578769
     6          0.00062003          2.27375622         -3.97280138
     6          0.00113107          2.16054825         -6.60664565
     7          0.00137376          0.00025428         -7.93129737
     1          0.00129420         -3.89474434         -7.71200483
     1          0.00037026         -4.08074662         -3.00207204
     1          0.00044483          4.08045823         -3.00141932
     1          0.00136460          3.89521703         -7.71138166
     6         -0.00023359         -0.00040047          0.10244390
     6         -0.00050948         -0.00050874          2.39316784
    35         -0.00007786         -0.00032344          5.84317731

 Electric dipole moment (dipole orientation):
 (Debye = 10**-18 statcoulomb cm , SI units = C m)
                  (au)            (Debye)         (10**-30 SI)
   Tot        0.779783D+00      0.198201D+01      0.661127D+01
   x          0.000000D+00      0.000000D+00      0.000000D+00
   y          0.000000D+00      0.000000D+00      0.000000D+00
   z          0.779783D+00      0.198201D+01      0.661127D+01

 Dipole polarizability, Alpha (dipole orientation).
 (esu units = cm**3 , SI units = C**2 m**2 J**-1)
 Alpha(0;0):
               (au)            (10**-24 esu)      (10**-40 SI)
   iso        0.107333D+03      0.159051D+02      0.176969D+02
   aniso      0.117198D+03      0.173669D+02      0.193233D+02
   xx         0.510969D+02      0.757178D+01      0.842474D+01
   yx         0.329611D-03      0.488433D-04      0.543455D-04
   yy         0.884776D+02      0.131110D+02      0.145880D+02
   zx        -0.144384D-01     -0.213955D-02     -0.238057D-02
   zy        -0.263087D-02     -0.389855D-03     -0.433772D-03
   zz         0.182425D+03      0.270326D+02      0.300778D+02

 ----------------------------------------------------------------------
 1\1\GINC-IP-172-31-20-208\Freq\RB3LYP\Gen\C7H4Br1N1\UBUNTU\20-Sep-2023
 \0\\#N Geom=AllCheck Guess=TCheck SCRF=Check GenChk RB3LYP/ChkBas Freq
 \\Title Card Required\\0,1\C,-3.496279337,-1.1431252325,-0.000016014\C
 ,-2.1025193341,-1.2032703593,0.0000274956\C,-1.3736317023,-0.000081273
 5,0.0000502841\C,-2.1023051725,1.2032388558,0.0000275244\C,-3.49607609
 76,1.1433442979,-0.0000148391\N,-4.1970618822,0.0001722596,-0.00003855
 63\H,-4.0810357771,-2.0609732886,-0.0000339995\H,-1.5886475177,-2.1594
 238455,0.000045242\H,-1.5882633258,2.1592997716,0.0000445082\H,-4.0806
 689888,2.0612967403,-0.0000342838\C,0.0542109944,-0.0002124086,0.00011
 47173\C,1.2664099059,-0.0002805911,0.0000618869\Br,3.0920762347,-0.000
 1989261,-0.0004659659\\Version=EM64L-G16RevB.01\State=1-A\HF=-337.2045
 998\RMSD=3.820e-09\RMSF=6.240e-06\ZeroPoint=0.0886058\Thermal=0.096476
 7\Dipole=0.7797828,-0.000007,-0.0001279\DipoleDeriv=0.4291427,0.254155
 1,0.0000045,0.0297784,0.2875579,0.0000018,0.0000243,0.0000127,0.000732
 8,-0.418011,-0.2620138,0.0000103,-0.0959489,-0.0587222,-0.0000049,-0.0
 000323,-0.0000068,-0.0806816,0.8605366,-0.0000335,-0.0000136,-0.000025
 3,0.2434348,0.0000002,0.0000013,0.,-0.0129398,-0.4179536,0.2620573,0.0
 000103,0.0959989,-0.0587837,0.0000046,-0.0000325,0.0000068,-0.0806817,
 0.4290887,-0.2541701,0.0000042,-0.0297977,0.2876061,-0.000002,0.000025
 1,-0.0000135,0.0007333,-0.6601703,0.0000177,0.0000004,0.0000264,-0.390
 4853,0.0000003,-0.0000224,0.,-0.2859182,0.0070076,-0.0794634,-0.000001
 ,-0.0742854,-0.0803098,-0.000001,-0.0000004,-0.000005,0.10794,0.050274
 ,0.068585,-0.0000048,0.054464,-0.0323199,0.0000005,-0.0000052,0.000001
 3,0.135857,0.0502513,-0.068599,-0.0000048,-0.0544787,-0.0322998,-0.000
 0005,-0.0000049,-0.0000012,0.1358564,0.0070343,0.0794461,-0.0000009,0.
 0742683,-0.0803352,0.0000009,-0.000001,0.0000058,0.1079404,-0.5968717,
 -0.0000222,0.0001558,-0.000038,-0.0345732,0.,0.0002962,0.,0.0535586,0.
 7195546,0.0000162,-0.0002097,0.0000893,-0.1936395,0.,-0.0005303,0.,-0.
 232936,-0.4598832,0.0000246,0.0000494,-0.0000514,0.1428698,0.,0.000282
 1,0.,0.1505388\Polar=182.4251152,-0.0034747,88.4775879,-0.0071022,0.00
 00066,51.0969017\Quadrupole=-4.3568058,5.5497475,-1.1929417,0.0012352,
 -0.0009883,-0.0000022\PG=C01 [X(C7H4Br1N1)]\NImag=0\\0.68809578,0.0517
 0839,0.73269742,0.00001640,0.00000196,0.15556619,-0.32812835,-0.036564
 72,-0.00000760,0.68543685,0.03348577,-0.13682885,0.00000145,-0.0459148
 6,0.72414704,-0.00000863,-0.00000068,-0.06742977,0.00001896,-0.0000015
 9,0.12698793,-0.03079097,-0.02918610,-0.00000150,-0.16302228,-0.105324
 43,-0.00000351,0.68794468,-0.07585466,0.04146523,-0.00000289,-0.055201
 58,-0.27092104,-0.00000198,-0.00000216,0.63666610,-0.00000105,-0.00000
 174,0.00661935,-0.00000409,-0.00000394,-0.06378082,0.00001702,-0.00000
 001,0.15265656,-0.05578365,0.03927733,-0.00000163,0.06517281,0.0177426
 2,0.00000174,-0.16299197,0.05518123,-0.00000409,0.68545107,0.02204298,
 -0.01674074,0.00000096,-0.01776383,-0.05251897,-0.00000083,0.10530357,
 -0.27094738,0.00000396,0.04592450,0.72412981,-0.00000149,0.00000126,-0
 .00879091,0.00000172,0.00000083,0.00688610,-0.00000348,0.00000201,-0.0
 6378081,0.00001861,0.00000138,0.12698741,0.06173434,-0.02601264,0.0000
 0208,-0.05579467,-0.02203599,-0.00000150,-0.03077211,0.07586752,-0.000
 00102,-0.32812722,-0.03345138,-0.00000839,0.68807680,0.02598488,-0.093
 74147,0.00000077,-0.03927043,-0.01672962,-0.00000128,0.02919887,0.0414
 4605,0.00000171,0.03659930,-0.13682885,0.00000072,-0.05169963,0.732716
 69,0.00000208,-0.00000081,0.00290568,-0.00000163,-0.00000097,-0.008791
 07,-0.00000153,0.00000289,0.00661947,-0.00000741,-0.00000142,-0.067429
 44,0.00001650,-0.00000210,0.15556584,-0.18380778,0.11028236,-0.0000036
 3,-0.02972262,0.03578791,-0.00000175,0.00812503,-0.00000785,0.00000051
 ,-0.02974699,-0.03577797,-0.00000176,-0.18384190,-0.11030068,-0.000003
 72,0.40634821,0.07921006,-0.28153909,0.00000210,0.09925143,0.02661182,
 0.00000302,-0.00000774,-0.07916163,0.,-0.09924150,0.02663584,-0.000003
 04,-0.07922841,-0.28150677,-0.00000225,0.00002297,0.65153341,-0.000003
 50,0.00000327,-0.06604976,-0.00000185,0.00000099,0.02268184,0.00000066
 ,-0.00000003,-0.00992316,-0.00000187,-0.00000097,0.02268181,-0.0000036
 7,-0.00000349,-0.06604958,0.00000996,0.00000022,0.09209365,-0.14875160
 ,-0.13194838,-0.00000323,-0.01200664,-0.02728061,-0.00000052,-0.005194
 21,0.00168593,-0.00000049,-0.00021252,0.00107600,0.00000001,0.00023223
 ,0.00450110,-0.00000027,0.01427565,0.01968384,0.00000052,0.15180403,-0
 .13036022,-0.24207910,-0.00000401,0.00232994,0.00482999,0.00000003,0.0
 0125970,0.00132297,0.00000006,0.00013063,-0.00004100,0.,0.00282345,-0.
 00209038,0.00000012,-0.00740417,-0.03329022,-0.00000027,0.13254047,0.2
 7154976,-0.00000326,-0.00000416,-0.04168609,-0.00000061,-0.00000079,0.
 00650593,-0.00000035,-0.00000004,0.00723303,0.,0.00000002,-0.00050980,
 -0.00000031,0.00000016,0.01027170,0.00000056,0.00000065,-0.00377165,0.
 00000382,0.00000411,0.02672624,-0.00645130,0.03008248,-0.00000040,-0.1
 2407787,0.12041474,-0.00000308,0.01095115,-0.01658674,0.00000034,-0.00
 143922,-0.00324791,-0.00000030,-0.00109938,-0.00189451,-0.00000005,-0.
 00664421,0.00020472,-0.00000040,0.00028277,-0.00049882,0.00000011,0.12
 639632,-0.00234528,0.00365416,-0.00000012,0.11862241,-0.28108632,0.000
 00429,0.01455498,-0.01833842,0.00000048,-0.00426844,-0.00234775,-0.000
 00013,-0.00078109,0.00025489,-0.00000002,-0.00025599,0.00169127,0.,0.0
 0047691,0.00046844,0.00000001,-0.12724959,0.29582552,0.00000005,0.0000
 0096,0.00122345,-0.00000344,0.00000384,-0.03558191,0.00000041,0.000000
 09,0.00286299,-0.00000016,-0.00000025,0.00699965,-0.00000021,-0.000000
 14,-0.00022659,-0.00000050,0.00000023,0.00782904,0.00000013,-0.0000000
 3,-0.00322466,0.00000352,-0.00000459,0.02486492,-0.00109889,0.00189474
 ,-0.00000005,-0.00143790,0.00324778,-0.00000029,0.01095150,0.01658142,
 0.00000033,-0.12412071,-0.12044363,-0.00000296,-0.00645631,-0.03008075
 ,-0.00000039,-0.00664425,-0.00020321,-0.00000039,0.00013591,-0.0002463
 3,0.00000006,0.00063505,0.00087428,0.00000002,0.12644199,0.00078134,0.
 00025440,0.00000002,0.00426827,-0.00234910,0.00000014,-0.01456011,-0.0
 1833894,-0.00000047,-0.11865149,-0.28104519,-0.00000412,0.00234711,0.0
 0365909,0.00000012,0.00025747,0.00169127,0.,-0.00008825,0.00002750,0.,
 -0.00087453,-0.00078943,-0.00000003,0.12728088,0.29578172,-0.00000020,
 0.00000014,-0.00022659,-0.00000016,0.00000025,0.00699970,0.00000041,-0
 .00000010,0.00286291,-0.00000334,-0.00000365,-0.03558160,0.00000007,-0
 .00000093,0.00122349,-0.00000050,-0.00000024,0.00782906,0.00000005,0.,
 -0.00172979,0.00000002,0.00000003,0.00047804,0.00000340,0.00000440,0.0
 2486457,0.00023093,-0.00450151,-0.00000028,-0.00021272,-0.00107597,0.,
 -0.00519470,-0.00168468,-0.00000049,-0.01200217,0.02728345,-0.00000054
 ,-0.14870471,0.13193166,-0.00000341,0.01427347,-0.01969232,0.00000054,
 0.00033576,-0.00058163,0.,0.00013597,0.00008823,0.00000005,0.00028277,
 -0.00047687,0.00000013,0.15175653,-0.00282385,-0.00208907,-0.00000011,
 -0.00013060,-0.00004080,0.,-0.00125855,0.00132350,-0.00000005,-0.00232
 695,0.00482549,-0.00000002,0.13034341,-0.24212568,0.00000429,0.0073956
 8,-0.03328808,0.00000027,0.00058143,-0.00081911,0.00000002,0.00024631,
 0.00002744,0.,0.00049886,0.00046843,0.00000002,-0.13251892,0.27159692,
 -0.00000035,-0.00000016,0.01027168,0.00000002,0.,-0.00050981,-0.000000
 33,0.00000004,0.00723295,-0.00000058,0.00000077,0.00650583,-0.00000348
 ,0.00000456,-0.04168603,0.00000056,-0.00000072,-0.00377160,0.,-0.00000
 002,0.00043661,0.00000006,0.,-0.00172978,0.00000011,-0.00000002,-0.003
 22468,0.00000402,-0.00000440,0.02672628,0.00664815,-0.00460395,-0.0000
 0029,-0.04015080,-0.01748471,-0.00000133,-0.29874027,0.00001885,-0.000
 00882,-0.04014178,0.01749324,-0.00000132,0.00664969,0.00460159,-0.0000
 0029,-0.00437072,0.00000031,0.00000014,-0.00046195,-0.00011109,-0.0000
 0002,0.00137795,0.00103836,0.00000020,0.00137799,-0.00103864,0.0000001
 9,-0.00046165,0.00011121,-0.00000002,1.41511948,-0.00276552,-0.0053059
 8,-0.00000031,-0.02967245,0.00628773,-0.00000081,0.00001826,-0.0738325
 3,0.,0.02967982,0.00627918,0.00000080,0.00276348,-0.00530689,0.0000003
 1,0.00000031,-0.00019685,0.,-0.00131788,0.00017379,0.00000004,-0.00084
 900,0.00041832,-0.00000005,0.00084888,0.00041838,0.00000005,0.00131789
 ,0.00017357,-0.00000004,-0.00007775,0.08999345,-0.00000022,-0.00000046
 ,0.00802803,-0.00000142,-0.00000016,0.00478376,-0.00000254,0.00000002,
 -0.05522247,-0.00000140,0.00000014,0.00478385,-0.00000024,0.00000045,0
 .00802765,0.00000080,0.00000001,-0.00381691,-0.00000003,0.00000012,-0.
 00011494,0.00000020,0.00000007,-0.00355985,0.00000020,-0.00000007,-0.0
 0355974,-0.00000003,-0.00000011,-0.00011486,-0.00004579,0.,0.06099924,
 -0.00276620,-0.00018675,0.00000023,0.00630058,0.00859514,0.00000022,-0
 .02843076,0.00000373,-0.00000141,0.00629864,-0.00859665,0.00000021,-0.
 00276621,0.00018748,0.00000022,0.00287444,-0.00000028,-0.00000008,-0.0
 0024673,0.00021676,-0.00000002,-0.00013204,-0.00073871,-0.00000014,-0.
 00013192,0.00073872,-0.00000014,-0.00024680,-0.00021674,-0.00000002,-1
 .03336503,0.00005374,0.00004951,1.27505865,0.00099999,0.00004115,0.000
 00024,-0.00079050,-0.00119314,-0.00000044,0.00000323,0.00458575,0.,0.0
 0079019,-0.00119172,0.00000044,-0.00099978,0.00004089,-0.00000024,0.,0
 .00090511,0.,0.00003129,-0.00003383,0.,0.00028883,0.00029590,-0.000000
 06,-0.00028892,0.00029588,0.00000006,-0.00003113,-0.00003384,0.,0.0000
 5089,-0.01689565,0.,-0.00004563,0.01948918,0.00000042,0.00000055,0.000
 01077,-0.00000037,0.00000039,0.00136495,-0.00000458,0.,0.00177393,-0.0
 0000037,-0.00000039,0.00136468,0.00000042,-0.00000055,0.00001097,-0.00
 000095,0.,0.00006509,-0.00000005,-0.00000014,-0.00015934,0.,-0.0000000
 7,-0.00011714,0.,0.00000007,-0.00011724,-0.00000005,0.00000014,-0.0001
 5935,0.00006045,0.,-0.01719759,-0.00011417,0.,0.01802997,0.00086953,-0
 .00024123,-0.00000010,-0.00235641,-0.00015737,-0.00000032,0.00716489,-
 0.00000103,0.00000328,-0.00235628,0.00015763,-0.00000032,0.00086945,0.
 00024113,-0.00000010,-0.00111832,0.00000014,-0.00000007,-0.00019271,-0
 .00009868,0.00000002,0.00006482,-0.00001605,0.00000008,0.00006476,0.00
 001611,0.00000008,-0.00019269,0.00009871,0.00000002,-0.01348105,0.0000
 0022,0.00000098,-0.22244663,-0.00000848,0.00005927,0.23311065,-0.00006
 387,0.00021193,-0.00000006,0.00083692,-0.00020875,0.00000012,0.0000004
 9,0.00473033,0.,-0.00083723,-0.00020871,-0.00000012,0.00006395,0.00021
 205,0.00000006,-0.00000003,-0.00008608,0.,0.00005814,-0.00001880,0.,-0
 .00003596,-0.00007401,0.00000003,0.00003600,-0.00007402,-0.00000003,-0
 .00005819,-0.00001878,0.,0.00000169,-0.00220653,0.,-0.00001082,-0.0063
 0566,0.,0.00000891,0.00404702,-0.00000026,-0.00000013,-0.00044204,0.00
 000049,-0.00000030,-0.00011683,-0.00000068,0.,0.00484608,0.00000049,0.
 00000030,-0.00011676,-0.00000026,0.00000013,-0.00044209,0.00000042,0.,
 0.00020216,0.00000007,0.00000006,0.00002276,-0.00000002,0.00000004,0.0
 0018182,-0.00000002,-0.00000004,0.00018185,0.00000007,-0.00000006,0.00
 002276,-0.00000310,0.,-0.00303618,0.00006559,0.,-0.00486972,-0.0000628
 0,0.,0.00356617\\0.00000191,-0.00000510,0.00000092,-0.00000288,-0.0000
 0757,0.,-0.00002100,0.00000262,-0.00000827,-0.00000419,0.00000786,-0.0
 0000008,0.00000121,0.00000534,0.00000128,0.00000008,0.00000062,-0.0000
 0063,0.00000203,0.00000454,0.00000002,-0.00000343,0.00000235,-0.000000
 27,-0.00000392,-0.00000297,-0.00000031,0.00000176,-0.00000453,-0.00000
 011,0.00001869,-0.00000302,0.00000836,0.00001482,-0.00000189,0.0000029
 7,-0.00000509,0.00000173,-0.00000388\\\@


 I WANT IT ALL - RICH, THIN, AND CHOCOLATE.
 Job cpu time:       0 days  0 hours 24 minutes 41.3 seconds.
 Elapsed time:       0 days  0 hours  0 minutes 46.5 seconds.
 File lengths (MBytes):  RWF=     46 Int=      0 D2E=      0 Chk=      3 Scr=      1
 Normal termination of Gaussian 16 at Wed Sep 20 06:05:07 2023.
