 Entering Gaussian System, Link 0=/home/ubuntu/g16/g16
 Input=/home/ubuntu/Downloads/ARYLHALIDE-coch3-gen-Br-vol.gjf
 Output=/home/ubuntu/Downloads/ARYLHALIDE-coch3-gen-Br-vol.log
 Initial command:
 /home/ubuntu/g16/l1.exe "/home/ubuntu/Scratch/Gau-5478.inp" -scrdir="/home/ubuntu/Scratch/"
 Entering Link 1 = /home/ubuntu/g16/l1.exe PID=      5482.
  
 Copyright (c) 1988-2017, Gaussian, Inc.  All Rights Reserved.
  
 This is part of the Gaussian(R) 16 program.  It is based on
 the Gaussian(R) 09 system (copyright 2009, Gaussian, Inc.),
 the Gaussian(R) 03 system (copyright 2003, Gaussian, Inc.),
 the Gaussian(R) 98 system (copyright 1998, Gaussian, Inc.),
 the Gaussian(R) 94 system (copyright 1995, Gaussian, Inc.),
 the Gaussian 92(TM) system (copyright 1992, Gaussian, Inc.),
 the Gaussian 90(TM) system (copyright 1990, Gaussian, Inc.),
 the Gaussian 88(TM) system (copyright 1988, Gaussian, Inc.),
 the Gaussian 86(TM) system (copyright 1986, Carnegie Mellon
 University), and the Gaussian 82(TM) system (copyright 1983,
 Carnegie Mellon University). Gaussian is a federally registered
 trademark of Gaussian, Inc.
  
 This software contains proprietary and confidential information,
 including trade secrets, belonging to Gaussian, Inc.
  
 This software is provided under written license and may be
 used, copied, transmitted, or stored only in accord with that
 written license.
  
 The following legend is applicable only to US Government
 contracts under FAR:
  
                    RESTRICTED RIGHTS LEGEND
  
 Use, reproduction and disclosure by the US Government is
 subject to restrictions as set forth in subparagraphs (a)
 and (c) of the Commercial Computer Software - Restricted
 Rights clause in FAR 52.227-19.
  
 Gaussian, Inc.
 340 Quinnipiac St., Bldg. 40, Wallingford CT 06492
  
  
 ---------------------------------------------------------------
 Warning -- This program may not be used in any manner that
 competes with the business of Gaussian, Inc. or will provide
 assistance to any competitor of Gaussian, Inc.  The licensee
 of this program is prohibited from giving any competitor of
 Gaussian, Inc. access to this program.  By using this program,
 the user acknowledges that Gaussian, Inc. is engaged in the
 business of creating and licensing software in the field of
 computational chemistry and represents and warrants to the
 licensee that it is not a competitor of Gaussian, Inc. and that
 it will not use this program in any manner prohibited above.
 ---------------------------------------------------------------
  

 Cite this work as:
 Gaussian 16, Revision B.01,
 M. J. Frisch, G. W. Trucks, H. B. Schlegel, G. E. Scuseria, 
 M. A. Robb, J. R. Cheeseman, G. Scalmani, V. Barone, 
 G. A. Petersson, H. Nakatsuji, X. Li, M. Caricato, A. V. Marenich, 
 J. Bloino, B. G. Janesko, R. Gomperts, B. Mennucci, H. P. Hratchian, 
 J. V. Ortiz, A. F. Izmaylov, J. L. Sonnenberg, D. Williams-Young, 
 F. Ding, F. Lipparini, F. Egidi, J. Goings, B. Peng, A. Petrone, 
 T. Henderson, D. Ranasinghe, V. G. Zakrzewski, J. Gao, N. Rega, 
 G. Zheng, W. Liang, M. Hada, M. Ehara, K. Toyota, R. Fukuda, 
 J. Hasegawa, M. Ishida, T. Nakajima, Y. Honda, O. Kitao, H. Nakai, 
 T. Vreven, K. Throssell, J. A. Montgomery, Jr., J. E. Peralta, 
 F. Ogliaro, M. J. Bearpark, J. J. Heyd, E. N. Brothers, K. N. Kudin, 
 V. N. Staroverov, T. A. Keith, R. Kobayashi, J. Normand, 
 K. Raghavachari, A. P. Rendell, J. C. Burant, S. S. Iyengar, 
 J. Tomasi, M. Cossi, J. M. Millam, M. Klene, C. Adamo, R. Cammi, 
 J. W. Ochterski, R. L. Martin, K. Morokuma, O. Farkas, 
 J. B. Foresman, and D. J. Fox, Gaussian, Inc., Wallingford CT, 2016.
 
 ******************************************
 Gaussian 16:  EM64L-G16RevB.01 20-Dec-2017
                16-Sep-2023 
 ******************************************
 %nprocshared=32
 Will use up to   32 processors via shared memory.
 %mem=60GB
 %chk=ARYLHALIDE-coch3-gen-Br-vol.chk
 ----------------------------------------------------------------------
 # opt freq rb3lyp/gen nosymm empiricaldispersion=gd3 pseudo=read scf=m
 axcycle=1000 volume
 ----------------------------------------------------------------------
 1/18=20,19=15,26=3,38=1/1,3;
 2/9=110,12=2,15=1,17=6,18=5,40=1/2;
 3/5=7,11=2,16=1,17=8,25=1,30=1,71=1,74=-5,116=1,124=31/1,2,3;
 4//1;
 5/5=2,7=1000,38=5/2;
 6/7=2,8=2,9=2,10=2,28=1,44=1/1,4;
 7/30=1/1,2,3,16;
 1/18=20,19=15,26=3/3(2);
 2/9=110,15=1/2;
 99//99;
 2/9=110,15=1/2;
 3/5=7,6=1,11=2,16=1,17=8,25=1,30=1,71=1,74=-5,82=7,116=1,124=31/1,2,3;
 4/5=5,16=3,69=1/1;
 5/5=2,7=1000,38=5/2;
 7/30=1/1,2,3,16;
 1/18=20,19=15,26=3/3(-5);
 2/9=110,15=1/2;
 6/7=2,8=2,9=2,10=2,19=2,28=1,44=1/1,4;
 99/9=1/99;
 -----
 reac1
 -----
 Symbolic Z-matrix:
 Charge =  0 Multiplicity = 1
 C                    -0.45125   0.0195   -0.00008 
 C                     0.2069    1.25115   0.00005 
 C                     0.24878  -1.1858   -0.00017 
 C                     1.59978   1.26705   0.00007 
 H                    -0.35794   2.17737   0.00012 
 C                     1.6451   -1.15179  -0.00014 
 H                    -0.28138  -2.13218  -0.00027 
 C                     2.33637   0.07032  -0.00002 
 H                     2.13886   2.20936   0.00016 
 H                     2.18534  -2.09327  -0.00021 
 C                     3.83483   0.15054   0. 
 O                     4.39948   1.23639   0.00032 
 C                     4.63909  -1.13837   0.00018 
 H                     4.40818  -1.74552   0.88441 
 H                     4.40859  -1.74547  -0.88419 
 H                     5.70198  -0.88943   0.00043 
 Br                   -2.3986   -0.01548  -0.00012 
 

 GradGradGradGradGradGradGradGradGradGradGradGradGradGradGradGradGradGrad
 Berny optimization.
 Initialization pass.
                           ----------------------------
                           !    Initial Parameters    !
                           ! (Angstroms and Degrees)  !
 --------------------------                            --------------------------
 ! Name  Definition              Value          Derivative Info.                !
 --------------------------------------------------------------------------------
 ! R1    R(1,2)                  1.3965         estimate D2E/DX2                !
 ! R2    R(1,3)                  1.3938         estimate D2E/DX2                !
 ! R3    R(1,17)                 1.9477         estimate D2E/DX2                !
 ! R4    R(2,4)                  1.393          estimate D2E/DX2                !
 ! R5    R(2,5)                  1.0849         estimate D2E/DX2                !
 ! R6    R(3,6)                  1.3967         estimate D2E/DX2                !
 ! R7    R(3,7)                  1.0848         estimate D2E/DX2                !
 ! R8    R(4,8)                  1.4053         estimate D2E/DX2                !
 ! R9    R(4,9)                  1.0856         estimate D2E/DX2                !
 ! R10   R(6,8)                  1.4041         estimate D2E/DX2                !
 ! R11   R(6,10)                 1.0855         estimate D2E/DX2                !
 ! R12   R(8,11)                 1.5006         estimate D2E/DX2                !
 ! R13   R(11,12)                1.2239         estimate D2E/DX2                !
 ! R14   R(11,13)                1.5192         estimate D2E/DX2                !
 ! R15   R(13,14)                1.0972         estimate D2E/DX2                !
 ! R16   R(13,15)                1.0972         estimate D2E/DX2                !
 ! R17   R(13,16)                1.0917         estimate D2E/DX2                !
 ! A1    A(2,1,3)              121.7336         estimate D2E/DX2                !
 ! A2    A(2,1,17)             119.1476         estimate D2E/DX2                !
 ! A3    A(3,1,17)             119.1188         estimate D2E/DX2                !
 ! A4    A(1,2,4)              118.7728         estimate D2E/DX2                !
 ! A5    A(1,2,5)              120.5053         estimate D2E/DX2                !
 ! A6    A(4,2,5)              120.7219         estimate D2E/DX2                !
 ! A7    A(1,3,6)              118.7524         estimate D2E/DX2                !
 ! A8    A(1,3,7)              120.5948         estimate D2E/DX2                !
 ! A9    A(6,3,7)              120.6528         estimate D2E/DX2                !
 ! A10   A(2,4,8)              120.9584         estimate D2E/DX2                !
 ! A11   A(2,4,9)              120.4276         estimate D2E/DX2                !
 ! A12   A(8,4,9)              118.614          estimate D2E/DX2                !
 ! A13   A(3,6,8)              120.8897         estimate D2E/DX2                !
 ! A14   A(3,6,10)             118.4529         estimate D2E/DX2                !
 ! A15   A(8,6,10)             120.6574         estimate D2E/DX2                !
 ! A16   A(4,8,6)              118.8931         estimate D2E/DX2                !
 ! A17   A(4,8,11)             118.5481         estimate D2E/DX2                !
 ! A18   A(6,8,11)             122.5587         estimate D2E/DX2                !
 ! A19   A(8,11,12)            120.5391         estimate D2E/DX2                !
 ! A20   A(8,11,13)            118.8991         estimate D2E/DX2                !
 ! A21   A(12,11,13)           120.5618         estimate D2E/DX2                !
 ! A22   A(11,13,14)           110.9868         estimate D2E/DX2                !
 ! A23   A(11,13,15)           110.9855         estimate D2E/DX2                !
 ! A24   A(11,13,16)           108.7819         estimate D2E/DX2                !
 ! A25   A(14,13,15)           107.4087         estimate D2E/DX2                !
 ! A26   A(14,13,16)           109.3242         estimate D2E/DX2                !
 ! A27   A(15,13,16)           109.324          estimate D2E/DX2                !
 ! D1    D(3,1,2,4)              0.0            estimate D2E/DX2                !
 ! D2    D(3,1,2,5)           -180.0            estimate D2E/DX2                !
 ! D3    D(17,1,2,4)           180.0            estimate D2E/DX2                !
 ! D4    D(17,1,2,5)             0.0            estimate D2E/DX2                !
 ! D5    D(2,1,3,6)              0.0001         estimate D2E/DX2                !
 ! D6    D(2,1,3,7)            180.0            estimate D2E/DX2                !
 ! D7    D(17,1,3,6)          -179.9999         estimate D2E/DX2                !
 ! D8    D(17,1,3,7)             0.0            estimate D2E/DX2                !
 ! D9    D(1,2,4,8)              0.0001         estimate D2E/DX2                !
 ! D10   D(1,2,4,9)            179.9998         estimate D2E/DX2                !
 ! D11   D(5,2,4,8)           -179.9999         estimate D2E/DX2                !
 ! D12   D(5,2,4,9)             -0.0002         estimate D2E/DX2                !
 ! D13   D(1,3,6,8)             -0.0003         estimate D2E/DX2                !
 ! D14   D(1,3,6,10)           179.9999         estimate D2E/DX2                !
 ! D15   D(7,3,6,8)            179.9998         estimate D2E/DX2                !
 ! D16   D(7,3,6,10)             0.0            estimate D2E/DX2                !
 ! D17   D(2,4,8,6)             -0.0003         estimate D2E/DX2                !
 ! D18   D(2,4,8,11)           179.9995         estimate D2E/DX2                !
 ! D19   D(9,4,8,6)           -180.0            estimate D2E/DX2                !
 ! D20   D(9,4,8,11)            -0.0002         estimate D2E/DX2                !
 ! D21   D(3,6,8,4)              0.0004         estimate D2E/DX2                !
 ! D22   D(3,6,8,11)          -179.9994         estimate D2E/DX2                !
 ! D23   D(10,6,8,4)          -179.9998         estimate D2E/DX2                !
 ! D24   D(10,6,8,11)            0.0004         estimate D2E/DX2                !
 ! D25   D(4,8,11,12)            0.0115         estimate D2E/DX2                !
 ! D26   D(4,8,11,13)          179.988          estimate D2E/DX2                !
 ! D27   D(6,8,11,12)         -179.9887         estimate D2E/DX2                !
 ! D28   D(6,8,11,13)           -0.0122         estimate D2E/DX2                !
 ! D29   D(8,11,13,14)         -59.6669         estimate D2E/DX2                !
 ! D30   D(8,11,13,15)          59.6966         estimate D2E/DX2                !
 ! D31   D(8,11,13,16)        -179.9857         estimate D2E/DX2                !
 ! D32   D(12,11,13,14)        120.3096         estimate D2E/DX2                !
 ! D33   D(12,11,13,15)       -120.327          estimate D2E/DX2                !
 ! D34   D(12,11,13,16)         -0.0092         estimate D2E/DX2                !
 --------------------------------------------------------------------------------
 Trust Radius=3.00D-01 FncErr=1.00D-07 GrdErr=1.00D-06 EigMax=2.50D+02 EigMin=1.00D-04
 Number of steps in this run=     88 maximum allowed number of steps=    102.
 GradGradGradGradGradGradGradGradGradGradGradGradGradGradGradGradGradGrad

                          Input orientation:                          
 ---------------------------------------------------------------------
 Center     Atomic      Atomic             Coordinates (Angstroms)
 Number     Number       Type             X           Y           Z
 ---------------------------------------------------------------------
      1          6           0       -0.451253    0.019496   -0.000078
      2          6           0        0.206903    1.251147    0.000045
      3          6           0        0.248777   -1.185804   -0.000172
      4          6           0        1.599775    1.267050    0.000073
      5          1           0       -0.357937    2.177374    0.000117
      6          6           0        1.645096   -1.151792   -0.000140
      7          1           0       -0.281379   -2.132178   -0.000267
      8          6           0        2.336372    0.070318   -0.000022
      9          1           0        2.138862    2.209362    0.000164
     10          1           0        2.185340   -2.093270   -0.000212
     11          6           0        3.834831    0.150539    0.000003
     12          8           0        4.399481    1.236393    0.000316
     13          6           0        4.639088   -1.138366    0.000179
     14          1           0        4.408180   -1.745515    0.884413
     15          1           0        4.408594   -1.745471   -0.884193
     16          1           0        5.701979   -0.889426    0.000431
     17         35           0       -2.398601   -0.015478   -0.000118
 ---------------------------------------------------------------------
                    Distance matrix (angstroms):
                    1          2          3          4          5
     1  C    0.000000
     2  C    1.396472   0.000000
     3  C    1.393840   2.437311   0.000000
     4  C    2.400647   1.392963   2.800301   0.000000
     5  H    2.159895   1.084869   3.417465   2.159010   0.000000
     6  C    2.401374   2.800449   1.396733   2.419267   3.885291
     7  H    2.158369   3.418378   1.084753   3.885034   4.310232
     8  C    2.788088   2.434953   2.436369   1.405255   3.420378
     9  H    3.391785   2.156535   3.885817   1.085618   2.497004
    10  H    3.378669   3.885787   2.138638   3.410958   4.970579
    11  C    4.288087   3.791200   3.826956   2.498414   4.656969
    12  O    5.001046   4.192604   4.805766   2.799874   4.849585
    13  C    5.220366   5.035279   4.390567   3.876010   5.997032
    14  H    5.245158   5.235725   4.289103   4.212451   6.235937
    15  H    5.245463   5.236010   4.289382   4.212680   6.236228
    16  H    6.220000   5.897280   5.461250   4.634487   6.791748
    17  Br   1.947662   2.897066   2.894525   4.199034   2.995482
                    6          7          8          9         10
     6  C    0.000000
     7  H    2.161588   0.000000
     8  C    1.404071   3.421054   0.000000
     9  H    3.397228   4.970567   2.148143   0.000000
    10  H    1.085470   2.467026   2.168853   4.302883   0.000000
    11  C    2.547745   4.706802   1.500605   2.667408   2.784870
    12  O    3.645554   5.766951   2.369842   2.461111   3.998634
    13  C    2.994022   5.019826   2.600657   4.178327   2.633006
    14  H    2.961347   4.787915   2.893417   4.644648   2.417543
    15  H    2.961575   4.788185   2.893605   4.644833   2.417694
    16  H    4.065358   6.111056   3.499774   4.722107   3.716987
    17  Br   4.200321   2.993835   4.735750   5.053561   5.032865
                   11         12         13         14         15
    11  C    0.000000
    12  O    1.223891   0.000000
    13  C    1.519245   2.386816   0.000000
    14  H    2.169316   3.110222   1.097186   0.000000
    15  H    2.169300   3.110298   1.097186   1.768606   0.000000
    16  H    2.137234   2.493112   1.091654   1.785561   1.785558
    17  Br   6.235642   6.912387   7.126706   7.078679   7.079009
                   16         17
    16  H    0.000000
    17  Br   8.147587   0.000000
 Symmetry turned off by external request.
 Stoichiometry    C8H7BrO
 Framework group  C1[X(C8H7BrO)]
 Deg. of freedom    45
 Full point group                 C1      NOp   1
 Rotational constants (GHZ):           3.6597615           0.3634266           0.3312803
 General basis read from cards:  (5D, 7F)
 ======================================================================================================
                                       Pseudopotential Parameters
 ======================================================================================================
  Center     Atomic      Valence      Angular      Power
  Number     Number     Electrons     Momentum     of R      Exponent        Coefficient   SO-Coeffient
 ======================================================================================================
    1          6
                                   No pseudopotential on this center.
    2          6
                                   No pseudopotential on this center.
    3          6
                                   No pseudopotential on this center.
    4          6
                                   No pseudopotential on this center.
    5          1
                                   No pseudopotential on this center.
    6          6
                                   No pseudopotential on this center.
    7          1
                                   No pseudopotential on this center.
    8          6
                                   No pseudopotential on this center.
    9          1
                                   No pseudopotential on this center.
   10          1
                                   No pseudopotential on this center.
   11          6
                                   No pseudopotential on this center.
   12          8
                                   No pseudopotential on this center.
   13          6
                                   No pseudopotential on this center.
   14          1
                                   No pseudopotential on this center.
   15          1
                                   No pseudopotential on this center.
   16          1
                                   No pseudopotential on this center.
   17         35            7
                                      G and up 
                                                     2        1.0000000        0.00000000    0.00000000
                                      S - G
                                                     2        5.0218000       61.51372100    0.00000000
                                                     2        2.5109000        9.02149300    0.00000000
                                      P - G
                                                     2        4.2814000       53.87586400    0.00000000
                                                     2        2.1407000        4.62940200    0.00000000
                                      D - G
                                                     2        2.8800000       20.84967700    0.00000000
                                                     2        1.4400000        2.96544400    0.00000000
                                      F - G
                                                     2        2.7207000       -8.16149300    0.00000000
 ======================================================================================================
   187 basis functions,   335 primitive gaussians,   196 cartesian basis functions
    35 alpha electrons       35 beta electrons
       nuclear repulsion energy       447.5188845797 Hartrees.
 NAtoms=   17 NActive=   17 NUniq=   17 SFac= 1.00D+00 NAtFMM=   60 NAOKFM=F Big=F
 Integral buffers will be    131072 words long.
 Raffenetti 2 integral format.
 Two-electron integral symmetry is turned off.
 Nuclear repulsion after empirical dispersion term =      447.5050868884 Hartrees.
 One-electron integrals computed using PRISM.
   1 Symmetry operations used in ECPInt.
 ECPInt:  NShTT=    2080 NPrTT=   10774 LenC2=    2052 LenP2D=    7669.
 LDataN:  DoStor=T MaxTD1= 6 Len=  172
 NBasis=   187 RedAO= T EigKep=  2.43D-06  NBF=   187
 NBsUse=   187 1.00D-06 EigRej= -1.00D+00 NBFU=   187
 ExpMin= 3.61D-02 ExpMax= 5.48D+03 ExpMxC= 8.25D+02 IAcc=3 IRadAn=         5 AccDes= 0.00D+00
 Harris functional with IExCor=  402 and IRadAn=       5 diagonalized for initial guess.
 HarFok:  IExCor=  402 AccDes= 0.00D+00 IRadAn=         5 IDoV= 1 UseB2=F ITyADJ=14
 ICtDFT=  3500011 ScaDFX=  1.000000  1.000000  1.000000  1.000000
 FoFCou: FMM=F IPFlag=           0 FMFlag=      100000 FMFlg1=           0
         NFxFlg=           0 DoJE=T BraDBF=F KetDBF=T FulRan=T
         wScrn=  0.000000 ICntrl=       500 IOpCl=  0 I1Cent=   200000004 NGrid=           0
         NMat0=    1 NMatS0=      1 NMatT0=    0 NMatD0=    1 NMtDS0=    0 NMtDT0=    0
 Symmetry not used in FoFCou.
 Requested convergence on RMS density matrix=1.00D-08 within1000 cycles.
 Requested convergence on MAX density matrix=1.00D-06.
 Requested convergence on             energy=1.00D-06.
 No special actions if energy rises.
 SCF Done:  E(RB3LYP) =  -397.689638664     A.U. after   15 cycles
            NFock= 15  Conv=0.56D-08     -V/T= 2.0298

 **********************************************************************

            Population analysis using the SCF Density.

 **********************************************************************

 Alpha  occ. eigenvalues --  -19.15307 -10.29207 -10.27150 -10.22490 -10.22283
 Alpha  occ. eigenvalues --  -10.22087 -10.22018 -10.21727 -10.19644  -1.05415
 Alpha  occ. eigenvalues --   -0.89860  -0.83914  -0.78452  -0.77607  -0.74235
 Alpha  occ. eigenvalues --   -0.64318  -0.63755  -0.57669  -0.51797  -0.49421
 Alpha  occ. eigenvalues --   -0.47918  -0.46344  -0.45912  -0.45580  -0.43450
 Alpha  occ. eigenvalues --   -0.40828  -0.40584  -0.37965  -0.37670  -0.37617
 Alpha  occ. eigenvalues --   -0.32691  -0.30607  -0.28549  -0.26837  -0.26567
 Alpha virt. eigenvalues --   -0.07928  -0.03979  -0.03108  -0.00360   0.00984
 Alpha virt. eigenvalues --    0.01207   0.02106   0.03714   0.03952   0.04021
 Alpha virt. eigenvalues --    0.05010   0.05616   0.06253   0.06707   0.07534
 Alpha virt. eigenvalues --    0.08291   0.08913   0.08947   0.09675   0.11252
 Alpha virt. eigenvalues --    0.11687   0.11922   0.13498   0.13906   0.14397
 Alpha virt. eigenvalues --    0.14529   0.14610   0.16152   0.16364   0.17291
 Alpha virt. eigenvalues --    0.18804   0.18965   0.19161   0.20107   0.20744
 Alpha virt. eigenvalues --    0.21619   0.22158   0.22372   0.22595   0.23684
 Alpha virt. eigenvalues --    0.24400   0.25566   0.26087   0.27655   0.28524
 Alpha virt. eigenvalues --    0.28940   0.29272   0.30610   0.30910   0.31408
 Alpha virt. eigenvalues --    0.31854   0.32868   0.33799   0.34777   0.39004
 Alpha virt. eigenvalues --    0.40316   0.42389   0.46964   0.47628   0.48906
 Alpha virt. eigenvalues --    0.53933   0.59402   0.61465   0.63972   0.66266
 Alpha virt. eigenvalues --    0.66356   0.66761   0.68689   0.69567   0.70235
 Alpha virt. eigenvalues --    0.70969   0.72014   0.72958   0.73463   0.74108
 Alpha virt. eigenvalues --    0.76549   0.77435   0.79413   0.81451   0.82930
 Alpha virt. eigenvalues --    0.89028   0.92839   0.93069   0.93305   0.95794
 Alpha virt. eigenvalues --    0.99167   1.02629   1.04713   1.07412   1.09368
 Alpha virt. eigenvalues --    1.12066   1.13052   1.14055   1.17539   1.20440
 Alpha virt. eigenvalues --    1.21511   1.23716   1.24939   1.25849   1.31889
 Alpha virt. eigenvalues --    1.34205   1.35859   1.36837   1.39620   1.39860
 Alpha virt. eigenvalues --    1.41601   1.45074   1.46339   1.46485   1.47773
 Alpha virt. eigenvalues --    1.48946   1.70198   1.71469   1.74056   1.76314
 Alpha virt. eigenvalues --    1.77320   1.81608   1.84539   1.85892   1.91715
 Alpha virt. eigenvalues --    1.96581   1.98584   2.01783   2.05197   2.06808
 Alpha virt. eigenvalues --    2.07983   2.12100   2.14498   2.15025   2.16339
 Alpha virt. eigenvalues --    2.25165   2.26342   2.26813   2.27998   2.29757
 Alpha virt. eigenvalues --    2.41624   2.41835   2.50735   2.56739   2.59267
 Alpha virt. eigenvalues --    2.60580   2.62474   2.64162   2.73851   2.74678
 Alpha virt. eigenvalues --    2.77329   2.87370   2.97322   3.10241   3.19520
 Alpha virt. eigenvalues --    3.36299   8.00639
          Condensed to atoms (all electrons):
               1          2          3          4          5          6
     1  C    5.710257   0.512864   0.519113  -0.267963  -0.009092  -0.145751
     2  C    0.512864   7.506262   0.138929  -1.533973   0.323768  -0.024438
     3  C    0.519113   0.138929   8.642609  -0.034953   0.055455  -2.641394
     4  C   -0.267963  -1.533973  -0.034953  11.347751  -0.043583  -3.450810
     5  H   -0.009092   0.323768   0.055455  -0.043583   0.497379  -0.038578
     6  C   -0.145751  -0.024438  -2.641394  -3.450810  -0.038578  12.864877
     7  H   -0.003478   0.035555   0.278004  -0.014836  -0.000142  -0.012852
     8  C   -0.471084  -1.026609  -1.204529  -1.740782   0.013301   1.356841
     9  H    0.027074  -0.111459  -0.028826   0.361543  -0.004410   0.042569
    10  H    0.012024  -0.018485   0.037776   0.076973   0.000014   0.124168
    11  C   -0.035626   0.582312   0.814794   0.947818   0.003629  -1.184759
    12  O    0.000709   0.066803   0.018050   0.225596   0.000183  -0.167242
    13  C   -0.012821  -0.085895  -0.104405   0.059964  -0.000047  -0.138724
    14  H    0.001930  -0.001735   0.027033  -0.026971   0.000000   0.051342
    15  H    0.001922  -0.001740   0.027071  -0.026882   0.000000   0.051147
    16  H    0.000458  -0.002002  -0.007215  -0.019338   0.000000  -0.001493
    17  Br  -0.066184  -0.043901  -0.091725   0.137227  -0.003598   0.173805
               7          8          9         10         11         12
     1  C   -0.003478  -0.471084   0.027074   0.012024  -0.035626   0.000709
     2  C    0.035555  -1.026609  -0.111459  -0.018485   0.582312   0.066803
     3  C    0.278004  -1.204529  -0.028826   0.037776   0.814794   0.018050
     4  C   -0.014836  -1.740782   0.361543   0.076973   0.947818   0.225596
     5  H   -0.000142   0.013301  -0.004410   0.000014   0.003629   0.000183
     6  C   -0.012852   1.356841   0.042569   0.124168  -1.184759  -0.167242
     7  H    0.500216   0.020226   0.000012  -0.005037   0.001093   0.000028
     8  C    0.020226  11.940707   0.007924   0.043968  -3.148043  -0.487164
     9  H    0.000012   0.007924   0.483853  -0.000139  -0.022634   0.006023
    10  H   -0.005037   0.043968  -0.000139   0.532229   0.014279  -0.000222
    11  C    0.001093  -3.148043  -0.022634   0.014279   8.210269   0.563466
    12  O    0.000028  -0.487164   0.006023  -0.000222   0.563466   8.242430
    13  C    0.001488   0.049222   0.011612  -0.005266  -0.893766  -0.052565
    14  H   -0.000002  -0.026745  -0.000003  -0.000902  -0.087295   0.002512
    15  H   -0.000002  -0.026715  -0.000003  -0.000902  -0.087221   0.002525
    16  H    0.000000   0.082457  -0.000007   0.000099  -0.164860   0.001106
    17  Br  -0.003445  -0.003528  -0.000499  -0.000415  -0.007037  -0.000017
              13         14         15         16         17
     1  C   -0.012821   0.001930   0.001922   0.000458  -0.066184
     2  C   -0.085895  -0.001735  -0.001740  -0.002002  -0.043901
     3  C   -0.104405   0.027033   0.027071  -0.007215  -0.091725
     4  C    0.059964  -0.026971  -0.026882  -0.019338   0.137227
     5  H   -0.000047   0.000000   0.000000   0.000000  -0.003598
     6  C   -0.138724   0.051342   0.051147  -0.001493   0.173805
     7  H    0.001488  -0.000002  -0.000002   0.000000  -0.003445
     8  C    0.049222  -0.026745  -0.026715   0.082457  -0.003528
     9  H    0.011612  -0.000003  -0.000003  -0.000007  -0.000499
    10  H   -0.005266  -0.000902  -0.000902   0.000099  -0.000415
    11  C   -0.893766  -0.087295  -0.087221  -0.164860  -0.007037
    12  O   -0.052565   0.002512   0.002525   0.001106  -0.000017
    13  C    6.844300   0.395588   0.395544   0.459025   0.000900
    14  H    0.395588   0.489335  -0.030130  -0.021066   0.000005
    15  H    0.395544  -0.030130   0.489348  -0.021066   0.000005
    16  H    0.459025  -0.021066  -0.021066   0.449828  -0.000002
    17  Br   0.000900   0.000005   0.000005  -0.000002   6.808673
 Mulliken charges:
               1
     1  C    0.225646
     2  C   -0.316255
     3  C   -0.445787
     4  C    0.003220
     5  H    0.205721
     6  C   -0.858706
     7  H    0.203172
     8  C    0.620552
     9  H    0.227370
    10  H    0.189840
    11  C    0.493580
    12  O   -0.422217
    13  C   -0.924153
    14  H    0.227105
    15  H    0.227100
    16  H    0.244076
    17  Br   0.099736
 Sum of Mulliken charges =   0.00000
 Mulliken charges with hydrogens summed into heavy atoms:
               1
     1  C    0.225646
     2  C   -0.110534
     3  C   -0.242615
     4  C    0.230590
     6  C   -0.668867
     8  C    0.620552
    11  C    0.493580
    12  O   -0.422217
    13  C   -0.225871
    17  Br   0.099736
 Electronic spatial extent (au):  <R**2>=           2450.4566
 Charge=              0.0000 electrons
 Dipole moment (field-independent basis, Debye):
    X=             -0.2268    Y=             -2.4681    Z=             -0.0004  Tot=              2.4785
 Quadrupole moment (field-independent basis, Debye-Ang):
   XX=            -77.2093   YY=            -63.9078   ZZ=            -70.1812
   XY=            -12.3501   XZ=             -0.0020   YZ=             -0.0002
 Traceless Quadrupole moment (field-independent basis, Debye-Ang):
   XX=             -6.7766   YY=              6.5250   ZZ=              0.2516
   XY=            -12.3501   XZ=             -0.0020   YZ=             -0.0002
 Octapole moment (field-independent basis, Debye-Ang**2):
  XXX=           -272.7433  YYY=             -2.3708  ZZZ=              0.0018  XYY=            -80.2556
  XXY=            -57.0431  XXZ=             -0.0086  XZZ=            -72.9770  YZZ=             -0.4388
  YYZ=             -0.0005  XYZ=             -0.0038
 Hexadecapole moment (field-independent basis, Debye-Ang**3):
 XXXX=          -3269.8416 YYYY=           -434.3098 ZZZZ=            -92.4075 XXXY=           -240.8930
 XXXZ=             -0.0894 YYYX=              3.5283 YYYZ=             -0.0099 ZZZX=             -0.0533
 ZZZY=             -0.0144 XXYY=           -635.9587 XXZZ=           -526.9012 YYZZ=            -96.7798
 XXYZ=             -0.0222 YYXZ=             -0.0214 ZZXY=              4.4572
 N-N= 4.475050868884D+02 E-N=-1.813952879150D+03  KE= 3.861644721382D+02
 Evaluate density.
 Using the total density.
 Monte-Carlo method of calculating molar volume:
 based on  0.001 e/bohr**3 density envelope.
 Number of points per bohr**3 =   20 CutOff= 1.00D-04
 Using the SCF density.
 There are       448 points.  Will hold       448 in memory.
 LenV=  8052937196 MDV=  8053063680.
 Box volume =11292.424 fraction occupied=0.096
 Integrated density= 5.6370865939284521D+01 error=-1.3629134060715479D+01
 Molar volume = 1083.871 bohr**3/mol ( 96.723 cm**3/mol)
 Recommended a0 for SCRF calculation =  4.21 angstrom (  7.96 bohr)
   1 Symmetry operations used in ECPInt.
 ECPInt:  NShTT=    2080 NPrTT=   10774 LenC2=    2052 LenP2D=    7669.
 LDataN:  DoStor=T MaxTD1= 7 Len=  274
 Calling FoFJK, ICntrl=      2127 FMM=F ISym2X=0 I1Cent= 0 IOpClX= 0 NMat=1 NMatS=1 NMatT=0.
 -------------------------------------------------------------------
 Center     Atomic                   Forces (Hartrees/Bohr)
 Number     Number              X              Y              Z
 -------------------------------------------------------------------
      1        6           0.000076779   -0.000002194    0.000000013
      2        6          -0.000056727   -0.000026864    0.000000766
      3        6          -0.000029871    0.000055710    0.000001118
      4        6           0.000049765    0.000035692   -0.000001457
      5        1           0.000007765   -0.000017764    0.000000088
      6        6           0.000052524    0.000015058   -0.000001671
      7        1           0.000003550    0.000012942    0.000000180
      8        6          -0.000163115   -0.000079794   -0.000015190
      9        1          -0.000009229   -0.000032625    0.000000034
     10        1          -0.000018095    0.000018102   -0.000000819
     11        6           0.000009092   -0.000147582    0.000054563
     12        8           0.000079012    0.000039296   -0.000019026
     13        6           0.000015541    0.000024187   -0.000018106
     14        1          -0.000007290    0.000069854    0.000009881
     15        1          -0.000004450    0.000063359   -0.000009723
     16        1           0.000017063   -0.000019270   -0.000000537
     17       35          -0.000022314   -0.000008107   -0.000000116
 -------------------------------------------------------------------
 Cartesian Forces:  Max     0.000163115 RMS     0.000044430

 GradGradGradGradGradGradGradGradGradGradGradGradGradGradGradGradGradGrad
 Berny optimization.
 FormGI is forming the generalized inverse of G from B-inverse, IUseBI=4.
 Internal  Forces:  Max     0.000109719 RMS     0.000031441
 Search for a local minimum.
 Step number   1 out of a maximum of   88
 All quantities printed in internal units (Hartrees-Bohrs-Radians)
 Mixed Optimization -- En-DIIS/RFO-DIIS
 Second derivative matrix not updated -- first step.
 ITU=  0
     Eigenvalues ---    0.00511   0.00610   0.00758   0.01637   0.02042
     Eigenvalues ---    0.02081   0.02102   0.02127   0.02146   0.02154
     Eigenvalues ---    0.02155   0.02164   0.07155   0.07321   0.16000
     Eigenvalues ---    0.16000   0.16000   0.16000   0.16000   0.16000
     Eigenvalues ---    0.16000   0.16107   0.22000   0.22982   0.24000
     Eigenvalues ---    0.25000   0.25000   0.25000   0.25000   0.30439
     Eigenvalues ---    0.32314   0.33995   0.33995   0.34622   0.35324
     Eigenvalues ---    0.35341   0.35412   0.35426   0.41684   0.41841
     Eigenvalues ---    0.45213   0.45728   0.46361   0.46639   0.93680
 RFO step:  Lambda=-3.87760510D-07 EMin= 5.11372714D-03
 Linear search not attempted -- first point.
 Iteration  1 RMS(Cart)=  0.00056213 RMS(Int)=  0.00000033
 Iteration  2 RMS(Cart)=  0.00000047 RMS(Int)=  0.00000019
 Variable       Old X    -DE/DX   Delta X   Delta X   Delta X     New X
                                 (Linear)    (Quad)   (Total)
    R1        2.63895  -0.00005   0.00000  -0.00011  -0.00011   2.63884
    R2        2.63398  -0.00006   0.00000  -0.00013  -0.00013   2.63385
    R3        3.68055   0.00002   0.00000   0.00014   0.00014   3.68069
    R4        2.63232   0.00002   0.00000   0.00005   0.00005   2.63236
    R5        2.05011  -0.00002   0.00000  -0.00005  -0.00005   2.05005
    R6        2.63944   0.00000   0.00000   0.00000   0.00000   2.63944
    R7        2.04989  -0.00001   0.00000  -0.00004  -0.00004   2.04985
    R8        2.65555  -0.00001   0.00000  -0.00002  -0.00002   2.65553
    R9        2.05152  -0.00003   0.00000  -0.00009  -0.00009   2.05143
   R10        2.65331  -0.00006   0.00000  -0.00013  -0.00013   2.65318
   R11        2.05124  -0.00002   0.00000  -0.00007  -0.00007   2.05117
   R12        2.83573   0.00011   0.00000   0.00034   0.00034   2.83607
   R13        2.31282   0.00007   0.00000   0.00008   0.00008   2.31289
   R14        2.87096  -0.00010   0.00000  -0.00034  -0.00034   2.87061
   R15        2.07338  -0.00003   0.00000  -0.00008  -0.00008   2.07330
   R16        2.07338  -0.00003   0.00000  -0.00008  -0.00008   2.07331
   R17        2.06293   0.00001   0.00000   0.00003   0.00003   2.06296
    A1        2.12465   0.00001   0.00000   0.00002   0.00002   2.12467
    A2        2.07952   0.00001   0.00000   0.00004   0.00004   2.07956
    A3        2.07902  -0.00002   0.00000  -0.00006  -0.00006   2.07896
    A4        2.07298  -0.00001   0.00000  -0.00004  -0.00004   2.07293
    A5        2.10321   0.00000   0.00000   0.00001   0.00001   2.10322
    A6        2.10699   0.00001   0.00000   0.00004   0.00004   2.10703
    A7        2.07262   0.00002   0.00000   0.00007   0.00007   2.07269
    A8        2.10478  -0.00001   0.00000  -0.00006  -0.00006   2.10472
    A9        2.10579  -0.00001   0.00000  -0.00001  -0.00001   2.10578
   A10        2.11112  -0.00001   0.00000  -0.00001  -0.00001   2.11111
   A11        2.10186   0.00001   0.00000   0.00006   0.00006   2.10192
   A12        2.07020  -0.00001   0.00000  -0.00005  -0.00005   2.07016
   A13        2.10992  -0.00002   0.00000  -0.00008  -0.00008   2.10984
   A14        2.06739   0.00000   0.00000   0.00000   0.00000   2.06739
   A15        2.10587   0.00002   0.00000   0.00009   0.00009   2.10596
   A16        2.07508   0.00001   0.00000   0.00005   0.00005   2.07513
   A17        2.06906  -0.00004   0.00000  -0.00017  -0.00017   2.06888
   A18        2.13905   0.00003   0.00000   0.00012   0.00012   2.13918
   A19        2.10380   0.00004   0.00000   0.00014   0.00014   2.10395
   A20        2.07518   0.00005   0.00000   0.00020   0.00020   2.07538
   A21        2.10420  -0.00009   0.00000  -0.00034  -0.00034   2.10386
   A22        1.93709  -0.00007   0.00000  -0.00046  -0.00046   1.93662
   A23        1.93706  -0.00006   0.00000  -0.00038  -0.00038   1.93668
   A24        1.89860   0.00005   0.00000   0.00032   0.00032   1.89892
   A25        1.87464   0.00007   0.00000   0.00049   0.00049   1.87512
   A26        1.90807   0.00001   0.00000   0.00002   0.00002   1.90809
   A27        1.90806   0.00000   0.00000   0.00002   0.00002   1.90808
    D1        0.00000   0.00000   0.00000   0.00000   0.00000   0.00000
    D2       -3.14159   0.00000   0.00000   0.00000   0.00000   3.14159
    D3        3.14159   0.00000   0.00000   0.00000   0.00000  -3.14159
    D4        0.00000   0.00000   0.00000   0.00000   0.00000   0.00000
    D5        0.00000   0.00000   0.00000   0.00000   0.00000   0.00000
    D6        3.14159   0.00000   0.00000   0.00001   0.00001  -3.14159
    D7       -3.14159   0.00000   0.00000  -0.00001  -0.00001   3.14159
    D8        0.00000   0.00000   0.00000   0.00000   0.00000   0.00000
    D9        0.00000   0.00000   0.00000  -0.00001  -0.00001  -0.00001
   D10        3.14159   0.00000   0.00000   0.00001   0.00001  -3.14158
   D11       -3.14159   0.00000   0.00000  -0.00002  -0.00002   3.14158
   D12        0.00000   0.00000   0.00000   0.00001   0.00001   0.00001
   D13       -0.00001   0.00000   0.00000   0.00002   0.00002   0.00002
   D14        3.14159   0.00000   0.00000   0.00001   0.00001  -3.14159
   D15        3.14159   0.00000   0.00000   0.00002   0.00002  -3.14158
   D16        0.00000   0.00000   0.00000   0.00000   0.00000   0.00000
   D17       -0.00001   0.00000   0.00000   0.00004   0.00004   0.00003
   D18        3.14158   0.00000   0.00000   0.00004   0.00004  -3.14156
   D19       -3.14159   0.00000   0.00000   0.00001   0.00001  -3.14158
   D20        0.00000   0.00000   0.00000   0.00002   0.00002   0.00001
   D21        0.00001   0.00000   0.00000  -0.00004  -0.00004  -0.00003
   D22       -3.14158   0.00000   0.00000  -0.00005  -0.00005   3.14155
   D23       -3.14159   0.00000   0.00000  -0.00003  -0.00003   3.14157
   D24        0.00001   0.00000   0.00000  -0.00003  -0.00003  -0.00003
   D25        0.00020  -0.00001   0.00000  -0.00134  -0.00134  -0.00114
   D26        3.14138   0.00001   0.00000   0.00114   0.00114  -3.14066
   D27       -3.14139  -0.00001   0.00000  -0.00134  -0.00134   3.14045
   D28       -0.00021   0.00001   0.00000   0.00115   0.00115   0.00094
   D29       -1.04138  -0.00001   0.00000  -0.00138  -0.00138  -1.04276
   D30        1.04190  -0.00001   0.00000  -0.00132  -0.00132   1.04058
   D31       -3.14134  -0.00001   0.00000  -0.00132  -0.00132   3.14052
   D32        2.09980   0.00000   0.00000   0.00111   0.00111   2.10091
   D33       -2.10010   0.00001   0.00000   0.00117   0.00117  -2.09893
   D34       -0.00016   0.00001   0.00000   0.00116   0.00116   0.00100
         Item               Value     Threshold  Converged?
 Maximum Force            0.000110     0.000450     YES
 RMS     Force            0.000031     0.000300     YES
 Maximum Displacement     0.001920     0.001800     NO 
 RMS     Displacement     0.000562     0.001200     YES
 Predicted change in Energy=-1.938782D-07
 GradGradGradGradGradGradGradGradGradGradGradGradGradGradGradGradGradGrad

                          Input orientation:                          
 ---------------------------------------------------------------------
 Center     Atomic      Atomic             Coordinates (Angstroms)
 Number     Number       Type             X           Y           Z
 ---------------------------------------------------------------------
      1          6           0       -0.451307    0.019551   -0.000302
      2          6           0        0.206897    1.251108   -0.000100
      3          6           0        0.248591   -1.185747   -0.000109
      4          6           0        1.599795    1.266862    0.000309
      5          1           0       -0.357862    2.177351   -0.000258
      6          6           0        1.644914   -1.151951    0.000299
      7          1           0       -0.281690   -2.132028   -0.000277
      8          6           0        2.336243    0.070049    0.000533
      9          1           0        2.139016    2.209041    0.000483
     10          1           0        2.184990   -2.093482    0.000441
     11          6           0        3.834877    0.150357    0.001019
     12          8           0        4.399643    1.236195    0.000010
     13          6           0        4.639361   -1.138191    0.000021
     14          1           0        4.409095   -1.745318    0.884382
     15          1           0        4.407988   -1.744714   -0.884470
     16          1           0        5.702288   -0.889322   -0.000563
     17         35           0       -2.398730   -0.015383   -0.000879
 ---------------------------------------------------------------------
                    Distance matrix (angstroms):
                    1          2          3          4          5
     1  C    0.000000
     2  C    1.396412   0.000000
     3  C    1.393772   2.437211   0.000000
     4  C    2.400584   1.392987   2.800186   0.000000
     5  H    2.159823   1.084840   3.417340   2.159029   0.000000
     6  C    2.401366   2.800462   1.396732   2.419234   3.885275
     7  H    2.158254   3.418234   1.084733   3.884899   4.310052
     8  C    2.788008   2.434957   2.436250   1.405247   3.420369
     9  H    3.391702   2.156553   3.885652   1.085569   2.497079
    10  H    3.378605   3.885761   2.138604   3.410919   4.970525
    11  C    4.288180   3.791292   3.827091   2.498435   4.657012
    12  O    5.001195   4.192773   4.805938   2.800017   4.849704
    13  C    5.220658   5.035423   4.391028   3.875983   5.997087
    14  H    5.246041   5.236349   4.290133   4.212717   6.236490
    15  H    5.244724   5.235095   4.288954   4.211695   6.235202
    16  H    6.220352   5.897522   5.461747   4.634607   6.791899
    17  Br   1.947736   2.897118   2.894487   4.199089   2.995535
                    6          7          8          9         10
     6  C    0.000000
     7  H    2.161563   0.000000
     8  C    1.404001   3.420923   0.000000
     9  H    3.397117   4.970382   2.148066   0.000000
    10  H    1.085432   2.466982   2.168811   4.302769   0.000000
    11  C    2.547930   4.706953   1.500784   2.667231   2.785129
    12  O    3.645789   5.767132   2.370131   2.461070   3.998930
    13  C    2.994479   5.020404   2.600807   4.178000   2.633728
    14  H    2.962159   4.789116   2.893694   4.644512   2.418515
    15  H    2.961210   4.787994   2.892874   4.643657   2.417938
    16  H    4.065865   6.111654   3.500093   4.721944   3.717712
    17  Br   4.200338   2.993667   4.735743   5.053633   5.032791
                   11         12         13         14         15
    11  C    0.000000
    12  O    1.223931   0.000000
    13  C    1.519063   2.386456   0.000000
    14  H    2.168788   3.109923   1.097142   0.000000
    15  H    2.168834   3.109372   1.097146   1.768853   0.000000
    16  H    2.137325   2.492931   1.091672   1.785554   1.785553
    17  Br   6.235810   6.912621   7.127091   7.079749   7.078327
                   16         17
    16  H    0.000000
    17  Br   8.148021   0.000000
 Symmetry turned off by external request.
 Stoichiometry    C8H7BrO
 Framework group  C1[X(C8H7BrO)]
 Deg. of freedom    45
 Full point group                 C1      NOp   1
 Rotational constants (GHZ):           3.6603320           0.3633994           0.3312626
 Basis read from rwf:  (5D, 7F)
 Pseudo-potential data read from rwf file.
   187 basis functions,   335 primitive gaussians,   196 cartesian basis functions
    35 alpha electrons       35 beta electrons
       nuclear repulsion energy       447.5175454771 Hartrees.
 NAtoms=   17 NActive=   17 NUniq=   17 SFac= 1.00D+00 NAtFMM=   60 NAOKFM=F Big=F
 Integral buffers will be    131072 words long.
 Raffenetti 2 integral format.
 Two-electron integral symmetry is turned off.
 Nuclear repulsion after empirical dispersion term =      447.5037477024 Hartrees.
 One-electron integrals computed using PRISM.
   1 Symmetry operations used in ECPInt.
 ECPInt:  NShTT=    2080 NPrTT=   10774 LenC2=    2052 LenP2D=    7667.
 LDataN:  DoStor=T MaxTD1= 6 Len=  172
 NBasis=   187 RedAO= T EigKep=  2.43D-06  NBF=   187
 NBsUse=   187 1.00D-06 EigRej= -1.00D+00 NBFU=   187
 Initial guess from the checkpoint file:  "ARYLHALIDE-coch3-gen-Br-vol.chk"
 B after Tr=    -0.000084    0.000011   -0.000505
         Rot=    1.000000    0.000013    0.000066    0.000014 Ang=   0.01 deg.
 Requested convergence on RMS density matrix=1.00D-08 within1000 cycles.
 Requested convergence on MAX density matrix=1.00D-06.
 Requested convergence on             energy=1.00D-06.
 No special actions if energy rises.
 SCF Done:  E(RB3LYP) =  -397.689638611     A.U. after   10 cycles
            NFock= 10  Conv=0.36D-08     -V/T= 2.0298
   1 Symmetry operations used in ECPInt.
 ECPInt:  NShTT=    2080 NPrTT=   10774 LenC2=    2052 LenP2D=    7667.
 LDataN:  DoStor=T MaxTD1= 7 Len=  274
 Calling FoFJK, ICntrl=      2127 FMM=F ISym2X=0 I1Cent= 0 IOpClX= 0 NMat=1 NMatS=1 NMatT=0.
 -------------------------------------------------------------------
 Center     Atomic                   Forces (Hartrees/Bohr)
 Number     Number              X              Y              Z
 -------------------------------------------------------------------
      1        6           0.000019112   -0.000000675   -0.000000269
      2        6          -0.000012868   -0.000000583   -0.000003622
      3        6          -0.000016398    0.000004758   -0.000005516
      4        6           0.000017099    0.000010343    0.000006729
      5        1           0.000001329    0.000001386   -0.000000519
      6        6           0.000028909    0.000002732    0.000008703
      7        1           0.000001121   -0.000002861   -0.000000859
      8        6          -0.000035002   -0.000012242    0.000076142
      9        1           0.000002279    0.000000194   -0.000000009
     10        1           0.000002872   -0.000003838    0.000004007
     11        6           0.000035258   -0.000027600   -0.000274189
     12        8          -0.000016831    0.000038099    0.000096554
     13        6          -0.000012865   -0.000009126    0.000089092
     14        1           0.000006560   -0.000014531    0.000003373
     15        1          -0.000008181    0.000017105   -0.000003296
     16        1          -0.000007218   -0.000000582    0.000003060
     17       35          -0.000005176   -0.000002579    0.000000621
 -------------------------------------------------------------------
 Cartesian Forces:  Max     0.000274189 RMS     0.000045723

 GradGradGradGradGradGradGradGradGradGradGradGradGradGradGradGradGradGrad
 Berny optimization.
 Using GEDIIS/GDIIS optimizer.
 FormGI is forming the generalized inverse of G from B-inverse, IUseBI=4.
 Internal  Forces:  Max     0.000048575 RMS     0.000017067
 Search for a local minimum.
 Step number   2 out of a maximum of   88
 All quantities printed in internal units (Hartrees-Bohrs-Radians)
 Mixed Optimization -- En-DIIS/RFO-DIIS
 Swapping is turned off.
 Update second derivatives using D2CorX and points    1    2
 DE=  5.32D-08 DEPred=-1.94D-07 R=-2.74D-01
 Trust test=-2.74D-01 RLast= 4.11D-03 DXMaxT set to 1.50D-01
 ITU= -1  0
     Eigenvalues ---    0.00512   0.00757   0.01637   0.01956   0.02080
     Eigenvalues ---    0.02095   0.02126   0.02146   0.02153   0.02155
     Eigenvalues ---    0.02164   0.02229   0.07148   0.07336   0.11763
     Eigenvalues ---    0.16000   0.16000   0.16000   0.16000   0.16000
     Eigenvalues ---    0.16103   0.16351   0.21786   0.22732   0.23498
     Eigenvalues ---    0.24634   0.25000   0.25000   0.25878   0.28696
     Eigenvalues ---    0.31665   0.33918   0.34024   0.34634   0.35219
     Eigenvalues ---    0.35339   0.35401   0.35424   0.41702   0.41717
     Eigenvalues ---    0.44675   0.45300   0.46331   0.46641   0.92778
 En-DIIS/RFO-DIIS/Sim-DIIS IScMMF=       -3 using points:     2    1
 RFO step:  Lambda=-6.27859397D-07.
 DidBck=T Rises=F RFO-DIIS coefs:   -0.13696    1.13696
 Iteration  1 RMS(Cart)=  0.00068013 RMS(Int)=  0.00000047
 Iteration  2 RMS(Cart)=  0.00000077 RMS(Int)=  0.00000016
 Variable       Old X    -DE/DX   Delta X   Delta X   Delta X     New X
                                 (Linear)    (Quad)   (Total)
    R1        2.63884   0.00000   0.00013  -0.00023  -0.00010   2.63874
    R2        2.63385   0.00000   0.00015  -0.00027  -0.00012   2.63373
    R3        3.68069   0.00001  -0.00016   0.00030   0.00014   3.68083
    R4        2.63236   0.00000  -0.00005   0.00010   0.00005   2.63241
    R5        2.05005   0.00000   0.00006  -0.00011  -0.00005   2.05000
    R6        2.63944   0.00001   0.00000   0.00000   0.00001   2.63945
    R7        2.04985   0.00000   0.00004  -0.00007  -0.00003   2.04982
    R8        2.65553   0.00000   0.00002  -0.00003  -0.00002   2.65552
    R9        2.05143   0.00000   0.00011  -0.00019  -0.00008   2.05135
   R10        2.65318  -0.00002   0.00015  -0.00029  -0.00014   2.65304
   R11        2.05117   0.00000   0.00008  -0.00014  -0.00006   2.05111
   R12        2.83607   0.00000  -0.00039   0.00069   0.00030   2.83637
   R13        2.31289   0.00003  -0.00009   0.00017   0.00008   2.31297
   R14        2.87061   0.00000   0.00039  -0.00071  -0.00032   2.87029
   R15        2.07330   0.00001   0.00010  -0.00016  -0.00006   2.07323
   R16        2.07331   0.00000   0.00009  -0.00016  -0.00008   2.07323
   R17        2.06296  -0.00001  -0.00004   0.00006   0.00002   2.06298
    A1        2.12467   0.00001  -0.00002   0.00006   0.00003   2.12471
    A2        2.07956   0.00000  -0.00005   0.00008   0.00003   2.07959
    A3        2.07896  -0.00001   0.00007  -0.00014  -0.00007   2.07889
    A4        2.07293  -0.00001   0.00005  -0.00010  -0.00005   2.07288
    A5        2.10322   0.00001  -0.00001   0.00003   0.00002   2.10324
    A6        2.10703   0.00000  -0.00004   0.00007   0.00003   2.10706
    A7        2.07269   0.00000  -0.00008   0.00015   0.00006   2.07276
    A8        2.10472   0.00000   0.00007  -0.00012  -0.00005   2.10467
    A9        2.10578   0.00000   0.00001  -0.00003  -0.00002   2.10576
   A10        2.11111  -0.00001   0.00002  -0.00005  -0.00003   2.11108
   A11        2.10192   0.00001  -0.00007   0.00014   0.00007   2.10199
   A12        2.07016   0.00000   0.00005  -0.00010  -0.00004   2.07012
   A13        2.10984  -0.00001   0.00009  -0.00019  -0.00010   2.10974
   A14        2.06739   0.00001   0.00000   0.00001   0.00001   2.06740
   A15        2.10596   0.00001  -0.00010   0.00019   0.00009   2.10604
   A16        2.07513   0.00002  -0.00006   0.00014   0.00008   2.07521
   A17        2.06888  -0.00001   0.00020  -0.00038  -0.00018   2.06870
   A18        2.13918  -0.00001  -0.00014   0.00024   0.00010   2.13927
   A19        2.10395  -0.00003  -0.00016   0.00025   0.00008   2.10403
   A20        2.07538  -0.00002  -0.00023   0.00037   0.00014   2.07552
   A21        2.10386   0.00005   0.00039  -0.00061  -0.00022   2.10363
   A22        1.93662   0.00003   0.00053  -0.00087  -0.00034   1.93628
   A23        1.93668  -0.00003   0.00043  -0.00088  -0.00044   1.93624
   A24        1.89892   0.00000  -0.00037   0.00066   0.00029   1.89922
   A25        1.87512   0.00000  -0.00055   0.00100   0.00045   1.87557
   A26        1.90809  -0.00001  -0.00003   0.00004   0.00002   1.90811
   A27        1.90808   0.00001  -0.00002   0.00005   0.00002   1.90811
    D1        0.00000   0.00000   0.00000   0.00000   0.00001   0.00000
    D2        3.14159   0.00000   0.00000   0.00000   0.00000  -3.14159
    D3       -3.14159   0.00000   0.00000   0.00000   0.00000   3.14159
    D4        0.00000   0.00000  -0.00001   0.00000  -0.00001   0.00000
    D5        0.00000   0.00000   0.00000   0.00000   0.00000   0.00000
    D6       -3.14159   0.00000  -0.00001   0.00000  -0.00001   3.14159
    D7        3.14159   0.00000   0.00001   0.00000   0.00001  -3.14159
    D8        0.00000   0.00000   0.00000   0.00000   0.00000   0.00000
    D9       -0.00001   0.00000   0.00002   0.00000   0.00002   0.00000
   D10       -3.14158   0.00000  -0.00002   0.00000  -0.00002   3.14159
   D11        3.14158   0.00000   0.00002   0.00000   0.00002  -3.14159
   D12        0.00001   0.00000  -0.00001   0.00000  -0.00001  -0.00001
   D13        0.00002   0.00000  -0.00003   0.00000  -0.00003  -0.00001
   D14       -3.14159   0.00000  -0.00001   0.00000  -0.00001   3.14159
   D15       -3.14158   0.00000  -0.00002   0.00000  -0.00002   3.14158
   D16        0.00000   0.00000   0.00000   0.00000   0.00000   0.00000
   D17        0.00003   0.00000  -0.00004  -0.00001  -0.00005  -0.00002
   D18       -3.14156   0.00000  -0.00005  -0.00001  -0.00006   3.14157
   D19       -3.14158   0.00000  -0.00001   0.00000  -0.00001   3.14159
   D20        0.00001   0.00000  -0.00002   0.00000  -0.00002  -0.00001
   D21       -0.00003   0.00000   0.00005   0.00001   0.00005   0.00002
   D22        3.14155   0.00000   0.00005   0.00001   0.00006  -3.14157
   D23        3.14157   0.00000   0.00003   0.00000   0.00003  -3.14158
   D24       -0.00003   0.00000   0.00004   0.00000   0.00004   0.00002
   D25       -0.00114   0.00004   0.00153   0.00024   0.00177   0.00063
   D26       -3.14066  -0.00003  -0.00130  -0.00018  -0.00148   3.14105
   D27        3.14045   0.00004   0.00152   0.00024   0.00176  -3.14097
   D28        0.00094  -0.00003  -0.00131  -0.00018  -0.00149  -0.00055
   D29       -1.04276   0.00004   0.00156   0.00015   0.00171  -1.04105
   D30        1.04058   0.00004   0.00150   0.00026   0.00176   1.04234
   D31        3.14052   0.00003   0.00150   0.00020   0.00171  -3.14096
   D32        2.10091  -0.00003  -0.00127  -0.00028  -0.00154   2.09937
   D33       -2.09893  -0.00003  -0.00133  -0.00016  -0.00149  -2.10042
   D34        0.00100  -0.00004  -0.00132  -0.00022  -0.00155  -0.00054
         Item               Value     Threshold  Converged?
 Maximum Force            0.000049     0.000450     YES
 RMS     Force            0.000017     0.000300     YES
 Maximum Displacement     0.002496     0.001800     NO 
 RMS     Displacement     0.000680     0.001200     YES
 Predicted change in Energy=-3.139311D-07
 GradGradGradGradGradGradGradGradGradGradGradGradGradGradGradGradGradGrad

                          Input orientation:                          
 ---------------------------------------------------------------------
 Center     Atomic      Atomic             Coordinates (Angstroms)
 Number     Number       Type             X           Y           Z
 ---------------------------------------------------------------------
      1          6           0       -0.451324    0.019596   -0.000012
      2          6           0        0.206907    1.251078    0.000086
      3          6           0        0.248451   -1.185701   -0.000190
      4          6           0        1.599830    1.266704    0.000000
      5          1           0       -0.357780    2.177335    0.000225
      6          6           0        1.644782   -1.152102   -0.000271
      7          1           0       -0.281940   -2.131902   -0.000262
      8          6           0        2.336127    0.069807   -0.000189
      9          1           0        2.139185    2.208756    0.000066
     10          1           0        2.184720   -2.093677   -0.000406
     11          6           0        3.834916    0.150208   -0.000302
     12          8           0        4.399733    1.236068    0.000432
     13          6           0        4.639565   -1.138039    0.000222
     14          1           0        4.408191   -1.744510    0.884702
     15          1           0        4.409040   -1.744647   -0.884383
     16          1           0        5.702526   -0.889270    0.000713
     17         35           0       -2.398820   -0.015324    0.000109
 ---------------------------------------------------------------------
                    Distance matrix (angstroms):
                    1          2          3          4          5
     1  C    0.000000
     2  C    1.396359   0.000000
     3  C    1.393709   2.437134   0.000000
     4  C    2.400523   1.393011   2.800092   0.000000
     5  H    2.159766   1.084815   3.417240   2.159048   0.000000
     6  C    2.401361   2.800492   1.396735   2.419223   3.885281
     7  H    2.158155   3.418117   1.084717   3.884788   4.309904
     8  C    2.787902   2.434949   2.436122   1.405238   3.420352
     9  H    3.391631   2.156582   3.885514   1.085526   2.497163
    10  H    3.378557   3.885760   2.138588   3.410902   4.970498
    11  C    4.288229   3.791354   3.827190   2.498434   4.657032
    12  O    5.001255   4.192852   4.806049   2.800070   4.849733
    13  C    5.220849   5.035508   4.391373   3.875923   5.997096
    14  H    5.244966   5.235158   4.289375   4.211531   6.235194
    15  H    5.245741   5.235893   4.290072   4.212129   6.235948
    16  H    6.220603   5.897704   5.462125   4.634688   6.792008
    17  Br   1.947810   2.897170   2.894448   4.199143   2.995597
                    6          7          8          9         10
     6  C    0.000000
     7  H    2.161542   0.000000
     8  C    1.403929   3.420788   0.000000
     9  H    3.397028   4.970227   2.147997   0.000000
    10  H    1.085402   2.466956   2.168775   4.302674   0.000000
    11  C    2.548077   4.707072   1.500944   2.667044   2.785349
    12  O    3.645972   5.767259   2.370366   2.460934   3.999186
    13  C    2.994816   5.020854   2.600908   4.177671   2.634295
    14  H    2.961512   4.788586   2.892788   4.643197   2.418503
    15  H    2.962075   4.789251   2.893270   4.643693   2.418851
    16  H    4.066248   6.112117   3.500354   4.721775   3.718274
    17  Br   4.200355   2.993507   4.735712   5.053714   5.032732
                   11         12         13         14         15
    11  C    0.000000
    12  O    1.223974   0.000000
    13  C    1.518895   2.386191   0.000000
    14  H    2.168370   3.108995   1.097108   0.000000
    15  H    2.168339   3.109284   1.097106   1.769085   0.000000
    16  H    2.137401   2.492856   1.091684   1.785547   1.785545
    17  Br   6.235934   6.912764   7.127367   7.078699   7.079537
                   16         17
    16  H    0.000000
    17  Br   8.148349   0.000000
 Symmetry turned off by external request.
 Stoichiometry    C8H7BrO
 Framework group  C1[X(C8H7BrO)]
 Deg. of freedom    45
 Full point group                 C1      NOp   1
 Rotational constants (GHZ):           3.6607624           0.3633809           0.3312510
 Basis read from rwf:  (5D, 7F)
 Pseudo-potential data read from rwf file.
   187 basis functions,   335 primitive gaussians,   196 cartesian basis functions
    35 alpha electrons       35 beta electrons
       nuclear repulsion energy       447.5177438461 Hartrees.
 NAtoms=   17 NActive=   17 NUniq=   17 SFac= 1.00D+00 NAtFMM=   60 NAOKFM=F Big=F
 Integral buffers will be    131072 words long.
 Raffenetti 2 integral format.
 Two-electron integral symmetry is turned off.
 Nuclear repulsion after empirical dispersion term =      447.5039459425 Hartrees.
 One-electron integrals computed using PRISM.
   1 Symmetry operations used in ECPInt.
 ECPInt:  NShTT=    2080 NPrTT=   10774 LenC2=    2052 LenP2D=    7667.
 LDataN:  DoStor=T MaxTD1= 6 Len=  172
 NBasis=   187 RedAO= T EigKep=  2.43D-06  NBF=   187
 NBsUse=   187 1.00D-06 EigRej= -1.00D+00 NBFU=   187
 Initial guess from the checkpoint file:  "ARYLHALIDE-coch3-gen-Br-vol.chk"
 B after Tr=    -0.000059   -0.000006    0.000657
         Rot=    1.000000   -0.000018   -0.000085    0.000009 Ang=  -0.01 deg.
 Requested convergence on RMS density matrix=1.00D-08 within1000 cycles.
 Requested convergence on MAX density matrix=1.00D-06.
 Requested convergence on             energy=1.00D-06.
 No special actions if energy rises.
 SCF Done:  E(RB3LYP) =  -397.689638632     A.U. after   10 cycles
            NFock= 10  Conv=0.47D-08     -V/T= 2.0298
   1 Symmetry operations used in ECPInt.
 ECPInt:  NShTT=    2080 NPrTT=   10774 LenC2=    2052 LenP2D=    7667.
 LDataN:  DoStor=T MaxTD1= 7 Len=  274
 Calling FoFJK, ICntrl=      2127 FMM=F ISym2X=0 I1Cent= 0 IOpClX= 0 NMat=1 NMatS=1 NMatT=0.
 -------------------------------------------------------------------
 Center     Atomic                   Forces (Hartrees/Bohr)
 Number     Number              X              Y              Z
 -------------------------------------------------------------------
      1        6          -0.000037553    0.000000179    0.000000225
      2        6           0.000030400    0.000022894    0.000001989
      3        6          -0.000000853   -0.000042896    0.000003132
      4        6          -0.000019866   -0.000015703   -0.000003691
      5        1          -0.000005372    0.000017676    0.000000281
      6        6          -0.000002546   -0.000009191   -0.000004952
      7        1          -0.000001578   -0.000015888    0.000000492
      8        6           0.000090057    0.000051562   -0.000043342
      9        1           0.000011483    0.000028842   -0.000000008
     10        1           0.000019495   -0.000021344   -0.000002226
     11        6           0.000048470    0.000092986    0.000155552
     12        8          -0.000094477    0.000018723   -0.000054650
     13        6          -0.000033003   -0.000033066   -0.000050994
     14        1           0.000000192   -0.000047867   -0.000003775
     15        1           0.000008604   -0.000065831    0.000004064
     16        1          -0.000024838    0.000015912   -0.000001730
     17       35           0.000011385    0.000003010   -0.000000367
 -------------------------------------------------------------------
 Cartesian Forces:  Max     0.000155552 RMS     0.000039732

 GradGradGradGradGradGradGradGradGradGradGradGradGradGradGradGradGradGrad
 Berny optimization.
 Using GEDIIS/GDIIS optimizer.
 FormGI is forming the generalized inverse of G from B-inverse, IUseBI=4.
 Internal  Forces:  Max     0.000144935 RMS     0.000032180
 Search for a local minimum.
 Step number   3 out of a maximum of   88
 All quantities printed in internal units (Hartrees-Bohrs-Radians)
 Mixed Optimization -- En-DIIS/RFO-DIIS
 Swapping is turned off.
 Update second derivatives using D2CorX and points    1    2    3
 DE= -2.10D-08 DEPred=-3.14D-07 R= 6.70D-02
 Trust test= 6.70D-02 RLast= 5.26D-03 DXMaxT set to 7.50D-02
 ITU= -1 -1  0
     Eigenvalues ---    0.00512   0.00757   0.01637   0.02023   0.02080
     Eigenvalues ---    0.02100   0.02127   0.02146   0.02154   0.02155
     Eigenvalues ---    0.02164   0.03513   0.07155   0.07376   0.13342
     Eigenvalues ---    0.16000   0.16000   0.16000   0.16000   0.16026
     Eigenvalues ---    0.16127   0.16438   0.21778   0.22669   0.23460
     Eigenvalues ---    0.24738   0.25000   0.25000   0.27934   0.31063
     Eigenvalues ---    0.33216   0.34019   0.34205   0.34871   0.35320
     Eigenvalues ---    0.35399   0.35420   0.36180   0.41665   0.41991
     Eigenvalues ---    0.44708   0.45577   0.46387   0.46681   0.92446
 En-DIIS/RFO-DIIS/Sim-DIIS IScMMF=       -3 using points:     3    2    1
 RFO step:  Lambda=-3.83633125D-07.
 DidBck=T Rises=F RFO-DIIS coefs:    0.40770    0.29331    0.29898
 Iteration  1 RMS(Cart)=  0.00033846 RMS(Int)=  0.00000009
 Iteration  2 RMS(Cart)=  0.00000013 RMS(Int)=  0.00000006
 Variable       Old X    -DE/DX   Delta X   Delta X   Delta X     New X
                                 (Linear)    (Quad)   (Total)
    R1        2.63874   0.00005   0.00009   0.00000   0.00010   2.63883
    R2        2.63373   0.00005   0.00011   0.00000   0.00011   2.63383
    R3        3.68083  -0.00001  -0.00012   0.00003  -0.00010   3.68073
    R4        2.63241  -0.00001  -0.00004   0.00001  -0.00003   2.63238
    R5        2.05000   0.00002   0.00004   0.00000   0.00005   2.05005
    R6        2.63945   0.00001   0.00000   0.00002   0.00001   2.63946
    R7        2.04982   0.00001   0.00003   0.00000   0.00003   2.04985
    R8        2.65552   0.00001   0.00001   0.00000   0.00001   2.65553
    R9        2.05135   0.00003   0.00008   0.00000   0.00008   2.05143
   R10        2.65304   0.00003   0.00012  -0.00003   0.00009   2.65313
   R11        2.05111   0.00003   0.00006   0.00001   0.00006   2.05118
   R12        2.83637  -0.00010  -0.00028   0.00000  -0.00028   2.83609
   R13        2.31297  -0.00003  -0.00007   0.00002  -0.00005   2.31293
   R14        2.87029   0.00009   0.00029  -0.00001   0.00028   2.87057
   R15        2.07323   0.00002   0.00006   0.00001   0.00007   2.07330
   R16        2.07323   0.00003   0.00007   0.00001   0.00007   2.07330
   R17        2.06298  -0.00002  -0.00002  -0.00002  -0.00004   2.06294
    A1        2.12471   0.00001  -0.00003   0.00003   0.00001   2.12471
    A2        2.07959  -0.00001  -0.00003  -0.00001  -0.00004   2.07955
    A3        2.07889   0.00000   0.00006  -0.00003   0.00003   2.07892
    A4        2.07288   0.00000   0.00004  -0.00002   0.00002   2.07291
    A5        2.10324   0.00000  -0.00002   0.00002   0.00001   2.10325
    A6        2.10706  -0.00001  -0.00003   0.00000  -0.00003   2.10703
    A7        2.07276  -0.00002  -0.00006  -0.00001  -0.00007   2.07269
    A8        2.10467   0.00002   0.00005   0.00001   0.00006   2.10473
    A9        2.10576   0.00000   0.00001  -0.00001   0.00001   2.10577
   A10        2.11108  -0.00001   0.00002  -0.00003  -0.00001   2.11107
   A11        2.10199   0.00000  -0.00006   0.00003  -0.00003   2.10196
   A12        2.07012   0.00001   0.00004   0.00000   0.00004   2.07016
   A13        2.10974   0.00000   0.00008  -0.00004   0.00004   2.10978
   A14        2.06740   0.00001   0.00000   0.00002   0.00002   2.06742
   A15        2.10604  -0.00001  -0.00008   0.00002  -0.00006   2.10599
   A16        2.07521   0.00002  -0.00006   0.00007   0.00000   2.07521
   A17        2.06870   0.00002   0.00016  -0.00004   0.00012   2.06882
   A18        2.13927  -0.00004  -0.00009  -0.00002  -0.00012   2.13916
   A19        2.10403  -0.00007  -0.00009  -0.00008  -0.00017   2.10386
   A20        2.07552  -0.00008  -0.00014  -0.00007  -0.00021   2.07531
   A21        2.10363   0.00014   0.00024   0.00015   0.00039   2.10402
   A22        1.93628   0.00004   0.00034  -0.00001   0.00033   1.93661
   A23        1.93624   0.00007   0.00038  -0.00001   0.00036   1.93660
   A24        1.89922  -0.00005  -0.00027   0.00000  -0.00027   1.89895
   A25        1.87557  -0.00006  -0.00041   0.00002  -0.00039   1.87518
   A26        1.90811   0.00000  -0.00002   0.00000  -0.00002   1.90809
   A27        1.90811  -0.00001  -0.00002   0.00000  -0.00002   1.90809
    D1        0.00000   0.00000   0.00000   0.00000   0.00000   0.00000
    D2       -3.14159   0.00000   0.00000   0.00000   0.00000   3.14159
    D3        3.14159   0.00000   0.00000   0.00000   0.00000  -3.14159
    D4        0.00000   0.00000   0.00000   0.00000   0.00000   0.00000
    D5        0.00000   0.00000   0.00000   0.00000   0.00000   0.00000
    D6        3.14159   0.00000   0.00000   0.00000   0.00000  -3.14159
    D7       -3.14159   0.00000   0.00000   0.00000   0.00000  -3.14159
    D8        0.00000   0.00000   0.00000   0.00000   0.00000   0.00000
    D9        0.00000   0.00000  -0.00001   0.00000  -0.00001   0.00000
   D10        3.14159   0.00000   0.00001   0.00000   0.00001   3.14159
   D11       -3.14159   0.00000  -0.00001   0.00000  -0.00001   3.14159
   D12       -0.00001   0.00000   0.00000   0.00000   0.00000   0.00000
   D13       -0.00001   0.00000   0.00001   0.00000   0.00001   0.00000
   D14        3.14159   0.00000   0.00000   0.00000   0.00000  -3.14159
   D15        3.14158   0.00000   0.00001   0.00000   0.00001   3.14159
   D16        0.00000   0.00000   0.00000   0.00000   0.00000   0.00000
   D17       -0.00002   0.00000   0.00002   0.00000   0.00002   0.00000
   D18        3.14157   0.00000   0.00002   0.00000   0.00002   3.14159
   D19        3.14159   0.00000   0.00001   0.00000   0.00000  -3.14159
   D20       -0.00001   0.00000   0.00001   0.00000   0.00001   0.00000
   D21        0.00002   0.00000  -0.00002   0.00000  -0.00002   0.00000
   D22       -3.14157   0.00000  -0.00002   0.00000  -0.00002  -3.14159
   D23       -3.14158   0.00000  -0.00001   0.00000  -0.00001   3.14159
   D24        0.00002   0.00000  -0.00002   0.00000  -0.00002   0.00000
   D25        0.00063  -0.00002  -0.00065   0.00000  -0.00064  -0.00002
   D26        3.14105   0.00002   0.00054   0.00000   0.00054   3.14159
   D27       -3.14097  -0.00002  -0.00064   0.00000  -0.00064   3.14158
   D28       -0.00055   0.00002   0.00054   0.00000   0.00054  -0.00001
   D29       -1.04105  -0.00002  -0.00060  -0.00001  -0.00061  -1.04166
   D30        1.04234  -0.00003  -0.00065   0.00000  -0.00065   1.04169
   D31       -3.14096  -0.00002  -0.00062  -0.00001  -0.00062  -3.14158
   D32        2.09937   0.00002   0.00058  -0.00001   0.00057   2.09994
   D33       -2.10042   0.00002   0.00053   0.00000   0.00053  -2.09989
   D34       -0.00054   0.00002   0.00057  -0.00001   0.00056   0.00002
         Item               Value     Threshold  Converged?
 Maximum Force            0.000145     0.000450     YES
 RMS     Force            0.000032     0.000300     YES
 Maximum Displacement     0.001062     0.001800     YES
 RMS     Displacement     0.000339     0.001200     YES
 Predicted change in Energy=-1.913545D-07
 Optimization completed.
    -- Stationary point found.
                           ----------------------------
                           !   Optimized Parameters   !
                           ! (Angstroms and Degrees)  !
 --------------------------                            --------------------------
 ! Name  Definition              Value          Derivative Info.                !
 --------------------------------------------------------------------------------
 ! R1    R(1,2)                  1.3964         -DE/DX =    0.0                 !
 ! R2    R(1,3)                  1.3937         -DE/DX =    0.0                 !
 ! R3    R(1,17)                 1.9478         -DE/DX =    0.0                 !
 ! R4    R(2,4)                  1.393          -DE/DX =    0.0                 !
 ! R5    R(2,5)                  1.0848         -DE/DX =    0.0                 !
 ! R6    R(3,6)                  1.3967         -DE/DX =    0.0                 !
 ! R7    R(3,7)                  1.0847         -DE/DX =    0.0                 !
 ! R8    R(4,8)                  1.4052         -DE/DX =    0.0                 !
 ! R9    R(4,9)                  1.0855         -DE/DX =    0.0                 !
 ! R10   R(6,8)                  1.4039         -DE/DX =    0.0                 !
 ! R11   R(6,10)                 1.0854         -DE/DX =    0.0                 !
 ! R12   R(8,11)                 1.5009         -DE/DX =   -0.0001              !
 ! R13   R(11,12)                1.224          -DE/DX =    0.0                 !
 ! R14   R(11,13)                1.5189         -DE/DX =    0.0001              !
 ! R15   R(13,14)                1.0971         -DE/DX =    0.0                 !
 ! R16   R(13,15)                1.0971         -DE/DX =    0.0                 !
 ! R17   R(13,16)                1.0917         -DE/DX =    0.0                 !
 ! A1    A(2,1,3)              121.7367         -DE/DX =    0.0                 !
 ! A2    A(2,1,17)             119.1519         -DE/DX =    0.0                 !
 ! A3    A(3,1,17)             119.1115         -DE/DX =    0.0                 !
 ! A4    A(1,2,4)              118.7673         -DE/DX =    0.0                 !
 ! A5    A(1,2,5)              120.507          -DE/DX =    0.0                 !
 ! A6    A(4,2,5)              120.7256         -DE/DX =    0.0                 !
 ! A7    A(1,3,6)              118.7603         -DE/DX =    0.0                 !
 ! A8    A(1,3,7)              120.5886         -DE/DX =    0.0                 !
 ! A9    A(6,3,7)              120.6512         -DE/DX =    0.0                 !
 ! A10   A(2,4,8)              120.9559         -DE/DX =    0.0                 !
 ! A11   A(2,4,9)              120.4352         -DE/DX =    0.0                 !
 ! A12   A(8,4,9)              118.6089         -DE/DX =    0.0                 !
 ! A13   A(3,6,8)              120.8792         -DE/DX =    0.0                 !
 ! A14   A(3,6,10)             118.4533         -DE/DX =    0.0                 !
 ! A15   A(8,6,10)             120.6675         -DE/DX =    0.0                 !
 ! A16   A(4,8,6)              118.9006         -DE/DX =    0.0                 !
 ! A17   A(4,8,11)             118.528          -DE/DX =    0.0                 !
 ! A18   A(6,8,11)             122.5714         -DE/DX =    0.0                 !
 ! A19   A(8,11,12)            120.5521         -DE/DX =   -0.0001              !
 ! A20   A(8,11,13)            118.9186         -DE/DX =   -0.0001              !
 ! A21   A(12,11,13)           120.5293         -DE/DX =    0.0001              !
 ! A22   A(11,13,14)           110.9407         -DE/DX =    0.0                 !
 ! A23   A(11,13,15)           110.9384         -DE/DX =    0.0001              !
 ! A24   A(11,13,16)           108.8171         -DE/DX =    0.0                 !
 ! A25   A(14,13,15)           107.4623         -DE/DX =   -0.0001              !
 ! A26   A(14,13,16)           109.3266         -DE/DX =    0.0                 !
 ! A27   A(15,13,16)           109.3266         -DE/DX =    0.0                 !
 ! D1    D(3,1,2,4)              0.0002         -DE/DX =    0.0                 !
 ! D2    D(3,1,2,5)            180.0001         -DE/DX =    0.0                 !
 ! D3    D(17,1,2,4)          -180.0001         -DE/DX =    0.0                 !
 ! D4    D(17,1,2,5)            -0.0002         -DE/DX =    0.0                 !
 ! D5    D(2,1,3,6)              0.0            -DE/DX =    0.0                 !
 ! D6    D(2,1,3,7)           -180.0001         -DE/DX =    0.0                 !
 ! D7    D(17,1,3,6)          -179.9997         -DE/DX =    0.0                 !
 ! D8    D(17,1,3,7)             0.0001         -DE/DX =    0.0                 !
 ! D9    D(1,2,4,8)              0.0003         -DE/DX =    0.0                 !
 ! D10   D(1,2,4,9)            179.9996         -DE/DX =    0.0                 !
 ! D11   D(5,2,4,8)            180.0004         -DE/DX =    0.0                 !
 ! D12   D(5,2,4,9)             -0.0003         -DE/DX =    0.0                 !
 ! D13   D(1,3,6,8)             -0.0007         -DE/DX =    0.0                 !
 ! D14   D(1,3,6,10)          -180.0002         -DE/DX =    0.0                 !
 ! D15   D(7,3,6,8)            179.9995         -DE/DX =    0.0                 !
 ! D16   D(7,3,6,10)             0.0            -DE/DX =    0.0                 !
 ! D17   D(2,4,8,6)             -0.0009         -DE/DX =    0.0                 !
 ! D18   D(2,4,8,11)           179.9988         -DE/DX =    0.0                 !
 ! D19   D(9,4,8,6)           -180.0002         -DE/DX =    0.0                 !
 ! D20   D(9,4,8,11)            -0.0005         -DE/DX =    0.0                 !
 ! D21   D(3,6,8,4)              0.0011         -DE/DX =    0.0                 !
 ! D22   D(3,6,8,11)          -179.9986         -DE/DX =    0.0                 !
 ! D23   D(10,6,8,4)           180.0006         -DE/DX =    0.0                 !
 ! D24   D(10,6,8,11)            0.0009         -DE/DX =    0.0                 !
 ! D25   D(4,8,11,12)            0.036          -DE/DX =    0.0                 !
 ! D26   D(4,8,11,13)          179.9687         -DE/DX =    0.0                 !
 ! D27   D(6,8,11,12)          180.0357         -DE/DX =    0.0                 !
 ! D28   D(6,8,11,13)           -0.0317         -DE/DX =    0.0                 !
 ! D29   D(8,11,13,14)         -59.6478         -DE/DX =    0.0                 !
 ! D30   D(8,11,13,15)          59.7219         -DE/DX =    0.0                 !
 ! D31   D(8,11,13,16)        -179.9637         -DE/DX =    0.0                 !
 ! D32   D(12,11,13,14)        120.2849         -DE/DX =    0.0                 !
 ! D33   D(12,11,13,15)       -120.3455         -DE/DX =    0.0                 !
 ! D34   D(12,11,13,16)         -0.031          -DE/DX =    0.0                 !
 --------------------------------------------------------------------------------
 GradGradGradGradGradGradGradGradGradGradGradGradGradGradGradGradGradGrad

                          Input orientation:                          
 ---------------------------------------------------------------------
 Center     Atomic      Atomic             Coordinates (Angstroms)
 Number     Number       Type             X           Y           Z
 ---------------------------------------------------------------------
      1          6           0       -0.451324    0.019596   -0.000012
      2          6           0        0.206907    1.251078    0.000086
      3          6           0        0.248451   -1.185701   -0.000190
      4          6           0        1.599830    1.266704    0.000000
      5          1           0       -0.357780    2.177335    0.000225
      6          6           0        1.644782   -1.152102   -0.000271
      7          1           0       -0.281940   -2.131902   -0.000262
      8          6           0        2.336127    0.069807   -0.000189
      9          1           0        2.139185    2.208756    0.000066
     10          1           0        2.184720   -2.093677   -0.000406
     11          6           0        3.834916    0.150208   -0.000302
[...]
   yy         0.639806D+02      0.948095D+01      0.105490D+02
   zx        -0.788310D+01     -0.116816D+01     -0.129975D+01
   zy         0.728938D+00      0.108018D+00      0.120186D+00
   zz         0.109295D+03      0.161959D+02      0.180203D+02

 ----------------------------------------------------------------------
 1\1\GINC-IP-172-31-8-94\Freq\RB3LYP\Gen\C8H7Br1O1\UBUNTU\16-Sep-2023\0
 \\#N Geom=AllCheck Guess=TCheck SCRF=Check GenChk RB3LYP/ChkBas Freq\\
 reac1\\0,1\C,-0.4513236917,0.0195957528,-0.0000124829\C,0.2069073357,1
 .2510782936,0.0000857885\C,0.2484508814,-1.1857012475,-0.0001902771\C,
 1.5998302783,1.2667036942,-0.0000003186\H,-0.3577799974,2.1773353038,0
 .0002251954\C,1.6447817231,-1.1521018034,-0.0002705955\H,-0.2819400279
 ,-2.1319017747,-0.000262064\C,2.3361265043,0.0698067044,-0.0001886073\
 H,2.13918542,2.20875587,0.0000661887\H,2.184719594,-2.0936771592,-0.00
 04061859\C,3.8349159152,0.1502077629,-0.000301629\O,4.3997327474,1.236
 0681564,0.0004320298\C,4.639564904,-1.1380393508,0.0002219194\H,4.4081
 905566,-1.7445099658,0.884701612\H,4.4090399547,-1.7446473367,-0.88438
 34233\H,5.7025262666,-0.8892697237,0.0007126239\Br,-2.3988203643,-0.01
 53241762,0.0001092258\\Version=EM64L-G16RevB.01\HF=-397.6896386\RMSD=4
 .330e-09\RMSF=3.973e-05\ZeroPoint=0.1279784\Thermal=0.1372352\Dipole=-
 0.0886588,-0.9710759,-0.0003266\DipoleDeriv=1.4237737,0.0253149,-0.000
 0807,0.0002807,0.1385269,0.0000195,-0.0000675,0.0000155,-0.0706573,-0.
 4803587,-0.2215206,-0.0000074,-0.1006551,-0.0188878,0.0000223,-0.00001
 61,0.0000398,-0.0897116,-0.5351271,0.1749737,0.0000327,0.1323855,-0.00
 88159,0.0000047,0.000022,-0.0000075,-0.0924219,0.1590208,0.142955,-0.0
 000208,-0.2248197,0.033775,0.0000049,0.0000736,0.0000003,-0.0697199,0.
 0333301,0.0589295,0.0000082,0.0539846,0.0058685,-0.0000166,-0.0000035,
 -0.000026,0.1367507,0.2341366,-0.1026308,-0.0000441,0.1990845,0.027598
 7,0.0000037,0.0001531,0.000018,-0.0926922,0.0400635,-0.052164,-0.00000
 33,-0.0523324,-0.0026129,-0.0000131,-0.000023,0.0000007,0.1378693,-0.8
 858911,0.0118727,-0.0000183,0.1143625,-0.1075935,0.0000229,0.0000674,0
 .000018,-0.0114646,0.0774786,-0.0504046,0.0000054,-0.0126769,0.0236076
 ,-0.0000057,0.0000122,-0.0000112,0.1294322,0.0229171,0.0729929,0.00002
 44,0.0733753,-0.0264187,-0.0000201,0.0000183,-0.0000167,0.1230921,1.97
 03827,0.00473,0.0000823,0.1230846,1.0623856,-0.0000728,0.0002018,0.000
 0374,0.1446145,-1.1034802,-0.2089548,-0.0000078,-0.4733406,-0.9033828,
 0.0000326,-0.0003278,-0.0002661,-0.3267014,-0.1657675,0.1826542,-0.000
 02,0.2379308,-0.2699108,0.0001268,-0.0002278,0.0002944,0.0805319,0.051
 4076,-0.0181878,0.0675921,-0.0045948,0.0246035,0.048878,0.0463669,0.07
 15879,-0.023524,0.0515529,-0.0181705,-0.0675244,-0.0045293,0.0245551,-
 0.0489595,-0.0462133,-0.0716899,-0.0236607,-0.0954367,0.0111799,-0.000
 0522,-0.0472546,0.0604838,-0.0000263,-0.0000859,0.000008,0.0923316,-0.
 7980023,-0.0135697,0.000034,-0.0142851,-0.0637823,-0.0000013,0.0000496
 ,-0.0000028,-0.0440686\Polar=175.187964,1.9007434,108.3988542,-0.00041
 91,0.0063737,63.0604594\Quadrupole=-5.0357748,4.8476959,0.1880789,-9.1
 816655,-0.0028867,-0.0004597\PG=C01 [X(C8H7Br1O1)]\NImag=0\\0.45031577
 ,-0.00633085,0.64932922,-0.00002236,0.00006111,0.10885900,-0.14523065,
 -0.04984539,-0.00000007,0.68664159,-0.11192989,-0.28997062,-0.00001948
 ,-0.05005718,0.72221416,-0.00000694,-0.00002455,-0.05717460,-0.0000402
 3,0.00007172,0.12625763,-0.15300269,0.05793834,0.00001366,0.06051923,0
 .02311707,-0.00000239,0.67675331,0.11954560,-0.28790886,-0.00003319,-0
 .01962723,-0.05241035,-0.00000536,0.04479772,0.73087248,0.00001910,-0.
 00002735,-0.05737174,-0.00000679,-0.00000807,0.00561313,-0.00002785,0.
 00006225,0.12472773,-0.02875296,-0.08333618,-0.00000744,-0.34764604,0.
 03486646,0.00002097,-0.04814411,0.02650635,0.00000648,0.70447010,-0.02
 646870,0.03181638,0.00000500,-0.03444461,-0.12840740,-0.00000306,0.027
 94735,-0.01624675,-0.00000461,0.04034618,0.70677575,-0.00000070,0.0000
 0865,0.00570755,0.00001510,-0.00000882,-0.06076221,0.00000657,-0.00000
 332,-0.00312359,-0.00003575,0.00005990,0.14017888,0.00961186,-0.015285
 20,-0.00000222,-0.13419500,0.12981677,0.00002040,-0.00131309,-0.003166
 05,-0.00000012,-0.01173478,0.02770955,0.00000410,0.14188910,0.01609233
 ,-0.01958532,-0.00000346,0.12678099,-0.26913046,-0.00003446,-0.0039544
 6,-0.00276314,-0.00000070,-0.00211126,0.00569141,0.00000037,-0.1354633
 8,0.28375178,0.00000140,-0.00000149,0.00189022,0.00002027,-0.00003461,
 -0.03612524,0.00000004,-0.00000065,0.00566167,0.00000056,-0.00000150,0
 .00372579,-0.00002242,0.00003786,0.02487199,-0.03263908,0.08202039,0.0
 0001085,-0.04679458,-0.02816965,0.00000025,-0.33725007,-0.04299901,0.0
 0001006,0.05971607,-0.01786427,-0.00000579,-0.00085306,-0.00086334,-0.
 00000002,0.68535478,0.02371555,0.03389506,0.00000081,-0.02766578,-0.01
 786232,0.00000160,0.02718302,-0.12664317,-0.00001007,0.02146726,-0.056
 98790,-0.00000976,-0.00083514,0.00025540,0.00000021,-0.03515255,0.7130
 0096,0.00000533,-0.00000190,0.00599500,-0.00000038,0.00000036,-0.00323
 166,0.00002113,-0.00000616,-0.06023716,-0.00000119,-0.00000478,0.00658
 466,0.00000003,0.00000019,-0.00068530,-0.00004265,0.00006191,0.1362868
 0,0.00971057,0.01627227,0.00000124,-0.00163714,0.00314436,0.00000062,-
 0.12514235,-0.12453257,-0.00000875,-0.00082634,0.00077724,0.00000017,0
 .00070401,0.00080342,0.00000008,-0.01059303,-0.02829063,-0.00000233,0.
 13223730,-0.01521890,-0.01949996,-0.00000126,0.00401820,-0.00255485,-0
 .00000122,-0.12174021,-0.27833950,-0.00001896,0.00086297,0.00025574,0.
 00000006,-0.00076182,-0.00081555,-0.00000008,0.00188088,0.00461538,0.0
 0000007,0.12990347,0.29350554,-0.00000201,-0.00000355,0.00187237,0.000
 00112,-0.00000118,0.00564514,-0.00000847,-0.00001852,-0.03519841,0.000
 00004,0.00000001,-0.00076420,-0.00000010,-0.00000020,0.00039103,0.0000
 0117,0.00000184,0.00319304,0.00000798,0.00002127,0.02456118,0.00370511
 ,0.00130918,-0.00000075,-0.03243891,0.02285664,0.00000757,-0.02894113,
 -0.02554116,0.00000134,-0.16534114,0.10380981,0.00002127,-0.00502936,-
 0.00095298,0.00000066,-0.16549486,-0.10318115,0.00000278,-0.00524138,0
 .00067106,0.00000061,0.60924916,0.00151317,-0.06650020,-0.00000661,0.0
 6640975,0.03422165,-0.00000384,-0.06984282,0.02963883,0.00000842,0.055
 59194,-0.26722266,-0.00002763,-0.00179869,0.00140733,-0.00000092,-0.05
 376694,-0.27805111,-0.00001834,0.00186823,0.00149684,-0.00000019,0.006
 82241,0.69611992,-0.00000107,-0.00000797,-0.00669062,0.00001017,-0.000
 00126,0.00760494,-0.00000704,0.00000853,0.00845228,0.00001954,-0.00003
 025,-0.06620763,0.00000119,-0.00000052,0.00752140,0.00001277,-0.000014
 51,-0.06283208,0.00000191,-0.00000077,0.00713614,-0.00001698,0.0000653
 0,0.14039194,-0.00393536,0.00073063,0.00000075,-0.01108382,-0.02709748
 ,-0.00000163,-0.00080360,0.00078562,0.00000015,-0.12699105,-0.12267606
 ,-0.00000597,0.00084234,0.00020531,-0.00000020,-0.00196336,0.00326684,
 0.00000097,0.00005477,-0.00006995,-0.00000008,0.01405574,0.01320518,-0
 .00000010,0.13264009,0.00059587,0.00124185,-0.00000077,0.00277492,0.00
 528793,-0.00000031,0.00058794,0.00034731,0.00000009,-0.12183490,-0.276
 71387,-0.00001691,-0.00025510,0.00076145,0.00000067,0.00392146,-0.0028
 7214,-0.00000139,-0.00009723,0.00000627,0.00000010,-0.01317184,-0.0197
 8059,-0.00000204,0.13075109,0.29234986,0.00000094,0.00000002,0.0075716
 2,0.00000046,0.00000217,0.00473547,0.00000078,-0.00000010,-0.00095641,
 -0.00000525,-0.00001958,-0.04014754,-0.00000045,0.00000051,-0.00446430
 ,0.00000043,-0.00000173,0.00566592,-0.00000004,0.00000008,-0.00075043,
 -0.00000322,-0.00000116,0.00430917,0.00000622,0.00002019,0.02723351,-0
 .00412700,-0.00105992,0.00000055,-0.00070129,-0.00071984,-0.00000003,-
 0.01271583,0.02881457,0.00000481,-0.00135914,-0.00330220,-0.00000005,0
 .00007127,0.00007986,-0.00000006,-0.12873899,0.12141978,0.00001963,0.0
 0070065,-0.00024027,-0.00000030,0.01272527,-0.01280255,-0.00000295,0.0
 0058667,-0.00079640,0.00000001,0.13936547,-0.00065916,0.00144563,-0.00
 000047,-0.00062740,0.00026592,0.00000008,-0.00256073,0.00442337,0.0000
 0002,-0.00428153,-0.00319835,-0.00000036,0.00011715,0.00000562,0.00000
 008,0.12133108,-0.27320974,-0.00003349,0.00020182,0.00086759,0.0000004
 9,0.01521341,-0.01839039,-0.00000340,0.00104025,-0.00093173,-0.0000002
 5,-0.13134377,0.28766645,0.00000076,-0.00000145,0.00728866,0.00000063,
 0.00000041,-0.00080764,-0.00000004,-0.00000217,0.00434177,-0.00000006,
 -0.00000022,0.00612550,-0.00000002,0.00000012,-0.00091583,0.00002138,-
 0.00003045,-0.03697842,-0.00000040,0.00000065,-0.00422029,-0.00000185,
 -0.00000350,0.00239858,0.00000014,-0.00000004,0.00051101,-0.00001981,0
 .00003698,0.02520166,-0.00495792,-0.00018554,0.00000086,0.00673809,0.0
 0459304,-0.00000212,0.00738753,-0.00232518,-0.00000294,-0.03284520,0.0
 1663111,0.00000353,0.00031520,-0.00029513,-0.00000002,-0.01550773,-0.0
 1642502,-0.00000359,0.00091713,0.00037639,0.00000017,-0.17543040,0.016
 42128,0.00003489,0.00023759,-0.00250449,0.00000086,0.00061460,0.002371
 86,0.00000191,0.57403257,-0.00152490,-0.00438964,-0.00000025,0.0067144
 5,-0.00562123,-0.00000285,-0.00276229,-0.00510562,-0.00000142,0.024839
 09,0.01509926,-0.00000410,0.00203334,0.00010958,0.00000025,-0.03039166
 ,0.00276952,0.00000537,-0.00130453,0.00016372,-0.00000027,0.03183121,-
 0.10552600,0.00000123,0.00116086,-0.00299887,-0.00000017,-0.00057516,-
 0.00098299,0.00000090,0.15225997,0.84190432,-0.00000232,-0.00000113,-0
 .00042656,0.00000329,-0.00000040,0.00668734,0.00000087,-0.00000033,0.0
 0760899,-0.00000434,0.00000749,0.00228273,0.00000020,-0.00000008,0.000
 28388,-0.00000374,-0.00000685,-0.00086509,0.00000006,-0.00000005,0.000
 51913,0.00000870,0.00000921,-0.07721235,-0.00000030,-0.00000039,-0.003
 65211,0.,0.00000117,-0.00399519,0.00016956,0.00026878,0.22197124,0.002
 10845,-0.00188854,-0.00000048,0.00005308,-0.00186777,-0.00000009,-0.00
 413020,-0.00118253,0.00000224,-0.00035324,-0.00351713,-0.00000116,-0.0
 0009173,0.00011652,-0.00000021,-0.00512880,0.00799888,0.00000091,-0.00
 098199,-0.00004104,0.00000013,-0.04105971,-0.05308577,-0.00003362,-0.0
 0270686,-0.00057348,-0.00000061,0.00022139,-0.00064881,-0.00000093,-0.
 22209495,-0.24147401,-0.00016177,0.25322970,0.00232556,0.00027865,-0.0
 0000030,-0.00285406,0.00066578,0.00000146,-0.00219398,0.00093368,0.000
 00173,0.00768603,-0.00862798,0.00000137,-0.00049093,0.00004201,-0.0000
 0016,0.00136710,0.00526667,0.00000034,-0.00037202,-0.00004583,0.000000
 07,-0.04517976,-0.00936435,-0.00002322,0.00009958,0.00274498,-0.000000
 13,0.00059228,0.00047664,-0.00000085,-0.23062348,-0.57981766,-0.000296
 37,0.28307585,0.65534512,0.00000179,0.00000078,-0.00015982,-0.00000235
 ,-0.00000055,-0.00051404,-0.00000097,-0.00000118,-0.00160800,0.0000055
 4,-0.00000547,0.00003031,-0.00000023,0.00000008,0.00013017,-0.00000268
 ,0.00000547,0.00309828,-0.00000055,0.00000003,-0.00035112,-0.00002243,
 -0.00002242,0.01893502,-0.00000003,0.00000108,-0.00024494,0.00000023,-
 0.00000035,0.00065926,-0.00016394,-0.00032105,-0.06710978,0.00019456,0
 .00035070,0.02445090,0.00041621,0.00029551,-0.00000011,-0.00070579,0.0
 0165859,0.00000125,0.00010831,0.00033426,0.00000082,-0.00473106,-0.002
 59903,-0.00000063,-0.00045670,-0.00003759,0.00000017,-0.00254241,0.000
 58848,-0.00000053,-0.00006450,-0.00003617,-0.00000008,-0.01367529,0.02
 575168,-0.00001662,0.00001217,0.00009796,-0.00000026,-0.00206454,0.000
 44234,-0.00000108,-0.13628252,0.05333327,-0.00000479,0.01950460,-0.015
 35625,-0.00001286,0.57414793,-0.00030124,-0.00053609,0.00000006,0.0005
 8697,0.00137455,-0.00000032,0.00001191,-0.00005743,-0.00000015,-0.0037
 3057,0.00081541,0.00000191,-0.00021549,0.00002117,-0.00000010,0.000783
 09,-0.00065428,-0.00000056,-0.00000187,0.00002065,0.,0.00374143,0.0055
 6057,0.00000869,-0.00044429,0.00025869,0.,-0.00025797,0.00025525,-0.00
 000020,0.04826460,-0.13342291,0.00001328,0.00744822,-0.06009210,-0.000
 00540,0.06273082,0.49788948,0.00000075,0.00000080,0.00036193,-0.000001
 22,-0.00000021,-0.00076727,0.00000021,-0.00000017,-0.00160413,0.000001
 34,-0.00000217,0.00182741,-0.00000008,0.,-0.00025635,-0.00000340,0.000
 00217,-0.00105573,-0.00000010,-0.00000007,0.00003162,0.00000132,0.0000
 0071,0.01563705,0.00000006,-0.00000021,0.00014508,-0.00000112,0.000000
 16,0.00157330,-0.00003269,0.00005581,-0.08866380,-0.00000267,-0.000038
 34,0.02547220,-0.00000168,0.00004582,0.52966894,-0.00000880,0.00024812
 ,0.00008385,-0.00027057,-0.00032577,-0.00020803,0.00005970,-0.00011071
 ,-0.00034434,0.00056587,-0.00032058,0.00035387,0.00000968,-0.00000115,
 -0.00004253,-0.00100001,0.00034992,-0.00017835,0.00000055,-0.00000459,
 0.00000192,-0.00135218,-0.00001009,0.00175305,0.00007791,-0.00005376,0
 .00002551,-0.00173066,-0.00014373,-0.00058389,0.00650264,0.00546662,-0
 .01751519,-0.00026389,0.00242220,0.00197869,-0.06119310,-0.02853273,0.
 04462679,0.06146511,-0.00002553,0.00028996,-0.00007383,-0.00021686,-0.
 00002725,0.00019609,0.00039437,-0.00004775,0.00008542,0.00025732,-0.00
 020176,-0.00042473,0.00000660,-0.00001118,0.00004972,-0.00029144,0.000
 23494,-0.00032691,0.00000540,0.00000347,-0.00000323,0.00033645,0.00017
 220,-0.00186194,-0.00014590,0.00005588,-0.00002608,-0.00017028,0.00032
 666,0.00001481,-0.01054332,-0.01405349,0.02386279,0.00349877,-0.005152
 62,-0.00365571,-0.02998238,-0.12415839,0.12246995,0.03355701,0.1346891
 8,-0.00000129,-0.00007153,-0.00005004,0.00011677,-0.00000127,-0.000002
 71,0.00001620,-0.00037025,0.00021962,-0.00028419,-0.00006400,0.0000272
 3,-0.00001849,-0.00000475,0.00000069,0.00033174,0.00096035,0.00037632,
 -0.00002488,0.00000908,0.00000330,-0.00014658,0.00049000,-0.00018883,0
 .00007515,-0.00005442,0.00001923,-0.00031308,-0.00058851,-0.00038141,0
 .00017479,-0.00171845,0.00218430,-0.00055263,-0.00086538,-0.00093406,0
 .04526872,0.11855487,-0.21645245,-0.05061748,-0.12986943,0.23521166,-0
 .00000894,0.00024762,-0.00008377,-0.00026987,-0.00032558,0.00020797,0.
 00005970,-0.00011094,0.00034373,0.00056473,-0.00031982,-0.00035432,0.0
 0000967,-0.00000114,0.00004253,-0.00099602,0.00034943,0.00017713,0.000
 00059,-0.00000458,-0.00000189,-0.00135104,-0.00001003,-0.00175338,0.00
 007792,-0.00005374,-0.00002551,-0.00172962,-0.00014393,0.00058289,0.00
 649006,0.00546176,0.01751714,-0.00026083,0.00242645,-0.00197614,-0.061
 11054,-0.02842051,-0.04446733,0.00073853,0.00399206,0.00595222,0.06135
 802,-0.00002545,0.00028990,0.00007380,-0.00021693,-0.00002721,-0.00019
 593,0.00039409,-0.00004782,-0.00008532,0.00025802,-0.00020174,0.000424
 52,0.00000662,-0.00001119,-0.00004969,-0.00029137,0.00023460,0.0003263
 6,0.00000540,0.00000349,0.00000324,0.00033707,0.00017106,0.00186134,-0
 .00014593,0.00005585,0.00002608,-0.00016949,0.00032646,-0.00001515,-0.
 01052489,-0.01405162,-0.02387068,0.00349607,-0.00516402,0.00365366,-0.
 02986695,-0.12420049,-0.12250540,0.00397355,0.01178836,0.01552568,0.03
 343681,0.13474404,0.00000109,0.00007111,-0.00005003,-0.00011625,0.0000
 0125,-0.00000245,-0.00001656,0.00037027,0.00022000,0.00028393,0.000064
 41,0.00002664,0.00001853,0.00000475,0.00000075,-0.00033169,-0.00096064
 ,0.00037537,0.00002491,-0.00000906,0.00000326,0.00014702,-0.00049077,-
 0.00019155,-0.00007507,0.00005436,0.00001917,0.00031181,0.00058808,-0.
 00038077,-0.00016809,0.00172023,0.00220469,0.00055321,0.00086955,-0.00
 093506,-0.04511173,-0.11859114,-0.21649314,-0.00593005,-0.01552990,-0.
 02137992,0.05043718,0.12991999,0.23526183,0.00018681,0.00008037,0.0000
 0001,-0.00017008,0.00033123,0.00000013,0.00003711,-0.00005273,-0.00000
 013,-0.00075987,-0.00058745,0.,-0.00010097,-0.00000664,0.00000002,0.00
 058346,0.00037864,0.00000008,-0.00003568,-0.00000557,-0.00000001,-0.00
 021728,0.00322868,-0.00000179,0.00000565,0.00006102,-0.00000005,0.0001
 3490,0.00003681,0.00000030,-0.02040690,-0.00558037,-0.00000767,0.00394
 106,-0.00161373,0.00000212,-0.31099756,-0.06193722,-0.00011977,-0.0035
 8486,-0.00068855,-0.00003104,-0.00355656,-0.00068296,0.00002566,0.3350
 6401,-0.00010077,-0.00009735,0.,0.00019037,-0.00038194,-0.00000012,-0.
 00004995,0.00037247,0.00000004,0.00140954,0.00056653,-0.00000035,0.000
 13121,0.00000549,0.00000002,-0.00045617,-0.00109268,-0.00000035,0.0000
 4041,-0.00000001,-0.00000002,0.00116075,-0.00515368,0.00000064,0.00000
 092,0.00001997,0.00000006,-0.00017497,0.00055978,0.00000018,0.03250077
 ,0.00583812,0.00001349,-0.00137255,0.00233875,0.00000030,-0.06734042,-
 0.06310203,-0.00002885,-0.01649296,-0.00390567,-0.00190438,-0.01650251
 ,-0.00390711,0.00188991,0.06704840,0.06790768,0.00000015,-0.00000011,-
 0.00000457,0.00000003,0.00000031,-0.00019911,-0.00000020,-0.00000016,0
 .00019029,-0.00000069,-0.00000037,0.00036176,-0.00000006,0.,-0.0000409
 4,0.00000085,0.00000045,0.00012526,-0.00000003,0.,0.00000607,0.0000005
 2,0.00000160,0.00148039,0.00000004,0.,0.00007884,0.00000030,-0.0000002
 7,-0.00042064,-0.00001306,-0.00000412,-0.00097031,0.00000298,-0.000000
 48,-0.00107734,-0.00012058,-0.00002674,-0.04954422,0.02656281,0.005085
 04,0.00136863,-0.02656513,-0.00508456,0.00134279,0.00013211,0.00002943
 ,0.04731734,-0.10339139,-0.00121080,0.00000542,-0.03280825,0.00010901,
 0.00000226,-0.03348183,-0.00113601,0.00000219,0.00416815,-0.00512139,-
 0.00000024,0.00032157,-0.00039136,-0.00000027,0.00384767,0.00483249,0.
 00000103,0.00019684,0.00041014,-0.00000020,-0.00416259,0.00050458,0.00
 000003,-0.00110681,0.00055069,0.00000018,-0.00125315,-0.00034566,0.000
 00007,0.00429020,0.00051233,0.00000029,-0.00198608,-0.00131087,-0.0000
 0076,-0.00036521,0.00027484,-0.00000042,-0.00001591,0.00001628,0.00005
 409,-0.00001579,0.00001636,-0.00005389,-0.00012323,0.00000792,-0.00000
 003,0.16588581,-0.00120269,-0.03009860,-0.00000116,-0.02192022,0.00236
 365,0.00000108,0.02073263,0.00298227,-0.00000129,0.00120327,-0.0032120
 5,-0.00000080,-0.00154943,0.00026559,0.00000038,-0.00105757,-0.0028992
 0,-0.00000073,0.00157681,0.00031700,0.00000014,-0.00006253,0.00120058,
 0.00000017,-0.00066666,0.00016716,0.00000009,0.00070632,0.00009385,-0.
 00000002,0.00000804,0.00008551,0.00000007,0.00001732,0.00017226,0.0000
 0001,-0.00001411,0.00002796,0.,-0.00002136,-0.00000255,-0.00002762,-0.
 00002135,-0.00000254,0.00002762,-0.00000992,0.00003169,-0.00000002,0.0
 0228146,0.02850743,0.00000538,-0.00000142,-0.01761837,-0.00000054,-0.0
 0000037,0.00304328,0.00000407,0.00000051,0.00306394,0.00000051,-0.0000
 0080,0.00412671,-0.00000026,0.00000030,-0.00198965,0.00000046,-0.00000
 079,0.00418480,0.00000011,0.00000022,-0.00207784,0.00000002,0.00000014
 ,-0.00054385,-0.00000008,-0.00000001,-0.00007331,0.00000006,0.00000004
 ,0.00000046,-0.00000014,0.00000013,-0.00084711,0.00000012,0.,0.0001580
 1,-0.00000003,-0.00000003,0.00011954,0.00003338,0.00000794,-0.00002157
 ,-0.00003332,-0.00000794,-0.00002157,0.00000002,0.00000001,-0.00001425
 ,-0.00000975,0.00000206,0.00851079\\0.00003754,-0.00000021,-0.00000022
 ,-0.00003042,-0.00002288,-0.00000199,0.00000087,0.00004289,-0.00000313
 ,0.00001990,0.00001570,0.00000369,0.00000537,-0.00001767,-0.00000028,0
 .00000255,0.00000921,0.00000495,0.00000158,0.00001589,-0.00000049,-0.0
 0009007,-0.00005159,0.00004334,-0.00001148,-0.00002884,0.,-0.00001950,
 0.00002135,0.00000223,-0.00004847,-0.00009297,-0.00015555,0.00009447,-
 0.00001873,0.00005465,0.00003300,0.00003306,0.00005099,-0.00000019,0.0
 0004787,0.00000377,-0.00000860,0.00006583,-0.00000406,0.00002484,-0.00
 001591,0.00000173,-0.00001139,-0.00000301,0.00000037\\\@


 Some scientists claim that hydrogen, because it is so
 plentiful, is the basic building block of the universe. 
 I dispute that. I say that stupidity is far more
 abundant than hydrogen, and THAT is the basic building 
 block of the universe.
                   --Frank Zappa
 Job cpu time:       0 days  0 hours 43 minutes 46.5 seconds.
 Elapsed time:       0 days  0 hours  1 minutes 32.7 seconds.
 File lengths (MBytes):  RWF=     71 Int=      0 D2E=      0 Chk=      4 Scr=      1
 Normal termination of Gaussian 16 at Sat Sep 16 07:13:18 2023.
