 Entering Gaussian System, Link 0=C:\G09W\g09.exe
 Input=C:\Users\123\Desktop\ML project\molecule_5.gjf
 Output=C:\Users\123\Desktop\ML project\molecule_5.log
 Initial command:
 C:/G09W\l1.exe ".\Gau-2748.inp" "C:\Users\123\Desktop\ML project\molecule_5.log" /scrdir=".\"
 Entering Link 1 = C:/G09W\l1.exe PID=      3860.
  
 Copyright (c) 1988,1990,1992,1993,1995,1998,2003,2009,2013,
            Gaussian, Inc.  All Rights Reserved.
  
 This is part of the Gaussian(R) 09 program.  It is based on
 the Gaussian(R) 03 system (copyright 2003, Gaussian, Inc.),
 the Gaussian(R) 98 system (copyright 1998, Gaussian, Inc.),
 the Gaussian(R) 94 system (copyright 1995, Gaussian, Inc.),
 the Gaussian 92(TM) system (copyright 1992, Gaussian, Inc.),
 the Gaussian 90(TM) system (copyright 1990, Gaussian, Inc.),
 the Gaussian 88(TM) system (copyright 1988, Gaussian, Inc.),
 the Gaussian 86(TM) system (copyright 1986, Carnegie Mellon
 University), and the Gaussian 82(TM) system (copyright 1983,
 Carnegie Mellon University). Gaussian is a federally registered
 trademark of Gaussian, Inc.
  
 This software contains proprietary and confidential information,
 including trade secrets, belonging to Gaussian, Inc.
  
 This software is provided under written license and may be
 used, copied, transmitted, or stored only in accord with that
 written license.
  
 The following legend is applicable only to US Government
 contracts under FAR:
  
                    RESTRICTED RIGHTS LEGEND
  
 Use, reproduction and disclosure by the US Government is
 subject to restrictions as set forth in subparagraphs (a)
 and (c) of the Commercial Computer Software - Restricted
 Rights clause in FAR 52.227-19.
  
 Gaussian, Inc.
 340 Quinnipiac St., Bldg. 40, Wallingford CT 06492
  
  
 ---------------------------------------------------------------
 Warning -- This program may not be used in any manner that
 competes with the business of Gaussian, Inc. or will provide
 assistance to any competitor of Gaussian, Inc.  The licensee
 of this program is prohibited from giving any competitor of
 Gaussian, Inc. access to this program.  By using this program,
 the user acknowledges that Gaussian, Inc. is engaged in the
 business of creating and licensing software in the field of
 computational chemistry and represents and warrants to the
 licensee that it is not a competitor of Gaussian, Inc. and that
 it will not use this program in any manner prohibited above.
 ---------------------------------------------------------------
  

 Cite this work as:
 Gaussian 09, Revision D.01,
 M. J. Frisch, G. W. Trucks, H. B. Schlegel, G. E. Scuseria, 
 M. A. Robb, J. R. Cheeseman, G. Scalmani, V. Barone, B. Mennucci, 
 G. A. Petersson, H. Nakatsuji, M. Caricato, X. Li, H. P. Hratchian, 
 A. F. Izmaylov, J. Bloino, G. Zheng, J. L. Sonnenberg, M. Hada, 
 M. Ehara, K. Toyota, R. Fukuda, J. Hasegawa, M. Ishida, T. Nakajima, 
 Y. Honda, O. Kitao, H. Nakai, T. Vreven, J. A. Montgomery, Jr., 
 J. E. Peralta, F. Ogliaro, M. Bearpark, J. J. Heyd, E. Brothers, 
 K. N. Kudin, V. N. Staroverov, T. Keith, R. Kobayashi, J. Normand, 
 K. Raghavachari, A. Rendell, J. C. Burant, S. S. Iyengar, J. Tomasi, 
 M. Cossi, N. Rega, J. M. Millam, M. Klene, J. E. Knox, J. B. Cross, 
 V. Bakken, C. Adamo, J. Jaramillo, R. Gomperts, R. E. Stratmann, 
 O. Yazyev, A. J. Austin, R. Cammi, C. Pomelli, J. W. Ochterski, 
 R. L. Martin, K. Morokuma, V. G. Zakrzewski, G. A. Voth, 
 P. Salvador, J. J. Dannenberg, S. Dapprich, A. D. Daniels, 
 O. Farkas, J. B. Foresman, J. V. Ortiz, J. Cioslowski, 
 and D. J. Fox, Gaussian, Inc., Wallingford CT, 2013.
 
 ******************************************
 Gaussian 09:  EM64W-G09RevD.01 13-Apr-2013
                24-Aug-2023 
 ******************************************
 %nprocshared=2
 Will use up to    2 processors via shared memory.
 %mem=4GB
 %chk=C:\Users\123\Desktop\ML project\molecule_5.chk
 --------------------------------------------------------------------
 # opt freq b3lyp/6-31+g(d) geom=connectivity empiricaldispersion=gd3
 --------------------------------------------------------------------
 1/14=-1,18=20,19=15,26=3,38=1,57=2/1,3;
 2/9=110,12=2,17=6,18=5,40=1/2;
 3/5=1,6=6,7=11,11=2,16=1,25=1,30=1,71=1,74=-5,124=31/1,2,3;
 4//1;
 5/5=2,38=5/2;
 6/7=2,8=2,9=2,10=2,28=1/1;
 7//1,2,3,16;
 1/14=-1,18=20,19=15,26=3/3(2);
 2/9=110/2;
 99//99;
 2/9=110/2;
 3/5=1,6=6,7=11,11=2,16=1,25=1,30=1,71=1,74=-5,124=31/1,2,3;
 4/5=5,16=3,69=1/1;
 5/5=2,38=5/2;
 7//1,2,3,16;
 1/14=-1,18=20,19=15,26=3/3(-5);
 2/9=110/2;
 6/7=2,8=2,9=2,10=2,19=2,28=1/1;
 99/9=1/99;
 -------------------
 Title Card Required
 -------------------
 Symbolic Z-matrix:
 Charge =  0 Multiplicity = 2
 C                    -6.55986  -2.3606   -1.17145 
 C                    -4.50182  -1.11944  -1.51171 
 C                    -5.17116   0.07371  -1.20791 
 C                    -6.53485   0.04971  -0.88588 
 C                    -7.2292   -1.16745  -0.86765 
 H                    -7.09001  -3.28993  -1.15754 
 H                    -4.64101   1.00304  -1.22182 
 H                    -7.0459    0.9607   -0.65392 
 H                    -8.2704   -1.18578  -0.62177 
 C                    -3.00326  -1.09306  -1.86559 
 C                    -1.83439  -1.07249  -2.14162 
 N                    -5.19617  -2.3366   -1.49349 
 

 GradGradGradGradGradGradGradGradGradGradGradGradGradGradGradGradGradGrad
 Berny optimization.
 Initialization pass.
                           ----------------------------
                           !    Initial Parameters    !
                           ! (Angstroms and Degrees)  !
 --------------------------                            --------------------------
 ! Name  Definition              Value          Derivative Info.                !
 --------------------------------------------------------------------------------
 ! R1    R(1,5)                  1.4014         estimate D2E/DX2                !
 ! R2    R(1,6)                  1.07           estimate D2E/DX2                !
 ! R3    R(1,12)                 1.4014         estimate D2E/DX2                !
 ! R4    R(2,3)                  1.4014         estimate D2E/DX2                !
 ! R5    R(2,10)                 1.54           estimate D2E/DX2                !
 ! R6    R(2,12)                 1.4014         estimate D2E/DX2                !
 ! R7    R(3,4)                  1.4014         estimate D2E/DX2                !
 ! R8    R(3,7)                  1.07           estimate D2E/DX2                !
 ! R9    R(4,5)                  1.4014         estimate D2E/DX2                !
 ! R10   R(4,8)                  1.07           estimate D2E/DX2                !
 ! R11   R(5,9)                  1.07           estimate D2E/DX2                !
 ! R12   R(10,11)                1.2012         estimate D2E/DX2                !
 ! A1    A(5,1,6)              120.0            estimate D2E/DX2                !
 ! A2    A(5,1,12)             120.0            estimate D2E/DX2                !
 ! A3    A(6,1,12)             120.0            estimate D2E/DX2                !
 ! A4    A(3,2,10)             120.0            estimate D2E/DX2                !
 ! A5    A(3,2,12)             120.0            estimate D2E/DX2                !
 ! A6    A(10,2,12)            120.0            estimate D2E/DX2                !
 ! A7    A(2,3,4)              120.0            estimate D2E/DX2                !
 ! A8    A(2,3,7)              120.0            estimate D2E/DX2                !
 ! A9    A(4,3,7)              120.0            estimate D2E/DX2                !
 ! A10   A(3,4,5)              120.0            estimate D2E/DX2                !
 ! A11   A(3,4,8)              120.0            estimate D2E/DX2                !
 ! A12   A(5,4,8)              120.0            estimate D2E/DX2                !
 ! A13   A(1,5,4)              120.0            estimate D2E/DX2                !
 ! A14   A(1,5,9)              120.0            estimate D2E/DX2                !
 ! A15   A(4,5,9)              120.0            estimate D2E/DX2                !
 ! A16   A(1,12,2)             120.0            estimate D2E/DX2                !
 ! A17   L(2,10,11,7,-1)       180.0001         estimate D2E/DX2                !
 ! A18   L(2,10,11,7,-2)       180.0            estimate D2E/DX2                !
 ! D1    D(6,1,5,4)           -179.9997         estimate D2E/DX2                !
 ! D2    D(6,1,5,9)              0.0001         estimate D2E/DX2                !
 ! D3    D(12,1,5,4)             0.0            estimate D2E/DX2                !
 ! D4    D(12,1,5,9)           179.9999         estimate D2E/DX2                !
 ! D5    D(5,1,12,2)             0.0            estimate D2E/DX2                !
 ! D6    D(6,1,12,2)           179.9998         estimate D2E/DX2                !
 ! D7    D(10,2,3,4)           179.9998         estimate D2E/DX2                !
 ! D8    D(10,2,3,7)            -0.0001         estimate D2E/DX2                !
 ! D9    D(12,2,3,4)            -0.0001         estimate D2E/DX2                !
 ! D10   D(12,2,3,7)          -180.0            estimate D2E/DX2                !
 ! D11   D(3,2,12,1)             0.0            estimate D2E/DX2                !
 ! D12   D(10,2,12,1)         -179.9999         estimate D2E/DX2                !
 ! D13   D(2,3,4,5)              0.0002         estimate D2E/DX2                !
 ! D14   D(2,3,4,8)           -179.9998         estimate D2E/DX2                !
 ! D15   D(7,3,4,5)           -180.0            estimate D2E/DX2                !
 ! D16   D(7,3,4,8)              0.0            estimate D2E/DX2                !
 ! D17   D(3,4,5,1)             -0.0001         estimate D2E/DX2                !
 ! D18   D(3,4,5,9)           -180.0            estimate D2E/DX2                !
 ! D19   D(8,4,5,1)            179.9999         estimate D2E/DX2                !
 ! D20   D(8,4,5,9)              0.0            estimate D2E/DX2                !
 --------------------------------------------------------------------------------
 Trust Radius=3.00D-01 FncErr=1.00D-07 GrdErr=1.00D-06
 Number of steps in this run=     60 maximum allowed number of steps=    100.
 GradGradGradGradGradGradGradGradGradGradGradGradGradGradGradGradGradGrad

                          Input orientation:                          
 ---------------------------------------------------------------------
 Center     Atomic      Atomic             Coordinates (Angstroms)
 Number     Number       Type             X           Y           Z
 ---------------------------------------------------------------------
      1          6           0       -6.559857   -2.360602   -1.171455
      2          6           0       -4.501821   -1.119441   -1.511711
      3          6           0       -5.171159    0.073711   -1.207906
      4          6           0       -6.534847    0.049707   -0.885877
      5          6           0       -7.229195   -1.167450   -0.867650
      6          1           0       -7.090008   -3.289927   -1.157542
      7          1           0       -4.641009    1.003037   -1.221822
      8          1           0       -7.045902    0.960705   -0.653918
      9          1           0       -8.270401   -1.185778   -0.621775
     10          6           0       -3.003265   -1.093062   -1.865593
     11          6           0       -1.834391   -1.072488   -2.141622
     12          7           0       -5.196170   -2.336597   -1.493485
 ---------------------------------------------------------------------
                    Distance matrix (angstroms):
                    1          2          3          4          5
     1  C    0.000000
     2  C    2.427296   0.000000
     3  C    2.802800   1.401400   0.000000
     4  C    2.427296   2.427296   1.401400   0.000000
     5  C    1.401400   2.802800   2.427296   1.401400   0.000000
     6  H    1.070000   3.396345   3.872800   3.396345   2.146700
     7  H    3.872800   2.146700   1.070000   2.146700   3.396345
     8  H    3.396345   3.396345   2.146700   1.070000   2.146700
     9  H    2.146700   3.872800   3.396345   2.146700   1.070000
    10  C    3.838989   1.540000   2.548270   3.838989   4.342800
    11  C    4.993044   2.741200   3.649606   4.993045   5.544000
    12  N    1.401400   1.401400   2.427296   2.802800   2.427296
                    6          7          8          9         10
     6  H    0.000000
     7  H    4.942800   0.000000
     8  H    4.280590   2.471400   0.000000
     9  H    2.471400   4.280590   2.471400   0.000000
    10  C    4.693509   2.736837   4.693509   5.412800   0.000000
    11  C    5.788520   3.609839   5.788522   6.614000   1.201200
    12  N    2.146700   3.396345   3.872800   3.396345   2.548270
                   11         12
    11  C    0.000000
    12  N    3.649604   0.000000
 Stoichiometry    C7H4N(2)
 Framework group  C1[X(C7H4N)]
 Deg. of freedom    30
 Full point group                 C1      NOp   1
 Largest Abelian subgroup         C1      NOp   1
 Largest concise Abelian subgroup C1      NOp   1
                         Standard orientation:                         
 ---------------------------------------------------------------------
 Center     Atomic      Atomic             Coordinates (Angstroms)
 Number     Number       Type             X           Y           Z
 ---------------------------------------------------------------------
      1          6           0        1.457068   -1.217939    0.000000
      2          6           0       -0.655976   -0.023447   -0.000001
      3          6           0        0.033664    1.196520   -0.000002
      4          6           0        1.435006    1.209257    0.000001
      5          6           0        2.146708    0.002028    0.000000
      6          1           0        2.000468   -2.139685    0.000003
      7          1           0       -0.509736    2.118266   -0.000002
      8          1           0        1.961562    2.140729    0.000003
      9          1           0        3.216664    0.011753    0.000003
     10          6           0       -2.195913   -0.037444    0.000000
     11          6           0       -3.397063   -0.048363    0.000002
     12          7           0        0.055726   -1.230676   -0.000001
 ---------------------------------------------------------------------
 Rotational constants (GHZ):      5.7760838      1.5539173      1.2244959
 Standard basis: 6-31+G(d) (6D, 7F)
 There are   160 symmetry adapted cartesian basis functions of A   symmetry.
 There are   160 symmetry adapted basis functions of A   symmetry.
   160 basis functions,   272 primitive gaussians,   160 cartesian basis functions
    27 alpha electrons       26 beta electrons
       nuclear repulsion energy       287.0969091843 Hartrees.
 NAtoms=   12 NActive=   12 NUniq=   12 SFac= 1.00D+00 NAtFMM=   60 NAOKFM=F Big=F
 Integral buffers will be    131072 words long.
 Raffenetti 2 integral format.
 Two-electron integral symmetry is turned on.
 Nuclear repulsion after empirical dispersion term =      287.0906961526 Hartrees.
 One-electron integrals computed using PRISM.
 NBasis=   160 RedAO= T EigKep=  7.91D-06  NBF=   160
 NBsUse=   159 1.00D-06 EigRej=  5.80D-07 NBFU=   159
 ExpMin= 4.38D-02 ExpMax= 4.17D+03 ExpMxC= 6.27D+02 IAcc=2 IRadAn=         4 AccDes= 0.00D+00
 Harris functional with IExCor=  402 and IRadAn=       4 diagonalized for initial guess.
 HarFok:  IExCor=  402 AccDes= 0.00D+00 IRadAn=         4 IDoV= 1 UseB2=F ITyADJ=14
 ICtDFT=  3500011 ScaDFX=  1.000000  1.000000  1.000000  1.000000
 FoFCou: FMM=F IPFlag=           0 FMFlag=      100000 FMFlg1=           0
         NFxFlg=           0 DoJE=T BraDBF=F KetDBF=T FulRan=T
         wScrn=  0.000000 ICntrl=     500 IOpCl=  0 I1Cent=   200000004 NGrid=           0
         NMat0=    1 NMatS0=      1 NMatT0=    0 NMatD0=    1 NMtDS0=    0 NMtDT0=    0
 Petite list used in FoFCou.
 Initial guess <Sx>= 0.0000 <Sy>= 0.0000 <Sz>= 0.5000 <S**2>= 0.7500 S= 0.5000
 Keep R1 and R2 ints in memory in canonical form, NReq=168091342.
 Requested convergence on RMS density matrix=1.00D-08 within 128 cycles.
 Requested convergence on MAX density matrix=1.00D-06.
 Requested convergence on             energy=1.00D-06.
 No special actions if energy rises.
 SCF Done:  E(UB3LYP) =  -323.709310565     A.U. after   25 cycles
            NFock= 25  Conv=0.87D-08     -V/T= 2.0110
 <Sx>= 0.0000 <Sy>= 0.0000 <Sz>= 0.5000 <S**2>= 0.7744 S= 0.5121
 <L.S>= 0.000000000000E+00
 Annihilation of the first spin contaminant:
 S**2 before annihilation     0.7744,   after     0.7504

 **********************************************************************

            Population analysis using the SCF density.

 **********************************************************************

 Orbital symmetries:
 Alpha Orbitals:
       Occupied  (A) (A) (A) (A) (A) (A) (A) (A) (A) (A) (A) (A)
                 (A) (A) (A) (A) (A) (A) (A) (A) (A) (A) (A) (A)
                 (A) (A) (A)
       Virtual   (A) (A) (A) (A) (A) (A) (A) (A) (A) (A) (A) (A)
                 (A) (A) (A) (A) (A) (A) (A) (A) (A) (A) (A) (A)
                 (A) (A) (A) (A) (A) (A) (A) (A) (A) (A) (A) (A)
                 (A) (A) (A) (A) (A) (A) (A) (A) (A) (A) (A) (A)
                 (A) (A) (A) (A) (A) (A) (A) (A) (A) (A) (A) (A)
                 (A) (A) (A) (A) (A) (A) (A) (A) (A) (A) (A) (A)
                 (A) (A) (A) (A) (A) (A) (A) (A) (A) (A) (A) (A)
                 (A) (A) (A) (A) (A) (A) (A) (A) (A) (A) (A) (A)
                 (A) (A) (A) (A) (A) (A) (A) (A) (A) (A) (A) (A)
                 (A) (A) (A) (A) (A) (A) (A) (A) (A) (A) (A) (A)
                 (A) (A) (A) (A) (A) (A) (A) (A) (A) (A) (A) (A)
 Beta  Orbitals:
       Occupied  (A) (A) (A) (A) (A) (A) (A) (A) (A) (A) (A) (A)
                 (A) (A) (A) (A) (A) (A) (A) (A) (A) (A) (A) (A)
                 (A) (A)
       Virtual   (A) (A) (A) (A) (A) (A) (A) (A) (A) (A) (A) (A)
                 (A) (A) (A) (A) (A) (A) (A) (A) (A) (A) (A) (A)
                 (A) (A) (A) (A) (A) (A) (A) (A) (A) (A) (A) (A)
                 (A) (A) (A) (A) (A) (A) (A) (A) (A) (A) (A) (A)
                 (A) (A) (A) (A) (A) (A) (A) (A) (A) (A) (A) (A)
                 (A) (A) (A) (A) (A) (A) (A) (A) (A) (A) (A) (A)
                 (A) (A) (A) (A) (A) (A) (A) (A) (A) (A) (A) (A)
                 (A) (A) (A) (A) (A) (A) (A) (A) (A) (A) (A) (A)
                 (A) (A) (A) (A) (A) (A) (A) (A) (A) (A) (A) (A)
                 (A) (A) (A) (A) (A) (A) (A) (A) (A) (A) (A) (A)
                 (A) (A) (A) (A) (A) (A) (A) (A) (A) (A) (A) (A)
                 (A)
 The electronic state is 2-A.
 Alpha  occ. eigenvalues --  -14.36541 -10.28654 -10.25723 -10.25307 -10.23157
 Alpha  occ. eigenvalues --  -10.22780 -10.22651 -10.22293  -0.94003  -0.81823
 Alpha  occ. eigenvalues --   -0.80425  -0.76621  -0.65886  -0.64902  -0.55959
 Alpha  occ. eigenvalues --   -0.50982  -0.49970  -0.47122  -0.42771  -0.41266
 Alpha  occ. eigenvalues --   -0.40654  -0.39009  -0.33321  -0.31311  -0.29859
 Alpha  occ. eigenvalues --   -0.27557  -0.27476
 Alpha virt. eigenvalues --   -0.06802  -0.04852  -0.00388   0.01381   0.01946
 Alpha virt. eigenvalues --    0.02822   0.04247   0.04521   0.04894   0.05285
 Alpha virt. eigenvalues --    0.05519   0.07758   0.07851   0.08208   0.09153
 Alpha virt. eigenvalues --    0.10082   0.10883   0.12811   0.12848   0.13528
 Alpha virt. eigenvalues --    0.14426   0.14675   0.15642   0.16514   0.17170
 Alpha virt. eigenvalues --    0.17430   0.18714   0.19015   0.20155   0.20440
 Alpha virt. eigenvalues --    0.21742   0.22533   0.23891   0.24353   0.25421
 Alpha virt. eigenvalues --    0.25590   0.26119   0.27686   0.28905   0.29413
 Alpha virt. eigenvalues --    0.31671   0.32591   0.32967   0.34509   0.36287
 Alpha virt. eigenvalues --    0.50861   0.51898   0.53449   0.62201   0.64095
 Alpha virt. eigenvalues --    0.65061   0.66872   0.68119   0.69834   0.70662
 Alpha virt. eigenvalues --    0.70932   0.72932   0.73382   0.75642   0.77364
 Alpha virt. eigenvalues --    0.81346   0.81568   0.84234   0.88128   0.90464
 Alpha virt. eigenvalues --    0.91346   0.93415   0.94518   0.95441   1.00773
 Alpha virt. eigenvalues --    1.01099   1.02750   1.09242   1.11629   1.12690
 Alpha virt. eigenvalues --    1.13997   1.16537   1.21482   1.22141   1.25229
 Alpha virt. eigenvalues --    1.30933   1.31414   1.32836   1.40773   1.43947
 Alpha virt. eigenvalues --    1.44361   1.46110   1.46545   1.49930   1.52646
 Alpha virt. eigenvalues --    1.54044   1.71156   1.72475   1.77230   1.80634
 Alpha virt. eigenvalues --    1.83143   1.90588   1.92581   1.92655   1.95084
 Alpha virt. eigenvalues --    2.02710   2.06736   2.09953   2.11576   2.13484
 Alpha virt. eigenvalues --    2.13937   2.16031   2.25597   2.27752   2.28548
 Alpha virt. eigenvalues --    2.39582   2.46693   2.56121   2.58929   2.61192
 Alpha virt. eigenvalues --    2.64649   2.66156   2.69318   2.76106   2.78951
 Alpha virt. eigenvalues --    2.80486   3.07108   3.19709   3.37806   4.12975
 Alpha virt. eigenvalues --    4.14854   4.23095   4.24872   4.27951   4.36020
 Alpha virt. eigenvalues --    4.53526   4.72736
  Beta  occ. eigenvalues --  -14.36563 -10.28567 -10.25290 -10.23689 -10.23144
  Beta  occ. eigenvalues --  -10.22734 -10.22674 -10.22316  -0.94017  -0.81844
  Beta  occ. eigenvalues --   -0.80076  -0.75066  -0.65630  -0.64728  -0.55661
  Beta  occ. eigenvalues --   -0.50819  -0.49972  -0.46902  -0.42621  -0.41300
  Beta  occ. eigenvalues --   -0.39783  -0.32786  -0.29912  -0.29911  -0.27531
  Beta  occ. eigenvalues --   -0.26584
  Beta virt. eigenvalues --   -0.19588  -0.06333  -0.04704  -0.00376   0.01782
  Beta virt. eigenvalues --    0.02768   0.03472   0.04894   0.04928   0.04967
  Beta virt. eigenvalues --    0.05310   0.05965   0.08041   0.08072   0.08360
  Beta virt. eigenvalues --    0.09589   0.10158   0.10937   0.13040   0.13403
  Beta virt. eigenvalues --    0.13543   0.14469   0.14741   0.16042   0.16549
  Beta virt. eigenvalues --    0.17445   0.17702   0.18824   0.19032   0.20218
  Beta virt. eigenvalues --    0.20561   0.21926   0.22563   0.24006   0.24380
  Beta virt. eigenvalues --    0.25406   0.25637   0.26192   0.27757   0.28945
  Beta virt. eigenvalues --    0.29507   0.31772   0.32670   0.33324   0.34623
  Beta virt. eigenvalues --    0.36514   0.51675   0.53220   0.54610   0.62353
  Beta virt. eigenvalues --    0.64494   0.65411   0.67229   0.68326   0.69928
  Beta virt. eigenvalues --    0.71122   0.71478   0.73614   0.74020   0.75817
  Beta virt. eigenvalues --    0.77412   0.81331   0.84287   0.86607   0.88751
  Beta virt. eigenvalues --    0.91082   0.91798   0.93664   0.94594   0.95574
  Beta virt. eigenvalues --    1.01027   1.01124   1.02776   1.09308   1.11971
  Beta virt. eigenvalues --    1.12781   1.14163   1.16745   1.21521   1.22134
  Beta virt. eigenvalues --    1.25541   1.32181   1.32771   1.32825   1.40927
  Beta virt. eigenvalues --    1.44395   1.44570   1.46070   1.46642   1.50160
  Beta virt. eigenvalues --    1.53759   1.55581   1.73195   1.75306   1.77384
  Beta virt. eigenvalues --    1.81010   1.83722   1.92268   1.92615   1.93699
  Beta virt. eigenvalues --    1.95415   2.03080   2.07427   2.10670   2.11750
  Beta virt. eigenvalues --    2.13506   2.14147   2.16586   2.25931   2.27746
  Beta virt. eigenvalues --    2.28703   2.42695   2.48564   2.57238   2.59259
  Beta virt. eigenvalues --    2.61193   2.66075   2.68844   2.69432   2.76199
  Beta virt. eigenvalues --    2.79288   2.81128   3.07501   3.21633   3.38640
  Beta virt. eigenvalues --    4.14574   4.17901   4.23078   4.25129   4.28089
  Beta virt. eigenvalues --    4.36041   4.53555   4.72924
          Condensed to atoms (all electrons):
               1          2          3          4          5          6
     1  C    5.806822   0.726203  -1.241047   0.646731  -0.300044   0.429929
     2  C    0.726203   8.193880  -2.867571   1.474635  -1.012237   0.041507
     3  C   -1.241047  -2.867571  10.918813  -2.250009   1.393012  -0.051531
     4  C    0.646731   1.474635  -2.250009   6.626983  -0.461302   0.046080
     5  C   -0.300044  -1.012237   1.393012  -0.461302   6.155291  -0.126278
     6  H    0.429929   0.041507  -0.051531   0.046080  -0.126278   0.529910
     7  H    0.000969   0.015684   0.223692   0.017557  -0.006484   0.000019
     8  H   -0.005259  -0.001921  -0.002950   0.282939   0.025207  -0.000152
     9  H    0.007619   0.008486  -0.006050   0.008889   0.269356  -0.001548
    10  C   -0.049197  -1.342697   0.340827  -0.041495  -0.056561   0.008822
    11  C    0.153718   0.522048  -0.933281   0.276055  -0.143362   0.001475
    12  N    0.053751   0.081717   0.387909  -0.236675   0.189798  -0.075463
               7          8          9         10         11         12
     1  C    0.000969  -0.005259   0.007619  -0.049197   0.153718   0.053751
     2  C    0.015684  -0.001921   0.008486  -1.342697   0.522048   0.081717
     3  C    0.223692  -0.002950  -0.006050   0.340827  -0.933281   0.387909
     4  C    0.017557   0.282939   0.008889  -0.041495   0.276055  -0.236675
     5  C   -0.006484   0.025207   0.269356  -0.056561  -0.143362   0.189798
     6  H    0.000019  -0.000152  -0.001548   0.008822   0.001475  -0.075463
     7  H    0.511470  -0.005009  -0.000116   0.030197   0.005943   0.004777
     8  H   -0.005009   0.520037  -0.004953  -0.004058  -0.000274   0.001100
     9  H   -0.000116  -0.004953   0.523361   0.002703  -0.000080   0.003527
    10  C    0.030197  -0.004058   0.002703   7.690974  -0.125123  -0.098327
    11  C    0.005943  -0.000274  -0.000080  -0.125123   6.369308  -0.136980
    12  N    0.004777   0.001100   0.003527  -0.098327  -0.136980   6.963457
          Atomic-Atomic Spin Densities.
               1          2          3          4          5          6
     1  C    0.057982   0.053001  -0.002269   0.014563  -0.022838   0.001412
     2  C    0.053001   0.533525   0.036610  -0.049383   0.005604   0.000347
     3  C   -0.002269   0.036610  -0.363366   0.185609  -0.083625  -0.001301
     4  C    0.014563  -0.049383   0.185609  -0.088685   0.048246   0.001517
     5  C   -0.022838   0.005604  -0.083625   0.048246  -0.020336  -0.000949
     6  H    0.001412   0.000347  -0.001301   0.001517  -0.000949  -0.000895
     7  H    0.000293   0.003703  -0.001325   0.000725  -0.000254   0.000000
     8  H   -0.000720  -0.002750   0.003138  -0.002959   0.002549   0.000000
     9  H    0.000807  -0.000005   0.000341   0.001485  -0.002099   0.000001
    10  C   -0.109293  -0.702348   0.222086  -0.106590   0.059464  -0.001128
    11  C    0.024356   0.267123  -0.014408   0.008105  -0.008865   0.000281
    12  N   -0.006900  -0.028351  -0.010476   0.003863   0.002914  -0.000015
               7          8          9         10         11         12
     1  C    0.000293  -0.000720   0.000807  -0.109293   0.024356  -0.006900
     2  C    0.003703  -0.002750  -0.000005  -0.702348   0.267123  -0.028351
     3  C   -0.001325   0.003138   0.000341   0.222086  -0.014408  -0.010476
     4  C    0.000725  -0.002959   0.001485  -0.106590   0.008105   0.003863
     5  C   -0.000254   0.002549  -0.002099   0.059464  -0.008865   0.002914
     6  H    0.000000   0.000000   0.000001  -0.001128   0.000281  -0.000015
     7  H    0.000779  -0.000020   0.000000  -0.004626   0.001474   0.000026
     8  H   -0.000020  -0.000123  -0.000040   0.001028  -0.000260   0.000040
     9  H    0.000000  -0.000040   0.001278  -0.000506   0.000074  -0.000108
    10  C   -0.004626   0.001028  -0.000506   0.715138  -0.452918   0.050012
    11  C    0.001474  -0.000260   0.000074  -0.452918   1.431454  -0.011699
    12  N    0.000026   0.000040  -0.000108   0.050012  -0.011699  -0.010295
 Mulliken charges and spin densities:
               1          2
     1  C   -0.230193   0.010395
     2  C    0.160266   0.117077
     3  C    0.088185  -0.028985
     4  C   -0.390388   0.016497
     5  C    0.073603  -0.020188
     6  H    0.197229  -0.000731
     7  H    0.201302   0.000775
     8  H    0.195294  -0.000117
     9  H    0.188806   0.001229
    10  C   -0.356066  -0.329680
    11  C    0.010553   1.244718
    12  N   -0.138592  -0.010989
 Sum of Mulliken charges =   0.00000   1.00000
 Mulliken charges and spin densities with hydrogens summed into heavy atoms:
               1          2
     1  C   -0.032964   0.009664
     2  C    0.160266   0.117077
     3  C    0.289487  -0.028210
     4  C   -0.195094   0.016380
     5  C    0.262409  -0.018959
    10  C   -0.356066  -0.329680
    11  C    0.010553   1.244718
    12  N   -0.138592  -0.010989
 Electronic spatial extent (au):  <R**2>=            894.4148
 Charge=              0.0000 electrons
 Dipole moment (field-independent basis, Debye):
    X=              2.7438    Y=              2.1138    Z=              0.0000  Tot=              3.4636
 Quadrupole moment (field-independent basis, Debye-Ang):
   XX=            -40.2480   YY=            -44.8907   ZZ=            -49.0567
   XY=             -2.0807   XZ=             -0.0001   YZ=              0.0000
 Traceless Quadrupole moment (field-independent basis, Debye-Ang):
   XX=              4.4838   YY=             -0.1589   ZZ=             -4.3249
   XY=             -2.0807   XZ=             -0.0001   YZ=              0.0000
 Octapole moment (field-independent basis, Debye-Ang**2):
  XXX=             19.3451  YYY=             10.0633  ZZZ=              0.0001  XYY=             14.4911
  XXY=             -1.6284  XXZ=              0.0006  XZZ=              2.4689  YZZ=             -0.7458
  YYZ=              0.0000  XYZ=              0.0000
 Hexadecapole moment (field-independent basis, Debye-Ang**3):
 XXXX=           -862.9726 YYYY=           -284.7629 ZZZZ=            -59.3942 XXXY=             -3.1709
 XXXZ=             -0.0021 YYYX=            -10.9671 YYYZ=              0.0000 ZZZX=             -0.0002
 ZZZY=              0.0000 XXYY=           -199.6261 XXZZ=           -184.5470 YYZZ=            -64.2751
 XXYZ=              0.0000 YYXZ=              0.0000 ZZXY=             -0.9345
 N-N= 2.870906961526D+02 E-N=-1.323682720674D+03  KE= 3.201928159273D+02
                          Isotropic Fermi Contact Couplings
        Atom                 a.u.       MegaHertz       Gauss      10(-4) cm-1
     1  C(13)              0.00269       3.02947       1.08099       1.01052
     2  C(13)              0.02379      26.74826       9.54444       8.92226
     3  C(13)             -0.00295      -3.31315      -1.18222      -1.10515
     4  C(13)              0.00116       1.30111       0.46427       0.43400
     5  C(13)             -0.00202      -2.26544      -0.80836      -0.75567
     6  H(1)              -0.00024      -1.06616      -0.38043      -0.35563
     7  H(1)               0.00014       0.64740       0.23101       0.21595
     8  H(1)               0.00008       0.37780       0.13481       0.12602
     9  H(1)               0.00043       1.93936       0.69201       0.64690
    10  C(13)              0.16486     185.33527      66.13223      61.82119
    11  C(13)              0.84807     953.39663     340.19561     318.01888
    12  N(14)              0.00435       1.40402       0.50099       0.46833
 --------------------------------------------------------
       Center         ----  Spin Dipole Couplings  ----
                      3XX-RR        3YY-RR        3ZZ-RR
 --------------------------------------------------------
     1   Atom        0.000521     -0.006162      0.005640
     2   Atom        0.024714     -0.026346      0.001632
     3   Atom        0.012378      0.011053     -0.023431
     4   Atom       -0.001800     -0.005285      0.007085
     5   Atom        0.009928      0.009002     -0.018930
     6   Atom        0.000914     -0.000300     -0.000615
     7   Atom        0.002903     -0.000814     -0.002089
     8   Atom        0.000531     -0.000054     -0.000477
     9   Atom       -0.000292      0.000756     -0.000464
    10   Atom        0.331334     -0.170395     -0.160939
    11   Atom        0.658884     -0.337520     -0.321364
    12   Atom        0.028580      0.016835     -0.045414
 --------------------------------------------------------
                        XY            XZ            YZ
 --------------------------------------------------------
     1   Atom        0.000231     -0.000001      0.000000
     2   Atom        0.011372      0.000002      0.000000
     3   Atom        0.005365     -0.000001     -0.000001
     4   Atom        0.001130      0.000000      0.000000
     5   Atom        0.000630      0.000000      0.000000
     6   Atom       -0.001161      0.000000      0.000000
     7   Atom        0.003544      0.000000      0.000000
     8   Atom        0.000986      0.000000      0.000000
     9   Atom       -0.000094      0.000000      0.000000
    10   Atom        0.008825      0.000011      0.000000
    11   Atom       -0.014785     -0.000026      0.000000
    12   Atom        0.013609     -0.000002     -0.000002
 --------------------------------------------------------


 ---------------------------------------------------------------------------------
              Anisotropic Spin Dipole Couplings in Principal Axis System
 ---------------------------------------------------------------------------------

       Atom             a.u.   MegaHertz   Gauss  10(-4) cm-1        Axes

              Baa    -0.0062    -0.828    -0.295    -0.276 -0.0344  0.9994  0.0000
     1 C(13)  Bbb     0.0005     0.071     0.025     0.024  0.9994  0.0344  0.0001
              Bcc     0.0056     0.757     0.270     0.252 -0.0001  0.0000  1.0000
 
              Baa    -0.0288    -3.860    -1.377    -1.288 -0.2080  0.9781  0.0000
     2 C(13)  Bbb     0.0016     0.219     0.078     0.073 -0.0001  0.0000  1.0000
              Bcc     0.0271     3.641     1.299     1.214  0.9781  0.2080  0.0001
 
              Baa    -0.0234    -3.144    -1.122    -1.049  0.0000  0.0000  1.0000
     3 C(13)  Bbb     0.0063     0.847     0.302     0.282 -0.6623  0.7492  0.0000
              Bcc     0.0171     2.298     0.820     0.766  0.7492  0.6623  0.0000
 
              Baa    -0.0056    -0.754    -0.269    -0.252 -0.2837  0.9589  0.0000
     4 C(13)  Bbb    -0.0015    -0.197    -0.070    -0.066  0.9589  0.2837  0.0000
              Bcc     0.0071     0.951     0.339     0.317  0.0000  0.0000  1.0000
 
              Baa    -0.0189    -2.540    -0.906    -0.847  0.0000  0.0000  1.0000
     5 C(13)  Bbb     0.0087     1.165     0.416     0.389 -0.4513  0.8924  0.0000
              Bcc     0.0102     1.375     0.491     0.459  0.8924  0.4513  0.0000
 
              Baa    -0.0010    -0.535    -0.191    -0.178  0.5179  0.8554  0.0000
     6 H(1)   Bbb    -0.0006    -0.328    -0.117    -0.109  0.0000  0.0000  1.0000
              Bcc     0.0016     0.863     0.308     0.288  0.8554 -0.5179  0.0000
 
              Baa    -0.0030    -1.578    -0.563    -0.526 -0.5175  0.8557  0.0000
     7 H(1)   Bbb    -0.0021    -1.115    -0.398    -0.372  0.0000  0.0000  1.0000
              Bcc     0.0050     2.693     0.961     0.898  0.8557  0.5175  0.0000
 
              Baa    -0.0008    -0.422    -0.150    -0.141 -0.5984  0.8012  0.0000
     8 H(1)   Bbb    -0.0005    -0.254    -0.091    -0.085  0.0000  0.0000  1.0000
              Bcc     0.0013     0.676     0.241     0.226  0.8012  0.5984  0.0000
 
              Baa    -0.0005    -0.248    -0.088    -0.083  0.0002  0.0000  1.0000
     9 H(1)   Bbb    -0.0003    -0.160    -0.057    -0.053  0.9961  0.0883 -0.0002
              Bcc     0.0008     0.408     0.146     0.136 -0.0883  0.9961  0.0000
 
              Baa    -0.1706   -22.886    -8.166    -7.634 -0.0176  0.9998  0.0000
    10 C(13)  Bbb    -0.1609   -21.597    -7.706    -7.204  0.0000  0.0000  1.0000
              Bcc     0.3315    44.483    15.873    14.838  0.9998  0.0176  0.0000
 
              Baa    -0.3377   -45.321   -16.172   -15.118  0.0148  0.9999  0.0000
    11 C(13)  Bbb    -0.3214   -43.124   -15.388   -14.385  0.0000  0.0000  1.0000
              Bcc     0.6591    88.445    31.559    29.502  0.9999 -0.0148  0.0000
 
              Baa    -0.0454    -1.752    -0.625    -0.584  0.0000  0.0000  1.0000
    12 N(14)  Bbb     0.0079     0.304     0.109     0.101 -0.5494  0.8355  0.0000
              Bcc     0.0375     1.447     0.516     0.483  0.8355  0.5494  0.0000
 

 ---------------------------------------------------------------------------------

 Calling FoFJK, ICntrl=      2127 FMM=F ISym2X=0 I1Cent= 0 IOpClX= 1 NMat=1 NMatS=1 NMatT=0.
 ***** Axes restored to original set *****
 -------------------------------------------------------------------
 Center     Atomic                   Forces (Hartrees/Bohr)
 Number     Number              X              Y              Z
 -------------------------------------------------------------------
      1        6           0.057756743    0.042007151   -0.008681300
      2        6           0.000263034   -0.036509281   -0.004478266
      3        6          -0.005083705   -0.004673608    0.000645846
      4        6           0.009627280   -0.017100900   -0.004362162
      5        6           0.011266635    0.000108116   -0.002671685
      6        1           0.002863347   -0.013981113   -0.002373217
      7        1           0.006383878    0.009976935   -0.000314354
      8        1          -0.004927486    0.010352962    0.002426364
      9        1          -0.012209512   -0.000500417    0.002848749
     10        6          -0.082612383   -0.007458926    0.018781710
     11        6           0.025914282    0.000949019   -0.006059585
     12        7          -0.009242113    0.016830062    0.004237900
 -------------------------------------------------------------------
 Cartesian Forces:  Max     0.082612383 RMS     0.021140192

 GradGradGradGradGradGradGradGradGradGradGradGradGradGradGradGradGradGrad
 Berny optimization.
 FormGI is forming the generalized inverse of G from B-inverse, IUseBI=4.
 Internal  Forces:  Max     0.058207338 RMS     0.016002826
 Search for a local minimum.
 Step number   1 out of a maximum of   60
 All quantities printed in internal units (Hartrees-Bohrs-Radians)
 Mixed Optimization -- RFO/linear search
 Second derivative matrix not updated -- first step.
 ITU=  0
     Eigenvalues ---    0.01756   0.01921   0.01952   0.02025   0.02070
     Eigenvalues ---    0.02070   0.02070   0.02070   0.04718   0.04718
     Eigenvalues ---    0.16000   0.16000   0.16000   0.16000   0.22000
     Eigenvalues ---    0.22408   0.24406   0.25000   0.28519   0.37230
     Eigenvalues ---    0.37230   0.37230   0.37230   0.41408   0.41941
     Eigenvalues ---    0.45389   0.45389   0.45389   0.45389   1.04222
 RFO step:  Lambda=-3.30200047D-02 EMin= 1.75553258D-02
 Linear search not attempted -- first point.
 Maximum step size (   0.300) exceeded in Quadratic search.
    -- Step size scaled by   0.984
 Iteration  1 RMS(Cart)=  0.07530602 RMS(Int)=  0.00107062
 Iteration  2 RMS(Cart)=  0.00128597 RMS(Int)=  0.00004291
 Iteration  3 RMS(Cart)=  0.00000139 RMS(Int)=  0.00004290
 Iteration  4 RMS(Cart)=  0.00000000 RMS(Int)=  0.00004290
 Variable       Old X    -DE/DX   Delta X   Delta X   Delta X     New X
                                 (Linear)    (Quad)   (Total)
    R1        2.64826  -0.00260   0.00000  -0.00590  -0.00593   2.64233
    R2        2.02201   0.01069   0.00000   0.02596   0.02596   2.04797
    R3        2.64826  -0.05369   0.00000  -0.11251  -0.11258   2.53568
    R4        2.64826  -0.00169   0.00000  -0.00277  -0.00274   2.64552
    R5        2.91018  -0.05821   0.00000  -0.17998  -0.17998   2.73020
    R6        2.64826  -0.05359   0.00000  -0.11165  -0.11169   2.53657
    R7        2.64826  -0.01226   0.00000  -0.02075  -0.02068   2.62758
    R8        2.02201   0.01183   0.00000   0.02872   0.02872   2.05073
    R9        2.64826  -0.01011   0.00000  -0.01705  -0.01702   2.63125
   R10        2.02201   0.01169   0.00000   0.02839   0.02839   2.05039
   R11        2.02201   0.01254   0.00000   0.03045   0.03045   2.05246
   R12        2.26994   0.02663   0.00000   0.02436   0.02436   2.29430
    A1        2.09440   0.00025   0.00000   0.01680   0.01685   2.11124
    A2        2.09440   0.01920   0.00000   0.06683   0.06674   2.16113
    A3        2.09440  -0.01945   0.00000  -0.08363  -0.08358   2.01081
    A4        2.09440  -0.00333   0.00000  -0.00976  -0.00976   2.08463
    A5        2.09440   0.02169   0.00000   0.07180   0.07180   2.16620
    A6        2.09440  -0.01837   0.00000  -0.06204  -0.06204   2.03236
    A7        2.09440  -0.00961   0.00000  -0.02694  -0.02683   2.06757
    A8        2.09440   0.00418   0.00000   0.01026   0.01020   2.10460
    A9        2.09440   0.00544   0.00000   0.01668   0.01662   2.11102
   A10        2.09440  -0.01152   0.00000  -0.02901  -0.02889   2.06550
   A11        2.09440   0.00498   0.00000   0.01051   0.01045   2.10484
   A12        2.09440   0.00655   0.00000   0.01851   0.01845   2.11284
   A13        2.09440  -0.00717   0.00000  -0.02122  -0.02120   2.07320
   A14        2.09440   0.00329   0.00000   0.00913   0.00912   2.10352
   A15        2.09440   0.00387   0.00000   0.01209   0.01208   2.10647
   A16        2.09440  -0.01259   0.00000  -0.06146  -0.06162   2.03278
   A17        3.14159  -0.00112   0.00000  -0.01380  -0.01380   3.12779
   A18        3.14159   0.00000   0.00000  -0.00001  -0.00001   3.14158
    D1       -3.14159   0.00000   0.00000   0.00000   0.00000  -3.14159
    D2        0.00000   0.00000   0.00000   0.00000   0.00000   0.00000
    D3        0.00000   0.00000   0.00000   0.00000   0.00000   0.00000
    D4        3.14159   0.00000   0.00000   0.00000   0.00000   3.14159
    D5        0.00000   0.00000   0.00000   0.00000   0.00000   0.00000
    D6        3.14159   0.00000   0.00000   0.00000   0.00000   3.14159
    D7        3.14159   0.00000   0.00000   0.00000   0.00000   3.14159
    D8        0.00000   0.00000   0.00000   0.00000   0.00000   0.00000
    D9        0.00000   0.00000   0.00000   0.00000   0.00000   0.00000
   D10       -3.14159   0.00000   0.00000   0.00000   0.00000  -3.14159
   D11        0.00000   0.00000   0.00000   0.00000   0.00000   0.00000
   D12       -3.14159   0.00000   0.00000   0.00000   0.00000  -3.14159
   D13        0.00000   0.00000   0.00000   0.00000   0.00000   0.00000
   D14       -3.14159   0.00000   0.00000   0.00000   0.00000  -3.14159
   D15       -3.14159   0.00000   0.00000   0.00000   0.00000  -3.14159
   D16        0.00000   0.00000   0.00000   0.00000   0.00000   0.00000
   D17        0.00000   0.00000   0.00000   0.00000   0.00000   0.00000
   D18       -3.14159   0.00000   0.00000   0.00000   0.00000   3.14159
   D19        3.14159   0.00000   0.00000   0.00000   0.00000   3.14159
   D20        0.00000   0.00000   0.00000   0.00000   0.00000   0.00000
         Item               Value     Threshold  Converged?
 Maximum Force            0.058207     0.000450     NO 
 RMS     Force            0.016003     0.000300     NO 
 Maximum Displacement     0.264959     0.001800     NO 
 RMS     Displacement     0.075411     0.001200     NO 
 Predicted change in Energy=-1.798894D-02
 GradGradGradGradGradGradGradGradGradGradGradGradGradGradGradGradGradGrad

                          Input orientation:                          
 ---------------------------------------------------------------------
 Center     Atomic      Atomic             Coordinates (Angstroms)
 Number     Number       Type             X           Y           Z
 ---------------------------------------------------------------------
      1          6           0       -6.475053   -2.313872   -1.186011
      2          6           0       -4.548609   -1.132022   -1.502086
      3          6           0       -5.177257    0.083129   -1.205315
      4          6           0       -6.530172    0.068376   -0.884733
      5          6           0       -7.193848   -1.155633   -0.874644
      6          1           0       -6.956261   -3.284910   -1.188803
      7          1           0       -4.618646    1.013284   -1.225912
      8          1           0       -7.051968    0.990003   -0.648927
      9          1           0       -8.250493   -1.211327   -0.629607
     10          6           0       -3.143475   -1.141173   -1.838007
     11          6           0       -1.962233   -1.132228   -2.118380
     12          7           0       -5.170010   -2.321812   -1.497932
 ---------------------------------------------------------------------
                    Distance matrix (angstroms):
                    1          2          3          4          5
     1  C    0.000000
     2  C    2.282073   0.000000
     3  C    2.725851   1.399951   0.000000
     4  C    2.401856   2.397638   1.390457   0.000000
     5  C    1.398261   2.718737   2.389668   1.392395   0.000000
     6  H    1.083737   3.244975   3.809044   3.393897   2.165402
     7  H    3.810224   2.164143   1.085200   2.159441   3.385152
     8  H    3.396598   3.390822   2.155581   1.085022   2.162136
     9  H    2.162725   3.804136   3.384057   2.159221   1.086114
    10  C    3.591620   1.444759   2.456722   3.720411   4.163388
    11  C    4.757220   2.658789   3.556284   4.881536   5.377474
    12  N    1.341826   1.342296   2.422689   2.817633   2.417517
                    6          7          8          9         10
     6  H    0.000000
     7  H    4.892882   0.000000
     8  H    4.309932   2.500902   0.000000
     9  H    2.507485   4.300557   2.506530   0.000000
    10  C    4.422037   2.681879   4.607835   5.248503   0.000000
    11  C    5.517107   3.529341   5.706887   6.462578   1.214093
    12  N    2.052758   3.391292   3.902653   3.387705   2.369895
                   11         12
    11  C    0.000000
    12  N    3.477053   0.000000
 Stoichiometry    C7H4N(2)
 Framework group  C1[X(C7H4N)]
 Deg. of freedom    30
 Full point group                 C1      NOp   1
 Largest Abelian subgroup         C1      NOp   1
 Largest concise Abelian subgroup C1      NOp   1
                         Standard orientation:                         
 ---------------------------------------------------------------------
 Center     Atomic      Atomic             Coordinates (Angstroms)
 Number     Number       Type             X           Y           Z
 ---------------------------------------------------------------------
      1          6           0        1.316871   -1.213653    0.000000
      2          6           0       -0.624630   -0.014305    0.000000
      3          6           0        0.061558    1.205945   -0.000001
      4          6           0        1.451848    1.184407    0.000000
      5          6           0        2.093858   -0.051144    0.000000
      6          1           0        1.779623   -2.193625    0.000001
      7          1           0       -0.482107    2.145139    0.000000
      8          1           0        2.018544    2.109679    0.000001
      9          1           0        3.178241   -0.112435    0.000000
     10          6           0       -2.069387   -0.016577    0.000004
     11          6           0       -3.283389   -0.001734   -0.000002
     12          7           0       -0.024954   -1.215199    0.000000
 ---------------------------------------------------------------------
 Rotational constants (GHZ):      5.8343343      1.6761219      1.3020588
 Standard basis: 6-31+G(d) (6D, 7F)
 There are   160 symmetry adapted cartesian basis functions of A   symmetry.
 There are   160 symmetry adapted basis functions of A   symmetry.
   160 basis functions,   272 primitive gaussians,   160 cartesian basis functions
    27 alpha electrons       26 beta electrons
       nuclear repulsion energy       293.3550211705 Hartrees.
 NAtoms=   12 NActive=   12 NUniq=   12 SFac= 1.00D+00 NAtFMM=   60 NAOKFM=F Big=F
 Integral buffers will be    131072 words long.
 Raffenetti 2 integral format.
 Two-electron integral symmetry is turned on.
 Nuclear repulsion after empirical dispersion term =      293.3487297530 Hartrees.
 One-electron integrals computed using PRISM.
 NBasis=   160 RedAO= T EigKep=  6.79D-06  NBF=   160
 NBsUse=   159 1.00D-06 EigRej=  4.02D-07 NBFU=   159
 Initial guess from the checkpoint file:  "C:\Users\123\Desktop\ML project\molecule_5.chk"
 B after Tr=     0.000000    0.000000    0.000000
         Rot=    0.999924    0.000000    0.000000    0.012325 Ang=   1.41 deg.
 Initial guess <Sx>= 0.0000 <Sy>= 0.0000 <Sz>= 0.5000 <S**2>= 0.7748 S= 0.5123
 ExpMin= 4.38D-02 ExpMax= 4.17D+03 ExpMxC= 6.27D+02 IAcc=2 IRadAn=         4 AccDes= 0.00D+00
 Harris functional with IExCor=  402 and IRadAn=       4 diagonalized for initial guess.
 HarFok:  IExCor=  402 AccDes= 0.00D+00 IRadAn=         4 IDoV= 1 UseB2=F ITyADJ=14
 ICtDFT=  3500011 ScaDFX=  1.000000  1.000000  1.000000  1.000000
 FoFCou: FMM=F IPFlag=           0 FMFlag=      100000 FMFlg1=           0
         NFxFlg=           0 DoJE=T BraDBF=F KetDBF=T FulRan=T
         wScrn=  0.000000 ICntrl=     500 IOpCl=  0 I1Cent=   200000004 NGrid=           0
         NMat0=    1 NMatS0=      1 NMatT0=    0 NMatD0=    1 NMtDS0=    0 NMtDT0=    0
 Petite list used in FoFCou.
 Keep R1 and R2 ints in memory in canonical form, NReq=168091342.
 Requested convergence on RMS density matrix=1.00D-08 within 128 cycles.
 Requested convergence on MAX density matrix=1.00D-06.
 Requested convergence on             energy=1.00D-06.
 No special actions if energy rises.
 SCF Done:  E(UB3LYP) =  -323.726147644     A.U. after   29 cycles
            NFock= 29  Conv=0.77D-08     -V/T= 2.0097
 <Sx>= 0.0000 <Sy>= 0.0000 <Sz>= 0.5000 <S**2>= 0.7768 S= 0.5133
 <L.S>= 0.000000000000E+00
 Annihilation of the first spin contaminant:
 S**2 before annihilation     0.7768,   after     0.7504
 Calling FoFJK, ICntrl=      2127 FMM=F ISym2X=0 I1Cent= 0 IOpClX= 1 NMat=1 NMatS=1 NMatT=0.
 ***** Axes restored to original set *****
 -------------------------------------------------------------------
 Center     Atomic                   Forces (Hartrees/Bohr)
 Number     Number              X              Y              Z
 -------------------------------------------------------------------
      1        6           0.004581740    0.000441378   -0.001038073
      2        6           0.011414948   -0.001100992   -0.002854149
      3        6          -0.002110309    0.005380687    0.001153441
      4        6           0.000914501   -0.000334693   -0.000258130
      5        6          -0.004002691   -0.001944393    0.000718469
      6        1          -0.002219931   -0.002137505    0.000270491
      7        1           0.001323010   -0.000752732   -0.000406309
      8        1          -0.000575064    0.000860493    0.000241138
      9        1          -0.000164980   -0.001247712   -0.000111669
     10        6          -0.003392558   -0.001389773    0.000642483
     11        6           0.002045201    0.000953725   -0.000372995
     12        7          -0.007813868    0.001271517    0.002015301
 -------------------------------------------------------------------
 Cartesian Forces:  Max     0.011414948 RMS     0.002974853

 GradGradGradGradGradGradGradGradGradGradGradGradGradGradGradGradGradGrad
 Berny optimization.
 Using GEDIIS/GDIIS optimizer.
 FormGI is forming the generalized inverse of G from B-inverse, IUseBI=4.
 Internal  Forces:  Max     0.004881702 RMS     0.001797068
 Search for a local minimum.
 Step number   2 out of a maximum of   60
 All quantities printed in internal units (Hartrees-Bohrs-Radians)
 Mixed Optimization -- RFO/linear search
 Update second derivatives using D2CorX and points    1    2
 DE= -1.68D-02 DEPred=-1.80D-02 R= 9.36D-01
 TightC=F SS=  1.41D+00  RLast= 3.00D-01 DXNew= 5.0454D-01 9.0000D-01
 Trust test= 9.36D-01 RLast= 3.00D-01 DXMaxT set to 5.05D-01
 ITU=  1  0
 Use linear search instead of GDIIS.
     Eigenvalues ---    0.01762   0.01929   0.01958   0.02022   0.02070
     Eigenvalues ---    0.02070   0.02070   0.02070   0.04710   0.04718
     Eigenvalues ---    0.15952   0.16000   0.16000   0.16192   0.21906
     Eigenvalues ---    0.22483   0.24932   0.25622   0.29755   0.36925
     Eigenvalues ---    0.37230   0.37230   0.37323   0.40612   0.41878
     Eigenvalues ---    0.45188   0.45389   0.45389   0.48836   1.03823
 RFO step:  Lambda=-5.54662047D-04 EMin= 1.76210339D-02
 Quartic linear search produced a step of -0.02031.
 Iteration  1 RMS(Cart)=  0.01262516 RMS(Int)=  0.00024631
 Iteration  2 RMS(Cart)=  0.00024893 RMS(Int)=  0.00000894
 Iteration  3 RMS(Cart)=  0.00000002 RMS(Int)=  0.00000894
 Variable       Old X    -DE/DX   Delta X   Delta X   Delta X     New X
                                 (Linear)    (Quad)   (Total)
    R1        2.64233  -0.00043   0.00012  -0.00162  -0.00151   2.64082
    R2        2.04797   0.00290  -0.00053   0.00875   0.00822   2.05618
    R3        2.53568  -0.00217   0.00229  -0.00989  -0.00760   2.52808
    R4        2.64552   0.00453   0.00006   0.01008   0.01015   2.65567
    R5        2.73020  -0.00137   0.00366  -0.01280  -0.00915   2.72105
    R6        2.53657   0.00369   0.00227   0.00324   0.00553   2.54210
    R7        2.62758   0.00356   0.00042   0.00724   0.00766   2.63524
    R8        2.05073   0.00004  -0.00058   0.00136   0.00078   2.05151
    R9        2.63125   0.00401   0.00035   0.00791   0.00824   2.63949
   R10        2.05039   0.00106  -0.00058   0.00402   0.00344   2.05383
   R11        2.05246   0.00020  -0.00062   0.00184   0.00123   2.05368
   R12        2.29430   0.00208  -0.00049   0.00293   0.00243   2.29674
    A1        2.11124  -0.00106  -0.00034  -0.00474  -0.00508   2.10617
    A2        2.16113  -0.00009  -0.00136   0.00109  -0.00027   2.16086
    A3        2.01081   0.00115   0.00170   0.00365   0.00535   2.01616
    A4        2.08463   0.00177   0.00020   0.00605   0.00623   2.09086
    A5        2.16620  -0.00448  -0.00146  -0.01336  -0.01480   2.15140
    A6        2.03236   0.00271   0.00126   0.00732   0.00857   2.04092
    A7        2.06757  -0.00064   0.00054  -0.00221  -0.00166   2.06591
    A8        2.10460  -0.00129  -0.00021  -0.00891  -0.00912   2.09548
    A9        2.11102   0.00194  -0.00034   0.01112   0.01078   2.12180
   A10        2.06550   0.00171   0.00059   0.00721   0.00778   2.07328
   A11        2.10484  -0.00077  -0.00021  -0.00333  -0.00353   2.10131
   A12        2.11284  -0.00093  -0.00037  -0.00388  -0.00425   2.10859
   A13        2.07320  -0.00137   0.00043  -0.00793  -0.00752   2.06567
   A14        2.10352  -0.00059  -0.00019  -0.00392  -0.00409   2.09942
   A15        2.10647   0.00197  -0.00025   0.01185   0.01162   2.11809
   A16        2.03278   0.00488   0.00125   0.01520   0.01648   2.04926
   A17        3.12779  -0.00217   0.00028  -0.04555  -0.04527   3.08252
   A18        3.14158   0.00000   0.00000   0.00004   0.00004   3.14162
    D1       -3.14159   0.00000   0.00000   0.00000   0.00000   3.14159
    D2        0.00000   0.00000   0.00000   0.00000   0.00000   0.00000
    D3        0.00000   0.00000   0.00000   0.00000   0.00000   0.00000
    D4        3.14159   0.00000   0.00000   0.00000   0.00000   3.14159
    D5        0.00000   0.00000   0.00000   0.00000   0.00000   0.00000
    D6        3.14159   0.00000   0.00000   0.00000   0.00000  -3.14159
    D7        3.14159   0.00000   0.00000   0.00001   0.00001  -3.14158
    D8        0.00000   0.00000   0.00000   0.00001   0.00001   0.00001
    D9        0.00000   0.00000   0.00000   0.00000   0.00000   0.00000
   D10       -3.14159   0.00000   0.00000   0.00000   0.00000   3.14159
   D11        0.00000   0.00000   0.00000   0.00000   0.00000   0.00000
   D12       -3.14159   0.00000   0.00000  -0.00001  -0.00001   3.14158
   D13        0.00000   0.00000   0.00000   0.00000   0.00000   0.00000
   D14       -3.14159   0.00000   0.00000   0.00000   0.00000   3.14159
   D15        3.14159   0.00000   0.00000   0.00000   0.00000  -3.14159
   D16        0.00000   0.00000   0.00000   0.00000   0.00000   0.00000
   D17        0.00000   0.00000   0.00000   0.00000   0.00000   0.00000
   D18        3.14159   0.00000   0.00000   0.00000   0.00000  -3.14159
   D19        3.14159   0.00000   0.00000   0.00000   0.00000  -3.14159
   D20        0.00000   0.00000   0.00000   0.00000   0.00000   0.00000
         Item               Value     Threshold  Converged?
 Maximum Force            0.004882     0.000450     NO 
 RMS     Force            0.001797     0.000300     NO 
 Maximum Displacement     0.061427     0.001800     NO 
 RMS     Displacement     0.012618     0.001200     NO 
 Predicted change in Energy=-2.859698D-04
 GradGradGradGradGradGradGradGradGradGradGradGradGradGradGradGradGradGrad

                          Input orientation:                          
 ---------------------------------------------------------------------
 Center     Atomic      Atomic             Coordinates (Angstroms)
 Number     Number       Type             X           Y           Z
 ---------------------------------------------------------------------
      1          6           0       -6.481525   -2.313770   -1.184456
      2          6           0       -4.540204   -1.136809   -1.504668
      3          6           0       -5.170831    0.083246   -1.206834
      4          6           0       -6.527716    0.066639   -0.885528
      5          6           0       -7.201125   -1.156999   -0.873076
      6          1           0       -6.968450   -3.286822   -1.186128
      7          1           0       -4.603536    1.008549   -1.230084
      8          1           0       -7.048343    0.991053   -0.649663
      9          1           0       -8.258258   -1.218272   -0.628598
     10          6           0       -3.140119   -1.155354   -1.840506
     11          6           0       -1.957581   -1.099722   -2.115568
     12          7           0       -5.180338   -2.319924   -1.495245
 ---------------------------------------------------------------------
                    Distance matrix (angstroms):
                    1          2          3          4          5
     1  C    0.000000
     2  C    2.292705   0.000000
     3  C    2.732051   1.405322   0.000000
     4  C    2.399550   2.404544   1.394508   0.000000
     5  C    1.397462   2.734926   2.402436   1.396756   0.000000
     6  H    1.088086   3.258896   3.819584   3.395631   2.165245
     7  H    3.816638   2.163786   1.085611   2.169881   3.400666
     8  H    3.395459   3.398470   2.158612   1.086842   2.165037
     9  H    2.160063   3.820741   3.400076   2.170665   1.086763
    10  C    3.596849   1.439920   2.461597   3.725730   4.174649
    11  C    4.775662   2.654151   3.542624   4.874376   5.389047
    12  N    1.337802   1.345221   2.420433   2.807645   2.413104
                    6          7          8          9         10
     6  H    0.000000
     7  H    4.903567   0.000000
     8  H    4.312122   2.512823   0.000000
     9  H    2.500668   4.321749   2.519019   0.000000
    10  C    4.430292   2.682663   4.615126   5.260040   0.000000
    11  C    5.545816   3.497137   5.695268   6.474849   1.215381
    12  N    2.056159   3.388472   3.894486   3.382056   2.374430
                   11         12
    11  C    0.000000
    12  N    3.501408   0.000000
 Stoichiometry    C7H4N(2)
 Framework group  C1[X(C7H4N)]
 Deg. of freedom    30
 Full point group                 C1      NOp   1
 Largest Abelian subgroup         C1      NOp   1
 Largest concise Abelian subgroup C1      NOp   1
                         Standard orientation:                         
 ---------------------------------------------------------------------
 Center     Atomic      Atomic             Coordinates (Angstroms)
 Number     Number       Type             X           Y           Z
 ---------------------------------------------------------------------
      1          6           0        1.331978   -1.205403    0.000000
      2          6           0       -0.633390   -0.024798    0.000000
      3          6           0        0.046296    1.205225    0.000001
      4          6           0        1.440738    1.191681    0.000001
      5          6           0        2.101500   -0.038896    0.000001
      6          1           0        1.807486   -2.184087   -0.000001
      7          1           0       -0.513060    2.135640   -0.000001
      8          1           0        1.999735    2.123748    0.000000
      9          1           0        3.186647   -0.098120    0.000001
     10          6           0       -2.073142   -0.046749   -0.000012
     11          6           0       -3.287356    0.006498    0.000008
     12          7           0       -0.005793   -1.214647    0.000002
 ---------------------------------------------------------------------
 Rotational constants (GHZ):      5.8400210      1.6695059      1.2983440
 Standard basis: 6-31+G(d) (6D, 7F)
 There are   160 symmetry adapted cartesian basis functions of A   symmetry.
 There are   160 symmetry adapted basis functions of A   symmetry.
   160 basis functions,   272 primitive gaussians,   160 cartesian basis functions
    27 alpha electrons       26 beta electrons
       nuclear repulsion energy       293.0224558838 Hartrees.
 NAtoms=   12 NActive=   12 NUniq=   12 SFac= 1.00D+00 NAtFMM=   60 NAOKFM=F Big=F
 Integral buffers will be    131072 words long.
 Raffenetti 2 integral format.
 Two-electron integral symmetry is turned on.
 Nuclear repulsion after empirical dispersion term =      293.0161701018 Hartrees.
 One-electron integrals computed using PRISM.
 NBasis=   160 RedAO= T EigKep=  6.63D-06  NBF=   160
 NBsUse=   159 1.00D-06 EigRej=  4.51D-07 NBFU=   159
 Initial guess from the checkpoint file:  "C:\Users\123\Desktop\ML project\molecule_5.chk"
 B after Tr=     0.000000    0.000000    0.000000
         Rot=    0.999996    0.000000    0.000000   -0.003000 Ang=   0.34 deg.
 Initial guess <Sx>= 0.0000 <Sy>= 0.0000 <Sz>= 0.5000 <S**2>= 0.7769 S= 0.5134
 ExpMin= 4.38D-02 ExpMax= 4.17D+03 ExpMxC= 6.27D+02 IAcc=2 IRadAn=         4 AccDes= 0.00D+00
 Harris functional with IExCor=  402 and IRadAn=       4 diagonalized for initial guess.
 HarFok:  IExCor=  402 AccDes= 0.00D+00 IRadAn=         4 IDoV= 1 UseB2=F ITyADJ=14
 ICtDFT=  3500011 ScaDFX=  1.000000  1.000000  1.000000  1.000000
 FoFCou: FMM=F IPFlag=           0 FMFlag=      100000 FMFlg1=           0
         NFxFlg=           0 DoJE=T BraDBF=F KetDBF=T FulRan=T
         wScrn=  0.000000 ICntrl=     500 IOpCl=  0 I1Cent=   200000004 NGrid=           0
         NMat0=    1 NMatS0=      1 NMatT0=    0 NMatD0=    1 NMtDS0=    0 NMtDT0=    0
 Petite list used in FoFCou.
 Keep R1 and R2 ints in memory in canonical form, NReq=168091342.
 Requested convergence on RMS density matrix=1.00D-08 within 128 cycles.
 Requested convergence on MAX density matrix=1.00D-06.
 Requested convergence on             energy=1.00D-06.
 No special actions if energy rises.
 SCF Done:  E(UB3LYP) =  -323.726496434     A.U. after   24 cycles
            NFock= 24  Conv=0.73D-08     -V/T= 2.0098
 <Sx>= 0.0000 <Sy>= 0.0000 <Sz>= 0.5000 <S**2>= 0.7754 S= 0.5126
 <L.S>= 0.000000000000E+00
 Annihilation of the first spin contaminant:
 S**2 before annihilation     0.7754,   after     0.7504
 Calling FoFJK, ICntrl=      2127 FMM=F ISym2X=0 I1Cent= 0 IOpClX= 1 NMat=1 NMatS=1 NMatT=0.
 ***** Axes restored to original set *****
 -------------------------------------------------------------------
 Center     Atomic                   Forces (Hartrees/Bohr)
 Number     Number              X              Y              Z
 -------------------------------------------------------------------
      1        6           0.001471426   -0.001084329   -0.000482868
      2        6           0.000920067    0.000769348   -0.000122741
      3        6          -0.002284029    0.000768339    0.000637395
      4        6           0.000814281   -0.000355659   -0.000237472
      5        6          -0.000839233    0.001137655    0.000337627
      6        1          -0.000319435    0.000068460    0.000084320
      7        1          -0.000033287   -0.000283648   -0.000026380
      8        1           0.000106731   -0.000047246   -0.000031168
      9        1           0.000418039    0.000034169   -0.000095249
     10        6          -0.001428005   -0.002446957    0.000037771
     11        6           0.001927987    0.001085534   -0.000325089
     12        7          -0.000754542    0.000354332    0.000223855
 -------------------------------------------------------------------
 Cartesian Forces:  Max     0.002446957 RMS     0.000887717

 GradGradGradGradGradGradGradGradGradGradGradGradGradGradGradGradGradGrad
 Berny optimization.
 Using GEDIIS/GDIIS optimizer.
 FormGI is forming the generalized inverse of G from B-inverse, IUseBI=4.
 Internal  Forces:  Max     0.002299495 RMS     0.000564669
 Search for a local minimum.
 Step number   3 out of a maximum of   60
 All quantities printed in internal units (Hartrees-Bohrs-Radians)
 Mixed Optimization -- En-DIIS/RFO-DIIS
 Update second derivatives using D2CorX and points    1    2    3
 DE= -3.49D-04 DEPred=-2.86D-04 R= 1.22D+00
 TightC=F SS=  1.41D+00  RLast= 6.08D-02 DXNew= 8.4853D-01 1.8248D-01
 Trust test= 1.22D+00 RLast= 6.08D-02 DXMaxT set to 5.05D-01
 ITU=  1  1  0
 Use linear search instead of GDIIS.
     Eigenvalues ---    0.01760   0.01928   0.01958   0.02022   0.02070
     Eigenvalues ---    0.02070   0.02070   0.02070   0.03077   0.04719
     Eigenvalues ---    0.15947   0.16000   0.16103   0.16204   0.22034
     Eigenvalues ---    0.22502   0.24047   0.27110   0.30009   0.37053
     Eigenvalues ---    0.37230   0.37242   0.37554   0.40893   0.42392
     Eigenvalues ---    0.44806   0.45389   0.45496   0.54302   1.03193
 RFO step:  Lambda=-1.79185026D-04 EMin= 1.76040834D-02
 Quartic linear search produced a step of  0.29685.
 Iteration  1 RMS(Cart)=  0.01860138 RMS(Int)=  0.00074645
 Iteration  2 RMS(Cart)=  0.00074812 RMS(Int)=  0.00000396
 Iteration  3 RMS(Cart)=  0.00000034 RMS(Int)=  0.00000396
 Variable       Old X    -DE/DX   Delta X   Delta X   Delta X     New X
                                 (Linear)    (Quad)   (Total)
    R1        2.64082   0.00094  -0.00045   0.00261   0.00216   2.64298
    R2        2.05618   0.00008   0.00244   0.00072   0.00316   2.05934
    R3        2.52808  -0.00060  -0.00226  -0.00294  -0.00519   2.52289
    R4        2.65567   0.00110   0.00301   0.00332   0.00634   2.66201
    R5        2.72105   0.00057  -0.00271   0.00048  -0.00224   2.71882
    R6        2.54210   0.00004   0.00164  -0.00085   0.00080   2.54290
    R7        2.63524  -0.00111   0.00227  -0.00331  -0.00104   2.63420
    R8        2.05151  -0.00026   0.00023  -0.00059  -0.00036   2.05115
    R9        2.63949  -0.00048   0.00245  -0.00144   0.00100   2.64048
   R10        2.05383  -0.00010   0.00102   0.00002   0.00104   2.05488
   R11        2.05368  -0.00043   0.00036  -0.00116  -0.00080   2.05289
   R12        2.29674   0.00200   0.00072   0.00278   0.00350   2.30024
    A1        2.10617  -0.00029  -0.00151  -0.00240  -0.00390   2.10226
    A2        2.16086  -0.00010  -0.00008   0.00031   0.00022   2.16108
    A3        2.01616   0.00039   0.00159   0.00209   0.00368   2.01984
    A4        2.09086   0.00101   0.00185   0.00527   0.00711   2.09798
    A5        2.15140  -0.00061  -0.00439  -0.00265  -0.00703   2.14437
    A6        2.04092  -0.00040   0.00254  -0.00262  -0.00008   2.04084
    A7        2.06591   0.00035  -0.00049   0.00152   0.00103   2.06693
    A8        2.09548  -0.00030  -0.00271  -0.00204  -0.00475   2.09073
    A9        2.12180  -0.00005   0.00320   0.00052   0.00372   2.12552
   A10        2.07328   0.00014   0.00231   0.00034   0.00264   2.07592
   A11        2.10131  -0.00014  -0.00105  -0.00081  -0.00185   2.09946
   A12        2.10859   0.00000  -0.00126   0.00046  -0.00079   2.10780
   A13        2.06567  -0.00007  -0.00223  -0.00093  -0.00317   2.06250
   A14        2.09942   0.00004  -0.00121   0.00038  -0.00083   2.09859
   A15        2.11809   0.00002   0.00345   0.00055   0.00401   2.12210
   A16        2.04926   0.00028   0.00489   0.00141   0.00631   2.05557
   A17        3.08252  -0.00230  -0.01344  -0.06440  -0.07784   3.00468
   A18        3.14162  -0.00001   0.00001  -0.00016  -0.00014   3.14148
    D1        3.14159   0.00000   0.00000   0.00000   0.00000   3.14159
    D2        0.00000   0.00000   0.00000   0.00000   0.00000   0.00000
    D3        0.00000   0.00000   0.00000   0.00002   0.00001   0.00001
    D4        3.14159   0.00000   0.00000   0.00002   0.00002  -3.14158
    D5        0.00000   0.00000   0.00000  -0.00002  -0.00002  -0.00002
    D6       -3.14159   0.00000   0.00000  -0.00001  -0.00001   3.14159
    D7       -3.14158   0.00000   0.00000  -0.00005  -0.00004   3.14156
    D8        0.00001   0.00000   0.00000  -0.00004  -0.00004  -0.00003
    D9        0.00000   0.00000   0.00000  -0.00001  -0.00001   0.00000
   D10        3.14159   0.00000   0.00000   0.00000   0.00000  -3.14159
   D11        0.00000   0.00000   0.00000   0.00002   0.00002   0.00001
   D12        3.14158   0.00000   0.00000   0.00006   0.00006  -3.14155
   D13        0.00000   0.00000   0.00000   0.00000   0.00000   0.00000
   D14        3.14159   0.00000   0.00000   0.00000   0.00000   3.14159
   D15       -3.14159   0.00000   0.00000  -0.00001  -0.00001   3.14158
   D16        0.00000   0.00000   0.00000  -0.00001  -0.00001  -0.00001
   D17        0.00000   0.00000   0.00000   0.00000   0.00000   0.00000
   D18       -3.14159   0.00000   0.00000   0.00000   0.00000   3.14159
   D19       -3.14159   0.00000   0.00000  -0.00001   0.00000   3.14159
   D20        0.00000   0.00000   0.00000  -0.00001  -0.00001   0.00000
         Item               Value     Threshold  Converged?
 Maximum Force            0.002299     0.000450     NO 
 RMS     Force            0.000565     0.000300     NO 
 Maximum Displacement     0.106949     0.001800     NO 
 RMS     Displacement     0.018695     0.001200     NO 
 Predicted change in Energy=-1.080731D-04
 GradGradGradGradGradGradGradGradGradGradGradGradGradGradGradGradGradGrad

                          Input orientation:                          
 ---------------------------------------------------------------------
 Center     Atomic      Atomic             Coordinates (Angstroms)
 Number     Number       Type             X           Y           Z
 ---------------------------------------------------------------------
      1          6           0       -6.487209   -2.315300   -1.183290
      2          6           0       -4.537506   -1.148439   -1.506717
      3          6           0       -5.166439    0.076308   -1.208718
      4          6           0       -6.522703    0.064768   -0.886945
      5          6           0       -7.203790   -1.155194   -0.872221
      6          1           0       -6.981483   -3.286517   -1.182990
      7          1           0       -4.592688    0.997345   -1.234033
      8          1           0       -7.038517    0.992706   -0.651800
      9          1           0       -8.260579   -1.213979   -0.627520
     10          6           0       -3.139208   -1.180879   -1.843870
     11          6           0       -1.959062   -1.043127   -2.108323
     12          7           0       -5.188840   -2.325877   -1.493930
 ---------------------------------------------------------------------
                    Distance matrix (angstroms):
                    1          2          3          4          5
     1  C    0.000000
     2  C    2.295106   0.000000
     3  C    2.732192   1.408675   0.000000
     4  C    2.398709   2.407696   1.393960   0.000000
     5  C    1.398606   2.740748   2.404293   1.397284   0.000000
     6  H    1.089757   3.263312   3.821472   3.395473   2.165303
     7  H    3.816465   2.163745   1.085421   2.171435   3.403261
     8  H    3.395486   3.401535   2.157457   1.087394   2.165496
     9  H    2.160238   3.826036   3.402401   2.173179   1.086341
    10  C    3.596163   1.438736   2.468523   3.730333   4.179185
    11  C    4.793560   2.649791   3.514212   4.852423   5.389589
    12  N    1.335054   1.345645   2.419162   2.804070   2.411854
                    6          7          8          9         10
     6  H    0.000000
     7  H    4.905143   0.000000
     8  H    4.312443   2.514180   0.000000
     9  H    2.498009   4.325649   2.522594   0.000000
    10  C    4.430977   2.688711   4.620618   5.263938   0.000000
    11  C    5.577970   3.444400   5.662767   6.475421   1.217232
    12  N    2.057446   3.386259   3.891463   3.379728   2.373704
                   11         12
    11  C    0.000000
    12  N    3.529078   0.000000
 Stoichiometry    C7H4N(2)
 Framework group  C1[X(C7H4N)]
 Deg. of freedom    30
 Full point group                 C1      NOp   1
 Largest Abelian subgroup         C1      NOp   1
 Largest concise Abelian subgroup C1      NOp   1
                         Standard orientation:                         
 ---------------------------------------------------------------------
 Center     Atomic      Atomic             Coordinates (Angstroms)
 Number     Number       Type             X           Y           Z
 ---------------------------------------------------------------------
      1          6           0        1.348023   -1.195071    0.000002
      2          6           0       -0.636791   -0.042671    0.000000
      3          6           0        0.030010    1.198193    0.000000
      4          6           0        1.423963    1.202436   -0.000004
      5          6           0        2.103849   -0.018285   -0.000003
      6          1           0        1.840003   -2.167452    0.000001
      7          1           0       -0.544500    2.119104    0.000009
      8          1           0        1.969565    2.143044   -0.000004
      9          1           0        3.189180   -0.065128   -0.000007
     10          6           0       -2.074691   -0.091706    0.000047
     11          6           0       -3.285494    0.033237   -0.000034
     12          7           0        0.013219   -1.220910   -0.000007
 ---------------------------------------------------------------------
 Rotational constants (GHZ):      5.8372254      1.6690698      1.2979421
 Standard basis: 6-31+G(d) (6D, 7F)
 There are   160 symmetry adapted cartesian basis functions of A   symmetry.
 There are   160 symmetry adapted basis functions of A   symmetry.
   160 basis functions,   272 primitive gaussians,   160 cartesian basis functions
    27 alpha electrons       26 beta electrons
       nuclear repulsion energy       292.9550158294 Hartrees.
 NAtoms=   12 NActive=   12 NUniq=   12 SFac= 1.00D+00 NAtFMM=   60 NAOKFM=F Big=F
 Integral buffers will be    131072 words long.
 Raffenetti 2 integral format.
 Two-electron integral symmetry is turned on.
 Nuclear repulsion after empirical dispersion term =      292.9487237780 Hartrees.
 One-electron integrals computed using PRISM.
 NBasis=   160 RedAO= T EigKep=  6.33D-06  NBF=   160
 NBsUse=   159 1.00D-06 EigRej=  6.28D-07 NBFU=   159
 Initial guess from the checkpoint file:  "C:\Users\123\Desktop\ML project\molecule_5.chk"
 B after Tr=     0.000000    0.000000    0.000000
         Rot=    0.999994    0.000000    0.000000   -0.003404 Ang=  -0.39 deg.
 Initial guess <Sx>= 0.0000 <Sy>= 0.0000 <Sz>= 0.5000 <S**2>= 0.7756 S= 0.5127
 ExpMin= 4.38D-02 ExpMax= 4.17D+03 ExpMxC= 6.27D+02 IAcc=2 IRadAn=         4 AccDes= 0.00D+00
 Harris functional with IExCor=  402 and IRadAn=       4 diagonalized for initial guess.
 HarFok:  IExCor=  402 AccDes= 0.00D+00 IRadAn=         4 IDoV= 1 UseB2=F ITyADJ=14
 ICtDFT=  3500011 ScaDFX=  1.000000  1.000000  1.000000  1.000000
 FoFCou: FMM=F IPFlag=           0 FMFlag=      100000 FMFlg1=           0
         NFxFlg=           0 DoJE=T BraDBF=F KetDBF=T FulRan=T
         wScrn=  0.000000 ICntrl=     500 IOpCl=  0 I1Cent=   200000004 NGrid=           0
         NMat0=    1 NMatS0=      1 NMatT0=    0 NMatD0=    1 NMtDS0=    0 NMtDT0=    0
 Petite list used in FoFCou.
 Keep R1 and R2 ints in memory in canonical form, NReq=168091342.
 Requested convergence on RMS density matrix=1.00D-08 within 128 cycles.
 Requested convergence on MAX density matrix=1.00D-06.
 Requested convergence on             energy=1.00D-06.
 No special actions if energy rises.
 SCF Done:  E(UB3LYP) =  -323.726690248     A.U. after   33 cycles
            NFock= 33  Conv=0.45D-08     -V/T= 2.0098
 <Sx>= 0.0000 <Sy>= 0.0000 <Sz>= 0.5000 <S**2>= 0.7699 S= 0.5099
 <L.S>= 0.000000000000E+00
 Annihilation of the first spin contaminant:
 S**2 before annihilation     0.7699,   after     0.7502
 Calling FoFJK, ICntrl=      2127 FMM=F ISym2X=0 I1Cent= 0 IOpClX= 1 NMat=1 NMatS=1 NMatT=0.
 ***** Axes restored to original set *****
 -------------------------------------------------------------------
 Center     Atomic                   Forces (Hartrees/Bohr)
 Number     Number              X              Y              Z
 -------------------------------------------------------------------
      1        6          -0.001820287   -0.000859200    0.000334850
      2        6          -0.003678703    0.002851510    0.001209191
      3        6           0.000224685   -0.001454384   -0.000229353
      4        6          -0.000041437    0.000123045    0.000025607
      5        6           0.000825059    0.000610694   -0.000122885
      6        1           0.000535630    0.000815225   -0.000028893
      7        1          -0.000352093    0.000119643    0.000098471
      8        1           0.000260980   -0.000331939   -0.000102233
      9        1           0.000218454    0.000318695   -0.000014425
     10        6          -0.006866349   -0.003564375    0.001228033
     11        6           0.007591655    0.001824412   -0.001598699
     12        7           0.003102406   -0.000453325   -0.000799665
 -------------------------------------------------------------------
 Cartesian Forces:  Max     0.007591655 RMS     0.002156257

 GradGradGradGradGradGradGradGradGradGradGradGradGradGradGradGradGradGrad
 Berny optimization.
 Using GEDIIS/GDIIS optimizer.
 FormGI is forming the generalized inverse of G from B-inverse, IUseBI=4.
 Internal  Forces:  Max     0.007913959 RMS     0.001298830
 Search for a local minimum.
 Step number   4 out of a maximum of   60
 All quantities printed in internal units (Hartrees-Bohrs-Radians)
 Mixed Optimization -- RFO/linear search
 Update second derivatives using D2CorX and points    1    2    3    4
 DE= -1.94D-04 DEPred=-1.08D-04 R= 1.79D+00
 TightC=F SS=  1.41D+00  RLast= 8.00D-02 DXNew= 8.4853D-01 2.4013D-01
 Trust test= 1.79D+00 RLast= 8.00D-02 DXMaxT set to 5.05D-01
 ITU=  1  1  1  0
 Use linear search instead of GDIIS.
     Eigenvalues ---    0.00457   0.01760   0.01928   0.01958   0.02022
     Eigenvalues ---    0.02070   0.02070   0.02070   0.02070   0.04719
     Eigenvalues ---    0.15992   0.16004   0.16109   0.16432   0.22203
     Eigenvalues ---    0.22750   0.23781   0.30046   0.30195   0.37227
     Eigenvalues ---    0.37232   0.37378   0.37841   0.42174   0.44245
     Eigenvalues ---    0.45338   0.45479   0.47136   0.58818   1.96670
 RFO step:  Lambda=-2.23606136D-04 EMin= 4.56512894D-03
 Quartic linear search produced a step of  0.79075.
 Iteration  1 RMS(Cart)=  0.04525812 RMS(Int)=  0.00499974
 Iteration  2 RMS(Cart)=  0.00643655 RMS(Int)=  0.00004905
 Iteration  3 RMS(Cart)=  0.00006472 RMS(Int)=  0.00000586
 Iteration  4 RMS(Cart)=  0.00000001 RMS(Int)=  0.00000586
 Variable       Old X    -DE/DX   Delta X   Delta X   Delta X     New X
                                 (Linear)    (Quad)   (Total)
    R1        2.64298   0.00027   0.00171   0.00248   0.00419   2.64717
[...]
     Eigenvalues ---    0.35560   0.36134   0.36366   0.36515   0.40269
     Eigenvalues ---    0.42578   0.44180   0.46474   0.50229   0.54882
 Angle between quadratic step and forces=  38.17 degrees.
 Linear search not attempted -- first point.
 Iteration  1 RMS(Cart)=  0.00034546 RMS(Int)=  0.00000009
 Iteration  2 RMS(Cart)=  0.00000011 RMS(Int)=  0.00000003
 Variable       Old X    -DE/DX   Delta X   Delta X   Delta X     New X
                                 (Linear)    (Quad)   (Total)
    R1        2.64176   0.00005   0.00000   0.00003   0.00003   2.64179
    R2        2.05620  -0.00009   0.00000  -0.00025  -0.00025   2.05595
    R3        2.52787   0.00000   0.00000   0.00019   0.00019   2.52806
    R4        2.65756  -0.00011   0.00000  -0.00032  -0.00032   2.65724
    R5        2.72193   0.00000   0.00000   0.00017   0.00017   2.72210
    R6        2.54111  -0.00021   0.00000  -0.00036  -0.00036   2.54075
    R7        2.63201  -0.00025   0.00000  -0.00049  -0.00049   2.63153
    R8        2.05075  -0.00001   0.00000  -0.00003  -0.00003   2.05072
    R9        2.64056  -0.00016   0.00000  -0.00025  -0.00025   2.64030
   R10        2.05359  -0.00004   0.00000  -0.00011  -0.00011   2.05348
   R11        2.05217  -0.00003   0.00000  -0.00006  -0.00006   2.05211
   R12        2.37402  -0.00007   0.00000  -0.00007  -0.00007   2.37395
    A1        2.10604   0.00003   0.00000   0.00025   0.00025   2.10629
    A2        2.15803   0.00000   0.00000  -0.00005  -0.00005   2.15798
    A3        2.01912  -0.00003   0.00000  -0.00020  -0.00020   2.01892
    A4        2.11627   0.00002   0.00000   0.00025   0.00025   2.11651
    A5        2.15612   0.00014   0.00000   0.00049   0.00049   2.15662
    A6        2.01080  -0.00016   0.00000  -0.00074  -0.00074   2.01005
    A7        2.05949   0.00003   0.00000   0.00002   0.00002   2.05951
    A8        2.09781   0.00003   0.00000   0.00025   0.00025   2.09806
    A9        2.12588  -0.00006   0.00000  -0.00027  -0.00027   2.12561
   A10        2.07773  -0.00005   0.00000  -0.00018  -0.00018   2.07755
   A11        2.09778   0.00002   0.00000   0.00012   0.00012   2.09790
   A12        2.10768   0.00003   0.00000   0.00006   0.00006   2.10774
   A13        2.06575   0.00003   0.00000   0.00020   0.00020   2.06595
   A14        2.09915   0.00004   0.00000   0.00028   0.00028   2.09943
   A15        2.11828  -0.00007   0.00000  -0.00048  -0.00048   2.11781
   A16        2.04924  -0.00016   0.00000  -0.00048  -0.00048   2.04876
   A17        2.82595  -0.00005   0.00000  -0.00042  -0.00042   2.82553
   A18        3.14090   0.00009   0.00000   0.00071   0.00071   3.14161
    D1        3.14153   0.00000   0.00000   0.00006   0.00006   3.14159
    D2       -0.00006   0.00000   0.00000   0.00006   0.00006   0.00000
    D3        0.00027  -0.00001   0.00000  -0.00027  -0.00027   0.00000
    D4       -3.14133  -0.00001   0.00000  -0.00027  -0.00027   3.14159
    D5       -0.00052   0.00002   0.00000   0.00053   0.00053   0.00000
    D6        3.14139   0.00001   0.00000   0.00021   0.00021  -3.14159
    D7        3.14157   0.00000   0.00000   0.00002   0.00002   3.14159
    D8       -0.00007   0.00000   0.00000   0.00006   0.00006   0.00000
    D9       -0.00016   0.00001   0.00000   0.00016   0.00016   0.00000
   D10        3.14139   0.00001   0.00000   0.00020   0.00020   3.14159
   D11        0.00047  -0.00002   0.00000  -0.00047  -0.00047   0.00000
   D12       -3.14125  -0.00001   0.00000  -0.00034  -0.00034  -3.14159
   D13       -0.00011   0.00000   0.00000   0.00011   0.00011   0.00000
   D14       -3.14159   0.00000   0.00000   0.00000   0.00000  -3.14159
   D15        3.14153   0.00000   0.00000   0.00007   0.00007  -3.14159
   D16        0.00005   0.00000   0.00000  -0.00005  -0.00005   0.00000
   D17        0.00006   0.00000   0.00000  -0.00006  -0.00006   0.00000
   D18       -3.14153   0.00000   0.00000  -0.00006  -0.00006   3.14159
   D19        3.14154   0.00000   0.00000   0.00005   0.00005   3.14159
   D20       -0.00005   0.00000   0.00000   0.00005   0.00005   0.00000
         Item               Value     Threshold  Converged?
 Maximum Force            0.000249     0.000450     YES
 RMS     Force            0.000072     0.000300     YES
 Maximum Displacement     0.000841     0.001800     YES
 RMS     Displacement     0.000346     0.001200     YES
 Predicted change in Energy=-4.016272D-07
 Optimization completed.
    -- Stationary point found.
                           ----------------------------
                           !   Optimized Parameters   !
                           ! (Angstroms and Degrees)  !
 --------------------------                            --------------------------
 ! Name  Definition              Value          Derivative Info.                !
 --------------------------------------------------------------------------------
 ! R1    R(1,5)                  1.398          -DE/DX =    0.0                 !
 ! R2    R(1,6)                  1.0881         -DE/DX =   -0.0001              !
 ! R3    R(1,12)                 1.3377         -DE/DX =    0.0                 !
 ! R4    R(2,3)                  1.4063         -DE/DX =   -0.0001              !
 ! R5    R(2,10)                 1.4404         -DE/DX =    0.0                 !
 ! R6    R(2,12)                 1.3447         -DE/DX =   -0.0002              !
 ! R7    R(3,4)                  1.3928         -DE/DX =   -0.0002              !
 ! R8    R(3,7)                  1.0852         -DE/DX =    0.0                 !
 ! R9    R(4,5)                  1.3973         -DE/DX =   -0.0002              !
 ! R10   R(4,8)                  1.0867         -DE/DX =    0.0                 !
 ! R11   R(5,9)                  1.086          -DE/DX =    0.0                 !
 ! R12   R(10,11)                1.2563         -DE/DX =   -0.0001              !
 ! A1    A(5,1,6)              120.6671         -DE/DX =    0.0                 !
 ! A2    A(5,1,12)             123.646          -DE/DX =    0.0                 !
 ! A3    A(6,1,12)             115.6869         -DE/DX =    0.0                 !
 ! A4    A(3,2,10)             121.2531         -DE/DX =    0.0                 !
 ! A5    A(3,2,12)             123.5368         -DE/DX =    0.0001              !
 ! A6    A(10,2,12)            115.2101         -DE/DX =   -0.0002              !
 ! A7    A(2,3,4)              118.0002         -DE/DX =    0.0                 !
 ! A8    A(2,3,7)              120.1958         -DE/DX =    0.0                 !
 ! A9    A(4,3,7)              121.8039         -DE/DX =   -0.0001              !
 ! A10   A(3,4,5)              119.0453         -DE/DX =    0.0                 !
 ! A11   A(3,4,8)              120.1937         -DE/DX =    0.0                 !
 ! A12   A(5,4,8)              120.761          -DE/DX =    0.0                 !
 ! A13   A(1,5,4)              118.3586         -DE/DX =    0.0                 !
 ! A14   A(1,5,9)              120.2726         -DE/DX =    0.0                 !
 ! A15   A(4,5,9)              121.3687         -DE/DX =   -0.0001              !
 ! A16   A(1,12,2)             117.413          -DE/DX =   -0.0002              !
 ! A17   L(2,10,11,7,-1)       161.9149         -DE/DX =    0.0                 !
 ! A18   L(2,10,11,7,-2)       179.9605         -DE/DX =    0.0001              !
 ! D1    D(6,1,5,4)            179.9965         -DE/DX =    0.0                 !
 ! D2    D(6,1,5,9)             -0.0036         -DE/DX =    0.0                 !
 ! D3    D(12,1,5,4)             0.0154         -DE/DX =    0.0                 !
 ! D4    D(12,1,5,9)           180.0153         -DE/DX =    0.0                 !
 ! D5    D(5,1,12,2)            -0.0299         -DE/DX =    0.0                 !
 ! D6    D(6,1,12,2)          -180.0118         -DE/DX =    0.0                 !
 ! D7    D(10,2,3,4)           179.9986         -DE/DX =    0.0                 !
 ! D8    D(10,2,3,7)            -0.0038         -DE/DX =    0.0                 !
 ! D9    D(12,2,3,4)            -0.0091         -DE/DX =    0.0                 !
 ! D10   D(12,2,3,7)           179.9884         -DE/DX =    0.0                 !
 ! D11   D(3,2,12,1)             0.0267         -DE/DX =    0.0                 !
 ! D12   D(10,2,12,1)         -179.9806         -DE/DX =    0.0                 !
 ! D13   D(2,3,4,5)             -0.0063         -DE/DX =    0.0                 !
 ! D14   D(2,3,4,8)           -179.9997         -DE/DX =    0.0                 !
 ! D15   D(7,3,4,5)           -180.0038         -DE/DX =    0.0                 !
 ! D16   D(7,3,4,8)              0.0028         -DE/DX =    0.0                 !
 ! D17   D(3,4,5,1)              0.0034         -DE/DX =    0.0                 !
 ! D18   D(3,4,5,9)            180.0035         -DE/DX =    0.0                 !
 ! D19   D(8,4,5,1)            179.9968         -DE/DX =    0.0                 !
 ! D20   D(8,4,5,9)             -0.0031         -DE/DX =    0.0                 !
 --------------------------------------------------------------------------------
 GradGradGradGradGradGradGradGradGradGradGradGradGradGradGradGradGradGrad

 1|1|UNPC-DESKTOP-LNBVCDA|Freq|UB3LYP|6-31+G(d)|C7H4N1(2)|123|24-Aug-20
 23|0||#N Geom=AllCheck Guess=TCheck SCRF=Check GenChk UB3LYP/6-31+G(d)
  Freq||Title Card Required||0,2|C,-6.499868967,-2.3206484077,-1.180992
 188|C,-4.5457501029,-1.1678427137,-1.5072283545|C,-5.1562857211,0.0643
 217807,-1.2126803536|C,-6.5111809814,0.062133764,-0.8899544892|C,-7.20
 23638887,-1.1521394581,-0.8721632814|H,-7.0009131678,-3.2865132981,-1.
 1783974552|H,-4.5763554454,0.9811712616,-1.2400139993|H,-7.0188418851,
 0.9941232792,-0.6562356024|H,-8.2590414299,-1.1975608812,-0.6258208007
 |C,-3.1489226177,-1.2467511502,-1.8497878574|C,-1.9591555823,-0.925545
 5092,-2.0937444345|N,-5.1993441406,-2.3429337873,-1.4933367837||Versio
 n=EM64W-G09RevD.01|State=2-A|HF=-323.7277001|S2=0.762997|S2-1=0.|S2A=0
 .750079|RMSD=6.143e-009|RMSF=9.217e-005|ZeroPoint=0.0849192|Thermal=0.
 0909462|Dipole=-1.3976667,0.5394717,0.3988629|DipoleDeriv=0.2372965,-0
 .0053275,-0.0978474,0.3169537,0.4184957,-0.004125,-0.0555848,0.0715076
 ,-0.1437022,1.0268605,0.1064677,-0.1284606,-0.2189856,0.2855638,0.0337
 259,-0.168956,-0.0447029,0.4840697,-0.4126629,0.0324487,0.0585634,0.22
 11729,-0.0241683,-0.0339503,0.0819609,0.0115485,-0.2038365,0.2345228,-
 0.0347918,-0.0718138,0.0334531,0.2048048,0.0225589,-0.0641389,0.039212
 7,-0.0295099,-0.0394455,0.0411121,-0.0129587,-0.1728667,-0.2664596,0.0
 222262,-0.0390864,-0.0280502,-0.1097774,-0.0092917,-0.0683061,0.014636
 ,-0.1018025,-0.0528862,0.0073549,0.0107981,-0.0005817,0.0841058,0.0403
 973,-0.0610554,0.0086244,-0.07852,-0.0080415,0.0047846,0.006857,0.0004
 371,0.1060118,0.0308905,0.0544816,0.0306198,0.0687081,-0.0337854,-0.03
 63699,0.0323053,-0.0329798,0.1199799,-0.0815725,-0.0171218,0.0583615,-
 0.0030744,0.0794911,-0.0105069,0.0597512,-0.0070678,0.1569454,2.819485
 ,0.5853217,-0.764365,0.7502157,0.0698,-0.0835368,-0.7416799,-0.0444483
 ,-0.5509985,-3.1278227,-0.5718273,0.7277386,-0.632583,-0.2076483,0.094
 9207,0.7205268,0.0817236,0.0839013,-0.7186571,-0.0614019,0.1769018,-0.
 1826715,-0.4651661,-0.0170822,0.1572467,-0.0465989,0.0028105|Polar=151
 .7968052,13.2518915,81.3669353,-25.5657539,2.179845,43.4452442|PG=C01 
 [X(C7H4N1)]|NImag=0||0.65271128,0.05997965,0.73258999,-0.11075291,0.05
 528813,0.19027529,-0.05805242,-0.04643733,0.00772041,0.63398650,-0.085
 16072,0.01670454,0.02258142,0.00802415,0.62005121,0.00292170,0.0133972
 3,-0.00147140,-0.11057949,0.05294084,0.19925096,-0.04953335,0.02276947
 ,0.01285349,-0.15189517,0.03732910,0.02327912,0.67475152,0.03679794,-0
 .01918745,-0.01021393,0.08430215,-0.25789918,-0.04245535,0.07040721,0.
 70053566,0.01456302,-0.00689037,-0.01143560,0.02895549,-0.03125302,-0.
 08390562,-0.12159048,0.05235048,0.16429700,0.07018275,-0.02073326,-0.0
 1774011,-0.02301774,0.07729027,0.01680862,-0.33542754,-0.03211856,0.06
 153287,0.66099308,0.02471801,-0.05528733,-0.01333730,0.03221903,0.0372
 6856,-0.00418003,0.02906326,-0.13123997,-0.01541352,-0.02119140,0.7219
 7295,-0.01223825,-0.00251124,0.00891344,0.01134520,-0.01491772,0.00376
 013,0.06893617,-0.00083654,-0.07757156,-0.12695216,0.07555978,0.178542
 61,-0.17105878,0.10638184,0.03742494,0.00439911,0.00750128,-0.00244792
 ,-0.02487346,-0.03143024,0.00350320,-0.17897633,-0.12190599,0.01316468
 ,0.72275959,0.03693351,-0.27458313,-0.03377939,-0.00676356,-0.07263601
 ,-0.00602122,-0.07019241,0.03623050,0.02041403,-0.05982697,-0.29038342
 ,-0.01339564,0.02465973,0.65193856,0.02904407,-0.05034956,-0.08100348,
 -0.00417147,-0.00939423,-0.00985229,-0.00118287,0.01117505,0.00741625,
 0.02067137,0.00139169,-0.06659816,-0.13886167,0.05758019,0.16761321,-0
 .10433938,-0.10614245,0.00217172,-0.00406582,-0.00129505,0.00318241,-0
 .00055779,-0.00013648,0.00005009,-0.00123814,0.00286998,0.00232339,0.0
 1159311,0.01481039,0.00063015,0.12469093,-0.10773709,-0.28591818,-0.00
 390308,0.00214101,0.00321349,-0.00132581,0.00074967,0.00039460,-0.0000
 9697,0.00369066,-0.00285125,-0.00207836,-0.01377973,-0.01729002,0.0003
 8211,0.11920848,0.29643686,0.00198404,-0.00427655,-0.04233101,0.003596
 65,-0.00051084,0.00903060,0.00015582,0.00011641,-0.00030070,0.00242648
 ,-0.00188087,0.00625224,-0.00282735,-0.00643827,0.00661349,-0.00890849
 ,0.00420049,0.02942228,-0.00102846,0.00093577,0.00042882,0.01174024,0.
 01351468,-0.00108626,-0.13938396,-0.13034953,0.00886798,-0.01041315,-0
 .02716336,-0.00003059,-0.00461012,0.00149758,0.00319905,0.00011264,-0.
 00002929,-0.00044733,0.14359637,0.00163753,0.00045440,-0.00037216,-0.0
 1737490,-0.01596931,0.00217198,-0.12911083,-0.26506960,0.00307012,0.00
 235666,0.00584865,-0.00024485,0.00089234,0.00182178,-0.00096641,-0.000
 14558,-0.00005292,0.00023987,0.13882607,0.27704116,0.00051879,-0.00020
 405,0.00014861,-0.00480777,-0.00518516,0.00084296,0.00901287,0.0033670
 0,-0.03778248,0.00353907,0.00679245,0.00321559,0.00312542,-0.00110922,
 0.00717083,-0.00046113,0.00021213,-0.00161469,-0.01149647,-0.00259572,
 0.02735249,-0.00092069,-0.00388812,0.00176291,-0.00518478,-0.00139023,
 0.00314523,-0.00928540,0.02783232,0.00675105,-0.12104124,0.11195436,0.
 03267638,0.01260754,-0.01454179,-0.00356915,0.00044896,-0.00079402,-0.
 00030930,0.00053792,-0.00023930,-0.00116300,0.12317828,-0.00472743,-0.
 00312775,-0.00027465,-0.00139407,0.00220387,-0.00045439,-0.00164730,0.
 00449662,0.00034193,0.11215196,-0.26721639,-0.05412111,0.01507623,-0.0
 1776549,-0.00634928,0.00088680,-0.00095384,-0.00027291,0.00045167,0.00
 068455,0.00048543,-0.12028568,0.28063906,0.00165903,-0.00047430,0.0079
 9820,0.00314471,-0.00045418,0.00790988,0.00318667,-0.00668622,0.003346
 10,0.03269933,-0.05407109,-0.05509494,0.00001410,0.00070680,0.00509658
 ,-0.00010581,0.00012740,-0.00040466,-0.00107960,0.00065051,-0.00388385
 ,-0.03761469,0.05942064,0.04255795,-0.01029683,-0.00462138,0.00202270,
 0.00129094,0.00037676,-0.00009964,0.00120853,-0.00295536,0.00111925,-0
 .00952709,0.00174568,0.00316867,-0.32747684,-0.01124192,0.06818644,0.0
 0023099,0.00059535,-0.00072017,-0.00043418,0.00030797,0.00018608,0.000
 46472,-0.00021265,-0.00107439,0.34482717,0.02646211,0.00786956,-0.0054
 1627,-0.00114039,-0.00209040,-0.00006504,-0.00236910,-0.00480283,-0.00
 091279,-0.02809516,0.00434723,0.00687231,-0.01125220,-0.06037852,-0.00
 031270,-0.00034863,0.00027685,0.00049081,-0.00135763,0.00022787,0.0003
 2865,0.00051801,0.00075555,0.00044429,0.01309971,0.05751953,0.00577577
 ,0.00199111,-0.00059354,-0.00029539,-0.00042383,0.00069843,0.00118766,
 -0.00077457,0.00702780,-0.00043908,-0.00023636,0.00295878,0.06818737,-
 0.00032001,-0.05195157,-0.00083371,0.00026540,-0.00286141,-0.00001586,
 -0.00006882,0.00018561,-0.00098585,0.00061805,-0.00362487,-0.07460190,
 0.00079634,0.04302128,0.00449991,0.00170570,0.00396856,-0.26402794,0.0
 5246438,0.05334813,-0.02837251,0.02239749,0.01242207,0.00858871,0.0018
 6286,-0.00097859,-0.00420822,-0.00343649,0.00049554,0.00157680,-0.0000
 3899,0.00007066,-0.00161823,0.00338847,0.00068823,0.00082017,-0.000007
 83,-0.00025055,0.00056825,0.00013639,-0.00094669,0.65103326,-0.0050899
 9,-0.00562031,-0.00194220,0.01125355,-0.06160741,-0.00191333,0.0276849
 5,0.00492679,-0.00749996,0.00251380,-0.00562505,-0.00171895,-0.0002149
 3,-0.00094719,-0.00001885,-0.00062440,0.00032401,-0.00004424,0.0003931
 3,0.00009485,-0.00002697,0.00150797,0.00012285,-0.00031662,0.00031862,
 -0.00013721,0.00033295,0.04183016,0.10487824,0.00331258,-0.00362685,0.
 01946046,0.04829689,-0.01179853,-0.08084123,0.01306061,-0.00620398,0.0
 0860946,-0.00090297,-0.00154691,0.00360560,0.00087725,0.00079770,-0.00
 045896,0.00000552,-0.00018331,0.00189633,0.00032837,-0.00074319,-0.000
 60484,-0.00006866,0.00004339,-0.00021265,-0.00094410,0.00038345,-0.003
 28865,-0.12699876,-0.00918524,0.12759677,-0.00131760,-0.00211585,-0.00
 144538,-0.00226870,-0.02512603,0.00153333,-0.00111921,-0.00957279,-0.0
 0141614,-0.00294107,0.00195825,0.00110051,0.00143632,0.00154221,-0.000
 16890,-0.00167888,-0.00018868,0.00020757,0.00165574,-0.00344635,-0.001
 01550,-0.00125735,0.00002235,0.00030116,-0.00073036,0.00011362,0.00043
 221,-0.33964348,-0.05116126,0.06512473,0.36218987,0.00049658,-0.000971
 57,0.00057576,0.00228873,0.00829372,-0.00174880,-0.00074589,-0.0044572
 7,-0.00008621,-0.00149495,0.00129665,0.00044181,0.00072807,0.00113459,
 -0.00002633,-0.00026123,-0.00009322,0.00014083,0.00047495,-0.00049589,
 -0.00007166,-0.00054314,-0.00009252,0.00011824,-0.00019422,0.00000610,
 -0.00008779,-0.08014558,-0.03866727,0.01950196,0.08017643,0.03108091,-
 0.00123246,0.00120415,-0.00618389,0.00497893,0.00485338,0.01723350,-0.
 00035105,0.00199298,-0.00196516,0.00067304,-0.00039462,0.00043288,-0.0
 0026440,-0.00023989,-0.00004092,0.00019227,0.00012257,-0.00076994,-0.0
 0053934,0.00086352,-0.00061915,0.00023320,-0.00001558,-0.00005849,0.00
 040983,-0.00015900,0.00097549,0.06142752,0.01252182,-0.05464812,-0.071
 63541,-0.01789196,0.03590568,-0.33084643,-0.00783404,0.06158485,-0.142
 90422,-0.08352860,0.00999478,0.06448833,-0.03517416,-0.01475840,-0.057
 18224,-0.03613066,0.00748458,-0.04159194,0.08655972,0.02572745,-0.0267
 7342,-0.00381736,0.00477143,-0.00015480,0.00290792,0.00187342,-0.00036
 813,-0.00031404,-0.00087996,-0.00012531,0.00423328,0.00253547,-0.02921
 671,-0.02841161,-0.00209146,-0.01432529,-0.00077974,0.00610788,0.57900
 015,0.01568988,-0.11292277,-0.00920634,-0.06711836,-0.27753308,-0.0103
 4608,0.01606186,-0.06392787,-0.01402370,-0.03454305,-0.01813062,0.0069
 5050,0.02334360,0.04285837,-0.00311167,-0.02882182,0.00651361,0.008235
 27,0.00280597,-0.00458555,-0.00199288,-0.00013037,0.00025350,0.0005345
 1,0.00278143,-0.00359373,-0.00209247,-0.04015655,0.00225768,0.01256151
 ,0.00779811,0.00296577,-0.00285737,0.10228930,0.42584468,0.06444461,-0
 .00354771,-0.08377708,0.01181585,-0.00643813,-0.06265592,-0.00854801,-
 0.00183133,0.02226451,0.00768354,0.00731679,-0.00841661,0.01810438,-0.
 01819509,0.01599502,0.00175360,0.00227744,-0.00493255,0.00187123,-0.00
 200486,0.00558891,-0.00085812,0.00057848,-0.00362925,0.00234723,-0.002
 45005,0.00745265,-0.00324611,0.00981160,-0.02111417,0.00698182,-0.0008
 6586,0.00973812,-0.10235003,0.01534870,0.12348636||0.00003865,0.000037
 11,-0.00006145,0.00033026,-0.00006562,-0.00007761,0.00012019,0.0001487
 0,-0.00001236,-0.00008385,0.00001702,0.00003045,-0.00009126,-0.0001012
 1,0.00002012,-0.00006863,-0.00006034,0.00000836,0.00004215,-0.00001490
 ,-0.00001047,-0.00002158,0.00003311,0.00000448,-0.00002411,-0.00005487
 ,0.00000493,-0.00008743,0.00009642,-0.00005207,0.00008341,-0.00000707,
 0.00002035,-0.00023779,-0.00002835,0.00012526|||@


 THE MOLECULE ALSO HAS A BODY.  WHEN THIS BODY IS HIT, THE MOLECULE
 FEELS HURT ALL OVER -- A. KITAIGORODSKI
 Job cpu time:       0 days  0 hours  6 minutes 22.0 seconds.
 File lengths (MBytes):  RWF=     69 Int=      0 D2E=      0 Chk=      4 Scr=      1
 Normal termination of Gaussian 09 at Thu Aug 24 16:07:55 2023.
