 Entering Gaussian System, Link 0=C:\G09W\g09.exe
 Input=C:\Users\USER\Desktop\ML_substrate\molecule_22.gjf
 Output=C:\Users\USER\Desktop\ML_substrate\molecule_22.log
 Initial command:
 C:/G09W\l1.exe ".\Gau-792.inp" "C:\Users\USER\Desktop\ML_substrate\molecule_22.log" /scrdir=".\"
 Entering Link 1 = C:/G09W\l1.exe PID=      6324.
  
 Copyright (c) 1988,1990,1992,1993,1995,1998,2003,2009,2013,
            Gaussian, Inc.  All Rights Reserved.
  
 This is part of the Gaussian(R) 09 program.  It is based on
 the Gaussian(R) 03 system (copyright 2003, Gaussian, Inc.),
 the Gaussian(R) 98 system (copyright 1998, Gaussian, Inc.),
 the Gaussian(R) 94 system (copyright 1995, Gaussian, Inc.),
 the Gaussian 92(TM) system (copyright 1992, Gaussian, Inc.),
 the Gaussian 90(TM) system (copyright 1990, Gaussian, Inc.),
 the Gaussian 88(TM) system (copyright 1988, Gaussian, Inc.),
 the Gaussian 86(TM) system (copyright 1986, Carnegie Mellon
 University), and the Gaussian 82(TM) system (copyright 1983,
 Carnegie Mellon University). Gaussian is a federally registered
 trademark of Gaussian, Inc.
  
 This software contains proprietary and confidential information,
 including trade secrets, belonging to Gaussian, Inc.
  
 This software is provided under written license and may be
 used, copied, transmitted, or stored only in accord with that
 written license.
  
 The following legend is applicable only to US Government
 contracts under FAR:
  
                    RESTRICTED RIGHTS LEGEND
  
 Use, reproduction and disclosure by the US Government is
 subject to restrictions as set forth in subparagraphs (a)
 and (c) of the Commercial Computer Software - Restricted
 Rights clause in FAR 52.227-19.
  
 Gaussian, Inc.
 340 Quinnipiac St., Bldg. 40, Wallingford CT 06492
  
  
 ---------------------------------------------------------------
 Warning -- This program may not be used in any manner that
 competes with the business of Gaussian, Inc. or will provide
 assistance to any competitor of Gaussian, Inc.  The licensee
 of this program is prohibited from giving any competitor of
 Gaussian, Inc. access to this program.  By using this program,
 the user acknowledges that Gaussian, Inc. is engaged in the
 business of creating and licensing software in the field of
 computational chemistry and represents and warrants to the
 licensee that it is not a competitor of Gaussian, Inc. and that
 it will not use this program in any manner prohibited above.
 ---------------------------------------------------------------
  

 Cite this work as:
 Gaussian 09, Revision D.01,
 M. J. Frisch, G. W. Trucks, H. B. Schlegel, G. E. Scuseria, 
 M. A. Robb, J. R. Cheeseman, G. Scalmani, V. Barone, B. Mennucci, 
 G. A. Petersson, H. Nakatsuji, M. Caricato, X. Li, H. P. Hratchian, 
 A. F. Izmaylov, J. Bloino, G. Zheng, J. L. Sonnenberg, M. Hada, 
 M. Ehara, K. Toyota, R. Fukuda, J. Hasegawa, M. Ishida, T. Nakajima, 
 Y. Honda, O. Kitao, H. Nakai, T. Vreven, J. A. Montgomery, Jr., 
 J. E. Peralta, F. Ogliaro, M. Bearpark, J. J. Heyd, E. Brothers, 
 K. N. Kudin, V. N. Staroverov, T. Keith, R. Kobayashi, J. Normand, 
 K. Raghavachari, A. Rendell, J. C. Burant, S. S. Iyengar, J. Tomasi, 
 M. Cossi, N. Rega, J. M. Millam, M. Klene, J. E. Knox, J. B. Cross, 
 V. Bakken, C. Adamo, J. Jaramillo, R. Gomperts, R. E. Stratmann, 
 O. Yazyev, A. J. Austin, R. Cammi, C. Pomelli, J. W. Ochterski, 
 R. L. Martin, K. Morokuma, V. G. Zakrzewski, G. A. Voth, 
 P. Salvador, J. J. Dannenberg, S. Dapprich, A. D. Daniels, 
 O. Farkas, J. B. Foresman, J. V. Ortiz, J. Cioslowski, 
 and D. J. Fox, Gaussian, Inc., Wallingford CT, 2013.
 
 ******************************************
 Gaussian 09:  EM64W-G09RevD.01 13-Apr-2013
                24-Aug-2023 
 ******************************************
 %nprocshared=2
 Will use up to    2 processors via shared memory.
 %mem=4GB
 %chk=C:\Users\USER\Desktop\ML_substrate\molecule_22.chk
 --------------------------------------------------------------------
 # opt freq b3lyp/6-31+g(d) geom=connectivity empiricaldispersion=gd3
 --------------------------------------------------------------------
 1/14=-1,18=20,19=15,26=3,38=1,57=2/1,3;
 2/9=110,12=2,17=6,18=5,40=1/2;
 3/5=1,6=6,7=11,11=2,16=1,25=1,30=1,71=1,74=-5,124=31/1,2,3;
 4//1;
 5/5=2,38=5/2;
 6/7=2,8=2,9=2,10=2,28=1/1;
 7//1,2,3,16;
 1/14=-1,18=20,19=15,26=3/3(2);
 2/9=110/2;
 99//99;
 2/9=110/2;
 3/5=1,6=6,7=11,11=2,16=1,25=1,30=1,71=1,74=-5,124=31/1,2,3;
 4/5=5,16=3,69=1/1;
 5/5=2,38=5/2;
 7//1,2,3,16;
 1/14=-1,18=20,19=15,26=3/3(-5);
 2/9=110/2;
 6/7=2,8=2,9=2,10=2,19=2,28=1/1;
 99/9=1/99;
 -------------------
 Title Card Required
 -------------------
 Symbolic Z-matrix:
 Charge =  0 Multiplicity = 2
 C                     0.23151  -0.50014  -0.01226 
 C                     1.5952   -0.47613  -0.33429 
 C                     2.28955   0.74102  -0.35252 
 C                     1.62021   1.93418  -0.04871 
 C                     0.25652   1.91017   0.27332 
 C                    -0.43783   0.69302   0.29154 
 H                    -0.29864  -1.42946   0.00165 
 H                     2.10625  -1.38713  -0.56626 
 H                     2.15036   2.8635   -0.06263 
 H                    -0.25453   2.82117   0.50528 
 H                    -1.47903   0.67469   0.53742 
 C                     3.7881    0.7674   -0.7064 
 C                     4.95698   0.78798  -0.98243 
 

 GradGradGradGradGradGradGradGradGradGradGradGradGradGradGradGradGradGrad
 Berny optimization.
 Initialization pass.
                           ----------------------------
                           !    Initial Parameters    !
                           ! (Angstroms and Degrees)  !
 --------------------------                            --------------------------
 ! Name  Definition              Value          Derivative Info.                !
 --------------------------------------------------------------------------------
 ! R1    R(1,2)                  1.4014         estimate D2E/DX2                !
 ! R2    R(1,6)                  1.4014         estimate D2E/DX2                !
 ! R3    R(1,7)                  1.07           estimate D2E/DX2                !
 ! R4    R(2,3)                  1.4014         estimate D2E/DX2                !
 ! R5    R(2,8)                  1.07           estimate D2E/DX2                !
 ! R6    R(3,4)                  1.4014         estimate D2E/DX2                !
 ! R7    R(3,12)                 1.54           estimate D2E/DX2                !
 ! R8    R(4,5)                  1.4014         estimate D2E/DX2                !
 ! R9    R(4,9)                  1.07           estimate D2E/DX2                !
 ! R10   R(5,6)                  1.4014         estimate D2E/DX2                !
 ! R11   R(5,10)                 1.07           estimate D2E/DX2                !
 ! R12   R(6,11)                 1.07           estimate D2E/DX2                !
 ! R13   R(12,13)                1.2012         estimate D2E/DX2                !
 ! A1    A(2,1,6)              120.0            estimate D2E/DX2                !
 ! A2    A(2,1,7)              120.0            estimate D2E/DX2                !
 ! A3    A(6,1,7)              120.0            estimate D2E/DX2                !
 ! A4    A(1,2,3)              120.0            estimate D2E/DX2                !
 ! A5    A(1,2,8)              120.0            estimate D2E/DX2                !
 ! A6    A(3,2,8)              120.0            estimate D2E/DX2                !
 ! A7    A(2,3,4)              120.0            estimate D2E/DX2                !
 ! A8    A(2,3,12)             120.0            estimate D2E/DX2                !
 ! A9    A(4,3,12)             120.0            estimate D2E/DX2                !
 ! A10   A(3,4,5)              120.0            estimate D2E/DX2                !
 ! A11   A(3,4,9)              120.0            estimate D2E/DX2                !
 ! A12   A(5,4,9)              120.0            estimate D2E/DX2                !
 ! A13   A(4,5,6)              120.0            estimate D2E/DX2                !
 ! A14   A(4,5,10)             120.0            estimate D2E/DX2                !
 ! A15   A(6,5,10)             120.0            estimate D2E/DX2                !
 ! A16   A(1,6,5)              120.0            estimate D2E/DX2                !
 ! A17   A(1,6,11)             120.0            estimate D2E/DX2                !
 ! A18   A(5,6,11)             120.0            estimate D2E/DX2                !
 ! A19   L(3,12,13,8,-1)       180.0            estimate D2E/DX2                !
 ! A20   L(3,12,13,8,-2)       180.0            estimate D2E/DX2                !
 ! D1    D(6,1,2,3)              0.0            estimate D2E/DX2                !
 ! D2    D(6,1,2,8)           -179.9998         estimate D2E/DX2                !
 ! D3    D(7,1,2,3)            179.9998         estimate D2E/DX2                !
 ! D4    D(7,1,2,8)              0.0            estimate D2E/DX2                !
 ! D5    D(2,1,6,5)              0.0            estimate D2E/DX2                !
 ! D6    D(2,1,6,11)           179.9999         estimate D2E/DX2                !
 ! D7    D(7,1,6,5)           -179.9998         estimate D2E/DX2                !
 ! D8    D(7,1,6,11)             0.0001         estimate D2E/DX2                !
 ! D9    D(1,2,3,4)              0.0            estimate D2E/DX2                !
 ! D10   D(1,2,3,12)          -179.9999         estimate D2E/DX2                !
 ! D11   D(8,2,3,4)            179.9998         estimate D2E/DX2                !
 ! D12   D(8,2,3,12)            -0.0001         estimate D2E/DX2                !
 ! D13   D(2,3,4,5)             -0.0002         estimate D2E/DX2                !
 ! D14   D(2,3,4,9)           -180.0            estimate D2E/DX2                !
 ! D15   D(12,3,4,5)           179.9998         estimate D2E/DX2                !
 ! D16   D(12,3,4,9)            -0.0001         estimate D2E/DX2                !
 ! D17   D(3,4,5,6)              0.0002         estimate D2E/DX2                !
 ! D18   D(3,4,5,10)          -179.9998         estimate D2E/DX2                !
 ! D19   D(9,4,5,6)           -180.0            estimate D2E/DX2                !
 ! D20   D(9,4,5,10)             0.0            estimate D2E/DX2                !
 ! D21   D(4,5,6,1)             -0.0001         estimate D2E/DX2                !
 ! D22   D(4,5,6,11)           180.0            estimate D2E/DX2                !
 ! D23   D(10,5,6,1)           179.9999         estimate D2E/DX2                !
 ! D24   D(10,5,6,11)            0.0            estimate D2E/DX2                !
 --------------------------------------------------------------------------------
 Trust Radius=3.00D-01 FncErr=1.00D-07 GrdErr=1.00D-06
 Number of steps in this run=     67 maximum allowed number of steps=    100.
 GradGradGradGradGradGradGradGradGradGradGradGradGradGradGradGradGradGrad

                          Input orientation:                          
 ---------------------------------------------------------------------
 Center     Atomic      Atomic             Coordinates (Angstroms)
 Number     Number       Type             X           Y           Z
 ---------------------------------------------------------------------
      1          6           0        0.231511   -0.500137   -0.012262
      2          6           0        1.595198   -0.476132   -0.334292
      3          6           0        2.289547    0.741024   -0.352517
      4          6           0        1.620210    1.934176   -0.048712
      5          6           0        0.256522    1.910172    0.273316
      6          6           0       -0.437827    0.693015    0.291543
      7          1           0       -0.298640   -1.429462    0.001651
      8          1           0        2.106252   -1.387130   -0.566257
      9          1           0        2.150361    2.863501   -0.062627
     10          1           0       -0.254533    2.821170    0.505276
     11          1           0       -1.479032    0.674688    0.537418
     12          6           0        3.788104    0.767403   -0.706400
     13          6           0        4.956978    0.787977   -0.982428
 ---------------------------------------------------------------------
                    Distance matrix (angstroms):
                    1          2          3          4          5
     1  C    0.000000
     2  C    1.401400   0.000000
     3  C    2.427296   1.401400   0.000000
     4  C    2.802800   2.427296   1.401400   0.000000
     5  C    2.427296   2.802800   2.427296   1.401400   0.000000
     6  C    1.401400   2.427296   2.802800   2.427296   1.401400
     7  H    1.070000   2.146700   3.396345   3.872800   3.396345
     8  H    2.146700   1.070000   2.146700   3.396345   3.872800
     9  H    3.872800   3.396345   2.146700   1.070000   2.146700
    10  H    3.396345   3.872800   3.396345   2.146700   1.070000
    11  H    2.146700   3.396345   3.872800   3.396345   2.146700
    12  C    3.838989   2.548270   1.540000   2.548270   3.838989
    13  C    4.993045   3.649605   2.741200   3.649605   4.993045
                    6          7          8          9         10
     6  C    0.000000
     7  H    2.146700   0.000000
     8  H    3.396345   2.471400   0.000000
     9  H    3.396345   4.942800   4.280590   0.000000
    10  H    2.146700   4.280590   4.942800   2.471400   0.000000
    11  H    1.070000   2.471400   4.280590   4.280590   2.471400
    12  C    4.342800   4.693509   2.736837   2.736837   4.693509
    13  C    5.544000   5.788521   3.609838   3.609839   5.788521
                   11         12         13
    11  H    0.000000
    12  C    5.412800   0.000000
    13  C    6.614000   1.201200   0.000000
 Stoichiometry    C8H5(2)
 Framework group  C1[X(C8H5)]
 Deg. of freedom    33
 Full point group                 C1      NOp   1
 Largest Abelian subgroup         C1      NOp   1
 Largest concise Abelian subgroup C1      NOp   1
                         Standard orientation:                         
 ---------------------------------------------------------------------
 Center     Atomic      Atomic             Coordinates (Angstroms)
 Number     Number       Type             X           Y           Z
 ---------------------------------------------------------------------
      1          6           0       -1.456032    1.213648    0.000000
      2          6           0       -0.054632    1.213648   -0.000001
      3          6           0        0.646068    0.000000   -0.000002
      4          6           0       -0.054632   -1.213648   -0.000002
      5          6           0       -1.456032   -1.213648    0.000001
      6          6           0       -2.156732    0.000000    0.000001
      7          1           0       -1.991032    2.140295    0.000003
      8          1           0        0.480368    2.140295    0.000001
      9          1           0        0.480368   -2.140295   -0.000002
     10          1           0       -1.991032   -2.140295    0.000004
     11          1           0       -3.226732    0.000000    0.000003
     12          6           0        2.186068    0.000000    0.000000
     13          6           0        3.387268    0.000000    0.000002
 ---------------------------------------------------------------------
 Rotational constants (GHZ):      5.6677155      1.5532090      1.2191163
 Standard basis: 6-31+G(d) (6D, 7F)
 There are   162 symmetry adapted cartesian basis functions of A   symmetry.
 There are   162 symmetry adapted basis functions of A   symmetry.
   162 basis functions,   276 primitive gaussians,   162 cartesian basis functions
    27 alpha electrons       26 beta electrons
       nuclear repulsion energy       287.2290532325 Hartrees.
 NAtoms=   13 NActive=   13 NUniq=   13 SFac= 1.00D+00 NAtFMM=   60 NAOKFM=F Big=F
 Integral buffers will be    131072 words long.
 Raffenetti 2 integral format.
 Two-electron integral symmetry is turned on.
 Nuclear repulsion after empirical dispersion term =      287.2221221894 Hartrees.
 One-electron integrals computed using PRISM.
 NBasis=   162 RedAO= T EigKep=  5.12D-06  NBF=   162
 NBsUse=   161 1.00D-06 EigRej=  5.34D-07 NBFU=   161
 ExpMin= 4.38D-02 ExpMax= 3.05D+03 ExpMxC= 4.57D+02 IAcc=2 IRadAn=         4 AccDes= 0.00D+00
 Harris functional with IExCor=  402 and IRadAn=       4 diagonalized for initial guess.
 HarFok:  IExCor=  402 AccDes= 0.00D+00 IRadAn=         4 IDoV= 1 UseB2=F ITyADJ=14
 ICtDFT=  3500011 ScaDFX=  1.000000  1.000000  1.000000  1.000000
 FoFCou: FMM=F IPFlag=           0 FMFlag=      100000 FMFlg1=           0
         NFxFlg=           0 DoJE=T BraDBF=F KetDBF=T FulRan=T
         wScrn=  0.000000 ICntrl=     500 IOpCl=  0 I1Cent=   200000004 NGrid=           0
         NMat0=    1 NMatS0=      1 NMatT0=    0 NMatD0=    1 NMtDS0=    0 NMtDT0=    0
 Petite list used in FoFCou.
 Initial guess <Sx>= 0.0000 <Sy>= 0.0000 <Sz>= 0.5000 <S**2>= 0.7500 S= 0.5000
 Keep R1 and R2 ints in memory in canonical form, NReq=176597168.
 Requested convergence on RMS density matrix=1.00D-08 within 128 cycles.
 Requested convergence on MAX density matrix=1.00D-06.
 Requested convergence on             energy=1.00D-06.
 No special actions if energy rises.
 EnCoef did     2 forward-backward iterations
 SCF Done:  E(UB3LYP) =  -307.685355123     A.U. after   27 cycles
            NFock= 27  Conv=0.78D-08     -V/T= 2.0101
 <Sx>= 0.0000 <Sy>= 0.0000 <Sz>= 0.5000 <S**2>= 0.7734 S= 0.5116
 <L.S>= 0.000000000000E+00
 Annihilation of the first spin contaminant:
 S**2 before annihilation     0.7734,   after     0.7503

 **********************************************************************

            Population analysis using the SCF density.

 **********************************************************************

 Orbital symmetries:
 Alpha Orbitals:
       Occupied  (A) (A) (A) (A) (A) (A) (A) (A) (A) (A) (A) (A)
                 (A) (A) (A) (A) (A) (A) (A) (A) (A) (A) (A) (A)
                 (A) (A) (A)
       Virtual   (A) (A) (A) (A) (A) (A) (A) (A) (A) (A) (A) (A)
                 (A) (A) (A) (A) (A) (A) (A) (A) (A) (A) (A) (A)
                 (A) (A) (A) (A) (A) (A) (A) (A) (A) (A) (A) (A)
                 (A) (A) (A) (A) (A) (A) (A) (A) (A) (A) (A) (A)
                 (A) (A) (A) (A) (A) (A) (A) (A) (A) (A) (A) (A)
                 (A) (A) (A) (A) (A) (A) (A) (A) (A) (A) (A) (A)
                 (A) (A) (A) (A) (A) (A) (A) (A) (A) (A) (A) (A)
                 (A) (A) (A) (A) (A) (A) (A) (A) (A) (A) (A) (A)
                 (A) (A) (A) (A) (A) (A) (A) (A) (A) (A) (A) (A)
                 (A) (A) (A) (A) (A) (A) (A) (A) (A) (A) (A) (A)
                 (A) (A) (A) (A) (A) (A) (A) (A) (A) (A) (A) (A)
                 (A) (A)
 Beta  Orbitals:
       Occupied  (A) (A) (A) (A) (A) (A) (A) (A) (A) (A) (A) (A)
                 (A) (A) (A) (A) (A) (A) (A) (A) (A) (A) (A) (A)
                 (A) (A)
       Virtual   (A) (A) (A) (A) (A) (A) (A) (A) (A) (A) (A) (A)
                 (A) (A) (A) (A) (A) (A) (A) (A) (A) (A) (A) (A)
                 (A) (A) (A) (A) (A) (A) (A) (A) (A) (A) (A) (A)
                 (A) (A) (A) (A) (A) (A) (A) (A) (A) (A) (A) (A)
                 (A) (A) (A) (A) (A) (A) (A) (A) (A) (A) (A) (A)
                 (A) (A) (A) (A) (A) (A) (A) (A) (A) (A) (A) (A)
                 (A) (A) (A) (A) (A) (A) (A) (A) (A) (A) (A) (A)
                 (A) (A) (A) (A) (A) (A) (A) (A) (A) (A) (A) (A)
                 (A) (A) (A) (A) (A) (A) (A) (A) (A) (A) (A) (A)
                 (A) (A) (A) (A) (A) (A) (A) (A) (A) (A) (A) (A)
                 (A) (A) (A) (A) (A) (A) (A) (A) (A) (A) (A) (A)
                 (A) (A) (A)
 The electronic state is 2-A.
 Alpha  occ. eigenvalues --  -10.24945 -10.24553 -10.22192 -10.21312 -10.21311
 Alpha  occ. eigenvalues --  -10.21091 -10.21070 -10.21001  -0.87575  -0.79298
 Alpha  occ. eigenvalues --   -0.76576  -0.75215  -0.63036  -0.62662  -0.55275
 Alpha  occ. eigenvalues --   -0.49850  -0.46938  -0.45726  -0.44258  -0.39985
 Alpha  occ. eigenvalues --   -0.39111  -0.36971  -0.36906  -0.32431  -0.30690
 Alpha  occ. eigenvalues --   -0.27022  -0.26038
 Alpha virt. eigenvalues --   -0.04629  -0.02769   0.00079   0.02042   0.02561
 Alpha virt. eigenvalues --    0.02569   0.04472   0.04719   0.04859   0.05501
 Alpha virt. eigenvalues --    0.06092   0.06872   0.08160   0.08754   0.08774
 Alpha virt. eigenvalues --    0.09863   0.11279   0.12505   0.13787   0.13788
 Alpha virt. eigenvalues --    0.14151   0.14894   0.15028   0.16283   0.16398
 Alpha virt. eigenvalues --    0.16588   0.19157   0.19581   0.20312   0.20516
 Alpha virt. eigenvalues --    0.20996   0.21949   0.22999   0.23124   0.23950
 Alpha virt. eigenvalues --    0.25681   0.26722   0.26800   0.28139   0.29103
 Alpha virt. eigenvalues --    0.29712   0.32003   0.33864   0.34052   0.34906
 Alpha virt. eigenvalues --    0.37544   0.51650   0.55232   0.58787   0.64946
 Alpha virt. eigenvalues --    0.66044   0.66721   0.67590   0.70613   0.70999
 Alpha virt. eigenvalues --    0.71136   0.71391   0.73485   0.73925   0.74343
 Alpha virt. eigenvalues --    0.74413   0.77055   0.80287   0.80642   0.82795
 Alpha virt. eigenvalues --    0.83310   0.86090   0.88142   0.91722   0.93365
 Alpha virt. eigenvalues --    0.94268   0.96571   1.00226   1.01018   1.07550
 Alpha virt. eigenvalues --    1.09235   1.13002   1.14915   1.16151   1.21852
 Alpha virt. eigenvalues --    1.23174   1.26219   1.30775   1.32061   1.33641
 Alpha virt. eigenvalues --    1.41875   1.43539   1.45060   1.45572   1.47250
 Alpha virt. eigenvalues --    1.48789   1.52545   1.54940   1.71715   1.73134
 Alpha virt. eigenvalues --    1.81422   1.83210   1.90457   1.91090   1.93329
 Alpha virt. eigenvalues --    1.96665   1.99513   2.06453   2.07012   2.10542
 Alpha virt. eigenvalues --    2.10930   2.13169   2.15537   2.15761   2.27124
 Alpha virt. eigenvalues --    2.28509   2.28548   2.40846   2.47418   2.55709
 Alpha virt. eigenvalues --    2.60408   2.62268   2.66373   2.66755   2.72152
 Alpha virt. eigenvalues --    2.72518   2.81656   2.82790   3.07643   3.20953
 Alpha virt. eigenvalues --    3.42027   4.12198   4.19335   4.22953   4.23580
 Alpha virt. eigenvalues --    4.33227   4.36942   4.54972   4.77246
  Beta  occ. eigenvalues --  -10.24473 -10.22914 -10.22131 -10.21341 -10.21341
  Beta  occ. eigenvalues --  -10.21089 -10.21056 -10.21013  -0.87570  -0.78759
  Beta  occ. eigenvalues --   -0.76594  -0.73733  -0.62714  -0.62680  -0.55030
  Beta  occ. eigenvalues --   -0.49621  -0.46951  -0.45447  -0.44259  -0.39130
  Beta  occ. eigenvalues --   -0.37570  -0.36903  -0.31793  -0.29267  -0.27088
  Beta  occ. eigenvalues --   -0.25178
  Beta virt. eigenvalues --   -0.19028  -0.04000  -0.02825   0.00096   0.02173
  Beta virt. eigenvalues --    0.02698   0.04089   0.04763   0.04944   0.05402
  Beta virt. eigenvalues --    0.05645   0.06414   0.07220   0.08618   0.08753
  Beta virt. eigenvalues --    0.09222   0.09955   0.11457   0.12850   0.13775
  Beta virt. eigenvalues --    0.14146   0.14165   0.14898   0.15544   0.16289
  Beta virt. eigenvalues --    0.16537   0.16708   0.19357   0.19591   0.20523
  Beta virt. eigenvalues --    0.20614   0.20996   0.22068   0.23151   0.23221
  Beta virt. eigenvalues --    0.23961   0.25755   0.26756   0.26785   0.28128
  Beta virt. eigenvalues --    0.29312   0.29906   0.31999   0.33864   0.34218
  Beta virt. eigenvalues --    0.35286   0.37820   0.54950   0.55293   0.58804
  Beta virt. eigenvalues --    0.65240   0.66354   0.66749   0.68120   0.70581
  Beta virt. eigenvalues --    0.71002   0.71208   0.72046   0.73461   0.73887
  Beta virt. eigenvalues --    0.74616   0.75718   0.77569   0.80555   0.80638
  Beta virt. eigenvalues --    0.82871   0.85998   0.88144   0.89848   0.92443
  Beta virt. eigenvalues --    0.93361   0.94384   0.96593   1.00211   1.01248
  Beta virt. eigenvalues --    1.07555   1.09306   1.13138   1.14925   1.16475
  Beta virt. eigenvalues --    1.22180   1.23154   1.26768   1.31730   1.33426
  Beta virt. eigenvalues --    1.33641   1.42054   1.43570   1.45085   1.45737
  Beta virt. eigenvalues --    1.47206   1.48775   1.53847   1.56538   1.75133
  Beta virt. eigenvalues --    1.75929   1.81589   1.83300   1.90481   1.92787
  Beta virt. eigenvalues --    1.94543   1.96828   1.99514   2.06762   2.07462
  Beta virt. eigenvalues --    2.11045   2.11784   2.13144   2.15729   2.16028
  Beta virt. eigenvalues --    2.27499   2.28506   2.28552   2.44277   2.49678
  Beta virt. eigenvalues --    2.56629   2.60421   2.62255   2.67792   2.69469
  Beta virt. eigenvalues --    2.72146   2.72547   2.82183   2.83409   3.08041
  Beta virt. eigenvalues --    3.23144   3.42636   4.15304   4.20556   4.22939
  Beta virt. eigenvalues --    4.24175   4.33393   4.36924   4.55039   4.77385
          Condensed to atoms (all electrons):
               1          2          3          4          5          6
     1  C    6.251801  -0.460182  -0.217915   0.351540  -0.519032   0.684255
     2  C   -0.460182  10.631910  -0.359153  -4.079001   0.351541  -0.236049
     3  C   -0.217915  -0.359153   8.517616  -0.359150  -0.217915  -0.363180
     4  C    0.351540  -4.079001  -0.359150  10.631916  -0.460188  -0.236049
     5  C   -0.519032   0.351541  -0.217915  -0.460188   6.251807   0.684256
     6  C    0.684255  -0.236049  -0.363180  -0.236049   0.684256   5.348812
     7  H    0.306824  -0.023162  -0.005484  -0.006324   0.008863   0.017216
     8  H   -0.041850   0.263865   0.013314   0.040200  -0.008937   0.006794
     9  H   -0.008937   0.040200   0.013314   0.263865  -0.041851   0.006794
    10  H    0.008863  -0.006324  -0.005484  -0.023162   0.306824   0.017216
    11  H   -0.007878   0.009266   0.000324   0.009266  -0.007878   0.287642
    12  C   -0.310402   0.229602  -1.428918   0.229604  -0.310405  -0.005736
    13  C    0.064520  -0.186834   0.478676  -0.186838   0.064521  -0.029923
               7          8          9         10         11         12
     1  C    0.306824  -0.041850  -0.008937   0.008863  -0.007878  -0.310402
     2  C   -0.023162   0.263865   0.040200  -0.006324   0.009266   0.229602
     3  C   -0.005484   0.013314   0.013314  -0.005484   0.000324  -1.428918
     4  C   -0.006324   0.040200   0.263865  -0.023162   0.009266   0.229604
     5  C    0.008863  -0.008937  -0.041851   0.306824  -0.007878  -0.310405
     6  C    0.017216   0.006794   0.006794   0.017216   0.287642  -0.005736
     7  H    0.529810  -0.004924   0.000016  -0.000171  -0.004991  -0.003277
     8  H   -0.004924   0.522954  -0.000152   0.000016  -0.000153   0.015326
     9  H    0.000016  -0.000152   0.522954  -0.004924  -0.000153   0.015326
    10  H   -0.000171   0.000016  -0.004924   0.529810  -0.004991  -0.003277
    11  H   -0.004991  -0.000153  -0.000153  -0.004991   0.535262   0.002117
    12  C   -0.003277   0.015326   0.015326  -0.003277   0.002117   7.917796
    13  C   -0.000143  -0.001929  -0.001929  -0.000143  -0.000232  -0.123333
              13
     1  C    0.064520
     2  C   -0.186834
     3  C    0.478676
     4  C   -0.186838
     5  C    0.064521
     6  C   -0.029923
     7  H   -0.000143
     8  H   -0.001929
     9  H   -0.001929
    10  H   -0.000143
    11  H   -0.000232
    12  C   -0.123333
    13  C    5.841347
          Atomic-Atomic Spin Densities.
               1          2          3          4          5          6
     1  C   -0.076445   0.000863   0.107288   0.015365   0.092473  -0.064340
     2  C    0.000863   0.085244  -0.154336  -0.121494   0.015366   0.070359
     3  C    0.107288  -0.154336   0.741420  -0.154339   0.107288  -0.004486
     4  C    0.015365  -0.121494  -0.154339   0.085244   0.000863   0.070360
     5  C    0.092473   0.015366   0.107288   0.000863  -0.076446  -0.064341
     6  C   -0.064340   0.070359  -0.004486   0.070360  -0.064341  -0.069666
     7  H   -0.002243   0.003553   0.000443  -0.000615  -0.000425  -0.001488
     8  H    0.002749  -0.003112  -0.000367  -0.000159   0.000062   0.000004
     9  H    0.000062  -0.000159  -0.000367  -0.003112   0.002749   0.000004
    10  H   -0.000425  -0.000615   0.000443   0.003553  -0.002244  -0.001488
    11  H    0.000289   0.000267  -0.000210   0.000267   0.000289  -0.000603
    12  C   -0.084803   0.123198  -0.861956   0.123203  -0.084803   0.057577
    13  C    0.031531  -0.043727   0.333482  -0.043729   0.031531  -0.013424
               7          8          9         10         11         12
     1  C   -0.002243   0.002749   0.000062  -0.000425   0.000289  -0.084803
     2  C    0.003553  -0.003112  -0.000159  -0.000615   0.000267   0.123198
     3  C    0.000443  -0.000367  -0.000367   0.000443  -0.000210  -0.861956
     4  C   -0.000615  -0.000159  -0.003112   0.003553   0.000267   0.123203
     5  C   -0.000425   0.000062   0.002749  -0.002244   0.000289  -0.084803
     6  C   -0.001488   0.000004   0.000004  -0.001488  -0.000603   0.057577
     7  H   -0.000342   0.000012   0.000000   0.000001  -0.000019   0.001004
     8  H    0.000012   0.001154   0.000000   0.000000   0.000000   0.001069
     9  H    0.000000   0.000000   0.001154   0.000012   0.000000   0.001069
    10  H    0.000001   0.000000   0.000012  -0.000342  -0.000019   0.001004
    11  H   -0.000019   0.000000   0.000000  -0.000019   0.001000  -0.000292
    12  C    0.001004   0.001069   0.001069   0.001004  -0.000292   0.925976
    13  C   -0.000171  -0.000276  -0.000276  -0.000171   0.000040  -0.570802
              13
     1  C    0.031531
     2  C   -0.043727
     3  C    0.333482
     4  C   -0.043729
     5  C    0.031531
     6  C   -0.013424
     7  H   -0.000171
     8  H   -0.000276
     9  H   -0.000276
    10  H   -0.000171
    11  H    0.000040
    12  C   -0.570802
    13  C    1.553535
 Mulliken charges and spin densities:
               1          2
     1  C   -0.101606   0.022364
     2  C   -0.175678  -0.024594
     3  C   -0.066044   0.114304
     4  C   -0.175678  -0.024594
     5  C   -0.101606   0.022364
     6  C   -0.182048  -0.021533
     7  H    0.185748  -0.000289
     8  H    0.195475   0.001134
     9  H    0.195475   0.001134
    10  H    0.185748  -0.000289
    11  H    0.182396   0.001010
    12  C   -0.224421  -0.368555
    13  C    0.082240   1.277544
 Sum of Mulliken charges =   0.00000   1.00000
 Mulliken charges and spin densities with hydrogens summed into heavy atoms:
               1          2
     1  C    0.084142   0.022075
     2  C    0.019797  -0.023460
     3  C   -0.066044   0.114304
     4  C    0.019797  -0.023460
     5  C    0.084142   0.022075
     6  C    0.000348  -0.020524
    12  C   -0.224421  -0.368555
    13  C    0.082240   1.277544
 Electronic spatial extent (au):  <R**2>=            908.4067
 Charge=              0.0000 electrons
 Dipole moment (field-independent basis, Debye):
    X=             -1.8418    Y=              0.0000    Z=              0.0000  Tot=              1.8418
 Quadrupole moment (field-independent basis, Debye-Ang):
   XX=            -44.4923   YY=            -41.6068   ZZ=            -50.7902
   XY=              0.0000   XZ=              0.0000   YZ=              0.0000
 Traceless Quadrupole moment (field-independent basis, Debye-Ang):
   XX=              1.1375   YY=              4.0230   ZZ=             -5.1605
   XY=              0.0000   XZ=              0.0000   YZ=              0.0000
 Octapole moment (field-independent basis, Debye-Ang**2):
  XXX=            -20.6463  YYY=              0.0000  ZZZ=              0.0000  XYY=             -8.6219
  XXY=              0.0000  XXZ=              0.0000  XZZ=             -2.0125  YZZ=              0.0000
  YYZ=              0.0000  XYZ=              0.0000
 Hexadecapole moment (field-independent basis, Debye-Ang**3):
 XXXX=           -896.5495 YYYY=           -283.7103 ZZZZ=            -64.3899 XXXY=             -0.0001
 XXXZ=             -0.0003 YYYX=              0.0000 YYYZ=              0.0000 ZZZX=             -0.0001
 ZZZY=              0.0000 XXYY=           -209.3395 XXZZ=           -189.1553 YYZZ=            -69.4562
 XXYZ=              0.0000 YYXZ=             -0.0001 ZZXY=              0.0000
 N-N= 2.872221221894D+02 E-N=-1.285983445127D+03  KE= 3.045942444028D+02
                          Isotropic Fermi Contact Couplings
        Atom                 a.u.       MegaHertz       Gauss      10(-4) cm-1
     1  C(13)              0.00170       1.90822       0.68090       0.63651
     2  C(13)             -0.00540      -6.07484      -2.16765      -2.02635
     3  C(13)              0.01652      18.56633       6.62493       6.19306
     4  C(13)             -0.00540      -6.07481      -2.16764      -2.02634
     5  C(13)              0.00170       1.90823       0.68090       0.63652
     6  C(13)             -0.00200      -2.24785      -0.80209      -0.74980
     7  H(1)              -0.00003      -0.12581      -0.04489      -0.04197
     8  H(1)               0.00044       1.94571       0.69428       0.64902
     9  H(1)               0.00044       1.94571       0.69428       0.64902
    10  H(1)              -0.00003      -0.12580      -0.04489      -0.04196
    11  H(1)               0.00032       1.42522       0.50855       0.47540
    12  C(13)              0.17267     194.11949      69.26666      64.75129
    13  C(13)              0.84985     955.39193     340.90759     318.68444
 --------------------------------------------------------
       Center         ----  Spin Dipole Couplings  ----
                      3XX-RR        3YY-RR        3ZZ-RR
 --------------------------------------------------------
     1   Atom       -0.001498     -0.005510      0.007008
     2   Atom        0.012822      0.008420     -0.021241
     3   Atom        0.032230     -0.030486     -0.001744
     4   Atom        0.012822      0.008420     -0.021241
     5   Atom       -0.001498     -0.005510      0.007008
     6   Atom        0.009963      0.008525     -0.018488
     7   Atom        0.000626     -0.000151     -0.000475
     8   Atom        0.003040     -0.001081     -0.001959
     9   Atom        0.003040     -0.001081     -0.001959
    10   Atom        0.000626     -0.000151     -0.000475
    11   Atom       -0.000376      0.000794     -0.000419
    12   Atom        0.329657     -0.168532     -0.161125
    13   Atom        0.664047     -0.339873     -0.324174
 --------------------------------------------------------
                        XY            XZ            YZ
 --------------------------------------------------------
     1   Atom       -0.000988      0.000000      0.000000
     2   Atom       -0.002325      0.000000      0.000000
     3   Atom        0.000000      0.000000      0.000000
     4   Atom        0.002325      0.000000      0.000000
     5   Atom        0.000988      0.000000      0.000000
     6   Atom        0.000000      0.000000      0.000000
     7   Atom       -0.001009      0.000000      0.000000
     8   Atom       -0.003670      0.000000      0.000000
     9   Atom        0.003670      0.000000      0.000000
    10   Atom        0.001009      0.000000      0.000000
    11   Atom        0.000000      0.000000      0.000000
    12   Atom        0.000001      0.000002      0.000000
    13   Atom       -0.000001     -0.000002      0.000000
 --------------------------------------------------------


 ---------------------------------------------------------------------------------
              Anisotropic Spin Dipole Couplings in Principal Axis System
 ---------------------------------------------------------------------------------

       Atom             a.u.   MegaHertz   Gauss  10(-4) cm-1        Axes

              Baa    -0.0057    -0.770    -0.275    -0.257  0.2269  0.9739  0.0000
     1 C(13)  Bbb    -0.0013    -0.170    -0.061    -0.057  0.9739 -0.2269  0.0000
              Bcc     0.0070     0.940     0.336     0.314  0.0000  0.0000  1.0000
 
              Baa    -0.0212    -2.850    -1.017    -0.951  0.0000  0.0000  1.0000
     2 C(13)  Bbb     0.0074     0.996     0.355     0.332  0.3953  0.9185  0.0000
              Bcc     0.0138     1.855     0.662     0.619  0.9185 -0.3953  0.0000
 
              Baa    -0.0305    -4.091    -1.460    -1.365  0.0000  1.0000  0.0000
     3 C(13)  Bbb    -0.0017    -0.234    -0.084    -0.078  0.0000  0.0000  1.0000
              Bcc     0.0322     4.325     1.543     1.443  1.0000  0.0000  0.0000
 
              Baa    -0.0212    -2.850    -1.017    -0.951  0.0000  0.0000  1.0000
     4 C(13)  Bbb     0.0074     0.996     0.355     0.332 -0.3953  0.9185  0.0000
              Bcc     0.0138     1.855     0.662     0.619  0.9185  0.3953  0.0000
 
              Baa    -0.0057    -0.770    -0.275    -0.257 -0.2269  0.9739  0.0000
     5 C(13)  Bbb    -0.0013    -0.170    -0.061    -0.057  0.9739  0.2269  0.0000
              Bcc     0.0070     0.940     0.336     0.314  0.0000  0.0000  1.0000
 
              Baa    -0.0185    -2.481    -0.885    -0.828  0.0000  0.0000  1.0000
     6 C(13)  Bbb     0.0085     1.144     0.408     0.382  0.0000  1.0000  0.0000
              Bcc     0.0100     1.337     0.477     0.446  1.0000  0.0000  0.0000
 
              Baa    -0.0008    -0.450    -0.161    -0.150  0.5660  0.8244  0.0000
     7 H(1)   Bbb    -0.0005    -0.253    -0.090    -0.085  0.0000  0.0000  1.0000
              Bcc     0.0013     0.704     0.251     0.235  0.8244 -0.5660  0.0000
 
              Baa    -0.0032    -1.723    -0.615    -0.575  0.5052  0.8630  0.0000
     8 H(1)   Bbb    -0.0020    -1.045    -0.373    -0.349  0.0000  0.0000  1.0000
              Bcc     0.0052     2.768     0.988     0.923  0.8630 -0.5052  0.0000
 
              Baa    -0.0032    -1.723    -0.615    -0.575 -0.5052  0.8630  0.0000
     9 H(1)   Bbb    -0.0020    -1.045    -0.373    -0.349  0.0000  0.0000  1.0000
              Bcc     0.0052     2.768     0.988     0.923  0.8630  0.5052  0.0000
 
              Baa    -0.0008    -0.450    -0.161    -0.150 -0.5660  0.8244  0.0000
    10 H(1)   Bbb    -0.0005    -0.253    -0.090    -0.085  0.0000  0.0000  1.0000
              Bcc     0.0013     0.704     0.251     0.235  0.8244  0.5660  0.0000
 
              Baa    -0.0004    -0.223    -0.080    -0.075  0.0000  0.0000  1.0000
    11 H(1)   Bbb    -0.0004    -0.201    -0.072    -0.067  1.0000  0.0000  0.0000
              Bcc     0.0008     0.424     0.151     0.141  0.0000  1.0000  0.0000
 
              Baa    -0.1685   -22.615    -8.070    -7.544  0.0000  1.0000  0.0000
    12 C(13)  Bbb    -0.1611   -21.621    -7.715    -7.212  0.0000  0.0000  1.0000
              Bcc     0.3297    44.237    15.785    14.756  1.0000  0.0000  0.0000
 
              Baa    -0.3399   -45.608   -16.274   -15.213  0.0000  1.0000  0.0000
    13 C(13)  Bbb    -0.3242   -43.501   -15.522   -14.510  0.0000  0.0000  1.0000
              Bcc     0.6640    89.109    31.796    29.723  1.0000  0.0000  0.0000
 

 ---------------------------------------------------------------------------------

 Calling FoFJK, ICntrl=      2127 FMM=F ISym2X=0 I1Cent= 0 IOpClX= 1 NMat=1 NMatS=1 NMatT=0.
 ***** Axes restored to original set *****
 -------------------------------------------------------------------
 Center     Atomic                   Forces (Hartrees/Bohr)
 Number     Number              X              Y              Z
 -------------------------------------------------------------------
      1        6           0.008849378    0.014756018   -0.000323857
      2        6          -0.007974320    0.005901523    0.002613734
      3        6           0.048076296    0.000846272   -0.011353139
      4        6          -0.008099748   -0.006184429    0.001181681
      5        6           0.008546398   -0.014449832   -0.003783889
      6        6           0.013390223    0.000235723   -0.003162200
      7        1          -0.005193982   -0.010652835   -0.000050811
      8        1           0.006086298   -0.009229234   -0.002566476
      9        1           0.006280082    0.009446912   -0.000353747
     10        1          -0.004974770    0.010473820    0.002452263
     11        1          -0.011799523   -0.000207701    0.002786419
     12        6          -0.080499388   -0.001417012    0.019010036
     13        6           0.027313057    0.000480775   -0.006450015
 -------------------------------------------------------------------
 Cartesian Forces:  Max     0.080499388 RMS     0.017357524

 GradGradGradGradGradGradGradGradGradGradGradGradGradGradGradGradGradGrad
 Berny optimization.
 FormGI is forming the generalized inverse of G from B-inverse, IUseBI=4.
 Internal  Forces:  Max     0.054657264 RMS     0.008928518
 Search for a local minimum.
 Step number   1 out of a maximum of   67
 All quantities printed in internal units (Hartrees-Bohrs-Radians)
 Mixed Optimization -- RFO/linear search
 Second derivative matrix not updated -- first step.
 ITU=  0
     Eigenvalues ---    0.02070   0.02070   0.02070   0.02070   0.02070
     Eigenvalues ---    0.02070   0.02070   0.02070   0.02070   0.04718
     Eigenvalues ---    0.04718   0.16000   0.16000   0.16000   0.16000
     Eigenvalues ---    0.16000   0.22000   0.22000   0.23485   0.25000
     Eigenvalues ---    0.28519   0.37230   0.37230   0.37230   0.37230
     Eigenvalues ---    0.37230   0.41268   0.41459   0.45389   0.45389
     Eigenvalues ---    0.45389   0.45389   1.04222
 RFO step:  Lambda=-1.28105714D-02 EMin= 2.07023634D-02
 Linear search not attempted -- first point.
 Iteration  1 RMS(Cart)=  0.03382645 RMS(Int)=  0.00002518
 Iteration  2 RMS(Cart)=  0.00004034 RMS(Int)=  0.00000037
 Iteration  3 RMS(Cart)=  0.00000000 RMS(Int)=  0.00000037
 Variable       Old X    -DE/DX   Delta X   Delta X   Delta X     New X
                                 (Linear)    (Quad)   (Total)
    R1        2.64826  -0.00453   0.00000  -0.00971  -0.00971   2.63855
    R2        2.64826  -0.00176   0.00000  -0.00401  -0.00401   2.64425
    R3        2.02201   0.01183   0.00000   0.03071   0.03071   2.05271
    R4        2.64826  -0.00061   0.00000  -0.00107  -0.00107   2.64719
    R5        2.02201   0.01132   0.00000   0.02940   0.02940   2.05140
    R6        2.64826  -0.00061   0.00000  -0.00107  -0.00107   2.64719
    R7        2.91018  -0.05466   0.00000  -0.18341  -0.18341   2.72676
    R8        2.64826  -0.00453   0.00000  -0.00971  -0.00971   2.63855
    R9        2.02201   0.01132   0.00000   0.02940   0.02940   2.05140
   R10        2.64826  -0.00176   0.00000  -0.00401  -0.00401   2.64425
   R11        2.02201   0.01183   0.00000   0.03071   0.03071   2.05271
   R12        2.02201   0.01213   0.00000   0.03149   0.03149   2.05349
   R13        2.26994   0.02807   0.00000   0.02660   0.02660   2.29654
    A1        2.09440   0.00091   0.00000   0.00367   0.00367   2.09806
    A2        2.09440  -0.00126   0.00000  -0.00648  -0.00648   2.08792
    A3        2.09440   0.00035   0.00000   0.00281   0.00281   2.09721
    A4        2.09440  -0.00244   0.00000  -0.00976  -0.00976   2.08464
    A5        2.09440   0.00203   0.00000   0.00956   0.00956   2.10396
    A6        2.09440   0.00041   0.00000   0.00019   0.00019   2.09459
    A7        2.09440   0.00283   0.00000   0.01184   0.01184   2.10624
    A8        2.09440  -0.00142   0.00000  -0.00592  -0.00592   2.08847
    A9        2.09440  -0.00142   0.00000  -0.00592  -0.00592   2.08847
   A10        2.09440  -0.00244   0.00000  -0.00976  -0.00976   2.08464
   A11        2.09440   0.00041   0.00000   0.00019   0.00019   2.09459
   A12        2.09440   0.00203   0.00000   0.00956   0.00956   2.10396
   A13        2.09440   0.00091   0.00000   0.00367   0.00367   2.09806
   A14        2.09440  -0.00126   0.00000  -0.00648  -0.00648   2.08792
   A15        2.09440   0.00035   0.00000   0.00281   0.00281   2.09721
   A16        2.09440   0.00024   0.00000   0.00034   0.00033   2.09473
   A17        2.09440  -0.00012   0.00000  -0.00017  -0.00017   2.09423
   A18        2.09440  -0.00012   0.00000  -0.00017  -0.00017   2.09423
   A19        3.14159   0.00000   0.00000   0.00000   0.00000   3.14159
   A20        3.14159   0.00000   0.00000   0.00000   0.00000   3.14159
    D1        0.00000   0.00000   0.00000   0.00000   0.00000   0.00000
    D2       -3.14159   0.00000   0.00000   0.00000   0.00000  -3.14159
    D3        3.14159   0.00000   0.00000   0.00000   0.00000   3.14159
    D4        0.00000   0.00000   0.00000   0.00000   0.00000   0.00000
    D5        0.00000   0.00000   0.00000   0.00000   0.00000   0.00000
    D6        3.14159   0.00000   0.00000   0.00000   0.00000   3.14159
    D7       -3.14159   0.00000   0.00000   0.00000   0.00000  -3.14159
    D8        0.00000   0.00000   0.00000   0.00000   0.00000   0.00000
    D9        0.00000   0.00000   0.00000   0.00000   0.00000   0.00000
   D10       -3.14159   0.00000   0.00000   0.00000   0.00000  -3.14159
   D11        3.14159   0.00000   0.00000   0.00000   0.00000   3.14159
   D12        0.00000   0.00000   0.00000   0.00000   0.00000   0.00000
   D13        0.00000   0.00000   0.00000   0.00000   0.00000   0.00000
   D14       -3.14159   0.00000   0.00000   0.00000   0.00000   3.14159
   D15        3.14159   0.00000   0.00000   0.00000   0.00000   3.14159
   D16        0.00000   0.00000   0.00000   0.00000   0.00000   0.00000
   D17        0.00000   0.00000   0.00000   0.00000   0.00000   0.00000
   D18       -3.14159   0.00000   0.00000   0.00000   0.00000  -3.14159
   D19       -3.14159   0.00000   0.00000   0.00000   0.00000  -3.14159
   D20        0.00000   0.00000   0.00000   0.00000   0.00000   0.00000
   D21        0.00000   0.00000   0.00000   0.00000   0.00000   0.00000
   D22        3.14159   0.00000   0.00000   0.00000   0.00000   3.14159
   D23        3.14159   0.00000   0.00000   0.00000   0.00000   3.14159
   D24        0.00000   0.00000   0.00000   0.00000   0.00000   0.00000
         Item               Value     Threshold  Converged?
 Maximum Force            0.054657     0.000450     NO 
 RMS     Force            0.008929     0.000300     NO 
 Maximum Displacement     0.168085     0.001800     NO 
 RMS     Displacement     0.033836     0.001200     NO 
 Predicted change in Energy=-6.660773D-03
 GradGradGradGradGradGradGradGradGradGradGradGradGradGradGradGradGradGrad

                          Input orientation:                          
 ---------------------------------------------------------------------
 Center     Atomic      Atomic             Coordinates (Angstroms)
 Number     Number       Type             X           Y           Z
 ---------------------------------------------------------------------
      1          6           0        0.249314   -0.498115   -0.016260
      2          6           0        1.607937   -0.479517   -0.337738
      3          6           0        2.295047    0.741121   -0.353817
      4          6           0        1.633023    1.938011   -0.051303
      5          6           0        0.274290    1.908776    0.268914
      6          6           0       -0.418812    0.693350    0.287052
      7          1           0       -0.286481   -1.442933   -0.002875
      8          1           0        2.131685   -1.400565   -0.573941
      9          1           0        2.176081    2.877837   -0.067023
     10          1           0       -0.242089    2.835073    0.503995
     11          1           0       -1.476231    0.674737    0.536758
     12          6           0        3.699157    0.765837   -0.685394
     13          6           0        4.881731    0.786653   -0.964657
 ---------------------------------------------------------------------
                    Distance matrix (angstroms):
                    1          2          3          4          5
     1  C    0.000000
     2  C    1.396263   0.000000
     3  C    2.415506   1.400834   0.000000
     4  C    2.801890   2.434567   1.400834   0.000000
     5  C    2.423855   2.801890   2.415506   1.396263   0.000000
     6  C    1.399278   2.423570   2.788911   2.423570   1.399278
     7  H    1.086249   2.151540   3.399638   3.888138   3.409147
     8  H    2.160727   1.085556   2.159157   3.415831   3.887423
     9  H    3.887423   3.415831   2.159157   1.085556   2.160727
    10  H    3.409147   3.888138   3.399638   2.151540   1.086249
    11  H    2.158452   3.407218   3.875573   3.407218   2.158452
    12  C    3.734532   2.458653   1.442942   2.458653   3.734532
    13  C    4.899935   3.565661   2.658220   3.565662   4.899936
                    6          7          8          9         10
     6  C    0.000000
     7  H    2.159924   0.000000
     8  H    3.410399   2.485043   0.000000
     9  H    3.410399   4.973668   4.308556   0.000000
    10  H    2.159924   4.308157   4.973668   2.485043   0.000000
    11  H    1.086662   2.488218   4.307851   4.307851   2.488218
    12  C    4.231852   4.607582   2.676320   2.676320   4.607582
    13  C    5.447131   5.710209   3.535439   3.535440   5.710210
                   11         12         13
    11  H    0.000000
    12  C    5.318514   0.000000
    13  C    6.533793   1.215278   0.000000
 Stoichiometry    C8H5(2)
 Framework group  C1[X(C8H5)]
 Deg. of freedom    33
 Full point group                 C1      NOp   1
 Largest Abelian subgroup         C1      NOp   1
 Largest concise Abelian subgroup C1      NOp   1
                         Standard orientation:                         
 ---------------------------------------------------------------------
 Center     Atomic      Atomic             Coordinates (Angstroms)
 Number     Number       Type             X           Y           Z
 ---------------------------------------------------------------------
      1          6           0       -1.430139    1.211927    0.000000
      2          6           0       -0.033886    1.217283    0.000000
      3          6           0        0.659335    0.000000   -0.000001
      4          6           0       -0.033887   -1.217283    0.000000
      5          6           0       -1.430139   -1.211927    0.000000
      6          6           0       -2.129575    0.000000    0.000000
      7          1           0       -1.970775    2.154079    0.000001
      8          1           0        0.514268    2.154278    0.000000
      9          1           0        0.514268   -2.154278   -0.000001
     10          1           0       -1.970775   -2.154078    0.000001
     11          1           0       -3.216237    0.000000    0.000001
     12          6           0        2.102277    0.000000   -0.000001
     13          6           0        3.317555    0.000000    0.000001
 ---------------------------------------------------------------------
 Rotational constants (GHZ):      5.6454122      1.6183404      1.2577795
 Standard basis: 6-31+G(d) (6D, 7F)
 There are   162 symmetry adapted cartesian basis functions of A   symmetry.
 There are   162 symmetry adapted basis functions of A   symmetry.
   162 basis functions,   276 primitive gaussians,   162 cartesian basis functions
    27 alpha electrons       26 beta electrons
       nuclear repulsion energy       289.5562597944 Hartrees.
 NAtoms=   13 NActive=   13 NUniq=   13 SFac= 1.00D+00 NAtFMM=   60 NAOKFM=F Big=F
 Integral buffers will be    131072 words long.
 Raffenetti 2 integral format.
 Two-electron integral symmetry is turned on.
 Nuclear repulsion after empirical dispersion term =      289.5492561879 Hartrees.
 One-electron integrals computed using PRISM.
 NBasis=   162 RedAO= T EigKep=  4.96D-06  NBF=   162
 NBsUse=   161 1.00D-06 EigRej=  3.80D-07 NBFU=   161
 Initial guess from the checkpoint file:  "C:\Users\USER\Desktop\ML_substrate\molecule_22.chk"
 B after Tr=     0.000000    0.000000    0.000000
         Rot=    1.000000    0.000000    0.000000    0.000000 Ang=   0.00 deg.
 Initial guess <Sx>= 0.0000 <Sy>= 0.0000 <Sz>= 0.5000 <S**2>= 0.7739 S= 0.5119
 ExpMin= 4.38D-02 ExpMax= 3.05D+03 ExpMxC= 4.57D+02 IAcc=2 IRadAn=         4 AccDes= 0.00D+00
 Harris functional with IExCor=  402 and IRadAn=       4 diagonalized for initial guess.
 HarFok:  IExCor=  402 AccDes= 0.00D+00 IRadAn=         4 IDoV= 1 UseB2=F ITyADJ=14
 ICtDFT=  3500011 ScaDFX=  1.000000  1.000000  1.000000  1.000000
 FoFCou: FMM=F IPFlag=           0 FMFlag=      100000 FMFlg1=           0
         NFxFlg=           0 DoJE=T BraDBF=F KetDBF=T FulRan=T
         wScrn=  0.000000 ICntrl=     500 IOpCl=  0 I1Cent=   200000004 NGrid=           0
         NMat0=    1 NMatS0=      1 NMatT0=    0 NMatD0=    1 NMtDS0=    0 NMtDT0=    0
 Petite list used in FoFCou.
 Keep R1 and R2 ints in memory in canonical form, NReq=176597168.
 Requested convergence on RMS density matrix=1.00D-08 within 128 cycles.
 Requested convergence on MAX density matrix=1.00D-06.
 Requested convergence on             energy=1.00D-06.
 No special actions if energy rises.
 SCF Done:  E(UB3LYP) =  -307.692512391     A.U. after   20 cycles
            NFock= 20  Conv=0.43D-08     -V/T= 2.0100
 <Sx>= 0.0000 <Sy>= 0.0000 <Sz>= 0.5000 <S**2>= 0.7768 S= 0.5133
 <L.S>= 0.000000000000E+00
 Annihilation of the first spin contaminant:
 S**2 before annihilation     0.7768,   after     0.7504
 Calling FoFJK, ICntrl=      2127 FMM=F ISym2X=0 I1Cent= 0 IOpClX= 1 NMat=1 NMatS=1 NMatT=0.
 ***** Axes restored to original set *****
 -------------------------------------------------------------------
 Center     Atomic                   Forces (Hartrees/Bohr)
 Number     Number              X              Y              Z
 -------------------------------------------------------------------
      1        6           0.000721625    0.000206009   -0.000147080
      2        6          -0.006428004   -0.002366787    0.001245327
      3        6           0.015292219    0.000269162   -0.003611092
      4        6          -0.006381210    0.002141317    0.001779493
      5        6           0.000717629   -0.000180668   -0.000192834
      6        6          -0.000072322   -0.000001275    0.000017067
      7        1          -0.000364218   -0.000254476    0.000056030
      8        1           0.000533217    0.000367135   -0.000082608
      9        1           0.000525779   -0.000348497   -0.000167441
     10        1          -0.000359073    0.000241741    0.000114813
     11        1          -0.000129679   -0.000002283    0.000030627
     12        6          -0.005312616   -0.000093477    0.001254341
     13        6           0.001256652    0.000022101   -0.000296643
 -------------------------------------------------------------------
 Cartesian Forces:  Max     0.015292219 RMS     0.003112536

 GradGradGradGradGradGradGradGradGradGradGradGradGradGradGradGradGradGrad
 Berny optimization.
 Using GEDIIS/GDIIS optimizer.
 FormGI is forming the generalized inverse of G from B-inverse, IUseBI=4.
 Internal  Forces:  Max     0.004953218 RMS     0.001401681
 Search for a local minimum.
 Step number   2 out of a maximum of   67
 All quantities printed in internal units (Hartrees-Bohrs-Radians)
 Mixed Optimization -- RFO/linear search
 Update second derivatives using D2CorX and points    1    2
 DE= -7.16D-03 DEPred=-6.66D-03 R= 1.07D+00
 TightC=F SS=  1.41D+00  RLast= 2.00D-01 DXNew= 5.0454D-01 5.9915D-01
 Trust test= 1.07D+00 RLast= 2.00D-01 DXMaxT set to 5.05D-01
 ITU=  1  0
 Use linear search instead of GDIIS.
     Eigenvalues ---    0.02070   0.02070   0.02070   0.02070   0.02070
     Eigenvalues ---    0.02070   0.02070   0.02070   0.02070   0.04718
     Eigenvalues ---    0.04718   0.15952   0.16000   0.16000   0.16000
     Eigenvalues ---    0.16010   0.22000   0.22002   0.22747   0.25000
     Eigenvalues ---    0.28093   0.37139   0.37230   0.37230   0.37230
     Eigenvalues ---    0.37292   0.41286   0.42189   0.45314   0.45389
     Eigenvalues ---    0.45389   0.46303   1.03968
 RFO step:  Lambda=-3.40684038D-04 EMin= 2.07023634D-02
 Quartic linear search produced a step of  0.04799.
 Iteration  1 RMS(Cart)=  0.00370315 RMS(Int)=  0.00002575
 Iteration  2 RMS(Cart)=  0.00003490 RMS(Int)=  0.00000922
 Iteration  3 RMS(Cart)=  0.00000000 RMS(Int)=  0.00000922
 Variable       Old X    -DE/DX   Delta X   Delta X   Delta X     New X
                                 (Linear)    (Quad)   (Total)
    R1        2.63855  -0.00027  -0.00047  -0.00033  -0.00080   2.63776
    R2        2.64425  -0.00034  -0.00019  -0.00109  -0.00130   2.64295
    R3        2.05271   0.00040   0.00147   0.00017   0.00165   2.05436
    R4        2.64719   0.00495  -0.00005   0.01190   0.01186   2.65905
    R5        2.05140  -0.00004   0.00141  -0.00102   0.00039   2.05180
    R6        2.64719   0.00495  -0.00005   0.01190   0.01186   2.65905
    R7        2.72676  -0.00417  -0.00880  -0.00902  -0.01782   2.70894
    R8        2.63855  -0.00027  -0.00047  -0.00033  -0.00080   2.63776
    R9        2.05140  -0.00004   0.00141  -0.00102   0.00039   2.05180
   R10        2.64425  -0.00034  -0.00019  -0.00109  -0.00130   2.64295
   R11        2.05271   0.00040   0.00147   0.00017   0.00165   2.05436
   R12        2.05349   0.00013   0.00151  -0.00061   0.00090   2.05440
   R13        2.29654   0.00129   0.00128   0.00064   0.00192   2.29846
    A1        2.09806   0.00052   0.00018   0.00103   0.00119   2.09925
    A2        2.08792  -0.00006  -0.00031   0.00102   0.00072   2.08863
    A3        2.09721  -0.00047   0.00013  -0.00205  -0.00191   2.09530
    A4        2.08464   0.00172  -0.00047   0.00904   0.00858   2.09322
    A5        2.10396  -0.00019   0.00046  -0.00036   0.00009   2.10405
    A6        2.09459  -0.00153   0.00001  -0.00868  -0.00868   2.08591
    A7        2.10624  -0.00459   0.00057  -0.01838  -0.01778   2.08845
    A8        2.08847   0.00229  -0.00028   0.00919   0.00889   2.09737
    A9        2.08847   0.00229  -0.00028   0.00919   0.00889   2.09737
   A10        2.08464   0.00172  -0.00047   0.00904   0.00858   2.09322
   A11        2.09459  -0.00153   0.00001  -0.00868  -0.00868   2.08591
   A12        2.10396  -0.00019   0.00046  -0.00036   0.00009   2.10405
   A13        2.09806   0.00052   0.00018   0.00103   0.00119   2.09925
   A14        2.08792  -0.00006  -0.00031   0.00102   0.00072   2.08863
   A15        2.09721  -0.00047   0.00013  -0.00205  -0.00191   2.09530
   A16        2.09473   0.00011   0.00002  -0.00175  -0.00176   2.09297
   A17        2.09423  -0.00005  -0.00001   0.00087   0.00088   2.09511
   A18        2.09423  -0.00005  -0.00001   0.00087   0.00088   2.09511
   A19        3.14159   0.00000   0.00000   0.00000   0.00000   3.14159
   A20        3.14159   0.00000   0.00000   0.00000   0.00000   3.14160
    D1        0.00000   0.00000   0.00000   0.00000   0.00000   0.00000
    D2       -3.14159   0.00000   0.00000   0.00000   0.00000  -3.14159
    D3        3.14159   0.00000   0.00000   0.00000   0.00000   3.14159
    D4        0.00000   0.00000   0.00000   0.00000   0.00000   0.00000
    D5        0.00000   0.00000   0.00000   0.00000   0.00000   0.00000
    D6        3.14159   0.00000   0.00000   0.00000   0.00000   3.14159
    D7       -3.14159   0.00000   0.00000   0.00000   0.00000  -3.14159
    D8        0.00000   0.00000   0.00000   0.00000   0.00000   0.00000
    D9        0.00000   0.00000   0.00000   0.00000   0.00000   0.00000
   D10       -3.14159   0.00000   0.00000   0.00000   0.00000  -3.14159
   D11        3.14159   0.00000   0.00000   0.00000   0.00000   3.14159
   D12        0.00000   0.00000   0.00000   0.00000   0.00000   0.00000
   D13        0.00000   0.00000   0.00000   0.00000   0.00000   0.00000
   D14        3.14159   0.00000   0.00000   0.00000   0.00000   3.14159
   D15        3.14159   0.00000   0.00000   0.00000   0.00000   3.14159
   D16        0.00000   0.00000   0.00000   0.00000   0.00000   0.00000
   D17        0.00000   0.00000   0.00000   0.00000   0.00000   0.00000
   D18       -3.14159   0.00000   0.00000   0.00000   0.00000  -3.14159
   D19       -3.14159   0.00000   0.00000   0.00000   0.00000  -3.14159
   D20        0.00000   0.00000   0.00000   0.00000   0.00000   0.00000
   D21        0.00000   0.00000   0.00000   0.00000   0.00000   0.00000
   D22        3.14159   0.00000   0.00000   0.00000   0.00000   3.14159
   D23        3.14159   0.00000   0.00000   0.00000   0.00000   3.14159
   D24        0.00000   0.00000   0.00000   0.00000   0.00000   0.00000
         Item               Value     Threshold  Converged?
 Maximum Force            0.004953     0.000450     NO 
 RMS     Force            0.001402     0.000300     NO 
 Maximum Displacement     0.022592     0.001800     NO 
 RMS     Displacement     0.003707     0.001200     NO 
 Predicted change in Energy=-1.937355D-04
 GradGradGradGradGradGradGradGradGradGradGradGradGradGradGradGradGradGrad

                          Input orientation:                          
 ---------------------------------------------------------------------
 Center     Atomic      Atomic             Coordinates (Angstroms)
 Number     Number       Type             X           Y           Z
 ---------------------------------------------------------------------
      1          6           0        0.248120   -0.496932   -0.015833
      2          6           0        1.606326   -0.478766   -0.337264
      3          6           0        2.307002    0.741331   -0.356641
      4          6           0        1.631396    1.937202   -0.051013
      5          6           0        0.273071    1.907551    0.269057
      6          6           0       -0.420722    0.693316    0.287503
      7          1           0       -0.289039   -1.441973   -0.002149
      8          1           0        2.129978   -1.400109   -0.573479
      9          1           0        2.174364    2.877321   -0.066677
     10          1           0       -0.244668    2.834023    0.504483
     11          1           0       -1.478606    0.674695    0.537319
     12          6           0        3.701934    0.765886   -0.686051
     13          6           0        4.885496    0.786718   -0.965544
 ---------------------------------------------------------------------
                    Distance matrix (angstroms):
                    1          2          3          4          5
     1  C    0.000000
     2  C    1.395841   0.000000
     3  C    2.426611   1.407110   0.000000
     4  C    2.799947   2.432996   1.407110   0.000000
     5  C    2.421431   2.799947   2.426611   1.395841   0.000000
     6  C    1.398590   2.423434   2.803159   2.423434   1.398590
     7  H    1.087120   2.152320   3.410559   3.887067   3.407174
     8  H    2.160576   1.085764   2.159659   3.414558   3.885691
     9  H    3.885691   3.414558   2.159659   1.085764   2.160576
    10  H    3.407174   3.887067   3.410559   2.152320   1.087120
    11  H    2.158766   3.407664   3.890300   3.407664   2.158766
    12  C    3.738012   2.462190   1.433509   2.462190   3.738012
    13  C    4.904586   3.570594   2.649802   3.570594   4.904587
                    6          7          8          9         10
     6  C    0.000000
     7  H    2.158866   0.000000
     8  H    3.410248   2.485924   0.000000
     9  H    3.410248   4.972809   4.307578   0.000000
    10  H    2.158866   4.306134   4.972809   2.485924   0.000000
    11  H    1.087141   2.487243   4.308198   4.308198   2.487243
    12  C    4.236669   4.611967   2.678666   2.678666   4.611966
    13  C    5.452962   5.715856   3.539606   3.539607   5.715857
                   11         12         13
    11  H    0.000000
    12  C    5.323810   0.000000
    13  C    6.540103   1.216293   0.000000
 Stoichiometry    C8H5(2)
 Framework group  C1[X(C8H5)]
 Deg. of freedom    33
 Full point group                 C1      NOp   1
 Largest Abelian subgroup         C1      NOp   1
 Largest concise Abelian subgroup C1      NOp   1
                         Standard orientation:                         
 ---------------------------------------------------------------------
 Center     Atomic      Atomic             Coordinates (Angstroms)
 Number     Number       Type             X           Y           Z
 ---------------------------------------------------------------------
      1          6           0       -1.432439    1.210715    0.000000
      2          6           0       -0.036610    1.216498    0.000000
      3          6           0        0.670561    0.000000    0.000000
      4          6           0       -0.036610   -1.216498    0.000000
      5          6           0       -1.432440   -1.210715    0.000000
      6          6           0       -2.132598    0.000000    0.000000
      7          1           0       -1.974475    2.153067    0.000000
      8          1           0        0.511449    2.153789    0.000000
      9          1           0        0.511448   -2.153789    0.000000
     10          1           0       -1.974475   -2.153067    0.000000
     11          1           0       -3.219739    0.000000    0.000000
     12          6           0        2.104071   -0.000001    0.000001
     13          6           0        3.320364    0.000000   -0.000001
 ---------------------------------------------------------------------
 Rotational constants (GHZ):      5.6535829      1.6139218      1.2555122
 Standard basis: 6-31+G(d) (6D, 7F)
 There are   162 symmetry adapted cartesian basis functions of A   symmetry.
 There are   162 symmetry adapted basis functions of A   symmetry.
   162 basis functions,   276 primitive gaussians,   162 cartesian basis functions
    27 alpha electrons       26 beta electrons
       nuclear repulsion energy       289.3852456255 Hartrees.
 NAtoms=   13 NActive=   13 NUniq=   13 SFac= 1.00D+00 NAtFMM=   60 NAOKFM=F Big=F
 Integral buffers will be    131072 words long.
 Raffenetti 2 integral format.
 Two-electron integral symmetry is turned on.
 Nuclear repulsion after empirical dispersion term =      289.3782473463 Hartrees.
 One-electron integrals computed using PRISM.
 NBasis=   162 RedAO= T EigKep=  4.97D-06  NBF=   162
 NBsUse=   161 1.00D-06 EigRej=  3.70D-07 NBFU=   161
 Initial guess from the checkpoint file:  "C:\Users\USER\Desktop\ML_substrate\molecule_22.chk"
 B after Tr=     0.000000    0.000000    0.000000
         Rot=    1.000000    0.000000    0.000000    0.000000 Ang=   0.00 deg.
 Initial guess <Sx>= 0.0000 <Sy>= 0.0000 <Sz>= 0.5000 <S**2>= 0.7768 S= 0.5133
 ExpMin= 4.38D-02 ExpMax= 3.05D+03 ExpMxC= 4.57D+02 IAcc=2 IRadAn=         4 AccDes= 0.00D+00
 Harris functional with IExCor=  402 and IRadAn=       4 diagonalized for initial guess.
 HarFok:  IExCor=  402 AccDes= 0.00D+00 IRadAn=         4 IDoV= 1 UseB2=F ITyADJ=14
 ICtDFT=  3500011 ScaDFX=  1.000000  1.000000  1.000000  1.000000
 FoFCou: FMM=F IPFlag=           0 FMFlag=      100000 FMFlg1=           0
         NFxFlg=           0 DoJE=T BraDBF=F KetDBF=T FulRan=T
         wScrn=  0.000000 ICntrl=     500 IOpCl=  0 I1Cent=   200000004 NGrid=           0
         NMat0=    1 NMatS0=      1 NMatT0=    0 NMatD0=    1 NMtDS0=    0 NMtDT0=    0
 Petite list used in FoFCou.
 Keep R1 and R2 ints in memory in canonical form, NReq=176597168.
 Requested convergence on RMS density matrix=1.00D-08 within 128 cycles.
 Requested convergence on MAX density matrix=1.00D-06.
 Requested convergence on             energy=1.00D-06.
 No special actions if energy rises.
 SCF Done:  E(UB3LYP) =  -307.692721452     A.U. after   18 cycles
            NFock= 18  Conv=0.30D-08     -V/T= 2.0101
 <Sx>= 0.0000 <Sy>= 0.0000 <Sz>= 0.5000 <S**2>= 0.7774 S= 0.5136
 <L.S>= 0.000000000000E+00
 Annihilation of the first spin contaminant:
 S**2 before annihilation     0.7774,   after     0.7504
 Calling FoFJK, ICntrl=      2127 FMM=F ISym2X=0 I1Cent= 0 IOpClX= 1 NMat=1 NMatS=1 NMatT=0.
 ***** Axes restored to original set *****
 -------------------------------------------------------------------
 Center     Atomic                   Forces (Hartrees/Bohr)
 Number     Number              X              Y              Z
 -------------------------------------------------------------------
      1        6           0.000724764   -0.000324587   -0.000211922
      2        6          -0.001932352   -0.000115951    0.000446353
      3        6           0.001359862    0.000023946   -0.000321268
      4        6          -0.001930653    0.000047966    0.000465774
      5        6           0.000731774    0.000350213   -0.000131953
      6        6          -0.000424786   -0.000007471    0.000100293
      7        1           0.000207080    0.000111458   -0.000035849
      8        1           0.000146885    0.000052367   -0.000028666
      9        1           0.000145848   -0.000047215   -0.000040474
     10        1           0.000204843   -0.000104212   -0.000061402
     11        1           0.000200067    0.000003523   -0.000047254
     12        6           0.000979342    0.000017213   -0.000230914
     13        6          -0.000412675   -0.000007251    0.000097283
 -------------------------------------------------------------------
 Cartesian Forces:  Max     0.001932352 RMS     0.000572585

 GradGradGradGradGradGradGradGradGradGradGradGradGradGradGradGradGradGrad
 Berny optimization.
 Using GEDIIS/GDIIS optimizer.
 FormGI is forming the generalized inverse of G from B-inverse, IUseBI=4.
 Internal  Forces:  Max     0.000845085 RMS     0.000288327
 Search for a local minimum.
 Step number   3 out of a maximum of   67
 All quantities printed in internal units (Hartrees-Bohrs-Radians)
 Mixed Optimization -- En-DIIS/RFO-DIIS
 Update second derivatives using D2CorX and points    1    2    3
 DE= -2.09D-04 DEPred=-1.94D-04 R= 1.08D+00
 TightC=F SS=  1.41D+00  RLast= 3.74D-02 DXNew= 8.4853D-01 1.1233D-01
 Trust test= 1.08D+00 RLast= 3.74D-02 DXMaxT set to 5.05D-01
 ITU=  1  1  0
 Use linear search instead of GDIIS.
     Eigenvalues ---    0.02070   0.02070   0.02070   0.02070   0.02070
     Eigenvalues ---    0.02070   0.02070   0.02070   0.02070   0.04718
     Eigenvalues ---    0.04718   0.15600   0.16000   0.16000   0.16000
     Eigenvalues ---    0.16084   0.20434   0.22000   0.22004   0.25000
     Eigenvalues ---    0.31191   0.37204   0.37230   0.37230   0.37250
     Eigenvalues ---    0.37718   0.40267   0.41261   0.44519   0.45389
     Eigenvalues ---    0.45389   0.46807   1.04566
 RFO step:  Lambda=-1.17777624D-05 EMin= 2.07023634D-02
 Quartic linear search produced a step of  0.11827.
 Iteration  1 RMS(Cart)=  0.00116576 RMS(Int)=  0.00000190
 Iteration  2 RMS(Cart)=  0.00000172 RMS(Int)=  0.00000153
 Iteration  3 RMS(Cart)=  0.00000000 RMS(Int)=  0.00000153
 Variable       Old X    -DE/DX   Delta X   Delta X   Delta X     New X
                                 (Linear)    (Quad)   (Total)
    R1        2.63776  -0.00085  -0.00009  -0.00202  -0.00211   2.63564
    R2        2.64295   0.00015  -0.00015   0.00046   0.00030   2.64325
    R3        2.05436  -0.00020   0.00019  -0.00061  -0.00041   2.05395
    R4        2.65905   0.00063   0.00140   0.00043   0.00183   2.66089
    R5        2.05180   0.00003   0.00005   0.00019   0.00024   2.05204
    R6        2.65905   0.00063   0.00140   0.00043   0.00183   2.66089
    R7        2.70894   0.00058  -0.00211   0.00312   0.00101   2.70995
    R8        2.63776  -0.00085  -0.00009  -0.00202  -0.00211   2.63564
    R9        2.05180   0.00003   0.00005   0.00019   0.00024   2.05204
   R10        2.64295   0.00015  -0.00015   0.00046   0.00030   2.64325
   R11        2.05436  -0.00020   0.00019  -0.00061  -0.00041   2.05395
   R12        2.05440  -0.00021   0.00011  -0.00055  -0.00044   2.05396
   R13        2.29846  -0.00042   0.00023  -0.00050  -0.00027   2.29819
    A1        2.09925   0.00004   0.00014  -0.00002   0.00012   2.09937
    A2        2.08863  -0.00015   0.00008  -0.00104  -0.00096   2.08768
    A3        2.09530   0.00011  -0.00023   0.00107   0.00084   2.09614
    A4        2.09322   0.00044   0.00102   0.00131   0.00233   2.09555
    A5        2.10405  -0.00006   0.00001   0.00004   0.00005   2.10410
    A6        2.08591  -0.00038  -0.00103  -0.00135  -0.00238   2.08353
    A7        2.08845  -0.00083  -0.00210  -0.00195  -0.00404   2.08441
    A8        2.09737   0.00042   0.00105   0.00097   0.00202   2.09939
    A9        2.09737   0.00042   0.00105   0.00097   0.00202   2.09939
   A10        2.09322   0.00044   0.00102   0.00131   0.00233   2.09555
   A11        2.08591  -0.00038  -0.00103  -0.00135  -0.00238   2.08353
   A12        2.10405  -0.00006   0.00001   0.00004   0.00005   2.10410
   A13        2.09925   0.00004   0.00014  -0.00002   0.00012   2.09937
   A14        2.08863  -0.00015   0.00008  -0.00104  -0.00096   2.08768
   A15        2.09530   0.00011  -0.00023   0.00107   0.00084   2.09614
   A16        2.09297  -0.00013  -0.00021  -0.00064  -0.00085   2.09212
   A17        2.09511   0.00006   0.00010   0.00032   0.00042   2.09553
   A18        2.09511   0.00006   0.00010   0.00032   0.00042   2.09553
   A19        3.14159   0.00000   0.00000   0.00000   0.00000   3.14159
   A20        3.14160   0.00000   0.00000  -0.00001  -0.00001   3.14159
    D1        0.00000   0.00000   0.00000   0.00000   0.00000   0.00000
    D2       -3.14159   0.00000   0.00000   0.00000   0.00000   3.14159
    D3        3.14159   0.00000   0.00000   0.00000   0.00000  -3.14159
    D4        0.00000   0.00000   0.00000   0.00000   0.00000   0.00000
    D5        0.00000   0.00000   0.00000   0.00000   0.00000   0.00000
    D6       -3.14159   0.00000   0.00000   0.00000   0.00000   3.14159
    D7       -3.14159   0.00000   0.00000   0.00000   0.00000   3.14159
    D8        0.00000   0.00000   0.00000   0.00000   0.00000   0.00000
    D9        0.00000   0.00000   0.00000   0.00000   0.00000   0.00000
   D10       -3.14159   0.00000   0.00000   0.00000   0.00000   3.14159
   D11        3.14159   0.00000   0.00000   0.00000   0.00000   3.14159
   D12        0.00000   0.00000   0.00000   0.00000   0.00000   0.00000
   D13        0.00000   0.00000   0.00000   0.00000   0.00000   0.00000
   D14        3.14159   0.00000   0.00000   0.00000   0.00000  -3.14159
   D15        3.14159   0.00000   0.00000   0.00000   0.00000  -3.14159
   D16        0.00000   0.00000   0.00000   0.00000   0.00000   0.00000
   D17        0.00000   0.00000   0.00000   0.00000   0.00000   0.00000
   D18       -3.14159   0.00000   0.00000   0.00000   0.00000   3.14159
   D19       -3.14159   0.00000   0.00000   0.00000   0.00000  -3.14159
   D20        0.00000   0.00000   0.00000   0.00000   0.00000   0.00000
   D21        0.00000   0.00000   0.00000   0.00000   0.00000   0.00000
   D22        3.14159   0.00000   0.00000   0.00000   0.00000  -3.14159
   D23        3.14159   0.00000   0.00000   0.00000   0.00000  -3.14159
   D24        0.00000   0.00000   0.00000   0.00000   0.00000   0.00000
         Item               Value     Threshold  Converged?
 Maximum Force            0.000845     0.000450     NO 
 RMS     Force            0.000288     0.000300     YES
 Maximum Displacement     0.003729     0.001800     NO 
 RMS     Displacement     0.001166     0.001200     YES
 Predicted change in Energy=-8.265698D-06
 GradGradGradGradGradGradGradGradGradGradGradGradGradGradGradGradGradGrad

                          Input orientation:                          
 ---------------------------------------------------------------------
 Center     Atomic      Atomic             Coordinates (Angstroms)
 Number     Number       Type             X           Y           Z
 ---------------------------------------------------------------------
      1          6           0        0.247791   -0.496779   -0.015736
      2          6           0        1.604916   -0.478200   -0.336859
      3          6           0        2.308453    0.741357   -0.356983
      4          6           0        1.629973    1.936587   -0.050749
      5          6           0        0.272739    1.907386    0.269116
      6          6           0       -0.421629    0.693300    0.287717
      7          1           0       -0.288105   -1.442292   -0.002410
      8          1           0        2.128960   -1.399449   -0.573157
      9          1           0        2.173332    2.876625   -0.066515
     10          1           0       -0.243727    2.834374    0.504302
     11          1           0       -1.479285    0.674683    0.537479
     12          6           0        3.703907    0.765920   -0.686514
     13          6           0        4.887328    0.786751   -0.965979
 ---------------------------------------------------------------------
                    Distance matrix (angstroms):
                    1          2          3          4          5
     1  C    0.000000
     2  C    1.394723   0.000000
     3  C    2.428118   1.408080   0.000000
     4  C    2.798736   2.431806   1.408080   0.000000
     5  C    2.421110   2.798736   2.428118   1.394723   0.000000
     6  C    1.398748   2.422683   2.805583   2.422683   1.398748
     7  H    1.086902   2.150548   3.411181   3.885638   3.407141
     8  H    2.159705   1.085891   2.159166   3.413361   3.884603
     9  H    3.884603   3.413361   2.159166   1.085891   2.159705
    10  H    3.407141   3.885638   3.411181   2.150548   1.086902
    11  H    2.158973   3.406744   3.892489   3.406744   2.158973
    12  C    3.740199   2.464926   1.434046   2.464926   3.740199
    13  C    4.906700   3.573531   2.650195   3.573532   4.906701
                    6          7          8          9         10
     6  C    0.000000
     7  H    2.159341   0.000000
     8  H    3.409722   2.483906   0.000000
     9  H    3.409722   4.971501   4.306212   0.000000
    10  H    2.159341   4.306808   4.971501   2.483906   0.000000
    11  H    1.086906   2.488367   4.307548   4.307548   2.488367
    12  C    4.239628   4.613065   2.679951   2.679950   4.613065
    13  C    5.455777   5.716835   3.541521   3.541523   5.716836
                   11         12         13
    11  H    0.000000
    12  C    5.326535   0.000000
    13  C    6.542684   1.216149   0.000000
 Stoichiometry    C8H5(2)
 Framework group  C1[X(C8H5)]
 Deg. of freedom    33
 Full point group                 C1      NOp   1
 Largest Abelian subgroup         C1      NOp   1
 Largest concise Abelian subgroup C1      NOp   1
                         Standard orientation:                         
 ---------------------------------------------------------------------
 Center     Atomic      Atomic             Coordinates (Angstroms)
 Number     Number       Type             X           Y           Z
 ---------------------------------------------------------------------
      1          6           0       -1.432861    1.210555    0.000000
      2          6           0       -0.038149    1.215903    0.000000
      3          6           0        0.671969    0.000000    0.000000
      4          6           0       -0.038149   -1.215903    0.000000
      5          6           0       -1.432862   -1.210555    0.000000
      6          6           0       -2.133613    0.000000    0.000000
      7          1           0       -1.973594    2.153404    0.000000
      8          1           0        0.510312    2.153106    0.000000
      9          1           0        0.510311   -2.153106    0.000000
     10          1           0       -1.973595   -2.153404    0.000000
     11          1           0       -3.220520    0.000001    0.000000
     12          6           0        2.106015   -0.000001   -0.000002
     13          6           0        3.322164    0.000000    0.000001
 ---------------------------------------------------------------------
 Rotational constants (GHZ):      5.6565601      1.6121520      1.2545874
 Standard basis: 6-31+G(d) (6D, 7F)
 There are   162 symmetry adapted cartesian basis functions of A   symmetry.
 There are   162 symmetry adapted basis functions of A   symmetry.
   162 basis functions,   276 primitive gaussians,   162 cartesian basis functions
    27 alpha electrons       26 beta electrons
[...]
   A16        2.09212  -0.00008   0.00000  -0.00032  -0.00032   2.09180
   A17        2.09553   0.00004   0.00000   0.00016   0.00016   2.09569
   A18        2.09553   0.00004   0.00000   0.00016   0.00016   2.09569
   A19        3.14159   0.00000   0.00000   0.00000   0.00000   3.14159
   A20        3.14159   0.00000   0.00000   0.00000   0.00000   3.14159
    D1        0.00000   0.00000   0.00000   0.00000   0.00000   0.00000
    D2        3.14159   0.00000   0.00000   0.00000   0.00000   3.14159
    D3       -3.14159   0.00000   0.00000   0.00000   0.00000   3.14159
    D4        0.00000   0.00000   0.00000   0.00000   0.00000   0.00000
    D5        0.00000   0.00000   0.00000   0.00000   0.00000   0.00000
    D6        3.14159   0.00000   0.00000   0.00000   0.00000  -3.14159
    D7        3.14159   0.00000   0.00000   0.00000   0.00000   3.14159
    D8        0.00000   0.00000   0.00000   0.00000   0.00000   0.00000
    D9        0.00000   0.00000   0.00000   0.00000   0.00000   0.00000
   D10        3.14159   0.00000   0.00000   0.00000   0.00000   3.14159
   D11        3.14159   0.00000   0.00000   0.00000   0.00000   3.14159
   D12        0.00000   0.00000   0.00000   0.00000   0.00000   0.00000
   D13        0.00000   0.00000   0.00000   0.00000   0.00000   0.00000
   D14       -3.14159   0.00000   0.00000   0.00000   0.00000   3.14159
   D15       -3.14159   0.00000   0.00000   0.00000   0.00000  -3.14159
   D16        0.00000   0.00000   0.00000   0.00000   0.00000   0.00000
   D17        0.00000   0.00000   0.00000   0.00000   0.00000   0.00000
   D18        3.14159   0.00000   0.00000   0.00000   0.00000   3.14159
   D19       -3.14159   0.00000   0.00000   0.00000   0.00000   3.14159
   D20        0.00000   0.00000   0.00000   0.00000   0.00000   0.00000
   D21        0.00000   0.00000   0.00000   0.00000   0.00000   0.00000
   D22       -3.14159   0.00000   0.00000   0.00000   0.00000  -3.14159
   D23       -3.14159   0.00000   0.00000   0.00000   0.00000   3.14159
   D24        0.00000   0.00000   0.00000   0.00000   0.00000   0.00000
         Item               Value     Threshold  Converged?
 Maximum Force            0.000160     0.000450     YES
 RMS     Force            0.000039     0.000300     YES
 Maximum Displacement     0.000579     0.001800     YES
 RMS     Displacement     0.000169     0.001200     YES
 Predicted change in Energy=-1.071168D-07
 Optimization completed.
    -- Stationary point found.
                           ----------------------------
                           !   Optimized Parameters   !
                           ! (Angstroms and Degrees)  !
 --------------------------                            --------------------------
 ! Name  Definition              Value          Derivative Info.                !
 --------------------------------------------------------------------------------
 ! R1    R(1,2)                  1.3947         -DE/DX =    0.0                 !
 ! R2    R(1,6)                  1.3987         -DE/DX =    0.0                 !
 ! R3    R(1,7)                  1.0869         -DE/DX =   -0.0001              !
 ! R4    R(2,3)                  1.4081         -DE/DX =   -0.0001              !
 ! R5    R(2,8)                  1.0859         -DE/DX =    0.0                 !
 ! R6    R(3,4)                  1.4081         -DE/DX =   -0.0001              !
 ! R7    R(3,12)                 1.434          -DE/DX =   -0.0001              !
 ! R8    R(4,5)                  1.3947         -DE/DX =    0.0                 !
 ! R9    R(4,9)                  1.0859         -DE/DX =    0.0                 !
 ! R10   R(5,6)                  1.3987         -DE/DX =    0.0                 !
 ! R11   R(5,10)                 1.0869         -DE/DX =   -0.0001              !
 ! R12   R(6,11)                 1.0869         -DE/DX =   -0.0001              !
 ! R13   R(12,13)                1.2161         -DE/DX =   -0.0002              !
 ! A1    A(2,1,6)              120.2849         -DE/DX =    0.0                 !
 ! A2    A(2,1,7)              119.615          -DE/DX =    0.0                 !
 ! A3    A(6,1,7)              120.1001         -DE/DX =    0.0                 !
 ! A4    A(1,2,3)              120.0663         -DE/DX =    0.0                 !
 ! A5    A(1,2,8)              120.5563         -DE/DX =    0.0                 !
 ! A6    A(3,2,8)              119.3774         -DE/DX =    0.0                 !
 ! A7    A(2,3,4)              119.428          -DE/DX =    0.0                 !
 ! A8    A(2,3,12)             120.286          -DE/DX =    0.0                 !
 ! A9    A(4,3,12)             120.286          -DE/DX =    0.0                 !
 ! A10   A(3,4,5)              120.0663         -DE/DX =    0.0                 !
 ! A11   A(3,4,9)              119.3774         -DE/DX =    0.0                 !
 ! A12   A(5,4,9)              120.5563         -DE/DX =    0.0                 !
 ! A13   A(4,5,6)              120.2849         -DE/DX =    0.0                 !
 ! A14   A(4,5,10)             119.615          -DE/DX =    0.0                 !
 ! A15   A(6,5,10)             120.1001         -DE/DX =    0.0                 !
 ! A16   A(1,6,5)              119.8696         -DE/DX =   -0.0001              !
 ! A17   A(1,6,11)             120.0652         -DE/DX =    0.0                 !
 ! A18   A(5,6,11)             120.0652         -DE/DX =    0.0                 !
 ! A19   L(3,12,13,8,-1)       179.9999         -DE/DX =    0.0                 !
 ! A20   L(3,12,13,8,-2)       179.9998         -DE/DX =    0.0                 !
 ! D1    D(6,1,2,3)              0.0            -DE/DX =    0.0                 !
 ! D2    D(6,1,2,8)            180.0            -DE/DX =    0.0                 !
 ! D3    D(7,1,2,3)            180.0            -DE/DX =    0.0                 !
 ! D4    D(7,1,2,8)              0.0            -DE/DX =    0.0                 !
 ! D5    D(2,1,6,5)              0.0            -DE/DX =    0.0                 !
 ! D6    D(2,1,6,11)          -180.0            -DE/DX =    0.0                 !
 ! D7    D(7,1,6,5)            180.0            -DE/DX =    0.0                 !
 ! D8    D(7,1,6,11)             0.0            -DE/DX =    0.0                 !
 ! D9    D(1,2,3,4)              0.0            -DE/DX =    0.0                 !
 ! D10   D(1,2,3,12)           179.9999         -DE/DX =    0.0                 !
 ! D11   D(8,2,3,4)            180.0            -DE/DX =    0.0                 !
 ! D12   D(8,2,3,12)             0.0            -DE/DX =    0.0                 !
 ! D13   D(2,3,4,5)              0.0            -DE/DX =    0.0                 !
 ! D14   D(2,3,4,9)            180.0            -DE/DX =    0.0                 !
 ! D15   D(12,3,4,5)          -179.9999         -DE/DX =    0.0                 !
 ! D16   D(12,3,4,9)             0.0            -DE/DX =    0.0                 !
 ! D17   D(3,4,5,6)              0.0            -DE/DX =    0.0                 !
 ! D18   D(3,4,5,10)           180.0            -DE/DX =    0.0                 !
 ! D19   D(9,4,5,6)            180.0            -DE/DX =    0.0                 !
 ! D20   D(9,4,5,10)             0.0            -DE/DX =    0.0                 !
 ! D21   D(4,5,6,1)              0.0            -DE/DX =    0.0                 !
 ! D22   D(4,5,6,11)          -180.0            -DE/DX =    0.0                 !
 ! D23   D(10,5,6,1)           180.0            -DE/DX =    0.0                 !
 ! D24   D(10,5,6,11)            0.0            -DE/DX =    0.0                 !
 --------------------------------------------------------------------------------
 GradGradGradGradGradGradGradGradGradGradGradGradGradGradGradGradGradGrad

 1|1|UNPC-DESKTOP-NJU0UC9|Freq|UB3LYP|6-31+G(d)|C8H5(2)|USER|24-Aug-202
 3|0||#N Geom=AllCheck Guess=TCheck SCRF=Check GenChk UB3LYP/6-31+G(d) 
 Freq||Title Card Required||0,2|C,0.2477913118,-0.4967789731,-0.0157364
 669|C,1.6049155792,-0.4781998465,-0.3368594845|C,2.3084529788,0.741356
 8883,-0.3569833271|C,1.6299733114,1.9365866522,-0.0507487503|C,0.27273
 88445,1.9073860756,0.2691158679|C,-0.4216288364,0.6933004868,0.2877167
 416|H,-0.2881054112,-1.4422915395,-0.0024098447|H,2.1289597855,-1.3994
 490903,-0.5731565403|H,2.1733316934,2.8766248867,-0.0665151948|H,-0.24
 37273302,2.8343743362,0.5043016669|H,-1.4792854621,0.6746830259,0.5374
 790261|C,3.7039074175,0.7659204122,-0.6865144199|C,4.8873279379,0.7867
 505156,-0.9659789539||Version=EM64W-G09RevD.01|State=2-A|HF=-307.69272
 98|S2=0.777423|S2-1=0.|S2A=0.750447|RMSD=8.386e-009|RMSF=4.822e-005|Ze
 roPoint=0.0981504|Thermal=0.1037744|Dipole=-0.6604383,-0.0116239,0.155
 9571|DipoleDeriv=-0.0189734,0.1163306,-0.0269143,0.0942678,0.028745,0.
 0041142,-0.0295868,-0.0011401,-0.184076,-0.0800706,-0.2126281,-0.01422
 17,-0.0130615,0.0934416,0.0182585,0.0099212,0.065811,-0.0262092,0.3539
 297,-0.0079816,-0.0186769,-0.0079748,-0.6157415,-0.1063907,-0.018666,-
 0.106389,0.2711333,-0.0753682,0.2136956,0.0362243,0.0141268,0.1014225,
 0.0127511,0.0120898,-0.0348018,-0.0388935,-0.0231259,-0.1058635,-0.052
 8005,-0.0837988,0.0216987,0.0456948,-0.0501356,0.0509495,-0.1728791,0.
 0330449,0.0036517,-0.033786,0.0036508,-0.0023916,0.0122184,-0.0337852,
 0.0122182,-0.1010716,0.0138138,-0.0835469,0.0182202,-0.0827335,-0.0591
 594,-0.0034918,0.0183185,-0.003298,0.1279273,0.0425907,0.0660336,0.035
 2288,0.0523446,-0.017978,-0.0336269,0.033574,-0.036889,0.1444568,0.039
 9737,-0.0737792,0.0189412,-0.0600904,-0.0224174,-0.0073738,0.020598,-0
 .0041117,0.1515132,0.0170966,0.0754975,0.0366752,0.0746836,-0.0535898,
 -0.0403271,0.0365767,-0.0405209,0.1190744,-0.0997295,-0.0052812,0.0594
 639,-0.0052812,0.0713713,-0.0085558,0.0594642,-0.0085558,0.1373062,0.3
 242156,0.0382544,-0.2740168,0.0382584,0.8597725,0.1970969,-0.2740335,0
 .1970976,-0.7559554,-0.5273974,-0.0243828,0.2156627,-0.0243919,-0.4051
 738,-0.0903679,0.2156647,-0.0903699,0.3276736|Polar=130.4545725,2.2030
 687,97.2508023,-21.4343854,6.4745454,45.2729888|PG=C01 [X(C8H5)]|NImag
 =1||0.65849919,0.04741034,0.71504238,-0.11941103,0.05906972,0.16888440
 ,-0.32775661,-0.03605845,0.05903615,0.66261467,0.02607427,-0.12890948,
 -0.01434351,-0.02785742,0.69681682,0.06655136,0.00046117,-0.07749077,-
 0.12954044,0.07482249,0.17301510,-0.02943901,-0.02555107,0.00506057,-0
 .15208916,-0.10213227,0.00897669,0.63598607,-0.07025399,0.02823551,0.0
 1957812,-0.05952291,-0.26433742,-0.01022204,0.01295812,0.59065919,-0.0
 0034631,0.00892637,0.00593233,0.01413023,-0.00006924,-0.06594618,-0.11
 281002,0.04949118,0.18882955,-0.04652928,0.02653422,0.01276227,0.05908
 643,0.01974068,-0.00951805,-0.14888480,0.05229825,0.02689210,0.6644014
 7,0.02567956,-0.01551798,-0.00721711,-0.01928432,-0.05364844,-0.002997
 15,0.09490717,-0.25890161,-0.04636121,0.05825560,0.69984765,0.01265889
 ,-0.00742075,-0.01035184,-0.01423834,-0.01229594,0.01102537,0.03204613
 ,-0.03620852,-0.07458617,-0.11955037,0.05467044,0.16819722,0.06139305,
 -0.02166000,-0.01538420,-0.04764672,-0.02731842,0.00651475,-0.02746452
 ,0.06960618,0.01610005,-0.32777271,-0.03683485,0.05894601,0.65716479,0
 .02223222,-0.05547068,-0.01295320,-0.02817315,-0.01741357,0.00538542,0
 .02490345,0.03158483,-0.00269040,0.02529783,-0.12893678,-0.01416184,-0
 .01689919,0.71277879,-0.01007520,-0.00249471,0.00992253,0.00641138,0.0
 0518177,-0.00733885,0.01069285,-0.01334211,0.00060843,0.06646136,0.000
 64284,-0.07744735,-0.12687166,0.07411934,0.17248242,-0.17278204,0.1126
 3948,0.03994392,-0.02438361,0.02802445,0.01092654,0.00178297,-0.000472
 93,-0.00194107,-0.02648698,-0.02864383,0.00457338,-0.17633342,-0.12112
 212,0.01251540,0.70956409,0.05003015,-0.27772939,-0.03797546,0.0727236
 4,0.03461968,-0.01401744,-0.00047300,-0.06512129,-0.00702343,-0.073343
 06,0.03105165,0.02035517,-0.05851277,-0.28375374,-0.01284096,0.0155531
 0,0.65520756,0.03237097,-0.05289375,-0.07643475,0.01633316,-0.00336670
 ,0.00294811,-0.00194104,-0.00702345,-0.00651022,-0.00083321,0.00970443
 ,0.00861947,0.02008832,0.00207733,-0.06685905,-0.13539862,0.05940635,0
 .17287388,-0.12666823,-0.12058014,0.00686573,-0.01084895,-0.02842626,-
 0.00010274,-0.00427214,0.00063239,0.00275288,-0.00064736,0.00089106,0.
 00009596,-0.00067725,0.00277567,0.00214122,0.01180535,0.01465372,-0.00
 026720,0.13075092,-0.12059930,-0.27127222,0.00035644,0.00171485,0.0034
 8617,-0.00036793,0.00060897,0.00211718,-0.00073089,0.00079704,0.000193
 21,-0.00008224,0.00382941,-0.00268751,-0.00207212,-0.01557363,-0.01835
 256,0.00109844,0.12971683,0.28627104,0.00686341,0.00035188,-0.03823720
 ,0.00354300,0.00681398,0.00312981,0.00275005,-0.00073647,0.00621586,0.
 00008458,-0.00010465,-0.00072979,0.00226867,-0.00182104,0.00613920,-0.
 00392336,-0.00610401,0.00344187,-0.00938224,0.00062988,0.02783945,-0.0
 0933044,0.02745754,0.00637837,-0.12395033,0.11628811,0.03490626,0.0102
 3732,-0.01518120,-0.00331245,-0.00118404,-0.00316359,0.00137333,-0.000
 62998,-0.00071664,-0.00013294,-0.00484363,-0.00187826,0.00266848,0.000
 37827,-0.00018749,-0.00110538,0.12840012,-0.00248129,0.00515656,0.0007
 9157,0.11453031,-0.26378997,-0.05478340,0.01480271,-0.01829991,-0.0062
 2948,-0.00439322,-0.00272999,-0.00003158,-0.00069525,0.00024512,0.0002
 9499,-0.00093028,0.00155949,-0.00047376,0.00047547,0.00076520,0.000483
 12,-0.12249337,0.27782429,0.00275714,-0.00634214,0.00207619,0.03469361
 ,-0.05520227,-0.05142984,0.00031430,0.00091497,0.00407771,0.00122460,-
 0.00032457,0.00585444,-0.00013036,0.00030009,-0.00075674,0.00278315,-0
 .00024787,0.00661582,-0.00102520,0.00064109,-0.00384382,-0.03941471,0.
 05974772,0.04178313,-0.00060006,0.00074671,0.00003694,-0.00103635,0.00
 272438,0.00205032,0.01024009,0.01493578,0.00032970,-0.12890513,-0.1242
 5764,0.00699157,-0.00985773,-0.02789335,-0.00019097,-0.00479667,0.0013
 3286,0.00304570,0.00003928,-0.00006818,-0.00028555,0.00059167,0.000783
 66,0.00007078,0.13367157,0.00072533,0.00029588,-0.00003736,0.00395403,
 -0.00247947,-0.00199022,-0.01504815,-0.01829520,0.00088380,-0.12249983
 ,-0.27219500,0.00067849,0.00204547,0.00426209,-0.00039524,0.00038488,0
 .00163915,-0.00077750,-0.00005425,-0.00002055,0.00014646,-0.00081036,-
 0.00096679,0.00001677,0.13155530,0.28676646,0.00003434,-0.00004246,-0.
 00083741,0.00219905,-0.00169722,0.00545622,-0.00329700,-0.00626065,0.0
 0407026,0.00720415,0.00109735,-0.03807003,0.00343032,0.00673847,0.0034
 9796,0.00293103,-0.00100340,0.00648919,-0.00028387,0.00014978,-0.00103
 876,-0.00012203,-0.00036304,0.00047606,-0.00994222,0.00029570,0.027569
 52,-0.00082408,-0.00324649,0.00144779,-0.00068200,-0.00087207,-0.00010
 905,-0.00430817,-0.00112950,0.00254836,-0.01030438,0.02795968,0.006587
 69,-0.12182705,0.11271334,0.03393029,0.01182140,-0.01480000,-0.0038336
 1,0.00046671,-0.00082726,-0.00016088,0.00004315,0.00011826,-0.00026392
 ,0.00037774,-0.00021323,-0.00110837,0.12555304,-0.00430024,-0.00293657
 ,-0.00016515,-0.00077804,0.00013444,0.00028596,-0.00110607,0.00205599,
 -0.00032965,-0.00218145,0.00440996,0.00067221,0.11273249,-0.26305991,-
 0.05424764,0.01542734,-0.01832533,-0.00628505,0.00081079,-0.00101533,-
 0.00034158,0.00013219,-0.00001398,0.00010283,0.00044973,0.00076429,0.0
 0048914,-0.12078569,0.27745367,0.00132033,-0.00041623,0.00653509,-0.00
 009768,0.00030836,-0.00063641,0.00255119,-0.00032406,0.00631311,0.0029
 4196,-0.00650970,0.00166145,0.03393261,-0.05424308,-0.05129069,-0.0001
 7745,0.00091739,0.00339859,0.00003725,0.00004873,0.00020847,-0.0002622
 4,0.00010615,-0.00104919,-0.00102818,0.00064711,-0.00384238,-0.0384433
 3,0.05925215,0.04185469,-0.01023025,-0.00266920,0.00289744,0.00106332,
 0.00279626,0.00177611,0.00069321,0.00000873,-0.00023840,0.00095725,-0.
 00325353,0.00106963,-0.01075549,0.00221753,0.00361367,-0.32363230,-0.0
 0528970,0.06770732,0.00051923,0.00053513,-0.00099082,-0.00058028,-0.00
 022801,0.00014478,-0.00060453,0.00020158,0.00020252,0.00051683,-0.0002
 8469,-0.00108941,0.34215797,0.02753057,0.00533432,-0.00631197,0.001858
 11,-0.00452206,-0.00184824,0.00000874,-0.00117514,-0.00010652,-0.00231
 536,-0.00470198,-0.00087556,-0.02798224,0.00444334,0.00680764,-0.00528
 970,-0.06006884,-0.00155504,-0.00016904,0.00064824,0.00059171,0.001370
 59,0.00013714,-0.00032730,-0.00139703,0.00009599,0.00032718,0.00041948
 ,0.00064417,0.00045098,0.00592508,0.05907780,0.00655028,0.00088391,0.0
 0183088,0.00166263,-0.00207179,0.00645111,-0.00023837,-0.00010651,-0.0
 0026782,0.00118309,-0.00065201,0.00673711,-0.00003914,-0.00038824,0.00
 324710,0.06770732,-0.00155504,-0.05311320,-0.00107599,0.00042392,-0.00
 360304,0.00033814,0.00005361,0.00006898,0.00000916,-0.00005373,0.00013
 439,-0.00100424,0.00061877,-0.00359657,-0.07476716,0.00266577,0.043504
 05,0.00644823,-0.00458531,0.00060415,-0.03729057,-0.01817116,0.0063324
 8,-0.27838717,-0.00280725,0.04656528,-0.03653644,0.01695005,0.01040090
 ,0.00659384,0.00415945,0.00162718,-0.00277545,-0.00000556,0.00015916,-
 0.00021427,0.00000744,0.00028258,0.00073802,0.00128885,-0.00129295,0.0
 0073940,-0.00097094,-0.00156660,-0.00020485,-0.00007329,0.00027058,0.0
 0001132,0.00005876,-0.00049548,1.29702322,-0.00285797,-0.00119853,-0.0
 0083214,-0.01937217,-0.00092209,0.00468473,-0.00280570,-0.01805935,0.0
 0834590,0.01815017,0.00035655,-0.00410168,0.00243239,-0.00095136,-0.00
 206268,-0.00000570,-0.00150781,0.00007353,-0.00052835,-0.00021466,-0.0
 0001715,-0.00103855,-0.00034007,0.00085251,0.00135642,-0.00033768,0.00
 028212,0.00046252,-0.00019864,-0.00025129,0.00005879,-0.00001110,0.000
 23838,0.01918593,0.01049817,0.00081279,-0.00042034,0.01106611,0.006187
 72,0.00439862,-0.00243144,0.04656570,0.00834627,-0.09161794,0.01054652
 ,-0.00381577,-0.00446380,0.00141799,-0.00247442,0.01067350,0.00015926,
 0.00007350,-0.00213352,0.00021776,-0.00014481,0.00089842,-0.00157440,0
 .00029792,-0.00493104,-0.00128505,0.00083670,-0.00493483,0.00033537,-0
 .00012362,0.00087298,-0.00049543,0.00023839,-0.00195084,-0.27478757,-0
 .01951628,0.19716835,-0.00218047,-0.00043762,-0.00023811,0.00291989,0.
 00912944,0.00123578,-0.01409468,-0.00107166,0.00932965,0.00280596,-0.0
 0920536,-0.00095478,-0.00218681,0.00050494,-0.00012259,0.00106029,0.00
 000888,-0.00009945,-0.00063156,0.00004617,0.00005594,0.00013016,-0.000
 77782,0.00013880,0.00014074,0.00073018,0.00031867,-0.00062834,-0.00004
 307,0.00004437,-0.00011627,-0.00001795,0.00016977,-0.95614528,-0.01503
 779,0.21189935,0.96892637,0.00081035,-0.00102980,0.00004006,-0.0037344
 8,0.00096539,0.00058664,-0.00107291,-0.01046278,-0.00410643,0.00365913
 ,0.00077276,-0.00119819,-0.00074322,-0.00104062,0.00040887,0.00000894,
 0.00078145,0.00001519,-0.00019787,0.00008179,0.00010787,0.00022103,0.0
 0045292,-0.00013182,-0.00026864,0.00047083,-0.00001297,0.00020097,0.00
 008724,0.00001348,-0.00001797,0.00009811,-0.00005706,-0.01503696,0.012
 88657,0.01230383,0.01617165,-0.00406385,-0.00008697,0.00033733,-0.0028
 9555,-0.00032046,-0.00247855,0.00324777,0.00932895,-0.00410673,0.02288
 109,0.00060100,0.00186712,0.00355394,-0.00027337,0.00011157,-0.0028784
 7,-0.00009951,0.00001520,0.00066382,0.00002643,0.00004972,-0.00042047,
 0.00025957,0.00010619,0.00105830,0.00019782,-0.00025098,0.00102982,0.0
 0007391,0.00007164,-0.00042914,0.00016974,-0.00005706,0.00055785,0.211
 90029,0.01230404,-0.10821594,-0.22177741,-0.00796948,0.08184699||-0.00
 002579,0.00003931,0.00001096,-0.00000316,-0.00007051,-0.00000785,-0.00
 007241,-0.00000123,0.00001689,-0.00000171,0.00007044,0.00000885,-0.000
 02660,-0.00004024,0.00000154,0.00017836,0.00000314,-0.00004214,-0.0000
 4357,-0.00003431,0.00000624,-0.00002088,0.00000290,0.00000532,-0.00002
 095,-0.00000364,0.00000454,-0.00004287,0.00003279,0.00001419,-0.000057
 76,-0.00000102,0.00001363,-0.00001865,-0.00000041,0.00000494,0.0001560
 0,0.00000279,-0.00003710|||@


0EVERYBODY IS IGNORANT, ONLY ON DIFFERENT SUBJECTS.
0          WILL ROGERS
 Job cpu time:       0 days  0 hours  7 minutes 39.0 seconds.
 File lengths (MBytes):  RWF=     75 Int=      0 D2E=      0 Chk=      4 Scr=      1
 Normal termination of Gaussian 09 at Thu Aug 24 14:10:36 2023.
