 Entering Link 1 = C:\G09W\l1.exe PID=      4508.
  
 Copyright (c) 1988,1990,1992,1993,1995,1998,2003,2009,2013,
            Gaussian, Inc.  All Rights Reserved.
  
 This is part of the Gaussian(R) 09 program.  It is based on
 the Gaussian(R) 03 system (copyright 2003, Gaussian, Inc.),
 the Gaussian(R) 98 system (copyright 1998, Gaussian, Inc.),
 the Gaussian(R) 94 system (copyright 1995, Gaussian, Inc.),
 the Gaussian 92(TM) system (copyright 1992, Gaussian, Inc.),
 the Gaussian 90(TM) system (copyright 1990, Gaussian, Inc.),
 the Gaussian 88(TM) system (copyright 1988, Gaussian, Inc.),
 the Gaussian 86(TM) system (copyright 1986, Carnegie Mellon
 University), and the Gaussian 82(TM) system (copyright 1983,
 Carnegie Mellon University). Gaussian is a federally registered
 trademark of Gaussian, Inc.
  
 This software contains proprietary and confidential information,
 including trade secrets, belonging to Gaussian, Inc.
  
 This software is provided under written license and may be
 used, copied, transmitted, or stored only in accord with that
 written license.
  
 The following legend is applicable only to US Government
 contracts under FAR:
  
                    RESTRICTED RIGHTS LEGEND
  
 Use, reproduction and disclosure by the US Government is
 subject to restrictions as set forth in subparagraphs (a)
 and (c) of the Commercial Computer Software - Restricted
 Rights clause in FAR 52.227-19.
  
 Gaussian, Inc.
 340 Quinnipiac St., Bldg. 40, Wallingford CT 06492
  
  
 ---------------------------------------------------------------
 Warning -- This program may not be used in any manner that
 competes with the business of Gaussian, Inc. or will provide
 assistance to any competitor of Gaussian, Inc.  The licensee
 of this program is prohibited from giving any competitor of
 Gaussian, Inc. access to this program.  By using this program,
 the user acknowledges that Gaussian, Inc. is engaged in the
 business of creating and licensing software in the field of
 computational chemistry and represents and warrants to the
 licensee that it is not a competitor of Gaussian, Inc. and that
 it will not use this program in any manner prohibited above.
 ---------------------------------------------------------------
  

 Cite this work as:
 Gaussian 09, Revision D.01,
 M. J. Frisch, G. W. Trucks, H. B. Schlegel, G. E. Scuseria, 
 M. A. Robb, J. R. Cheeseman, G. Scalmani, V. Barone, B. Mennucci, 
 G. A. Petersson, H. Nakatsuji, M. Caricato, X. Li, H. P. Hratchian, 
 A. F. Izmaylov, J. Bloino, G. Zheng, J. L. Sonnenberg, M. Hada, 
 M. Ehara, K. Toyota, R. Fukuda, J. Hasegawa, M. Ishida, T. Nakajima, 
 Y. Honda, O. Kitao, H. Nakai, T. Vreven, J. A. Montgomery, Jr., 
 J. E. Peralta, F. Ogliaro, M. Bearpark, J. J. Heyd, E. Brothers, 
 K. N. Kudin, V. N. Staroverov, T. Keith, R. Kobayashi, J. Normand, 
 K. Raghavachari, A. Rendell, J. C. Burant, S. S. Iyengar, J. Tomasi, 
 M. Cossi, N. Rega, J. M. Millam, M. Klene, J. E. Knox, J. B. Cross, 
 V. Bakken, C. Adamo, J. Jaramillo, R. Gomperts, R. E. Stratmann, 
 O. Yazyev, A. J. Austin, R. Cammi, C. Pomelli, J. W. Ochterski, 
 R. L. Martin, K. Morokuma, V. G. Zakrzewski, G. A. Voth, 
 P. Salvador, J. J. Dannenberg, S. Dapprich, A. D. Daniels, 
 O. Farkas, J. B. Foresman, J. V. Ortiz, J. Cioslowski, 
 and D. J. Fox, Gaussian, Inc., Wallingford CT, 2013.
 
 ******************************************
 Gaussian 09:  EM64W-G09RevD.01 13-Apr-2013
                13-Sep-2023 
 ******************************************
 %chk=E:\PROJECT- VIT group\ML\Substrates\molecule_18.chk
 ----------------------------------------------------------------
 # opt freq b3lyp/6-31g geom=connectivity empiricaldispersion=gd3
 ----------------------------------------------------------------
 1/14=-1,18=20,19=15,26=3,38=1,57=2/1,3;
 2/9=110,12=2,17=6,18=5,40=1/2;
 3/5=1,6=6,11=2,16=1,25=1,30=1,71=1,74=-5,124=31/1,2,3;
 4//1;
 5/5=2,38=5/2;
 6/7=2,8=2,9=2,10=2,28=1/1;
 7//1,2,3,16;
 1/14=-1,18=20,19=15,26=3/3(2);
 2/9=110/2;
 99//99;
 2/9=110/2;
 3/5=1,6=6,11=2,16=1,25=1,30=1,71=1,74=-5,124=31/1,2,3;
 4/5=5,16=3,69=1/1;
 5/5=2,38=5/2;
 7//1,2,3,16;
 1/14=-1,18=20,19=15,26=3/3(-5);
 2/9=110/2;
 6/7=2,8=2,9=2,10=2,19=2,28=1/1;
 99/9=1/99;
 -------------------
 Title Card Required
 -------------------
 Symbolic Z-matrix:
 Charge =  0 Multiplicity = 1
 C                    -0.39682  -1.11403   0.02147 
 C                     0.99892  -1.11405   0.02149 
 C                     1.70043   0.09488   0.0229 
 C                     0.99873   1.30289   0.01995 
 C                    -0.39661   1.3028    0.01968 
 C                    -1.09412   0.09428   0.02078 
 H                    -0.94624  -2.06572   0.02202 
 H                     1.54783  -2.06591   0.02294 
 H                     1.54841   2.25437   0.02016 
 H                    -0.94635   2.25446   0.01876 
 C                    -2.63397   0.09453   0.0205 
 C                    -3.82911   0.09473   0.02029 
 Br                   -5.73905   0.09505   0.01996 
 O                     3.19738   0.13168   0.11765 
 C                     3.66576  -1.20991  -0.03754 
 H                     3.31411  -1.46722  -1.01484 
 H                     4.68745  -1.50933   0.0646 
 H                     3.07169  -1.71132   0.69828 
 

 GradGradGradGradGradGradGradGradGradGradGradGradGradGradGradGradGradGrad
 Berny optimization.
 Initialization pass.
                           ----------------------------
                           !    Initial Parameters    !
                           ! (Angstroms and Degrees)  !
 --------------------------                            --------------------------
 ! Name  Definition              Value          Derivative Info.                !
 --------------------------------------------------------------------------------
 ! R1    R(1,2)                  1.3957         estimate D2E/DX2                !
 ! R2    R(1,6)                  1.3951         estimate D2E/DX2                !
 ! R3    R(1,7)                  1.0989         estimate D2E/DX2                !
 ! R4    R(2,3)                  1.3977         estimate D2E/DX2                !
 ! R5    R(2,8)                  1.0988         estimate D2E/DX2                !
 ! R6    R(3,4)                  1.397          estimate D2E/DX2                !
 ! R7    R(3,14)                 1.5004         estimate D2E/DX2                !
 ! R8    R(4,5)                  1.3953         estimate D2E/DX2                !
 ! R9    R(4,9)                  1.0988         estimate D2E/DX2                !
 ! R10   R(5,6)                  1.3954         estimate D2E/DX2                !
 ! R11   R(5,10)                 1.099          estimate D2E/DX2                !
 ! R12   R(6,11)                 1.5399         estimate D2E/DX2                !
 ! R13   R(11,12)                1.1951         estimate D2E/DX2                !
 ! R14   R(12,13)                1.9099         estimate D2E/DX2                !
 ! R15   R(14,15)                1.4294         estimate D2E/DX2                !
 ! R16   R(15,16)                1.07           estimate D2E/DX2                !
 ! R17   R(15,17)                1.0696         estimate D2E/DX2                !
 ! R18   R(15,18)                1.0704         estimate D2E/DX2                !
 ! A1    A(2,1,6)              119.9892         estimate D2E/DX2                !
 ! A2    A(2,1,7)              119.9974         estimate D2E/DX2                !
 ! A3    A(6,1,7)              120.0134         estimate D2E/DX2                !
 ! A4    A(1,2,3)              120.1245         estimate D2E/DX2                !
 ! A5    A(1,2,8)              119.9712         estimate D2E/DX2                !
 ! A6    A(3,2,8)              119.9042         estimate D2E/DX2                !
 ! A7    A(2,3,4)              119.7237         estimate D2E/DX2                !
 ! A8    A(2,3,14)             121.4672         estimate D2E/DX2                !
 ! A9    A(4,3,14)             118.689          estimate D2E/DX2                !
 ! A10   A(3,4,5)              120.1474         estimate D2E/DX2                !
 ! A11   A(3,4,9)              119.8335         estimate D2E/DX2                !
 ! A12   A(5,4,9)              120.019          estimate D2E/DX2                !
 ! A13   A(4,5,6)              119.9955         estimate D2E/DX2                !
 ! A14   A(4,5,10)             120.01           estimate D2E/DX2                !
 ! A15   A(6,5,10)             119.9944         estimate D2E/DX2                !
 ! A16   A(1,6,5)              120.0195         estimate D2E/DX2                !
 ! A17   A(1,6,11)             119.9978         estimate D2E/DX2                !
 ! A18   A(5,6,11)             119.9827         estimate D2E/DX2                !
 ! A19   A(3,14,15)            107.28           estimate D2E/DX2                !
 ! A20   A(14,15,16)           102.5426         estimate D2E/DX2                !
 ! A21   A(14,15,17)           124.4283         estimate D2E/DX2                !
 ! A22   A(14,15,18)           100.5535         estimate D2E/DX2                !
 ! A23   A(16,15,17)           109.5016         estimate D2E/DX2                !
 ! A24   A(16,15,18)           109.4397         estimate D2E/DX2                !
 ! A25   A(17,15,18)           109.4738         estimate D2E/DX2                !
 ! A26   L(6,11,12,10,-1)      179.9995         estimate D2E/DX2                !
 ! A27   L(11,12,13,10,-1)     180.0            estimate D2E/DX2                !
 ! A28   L(6,11,12,10,-2)      180.0003         estimate D2E/DX2                !
 ! A29   L(11,12,13,10,-2)     180.0006         estimate D2E/DX2                !
 ! D1    D(6,1,2,3)              0.0985         estimate D2E/DX2                !
 ! D2    D(6,1,2,8)            179.9449         estimate D2E/DX2                !
 ! D3    D(7,1,2,3)           -179.9001         estimate D2E/DX2                !
 ! D4    D(7,1,2,8)             -0.0537         estimate D2E/DX2                !
 ! D5    D(2,1,6,5)              0.0208         estimate D2E/DX2                !
 ! D6    D(2,1,6,11)           179.9888         estimate D2E/DX2                !
 ! D7    D(7,1,6,5)           -179.9806         estimate D2E/DX2                !
 ! D8    D(7,1,6,11)            -0.0126         estimate D2E/DX2                !
 ! D9    D(1,2,3,4)             -0.205          estimate D2E/DX2                !
 ! D10   D(1,2,3,14)           175.7568         estimate D2E/DX2                !
 ! D11   D(8,2,3,4)            179.9485         estimate D2E/DX2                !
 ! D12   D(8,2,3,14)            -4.0897         estimate D2E/DX2                !
 ! D13   D(2,3,4,5)              0.1931         estimate D2E/DX2                !
 ! D14   D(2,3,4,9)           -179.9465         estimate D2E/DX2                !
 ! D15   D(14,3,4,5)          -175.8808         estimate D2E/DX2                !
 ! D16   D(14,3,4,9)             3.9796         estimate D2E/DX2                !
 ! D17   D(2,3,14,15)            9.8299         estimate D2E/DX2                !
 ! D18   D(4,3,14,15)         -174.1677         estimate D2E/DX2                !
 ! D19   D(3,4,5,6)             -0.0746         estimate D2E/DX2                !
 ! D20   D(3,4,5,10)           179.9155         estimate D2E/DX2                !
 ! D21   D(9,4,5,6)           -179.9347         estimate D2E/DX2                !
 ! D22   D(9,4,5,10)             0.0553         estimate D2E/DX2                !
 ! D23   D(4,5,6,1)             -0.0328         estimate D2E/DX2                !
 ! D24   D(4,5,6,11)           179.9992         estimate D2E/DX2                !
 ! D25   D(10,5,6,1)           179.9772         estimate D2E/DX2                !
 ! D26   D(10,5,6,11)            0.0091         estimate D2E/DX2                !
 ! D27   D(3,14,15,16)          60.713          estimate D2E/DX2                !
 ! D28   D(3,14,15,17)        -174.7377         estimate D2E/DX2                !
 ! D29   D(3,14,15,18)         -52.1337         estimate D2E/DX2                !
 --------------------------------------------------------------------------------
 Trust Radius=3.00D-01 FncErr=1.00D-07 GrdErr=1.00D-06
 Number of steps in this run=     86 maximum allowed number of steps=    108.
 GradGradGradGradGradGradGradGradGradGradGradGradGradGradGradGradGradGrad

                          Input orientation:                          
 ---------------------------------------------------------------------
 Center     Atomic      Atomic             Coordinates (Angstroms)
 Number     Number       Type             X           Y           Z
 ---------------------------------------------------------------------
      1          6           0       -0.396823   -1.114034    0.021468
      2          6           0        0.998923   -1.114050    0.021487
      3          6           0        1.700426    0.094884    0.022900
      4          6           0        0.998731    1.302892    0.019950
      5          6           0       -0.396606    1.302804    0.019678
      6          6           0       -1.094122    0.094280    0.020783
      7          1           0       -0.946237   -2.065722    0.022015
      8          1           0        1.547830   -2.065913    0.022943
      9          1           0        1.548410    2.254374    0.020165
     10          1           0       -0.946347    2.254460    0.018759
     11          6           0       -2.633974    0.094528    0.020501
     12          6           0       -3.829108    0.094731    0.020288
     13         35           0       -5.739048    0.095054    0.019958
     14          8           0        3.197379    0.131677    0.117651
     15          6           0        3.665760   -1.209911   -0.037544
     16          1           0        3.314114   -1.467218   -1.014842
     17          1           0        4.687454   -1.509328    0.064599
     18          1           0        3.071689   -1.711324    0.698277
 ---------------------------------------------------------------------
                    Distance matrix (angstroms):
                    1          2          3          4          5
     1  C    0.000000
     2  C    1.395746   0.000000
     3  C    2.420730   1.397722   0.000000
     4  C    2.790896   2.416942   1.397021   0.000000
     5  C    2.416839   2.790823   2.420047   1.395337   0.000000
     6  C    1.395081   2.416796   2.794549   2.416770   1.395371
     7  H    1.098893   2.165486   3.416584   3.889790   3.413074
     8  H    2.165121   1.098792   2.166178   3.413263   3.889614
     9  H    3.889744   3.412948   2.164836   1.098848   2.165311
    10  H    3.413025   3.889852   3.416020   2.165367   1.099029
    11  C    2.542729   3.828655   4.334400   3.828405   2.542783
    12  C    3.638914   4.977051   5.529534   4.976714   3.638889
    13  Br   5.477341   6.845596   7.439474   6.845183   5.477257
    14  O    3.805172   2.528693   1.500400   2.493059   3.781252
    15  C    4.064142   2.669212   2.359805   3.664768   4.777011
    16  H    3.869073   2.561018   2.474077   3.755702   4.744755
    17  H    5.099802   3.709900   3.390807   4.638669   5.810144
    18  H    3.584048   2.260783   2.366196   3.720589   4.644840
                    6          7          8          9         10
     6  C    0.000000
     7  H    2.165059   0.000000
     8  H    3.412674   2.494067   0.000000
     9  H    3.413061   4.988637   4.320288   0.000000
    10  H    2.165230   4.320184   4.988643   2.494758   0.000000
    11  C    1.539852   2.741376   4.706909   4.707151   2.741057
    12  C    2.734986   3.602569   5.794812   5.794977   3.602047
    13  Br   4.644926   5.257375   7.600550   7.600638   5.256712
    14  O    4.292757   4.691190   2.749433   2.689692   4.656872
    15  C    4.935665   4.691106   2.285176   4.060513   5.768585
    16  H    4.789920   4.425367   2.134290   4.247257   5.750717
    17  H    6.000008   5.661260   3.188850   4.901124   6.775538
    18  H    4.590554   4.089824   1.704100   4.301974   5.686282
                   11         12         13         14         15
    11  C    0.000000
    12  C    1.195134   0.000000
    13  Br   3.105074   1.909940   0.000000
    14  O    5.832280   7.027258   8.937036   0.000000
    15  C    6.433628   7.607791   9.495085   1.429449   0.000000
    16  H    6.236243   7.384903   9.245066   1.962812   1.070034
    17  H    7.495172   8.666417  10.549311   2.217213   1.069552
    18  H    6.022879   7.165368   9.019546   1.936383   1.070406
                   16         17         18
    16  H    0.000000
    17  H    1.747292   0.000000
    18  H    1.747322   1.747297   0.000000
 Stoichiometry    C9H7BrO
 Framework group  C1[X(C9H7BrO)]
 Deg. of freedom    48
 Full point group                 C1      NOp   1
 Largest Abelian subgroup         C1      NOp   1
 Largest concise Abelian subgroup C1      NOp   1
                         Standard orientation:                         
 ---------------------------------------------------------------------
 Center     Atomic      Atomic             Coordinates (Angstroms)
 Number     Number       Type             X           Y           Z
 ---------------------------------------------------------------------
      1          6           0       -1.286190   -1.018453   -0.011995
      2          6           0       -2.679774   -0.940809   -0.010669
      3          6           0       -3.312915    0.305209    0.003401
      4          6           0       -2.545084    1.472176    0.020469
      5          6           0       -1.151914    1.394449    0.019395
      6          6           0       -0.522731    0.149092    0.002817
      7          1           0       -0.790586   -1.999158   -0.024727
      8          1           0       -3.280799   -1.860567   -0.023253
      9          1           0       -3.040964    2.452699    0.032437
     10          1           0       -0.550068    2.313960    0.031440
     11          6           0        1.014748    0.063659    0.001619
     12          6           0        2.208042   -0.002638    0.000683
     13         35           0        4.115040   -0.108588   -0.000824
     14          8           0       -4.805528    0.426396   -0.089451
     15          6           0       -5.347796   -0.888857    0.049753
     16          1           0       -5.010739   -1.177315    1.023487
     17          1           0       -6.384597   -1.129686   -0.055065
     18          1           0       -4.782754   -1.413473   -0.692726
 ---------------------------------------------------------------------
 Rotational constants (GHZ):      4.4997039      0.1982214      0.1901028
 Standard basis: 6-31G (6D, 7F)
 There are   128 symmetry adapted cartesian basis functions of A   symmetry.
 There are   128 symmetry adapted basis functions of A   symmetry.
   128 basis functions,   325 primitive gaussians,   128 cartesian basis functions
    52 alpha electrons       52 beta electrons
       nuclear repulsion energy       694.0373178739 Hartrees.
 NAtoms=   18 NActive=   18 NUniq=   18 SFac= 1.00D+00 NAtFMM=   60 NAOKFM=F Big=F
 Integral buffers will be    131072 words long.
 Raffenetti 2 integral format.
 Two-electron integral symmetry is turned on.
 Nuclear repulsion after empirical dispersion term =      694.0254178345 Hartrees.
 One-electron integrals computed using PRISM.
 NBasis=   128 RedAO= T EigKep=  4.39D-04  NBF=   128
 NBsUse=   128 1.00D-06 EigRej= -1.00D+00 NBFU=   128
 ExpMin= 1.43D-01 ExpMax= 5.74D+05 ExpMxC= 5.74D+03 IAcc=2 IRadAn=         4 AccDes= 0.00D+00
 Harris functional with IExCor=  402 and IRadAn=       4 diagonalized for initial guess.
 HarFok:  IExCor=  402 AccDes= 0.00D+00 IRadAn=         4 IDoV= 1 UseB2=F ITyADJ=14
 ICtDFT=  3500011 ScaDFX=  1.000000  1.000000  1.000000  1.000000
 FoFCou: FMM=F IPFlag=           0 FMFlag=      100000 FMFlg1=           0
         NFxFlg=           0 DoJE=T BraDBF=F KetDBF=T FulRan=T
         wScrn=  0.000000 ICntrl=     500 IOpCl=  0 I1Cent=   200000004 NGrid=           0
         NMat0=    1 NMatS0=      1 NMatT0=    0 NMatD0=    1 NMtDS0=    0 NMtDT0=    0
 Petite list used in FoFCou.
 Requested convergence on RMS density matrix=1.00D-08 within 128 cycles.
 Requested convergence on MAX density matrix=1.00D-06.
 Requested convergence on             energy=1.00D-06.
 No special actions if energy rises.
 Integral accuracy reduced to 1.0D-05 until final iterations.
 Initial convergence to 1.0D-05 achieved.  Increase integral accuracy.
 SCF Done:  E(RB3LYP) =  -2993.73888473     A.U. after   15 cycles
            NFock= 15  Conv=0.60D-08     -V/T= 2.0044

 **********************************************************************

            Population analysis using the SCF density.

 **********************************************************************

 Orbital symmetries:
       Occupied  (A) (A) (A) (A) (A) (A) (A) (A) (A) (A) (A) (A)
                 (A) (A) (A) (A) (A) (A) (A) (A) (A) (A) (A) (A)
                 (A) (A) (A) (A) (A) (A) (A) (A) (A) (A) (A) (A)
                 (A) (A) (A) (A) (A) (A) (A) (A) (A) (A) (A) (A)
                 (A) (A) (A) (A)
       Virtual   (A) (A) (A) (A) (A) (A) (A) (A) (A) (A) (A) (A)
                 (A) (A) (A) (A) (A) (A) (A) (A) (A) (A) (A) (A)
                 (A) (A) (A) (A) (A) (A) (A) (A) (A) (A) (A) (A)
                 (A) (A) (A) (A) (A) (A) (A) (A) (A) (A) (A) (A)
                 (A) (A) (A) (A) (A) (A) (A) (A) (A) (A) (A) (A)
                 (A) (A) (A) (A) (A) (A) (A) (A) (A) (A) (A) (A)
                 (A) (A) (A) (A)
 The electronic state is 1-A.
 Alpha  occ. eigenvalues -- -482.81608 -61.79669 -56.34642 -56.34073 -56.34072
 Alpha  occ. eigenvalues --  -19.17552 -10.26187 -10.23195 -10.23120 -10.22636
 Alpha  occ. eigenvalues --  -10.20914 -10.20812 -10.20705 -10.20426 -10.20394
 Alpha  occ. eigenvalues --   -8.57043  -6.54270  -6.52521  -6.52520  -2.65856
 Alpha  occ. eigenvalues --   -2.65328  -2.65326  -2.63931  -2.63931  -1.04575
 Alpha  occ. eigenvalues --   -0.87906  -0.82335  -0.78137  -0.76933  -0.73886
 Alpha  occ. eigenvalues --   -0.70412  -0.62914  -0.61240  -0.55297  -0.50071
 Alpha  occ. eigenvalues --   -0.49575  -0.47755  -0.46797  -0.46393  -0.44528
 Alpha  occ. eigenvalues --   -0.42839  -0.39526  -0.39022  -0.37394  -0.35347
 Alpha  occ. eigenvalues --   -0.34934  -0.32694  -0.31765  -0.27846  -0.27176
 Alpha  occ. eigenvalues --   -0.26830  -0.23070
 Alpha virt. eigenvalues --   -0.03641  -0.02438  -0.01599   0.05479   0.05663
 Alpha virt. eigenvalues --    0.08747   0.10169   0.11565   0.13515   0.15062
 Alpha virt. eigenvalues --    0.16368   0.17310   0.17526   0.18990   0.21046
 Alpha virt. eigenvalues --    0.22244   0.30205   0.31716   0.32598   0.33976
 Alpha virt. eigenvalues --    0.34961   0.46963   0.48142   0.48243   0.50099
 Alpha virt. eigenvalues --    0.50999   0.52519   0.54331   0.54654   0.55645
 Alpha virt. eigenvalues --    0.56054   0.56608   0.58057   0.59727   0.59988
 Alpha virt. eigenvalues --    0.60664   0.62151   0.63388   0.65555   0.66885
 Alpha virt. eigenvalues --    0.68559   0.69031   0.71637   0.75841   0.76750
 Alpha virt. eigenvalues --    0.79010   0.80764   0.84191   0.86288   0.87617
 Alpha virt. eigenvalues --    0.88962   0.89204   0.90818   0.92255   0.94080
 Alpha virt. eigenvalues --    0.95150   0.98346   1.01952   1.04163   1.05728
 Alpha virt. eigenvalues --    1.06302   1.12181   1.16266   1.19302   1.23072
 Alpha virt. eigenvalues --    1.25025   1.27338   1.42648   1.43161   1.50486
 Alpha virt. eigenvalues --    1.53219   1.64925   1.84178   2.11149   6.59191
 Alpha virt. eigenvalues --   39.73864
          Condensed to atoms (all electrons):
               1          2          3          4          5          6
     1  C    4.958690   0.432858  -0.027436  -0.033477  -0.071024   0.525643
     2  C    0.432858   5.260437   0.365143  -0.087791  -0.044342  -0.033313
     3  C   -0.027436   0.365143   4.824666   0.523503  -0.046893  -0.023246
     4  C   -0.033477  -0.087791   0.523503   5.008035   0.500403  -0.041590
     5  C   -0.071024  -0.044342  -0.046893   0.500403   4.938604   0.517403
     6  C    0.525643  -0.033313  -0.023246  -0.041590   0.517403   5.030229
     7  H    0.351085  -0.028948   0.002886   0.000482   0.004331  -0.029057
     8  H   -0.017880   0.359342  -0.062401   0.002344   0.000931   0.003334
     9  H    0.000217   0.006909  -0.025122   0.340737  -0.032602   0.003554
    10  H    0.004416   0.000416   0.003940  -0.028681   0.351884  -0.032006
    11  C   -0.026935   0.007342   0.001310   0.006210  -0.027037   0.304156
    12  C   -0.000629   0.000129   0.000042   0.000111  -0.000410  -0.302391
    13  Br  -0.000017   0.000000   0.000000   0.000000  -0.000019   0.002054
    14  O    0.003721  -0.071012   0.263929  -0.039032   0.002696  -0.000193
    15  C    0.001499  -0.010653  -0.049956   0.004345  -0.000115  -0.000046
    16  H    0.000085   0.006421  -0.011694  -0.000057  -0.000021  -0.000014
    17  H   -0.000026   0.000405   0.004814  -0.000038   0.000003   0.000000
    18  H    0.000265   0.007744  -0.024187  -0.000352  -0.000048   0.000010
               7          8          9         10         11         12
     1  C    0.351085  -0.017880   0.000217   0.004416  -0.026935  -0.000629
     2  C   -0.028948   0.359342   0.006909   0.000416   0.007342   0.000129
     3  C    0.002886  -0.062401  -0.025122   0.003940   0.001310   0.000042
     4  C    0.000482   0.002344   0.340737  -0.028681   0.006210   0.000111
     5  C    0.004331   0.000931  -0.032602   0.351884  -0.027037  -0.000410
     6  C   -0.029057   0.003334   0.003554  -0.032006   0.304156  -0.302391
     7  H    0.553802  -0.003910   0.000010  -0.000162  -0.005048  -0.001331
     8  H   -0.003910   0.573942  -0.000135   0.000012  -0.000255  -0.000006
     9  H    0.000010  -0.000135   0.555583  -0.004229  -0.000225  -0.000006
    10  H   -0.000162   0.000012  -0.004229   0.554129  -0.005303  -0.001402
    11  C   -0.005048  -0.000255  -0.000225  -0.005303   5.879836   0.072783
    12  C   -0.001331  -0.000006  -0.000006  -0.001402   0.072783   6.503797
    13  Br  -0.000009   0.000000   0.000000  -0.000009   0.046579   0.054936
    14  O   -0.000029  -0.009205   0.000073  -0.000034  -0.000001   0.000000
    15  C    0.000023  -0.000761   0.000076   0.000001   0.000000   0.000000
    16  H   -0.000005   0.003050   0.000029   0.000000   0.000000   0.000000
    17  H    0.000000  -0.000234  -0.000010   0.000000   0.000000   0.000000
    18  H    0.000011   0.004822   0.000064   0.000000   0.000001   0.000000
              13         14         15         16         17         18
     1  C   -0.000017   0.003721   0.001499   0.000085  -0.000026   0.000265
     2  C    0.000000  -0.071012  -0.010653   0.006421   0.000405   0.007744
     3  C    0.000000   0.263929  -0.049956  -0.011694   0.004814  -0.024187
     4  C    0.000000  -0.039032   0.004345  -0.000057  -0.000038  -0.000352
     5  C   -0.000019   0.002696  -0.000115  -0.000021   0.000003  -0.000048
     6  C    0.002054  -0.000193  -0.000046  -0.000014   0.000000   0.000010
     7  H   -0.000009  -0.000029   0.000023  -0.000005   0.000000   0.000011
     8  H    0.000000  -0.009205  -0.000761   0.003050  -0.000234   0.004822
     9  H    0.000000   0.000073   0.000076   0.000029  -0.000010   0.000064
    10  H   -0.000009  -0.000034   0.000001   0.000000   0.000000   0.000000
    11  C    0.046579  -0.000001   0.000000   0.000000   0.000000   0.000001
    12  C    0.054936   0.000000   0.000000   0.000000   0.000000   0.000000
    13  Br  34.524127   0.000000   0.000000   0.000000   0.000000   0.000000
    14  O    0.000000   8.352950   0.164101  -0.054615  -0.016810  -0.056253
    15  C    0.000000   0.164101   4.952067   0.377852   0.363372   0.374004
    16  H    0.000000  -0.054615   0.377852   0.619288  -0.037509  -0.057326
    17  H    0.000000  -0.016810   0.363372  -0.037509   0.555569  -0.032290
    18  H    0.000000  -0.056253   0.374004  -0.057326  -0.032290   0.628153
 Mulliken charges:
               1
     1  C   -0.101057
     2  C   -0.171090
     3  C    0.280702
     4  C   -0.155153
     5  C   -0.093744
     6  C    0.075475
     7  H    0.155869
     8  H    0.147011
     9  H    0.155079
    10  H    0.157027
    11  C   -0.253414
    12  C   -0.325621
    13  Br   0.372357
    14  O   -0.540284
    15  C   -0.175810
    16  H    0.154517
    17  H    0.162755
    18  H    0.155382
 Sum of Mulliken charges =   0.00000
 Mulliken charges with hydrogens summed into heavy atoms:
               1
     1  C    0.054813
     2  C   -0.024079
     3  C    0.280702
     4  C   -0.000074
     5  C    0.063283
     6  C    0.075475
    11  C   -0.253414
    12  C   -0.325621
    13  Br   0.372357
    14  O   -0.540284
    15  C    0.296843
 Electronic spatial extent (au):  <R**2>=           4911.7933
 Charge=              0.0000 electrons
 Dipole moment (field-independent basis, Debye):
    X=             -0.8980    Y=             -1.5118    Z=              0.2180  Tot=              1.7718
 Quadrupole moment (field-independent basis, Debye-Ang):
   XX=            -68.9941   YY=            -69.9990   ZZ=            -78.8159
   XY=              9.2459   XZ=             -1.1412   YZ=              0.2627
 Traceless Quadrupole moment (field-independent basis, Debye-Ang):
   XX=              3.6089   YY=              2.6040   ZZ=             -6.2129
   XY=              9.2459   XZ=             -1.1412   YZ=              0.2627
 Octapole moment (field-independent basis, Debye-Ang**2):
  XXX=            121.7614  YYY=              1.1456  ZZZ=             -0.0656  XYY=             24.2717
  XXY=            -56.5455  XXZ=              5.5268  XZZ=             41.1375  YZZ=             -1.9507
  YYZ=             -0.1486  XYZ=             -0.8782
 Hexadecapole moment (field-independent basis, Debye-Ang**3):
 XXXX=          -4568.4942 YYYY=           -358.7082 ZZZZ=            -88.1578 XXXY=            274.7899
 XXXZ=            -25.8235 YYYX=            -22.3365 YYYZ=              0.8767 ZZZX=             -0.2143
 ZZZY=             -0.4528 XXYY=           -872.4762 XXZZ=           -876.3441 YYZZ=            -85.8300
 XXYZ=              3.7052 YYXZ=              0.5591 ZZXY=             -3.1450
 N-N= 6.940254178345D+02 E-N=-8.508593767178D+03  KE= 2.980529751604D+03
 Calling FoFJK, ICntrl=      2127 FMM=F ISym2X=0 I1Cent= 0 IOpClX= 0 NMat=1 NMatS=1 NMatT=0.
 ***** Axes restored to original set *****
 -------------------------------------------------------------------
 Center     Atomic                   Forces (Hartrees/Bohr)
 Number     Number              X              Y              Z
 -------------------------------------------------------------------
      1        6          -0.003604991   -0.011918413   -0.000729395
      2        6           0.002592033   -0.015513001   -0.002106115
      3        6           0.036746613    0.005208879    0.009332316
      4        6           0.010568386    0.015905839   -0.000173114
      5        6           0.001610105    0.015235281   -0.000871381
      6        6          -0.068492553   -0.003095825    0.000185033
      7        1           0.005179134    0.008791208   -0.000059696
      8        1          -0.017302563    0.010012902   -0.001426434
      9        1          -0.003246813   -0.009908216    0.000527615
     10        1           0.005504364   -0.008922710   -0.000027598
     11        6           0.097986719   -0.000051781    0.000075533
     12        6          -0.069287612    0.000021219   -0.000025088
     13       35           0.030686403   -0.000023983    0.000009198
     14        8          -0.038776218    0.033244996   -0.001482730
     15        6          -0.021665936   -0.012108542   -0.002153802
     16        1           0.002639640   -0.021250496   -0.017249543
     17        1           0.019600172    0.022058584    0.005857034
     18        1           0.009263116   -0.027685941    0.010318167
 -------------------------------------------------------------------
 Cartesian Forces:  Max     0.097986719 RMS     0.023211229

 GradGradGradGradGradGradGradGradGradGradGradGradGradGradGradGradGradGrad
 Berny optimization.
 FormGI is forming the generalized inverse of G from B-inverse, IUseBI=4.
 Internal  Forces:  Max     0.098965904 RMS     0.020254070
 Search for a local minimum.
 Step number   1 out of a maximum of   86
 All quantities printed in internal units (Hartrees-Bohrs-Radians)
 Mixed Optimization -- RFO/linear search
 Second derivative matrix not updated -- first step.
 ITU=  0
     Eigenvalues ---    0.00230   0.00230   0.00364   0.01302   0.01817
     Eigenvalues ---    0.02126   0.02132   0.02139   0.02144   0.02149
     Eigenvalues ---    0.02150   0.02151   0.02152   0.04799   0.04799
     Eigenvalues ---    0.08796   0.11212   0.16000   0.16000   0.16000
     Eigenvalues ---    0.16000   0.16000   0.16000   0.16000   0.17774
     Eigenvalues ---    0.22000   0.22976   0.23992   0.24938   0.25000
     Eigenvalues ---    0.25000   0.28532   0.32335   0.33790   0.33805
     Eigenvalues ---    0.33810   0.33816   0.37179   0.37226   0.37287
     Eigenvalues ---    0.41069   0.41999   0.42315   0.46104   0.46255
     Eigenvalues ---    0.46364   0.46417   1.07306
 RFO step:  Lambda=-9.33795612D-02 EMin= 2.30000000D-03
 Linear search not attempted -- first point.
 Maximum step size (   0.300) exceeded in Quadratic search.
    -- Step size scaled by   0.559
 Iteration  1 RMS(Cart)=  0.14058266 RMS(Int)=  0.01322945
 Iteration  2 RMS(Cart)=  0.04329318 RMS(Int)=  0.00140626
 Iteration  3 RMS(Cart)=  0.00147596 RMS(Int)=  0.00094310
 Iteration  4 RMS(Cart)=  0.00000360 RMS(Int)=  0.00094310
 Iteration  5 RMS(Cart)=  0.00000001 RMS(Int)=  0.00094310
 Variable       Old X    -DE/DX   Delta X   Delta X   Delta X     New X
                                 (Linear)    (Quad)   (Total)
    R1        2.63758   0.00276   0.00000   0.00306   0.00306   2.64064
    R2        2.63632   0.00414   0.00000   0.00422   0.00422   2.64054
    R3        2.07661  -0.01020   0.00000  -0.01322  -0.01322   2.06339
    R4        2.64131   0.01426   0.00000   0.01462   0.01462   2.65594
    R5        2.07642  -0.01732   0.00000  -0.02243  -0.02243   2.05399
    R6        2.63999   0.00110   0.00000   0.00103   0.00104   2.64102
    R7        2.83535  -0.02931   0.00000  -0.03931  -0.03931   2.79603
    R8        2.63680  -0.00234   0.00000  -0.00264  -0.00264   2.63417
    R9        2.07652  -0.01020   0.00000  -0.01322  -0.01322   2.06330
   R10        2.63687   0.00708   0.00000   0.00689   0.00689   2.64376
   R11        2.07686  -0.01048   0.00000  -0.01358  -0.01358   2.06328
   R12        2.90990  -0.05939   0.00000  -0.08764  -0.08764   2.82226
   R13        2.25848   0.03860   0.00000   0.01849   0.01849   2.27697
   R14        3.60926  -0.03069   0.00000  -0.06326  -0.06326   3.54601
   R15        2.70127   0.04017   0.00000   0.04454   0.04454   2.74580
   R16        2.02207   0.02000   0.00000   0.02400   0.02400   2.04607
   R17        2.02116   0.01311   0.00000   0.01571   0.01571   2.03687
   R18        2.02277   0.01492   0.00000   0.01793   0.01793   2.04070
    A1        2.09421   0.00266   0.00000   0.00525   0.00525   2.09946
    A2        2.09435  -0.00142   0.00000  -0.00283  -0.00283   2.09152
    A3        2.09463  -0.00124   0.00000  -0.00242  -0.00242   2.09221
    A4        2.09657  -0.00270   0.00000  -0.00406  -0.00406   2.09251
    A5        2.09389  -0.00902   0.00000  -0.02084  -0.02084   2.07305
    A6        2.09272   0.01172   0.00000   0.02491   0.02490   2.11762
    A7        2.08957  -0.00235   0.00000  -0.00357  -0.00358   2.08599
    A8        2.12000   0.04408   0.00000   0.07199   0.07199   2.19199
    A9        2.07151  -0.04158   0.00000  -0.06769  -0.06774   2.00378
   A10        2.09697   0.00385   0.00000   0.00607   0.00608   2.10305
   A11        2.09149  -0.00416   0.00000  -0.00796  -0.00796   2.08353
   A12        2.09473   0.00030   0.00000   0.00188   0.00188   2.09661
   A13        2.09432   0.00059   0.00000   0.00001   0.00000   2.09432
   A14        2.09457  -0.00061   0.00000  -0.00070  -0.00070   2.09387
   A15        2.09430   0.00002   0.00000   0.00069   0.00069   2.09499
   A16        2.09473  -0.00206   0.00000  -0.00371  -0.00372   2.09102
   A17        2.09436   0.00093   0.00000   0.00170   0.00170   2.09606
   A18        2.09409   0.00112   0.00000   0.00201   0.00201   2.09610
   A19        1.87239   0.09897   0.00000   0.16107   0.16107   2.03346
   A20        1.78971   0.03567   0.00000   0.07895   0.07729   1.86699
   A21        2.17168  -0.05972   0.00000  -0.13467  -0.13393   2.03775
   A22        1.75499   0.04494   0.00000   0.10044   0.09920   1.85419
   A23        1.91116  -0.00186   0.00000  -0.00757  -0.00723   1.90393
   A24        1.91008  -0.00372   0.00000   0.00146  -0.00303   1.90705
   A25        1.91068  -0.00847   0.00000  -0.02104  -0.01991   1.89077
   A26        3.14158   0.00007   0.00000   0.00028   0.00028   3.14187
   A27        3.14159   0.00006   0.00000   0.00035   0.00035   3.14194
   A28        3.14160  -0.00001   0.00000  -0.00005  -0.00005   3.14155
   A29        3.14160   0.00001   0.00000   0.00003   0.00003   3.14164
    D1        0.00172  -0.00016   0.00000   0.00019   0.00027   0.00199
    D2        3.14063   0.00049   0.00000   0.00422   0.00433  -3.13823
    D3       -3.13985  -0.00011   0.00000  -0.00051  -0.00050  -3.14035
    D4       -0.00094   0.00054   0.00000   0.00352   0.00356   0.00262
    D5        0.00036   0.00050   0.00000   0.00199   0.00194   0.00230
    D6        3.14140   0.00012   0.00000   0.00013   0.00008   3.14148
    D7       -3.14125   0.00046   0.00000   0.00269   0.00271  -3.13855
    D8       -0.00022   0.00007   0.00000   0.00082   0.00085   0.00063
    D9       -0.00358  -0.00052   0.00000  -0.00305  -0.00307  -0.00665
   D10        3.06754   0.00026   0.00000   0.00645   0.00689   3.07443
   D11        3.14069  -0.00113   0.00000  -0.00701  -0.00717   3.13352
   D12       -0.07138  -0.00036   0.00000   0.00249   0.00280  -0.06858
   D13        0.00337   0.00086   0.00000   0.00378   0.00372   0.00709
   D14       -3.14066   0.00106   0.00000   0.00380   0.00368  -3.13698
   D15       -3.06970  -0.00330   0.00000  -0.01102  -0.01060  -3.08029
   D16        0.06946  -0.00311   0.00000  -0.01100  -0.01064   0.05882
   D17        0.17156  -0.00445   0.00000  -0.02502  -0.02498   0.14659
   D18       -3.03980  -0.00218   0.00000  -0.01317  -0.01322  -3.05302
   D19       -0.00130  -0.00052   0.00000  -0.00161  -0.00153  -0.00283
   D20        3.14012  -0.00019   0.00000  -0.00091  -0.00091   3.13921
   D21       -3.14045  -0.00071   0.00000  -0.00163  -0.00147   3.14126
   D22        0.00097  -0.00038   0.00000  -0.00092  -0.00085   0.00012
   D23       -0.00057  -0.00017   0.00000  -0.00129  -0.00132  -0.00190
   D24        3.14158   0.00021   0.00000   0.00058   0.00053  -3.14108
   D25        3.14119  -0.00050   0.00000  -0.00199  -0.00195   3.13924
   D26        0.00016  -0.00012   0.00000  -0.00013  -0.00009   0.00006
   D27        1.05964   0.00573   0.00000   0.00272   0.00688   1.06652
   D28       -3.04975  -0.00608   0.00000  -0.03017  -0.02956  -3.07930
   D29       -0.90991  -0.01523   0.00000  -0.05433  -0.05911  -0.96901
         Item               Value     Threshold  Converged?
 Maximum Force            0.098966     0.000450     NO 
 RMS     Force            0.020254     0.000300     NO 
 Maximum Displacement     0.758213     0.001800     NO 
 RMS     Displacement     0.178947     0.001200     NO 
 Predicted change in Energy=-4.203777D-02
 GradGradGradGradGradGradGradGradGradGradGradGradGradGradGradGradGradGrad

                          Input orientation:                          
 ---------------------------------------------------------------------
 Center     Atomic      Atomic             Coordinates (Angstroms)
 Number     Number       Type             X           Y           Z
 ---------------------------------------------------------------------
      1          6           0       -0.521266   -1.138166    0.008452
      2          6           0        0.875029   -1.192572    0.003052
      3          6           0        1.622414   -0.002339    0.012048
      4          6           0        0.958643    1.227526    0.018259
      5          6           0       -0.434316    1.279548    0.024112
      6          6           0       -1.178487    0.094880    0.020365
      7          1           0       -1.100987   -2.063441    0.002632
      8          1           0        1.360742   -2.164851   -0.009433
      9          1           0        1.541537    2.150767    0.020856
     10          1           0       -0.944038    2.245081    0.031193
     11          6           0       -2.671008    0.147960    0.025954
     12          6           0       -3.875171    0.190452    0.030423
     13         35           0       -5.750480    0.255972    0.037428
     14          8           0        3.097280    0.087818    0.088540
     15          6           0        3.830389   -1.161079   -0.030044
     16          1           0        3.598377   -1.572446   -1.004345
     17          1           0        4.900855   -1.108098    0.084376
     18          1           0        3.438939   -1.814827    0.735168
 ---------------------------------------------------------------------
                    Distance matrix (angstroms):
                    1          2          3          4          5
     1  C    0.000000
     2  C    1.397364   0.000000
     3  C    2.426001   1.405461   0.000000
     4  C    2.790471   2.421590   1.397569   0.000000
     5  C    2.419328   2.797536   2.423534   1.393942   0.000000
     6  C    1.397313   2.423790   2.802601   2.418723   1.399016
     7  H    1.091899   2.159410   3.415427   3.882369   3.408884
     8  H    2.143911   1.086922   2.178392   3.416237   3.884230
     9  H    3.882317   3.409174   2.154643   1.091854   2.159404
    10  H    3.409636   3.889378   3.411443   2.157726   1.091843
    11  C    2.505158   3.791032   4.296074   3.786804   2.506648
    12  C    3.607546   4.947515   5.500996   4.943828   3.609107
    13  Br   5.411944   6.782096   7.377461   6.779131   5.413824
    14  O    3.821430   2.566147   1.479597   2.424385   3.727806
    15  C    4.351886   2.955714   2.493913   3.735598   4.913991
    16  H    4.264483   2.928443   2.720794   3.981678   5.045217
    17  H    5.422736   4.027534   3.460651   4.582636   5.845386
    18  H    4.082794   2.738034   2.666041   3.990205   5.008279
                    6          7          8          9         10
     6  C    0.000000
     7  H    2.159784   0.000000
     8  H    3.399258   2.463846   0.000000
     9  H    3.409575   4.974215   4.319510   0.000000
    10  H    2.162973   4.311475   4.976059   2.487385   0.000000
    11  C    1.493474   2.712159   4.648156   4.664418   2.716683
    12  C    2.698396   3.574480   5.741413   5.760525   3.579531
    13  Br   4.574861   5.196024   7.512127   7.534191   5.201776
    14  O    4.276317   4.718129   2.845994   2.584700   4.581411
    15  C    5.164186   5.013362   2.665923   4.026135   5.865223
    16  H    5.162213   4.831056   2.519485   4.375380   6.023238
    17  H    6.197553   6.077949   3.695663   4.680732   6.738651
    18  H    5.047628   4.605360   2.235140   4.453797   6.015723
                   11         12         13         14         15
    11  C    0.000000
    12  C    1.204921   0.000000
    13  Br   3.081387   1.876466   0.000000
    14  O    5.768941   6.973449   8.849505   0.000000
    15  C    6.632110   7.823424   9.685331   1.453016   0.000000
    16  H    6.582287   7.748063   9.582773   2.049871   1.082735
    17  H    7.675559   8.871741  10.738428   2.164051   1.077866
    18  H    6.456544   7.616693   9.445659   2.038361   1.079893
                   16         17         18
    16  H    0.000000
    17  H    1.759937   0.000000
    18  H    1.763540   1.749341   0.000000
 Stoichiometry    C9H7BrO
 Framework group  C1[X(C9H7BrO)]
 Deg. of freedom    48
 Full point group                 C1      NOp   1
 Largest Abelian subgroup         C1      NOp   1
 Largest concise Abelian subgroup C1      NOp   1
                         Standard orientation:                         
 ---------------------------------------------------------------------
 Center     Atomic      Atomic             Coordinates (Angstroms)
 Number     Number       Type             X           Y           Z
 ---------------------------------------------------------------------
      1          6           0       -1.221932   -1.063439   -0.002064
      2          6           0       -2.618124   -1.006247    0.000064
      3          6           0       -3.268095    0.239875    0.006315
      4          6           0       -2.508262    1.412780    0.018441
      5          6           0       -1.115584    1.353484    0.015820
      6          6           0       -0.468357    0.113237    0.004394
      7          1           0       -0.717933   -2.032043   -0.008099
      8          1           0       -3.179926   -1.936717   -0.001878
      9          1           0       -3.015595    2.379565    0.027664
     10          1           0       -0.530403    2.275239    0.023115
     11          6           0        1.023648    0.047043    0.002230
     12          6           0        2.227369   -0.006696    0.000521
     13         35           0        4.101937   -0.091038   -0.002195
     14          8           0       -4.730830    0.448555   -0.071567
     15          6           0       -5.561626   -0.739328    0.028278
     16          1           0       -5.366021   -1.181265    0.997166
     17          1           0       -6.624110   -0.599471   -0.087318
     18          1           0       -5.221382   -1.411661   -0.745266
 ---------------------------------------------------------------------
 Rotational constants (GHZ):      4.7194289      0.1977615      0.1900463
 Standard basis: 6-31G (6D, 7F)
 There are   128 symmetry adapted cartesian basis functions of A   symmetry.
 There are   128 symmetry adapted basis functions of A   symmetry.
   128 basis functions,   325 primitive gaussians,   128 cartesian basis functions
    52 alpha electrons       52 beta electrons
       nuclear repulsion energy       693.5323867913 Hartrees.
 NAtoms=   18 NActive=   18 NUniq=   18 SFac= 1.00D+00 NAtFMM=   60 NAOKFM=F Big=F
 Integral buffers will be    131072 words long.
 Raffenetti 2 integral format.
 Two-electron integral symmetry is turned on.
 Nuclear repulsion after empirical dispersion term =      693.5199400458 Hartrees.
 One-electron integrals computed using PRISM.
 NBasis=   128 RedAO= T EigKep=  4.10D-04  NBF=   128
 NBsUse=   128 1.00D-06 EigRej= -1.00D+00 NBFU=   128
 Initial guess from the checkpoint file:  "E:\PROJECT- VIT group\ML\Substrates\molecule_18.chk"
 B after Tr=     0.000000    0.000000    0.000000
         Rot=    0.999998   -0.000527    0.000094    0.001759 Ang=  -0.21 deg.
 ExpMin= 1.43D-01 ExpMax= 5.74D+05 ExpMxC= 5.74D+03 IAcc=2 IRadAn=         4 AccDes= 0.00D+00
 Harris functional with IExCor=  402 and IRadAn=       4 diagonalized for initial guess.
 HarFok:  IExCor=  402 AccDes= 0.00D+00 IRadAn=         4 IDoV= 1 UseB2=F ITyADJ=14
 ICtDFT=  3500011 ScaDFX=  1.000000  1.000000  1.000000  1.000000
 FoFCou: FMM=F IPFlag=           0 FMFlag=      100000 FMFlg1=           0
         NFxFlg=           0 DoJE=T BraDBF=F KetDBF=T FulRan=T
         wScrn=  0.000000 ICntrl=     500 IOpCl=  0 I1Cent=   200000004 NGrid=           0
         NMat0=    1 NMatS0=      1 NMatT0=    0 NMatD0=    1 NMtDS0=    0 NMtDT0=    0
 Petite list used in FoFCou.
 Requested convergence on RMS density matrix=1.00D-08 within 128 cycles.
 Requested convergence on MAX density matrix=1.00D-06.
 Requested convergence on             energy=1.00D-06.
 No special actions if energy rises.
 Integral accuracy reduced to 1.0D-05 until final iterations.
 Initial convergence to 1.0D-05 achieved.  Increase integral accuracy.
 SCF Done:  E(RB3LYP) =  -2993.77036434     A.U. after   16 cycles
            NFock= 16  Conv=0.27D-08     -V/T= 2.0045
 Calling FoFJK, ICntrl=      2127 FMM=F ISym2X=0 I1Cent= 0 IOpClX= 0 NMat=1 NMatS=1 NMatT=0.
 ***** Axes restored to original set *****
 -------------------------------------------------------------------
 Center     Atomic                   Forces (Hartrees/Bohr)
 Number     Number              X              Y              Z
 -------------------------------------------------------------------
      1        6           0.001518619   -0.007397109   -0.000824301
      2        6           0.010044542   -0.004694004   -0.000991853
      3        6           0.035456542   -0.001198890    0.005975422
      4        6           0.004788219    0.011663515   -0.000133456
      5        6           0.004619244    0.009027938   -0.000642897
      6        6          -0.050147299    0.000282048    0.000224016
      7        1           0.003044547    0.004642661    0.000008666
      8        1          -0.000607667    0.002851515    0.000201784
      9        1          -0.001276524   -0.006026028    0.000468231
     10        1           0.002566796   -0.005059039   -0.000078201
     11        6           0.056812104   -0.002117529   -0.000101146
     12        6          -0.036612714    0.001252667    0.000123442
     13       35           0.018935849   -0.000652775   -0.000069946
     14        8          -0.031609247    0.010984487   -0.002512024
     15        6          -0.027951960   -0.009321473   -0.002980319
     16        1           0.002343422   -0.009359768   -0.008370780
     17        1           0.006300946    0.018873434    0.002623603
     18        1           0.001774580   -0.013751649    0.007079758
 -------------------------------------------------------------------
 Cartesian Forces:  Max     0.056812104 RMS     0.014973726

 GradGradGradGradGradGradGradGradGradGradGradGradGradGradGradGradGradGrad
 Berny optimization.
 Using GEDIIS/GDIIS optimizer.
 FormGI is forming the generalized inverse of G from B-inverse, IUseBI=4.
 Internal  Forces:  Max     0.049357566 RMS     0.009840905
 Search for a local minimum.
 Step number   2 out of a maximum of   86
 All quantities printed in internal units (Hartrees-Bohrs-Radians)
 Mixed Optimization -- RFO/linear search
 Update second derivatives using D2CorX and points    1    2
 DE= -3.15D-02 DEPred=-4.20D-02 R= 7.49D-01
 TightC=F SS=  1.41D+00  RLast= 3.08D-01 DXNew= 5.0454D-01 9.2391D-01
 Trust test= 7.49D-01 RLast= 3.08D-01 DXMaxT set to 5.05D-01
 ITU=  1  0
 Use linear search instead of GDIIS.
     Eigenvalues ---    0.00230   0.00230   0.00365   0.01320   0.01811
     Eigenvalues ---    0.02126   0.02133   0.02139   0.02144   0.02149
     Eigenvalues ---    0.02150   0.02151   0.02152   0.04799   0.04799
     Eigenvalues ---    0.09618   0.10780   0.14000   0.16000   0.16000
     Eigenvalues ---    0.16000   0.16000   0.16000   0.16320   0.17544
     Eigenvalues ---    0.22002   0.22836   0.23918   0.24967   0.25000
     Eigenvalues ---    0.25631   0.30210   0.33581   0.33787   0.33799
     Eigenvalues ---    0.33808   0.36898   0.37158   0.37273   0.39291
     Eigenvalues ---    0.41893   0.42098   0.45881   0.46197   0.46362
     Eigenvalues ---    0.46416   0.66333   1.06822
 RFO step:  Lambda=-5.78005856D-02 EMin= 2.30000000D-03
 Quartic linear search produced a step of  0.97055.
 Iteration  1 RMS(Cart)=  0.11082187 RMS(Int)=  0.02936761
 Iteration  2 RMS(Cart)=  0.05177077 RMS(Int)=  0.00787560
 Iteration  3 RMS(Cart)=  0.00431216 RMS(Int)=  0.00673076
 Iteration  4 RMS(Cart)=  0.00009025 RMS(Int)=  0.00673059
 Iteration  5 RMS(Cart)=  0.00000342 RMS(Int)=  0.00673059
 Iteration  6 RMS(Cart)=  0.00000014 RMS(Int)=  0.00673059
 Variable       Old X    -DE/DX   Delta X   Delta X   Delta X     New X
                                 (Linear)    (Quad)   (Total)
    R1        2.64064   0.00052   0.00297  -0.00044   0.00251   2.64315
    R2        2.64054   0.00726   0.00409   0.02403   0.02799   2.66853
    R3        2.06339  -0.00555  -0.01283  -0.01770  -0.03053   2.03286
    R4        2.65594  -0.00562   0.01419  -0.03185  -0.01753   2.63841
    R5        2.05399  -0.00282  -0.02177   0.00090  -0.02086   2.03312
    R6        2.64102   0.00025   0.00101  -0.00106   0.00008   2.64110
    R7        2.79603  -0.04936  -0.03815  -0.21618  -0.25433   2.54170
    R8        2.63417  -0.00126  -0.00256  -0.00249  -0.00503   2.62914
    R9        2.06330  -0.00578  -0.01283  -0.01875  -0.03158   2.03172
   R10        2.64376   0.00897   0.00668   0.02839   0.03496   2.67872
   R11        2.06328  -0.00567  -0.01318  -0.01806  -0.03124   2.03205
   R12        2.82226  -0.03916  -0.08506  -0.16110  -0.24616   2.57610
   R13        2.27697   0.01769   0.01795   0.01343   0.03138   2.30835
   R14        3.54601  -0.01895  -0.06139  -0.12361  -0.18501   3.36100
   R15        2.74580   0.00294   0.04322  -0.01869   0.02453   2.77033
   R16        2.04607   0.01059   0.02330   0.02994   0.05324   2.09931
   R17        2.03687   0.00746   0.01525   0.02186   0.03710   2.07398
   R18        2.04070   0.01270   0.01740   0.04313   0.06053   2.10123
    A1        2.09946   0.00088   0.00510   0.00586   0.01088   2.11033
    A2        2.09152  -0.00056  -0.00275  -0.00386  -0.00657   2.08495
    A3        2.09221  -0.00032  -0.00235  -0.00199  -0.00431   2.08790
    A4        2.09251  -0.00346  -0.00394  -0.02348  -0.02726   2.06525
    A5        2.07305   0.00248  -0.02023   0.02643   0.00607   2.07912
    A6        2.11762   0.00098   0.02417  -0.00296   0.02109   2.13871
    A7        2.08599   0.00852  -0.00347   0.05012   0.04650   2.13249
    A8        2.19199  -0.00569   0.06987  -0.07024  -0.00101   2.19098
    A9        2.00378  -0.00276  -0.06574   0.02232  -0.04406   1.95971
   A10        2.10305  -0.00350   0.00590  -0.02797  -0.02184   2.08120
   A11        2.08353  -0.00045  -0.00772  -0.00302  -0.01086   2.07267
   A12        2.09661   0.00395   0.00182   0.03099   0.03270   2.12931
   A13        2.09432   0.00000   0.00000   0.00331   0.00329   2.09761
   A14        2.09387   0.00009  -0.00068  -0.00060  -0.00126   2.09261
   A15        2.09499  -0.00010   0.00067  -0.00271  -0.00203   2.09297
   A16        2.09102  -0.00244  -0.00361  -0.00787  -0.01166   2.07936
   A17        2.09606   0.00104   0.00165   0.00291   0.00465   2.10071
   A18        2.09610   0.00140   0.00195   0.00495   0.00699   2.10309
   A19        2.03346  -0.00443   0.15633  -0.11323   0.04310   2.07656
   A20        1.86699   0.01517   0.07501   0.10292   0.15804   2.02503
   A21        2.03775  -0.03499  -0.12999  -0.26198  -0.38227   1.65548
   A22        1.85419   0.01852   0.09628   0.12886   0.20774   2.06193
   A23        1.90393   0.00307  -0.00702   0.01306   0.01188   1.91581
   A24        1.90705  -0.00306  -0.00294   0.00872  -0.02455   1.88250
   A25        1.89077   0.00265  -0.01933   0.02159   0.01507   1.90584
   A26        3.14187   0.00002   0.00028   0.00038   0.00065   3.14252
   A27        3.14194  -0.00003   0.00034  -0.00064  -0.00030   3.14164
   A28        3.14155  -0.00002  -0.00005  -0.00045  -0.00049   3.14106
   A29        3.14164   0.00000   0.00003   0.00003   0.00006   3.14170
    D1        0.00199  -0.00005   0.00026   0.00042   0.00079   0.00278
    D2       -3.13823   0.00026   0.00420   0.01027   0.01466  -3.12357
    D3       -3.14035  -0.00007  -0.00048  -0.00132  -0.00181   3.14102
    D4        0.00262   0.00023   0.00346   0.00854   0.01206   0.01468
    D5        0.00230   0.00010   0.00188   0.00390   0.00565   0.00795
    D6        3.14148   0.00006   0.00008   0.00098   0.00100  -3.14070
    D7       -3.13855   0.00012   0.00263   0.00564   0.00826  -3.13029
    D8        0.00063   0.00008   0.00083   0.00272   0.00361   0.00424
    D9       -0.00665  -0.00005  -0.00298  -0.00510  -0.00834  -0.01499
   D10        3.07443   0.00144   0.00669   0.04250   0.05035   3.12478
   D11        3.13352  -0.00036  -0.00696  -0.01518  -0.02273   3.11080
   D12       -0.06858   0.00113   0.00272   0.03242   0.03596  -0.03262
   D13        0.00709   0.00005   0.00361   0.00520   0.00891   0.01601
   D14       -3.13698   0.00012   0.00357   0.00610   0.00964  -3.12734
   D15       -3.08029  -0.00113  -0.01028  -0.03414  -0.04369  -3.12398
   D16        0.05882  -0.00106  -0.01033  -0.03324  -0.04296   0.01586
   D17        0.14659  -0.00222  -0.02424  -0.08552  -0.10889   0.03770
   D18       -3.05302  -0.00044  -0.01283  -0.03884  -0.05255  -3.10556
   D19       -0.00283   0.00005  -0.00148  -0.00060  -0.00181  -0.00464
   D20        3.13921   0.00003  -0.00088  -0.00075  -0.00155   3.13766
   D21        3.14126  -0.00001  -0.00143  -0.00145  -0.00250   3.13877
   D22        0.00012  -0.00004  -0.00082  -0.00161  -0.00224  -0.00212
   D23       -0.00190  -0.00009  -0.00129  -0.00379  -0.00510  -0.00700
   D24       -3.14108  -0.00005   0.00051  -0.00086  -0.00044  -3.14152
   D25        3.13924  -0.00007  -0.00189  -0.00363  -0.00536   3.13389
   D26        0.00006  -0.00002  -0.00009  -0.00070  -0.00070  -0.00063
   D27        1.06652   0.00596   0.00668   0.01972   0.05066   1.11718
   D28       -3.07930  -0.00189  -0.02868  -0.06045  -0.08336   3.12053
   D29       -0.96901  -0.00681  -0.05737  -0.10240  -0.18982  -1.15883
         Item               Value     Threshold  Converged?
 Maximum Force            0.049358     0.000450     NO 
 RMS     Force            0.009841     0.000300     NO 
 Maximum Displacement     0.837189     0.001800     NO 
 RMS     Displacement     0.151931     0.001200     NO 
 Predicted change in Energy=-1.808037D-02
 GradGradGradGradGradGradGradGradGradGradGradGradGradGradGradGradGradGrad

                          Input orientation:                          
 ---------------------------------------------------------------------
 Center     Atomic      Atomic             Coordinates (Angstroms)
 Number     Number       Type             X           Y           Z
 ---------------------------------------------------------------------
      1          6           0       -0.549588   -1.152711   -0.011094
      2          6           0        0.846822   -1.232615   -0.013012
      3          6           0        1.578523   -0.043997    0.020594
      4          6           0        0.961339    1.209834    0.037977
      5          6           0       -0.427986    1.283540    0.040836
      6          6           0       -1.204633    0.097893    0.020562
      7          1           0       -1.131293   -2.057233   -0.037208
      8          1           0        1.315913   -2.199960   -0.054449
      9          1           0        1.578608    2.090035    0.050405
     10          1           0       -0.913814    2.242697    0.057819
     11          6           0       -2.566303    0.162652    0.023145
     12          6           0       -3.786504    0.219554    0.024909
     13         35           0       -5.563141    0.302311    0.027595
     14          8           0        2.920237    0.047659    0.041901
     15          6           0        3.717140   -1.181340   -0.018577
     16          1           0        3.625707   -1.776112   -0.952388
     17          1           0        4.685468   -0.665077   -0.000626
     18          1           0        3.661956   -1.884946    0.840646
 ---------------------------------------------------------------------
                    Distance matrix (angstroms):
                    1          2          3          4          5
     1  C    0.000000
     2  C    1.398695   0.000000
     3  C    2.399814   1.396184   0.000000
     4  C    2.804804   2.445664   1.397609   0.000000
     5  C    2.439837   2.821183   2.406002   1.391282   0.000000
     6  C    1.412125   2.445372   2.786771   2.434779   1.417516
     7  H    1.075743   2.143249   3.376324   3.880527   3.414894
     8  H    2.139791   1.075881   2.173194   3.429426   3.896799
     9  H    3.879227   3.402872   2.134240   1.075142   2.162625
    10  H    3.415582   3.896492   3.382617   2.140887   1.075313
    11  C    2.408006   3.687478   4.149975   3.679818   2.414353
    12  C    3.515968   4.855712   5.371498   4.850034   3.523061
    13  Br   5.220565   6.591302   7.150059   6.587301   5.228078
    14  O    3.671972   2.437451   1.345010   2.277707   3.569034
    15  C    4.266830   2.870781   2.422553   3.649020   4.822990
    16  H    4.325246   2.983290   2.852697   4.122567   5.174978
    17  H    5.257728   3.880394   3.168484   4.169642   5.472315
    18  H    4.358753   3.013179   2.898667   4.185125   5.235134
                    6          7          8          9         10
     6  C    0.000000
     7  H    2.157148   0.000000
     8  H    3.411584   2.451426   0.000000
     9  H    3.422857   4.954904   4.299309   0.000000
    10  H    2.164751   4.306475   4.972071   2.497103   0.000000
    11  C    1.363211   2.644009   4.545279   4.571196   2.656785
    12  C    2.584739   3.498251   5.647566   5.681881   3.513764
    13  Br   4.363305   5.021247   7.320483   7.362136   5.038080
    14  O    4.125231   4.566369   2.763138   2.443633   4.417962
    15  C    5.085451   4.926950   2.608594   3.908960   5.759826
    16  H    5.271690   4.852384   2.514178   4.488129   6.146429
    17  H    5.939348   5.981149   3.703061   4.152809   6.309557
    18  H    5.318635   4.876018   2.530681   4.556895   6.211918
                   11         12         13         14         15
    11  C    0.000000
    12  C    1.221528   0.000000
    13  Br   3.000094   1.778565   0.000000
    14  O    5.487777   6.708965   8.487211   0.000000
    15  C    6.425706   7.633417   9.398242   1.465998   0.000000
    16  H    6.561361   7.738131   9.471808   2.193728   1.110908
    17  H    7.298895   8.518070  10.294203   1.904164   1.097501
    18  H    6.606979   7.782924   9.515648   2.218806   1.111922
                   16         17         18
    16  H    0.000000
    17  H    1.806472   0.000000
    18  H    1.796699   1.800943   0.000000
 Stoichiometry    C9H7BrO
 Framework group  C1[X(C9H7BrO)]
 Deg. of freedom    48
 Full point group                 C1      NOp   1
 Largest Abelian subgroup         C1      NOp   1
 Largest concise Abelian subgroup C1      NOp   1
                         Standard orientation:                         
 ---------------------------------------------------------------------
 Center     Atomic      Atomic             Coordinates (Angstroms)
 Number     Number       Type             X           Y           Z
 ---------------------------------------------------------------------
      1          6           0       -1.160768   -1.079287    0.001352
      2          6           0       -2.558638   -1.031250    0.000909
      3          6           0       -3.178595    0.219731   -0.004518
      4          6           0       -2.449395    1.411962    0.008269
      5          6           0       -1.059144    1.358424    0.007620
      6          6           0       -0.394125    0.106610   -0.000196
      7          1           0       -0.664205   -2.033554    0.006029
      8          1           0       -3.114251   -1.952382    0.019063
      9          1           0       -2.983630    2.344942    0.016680
     10          1           0       -0.487674    2.269294    0.013722
     11          6           0        0.967769    0.046686   -0.000790
     12          6           0        2.188066   -0.008148   -0.000800
     13         35           0        3.964834   -0.088079   -0.000933
     14          8           0       -4.506266    0.434114   -0.024062
     15          6           0       -5.412271   -0.717994    0.006770
     16          1           0       -5.377903   -1.340661    0.926129
     17          1           0       -6.329333   -0.115108    0.000849
     18          1           0       -5.419450   -1.403075   -0.869005
 ---------------------------------------------------------------------
 Rotational constants (GHZ):      4.7057902      0.2112508      0.2024401
 Standard basis: 6-31G (6D, 7F)
 There are   128 symmetry adapted cartesian basis functions of A   symmetry.
 There are   128 symmetry adapted basis functions of A   symmetry.
   128 basis functions,   325 primitive gaussians,   128 cartesian basis functions
    52 alpha electrons       52 beta electrons
       nuclear repulsion energy       710.7763135556 Hartrees.
 NAtoms=   18 NActive=   18 NUniq=   18 SFac= 1.00D+00 NAtFMM=   60 NAOKFM=F Big=F
 Integral buffers will be    131072 words long.
 Raffenetti 2 integral format.
 Two-electron integral symmetry is turned on.
 Nuclear repulsion after empirical dispersion term =      710.7637008190 Hartrees.
 One-electron integrals computed using PRISM.
 NBasis=   128 RedAO= T EigKep=  2.97D-04  NBF=   128
 NBsUse=   128 1.00D-06 EigRej= -1.00D+00 NBFU=   128
 Initial guess from the checkpoint file:  "E:\PROJECT- VIT group\ML\Substrates\molecule_18.chk"
 B after Tr=     0.000000    0.000000    0.000000
         Rot=    0.999996   -0.002668   -0.000069    0.000814 Ang=  -0.32 deg.
 ExpMin= 1.43D-01 ExpMax= 5.74D+05 ExpMxC= 5.74D+03 IAcc=2 IRadAn=         4 AccDes= 0.00D+00
 Harris functional with IExCor=  402 and IRadAn=       4 diagonalized for initial guess.
 HarFok:  IExCor=  402 AccDes= 0.00D+00 IRadAn=         4 IDoV= 1 UseB2=F ITyADJ=14
 ICtDFT=  3500011 ScaDFX=  1.000000  1.000000  1.000000  1.000000
 FoFCou: FMM=F IPFlag=           0 FMFlag=      100000 FMFlg1=           0
         NFxFlg=           0 DoJE=T BraDBF=F KetDBF=T FulRan=T
         wScrn=  0.000000 ICntrl=     500 IOpCl=  0 I1Cent=   200000004 NGrid=           0
         NMat0=    1 NMatS0=      1 NMatT0=    0 NMatD0=    1 NMtDS0=    0 NMtDT0=    0
 Petite list used in FoFCou.
 Requested convergence on RMS density matrix=1.00D-08 within 128 cycles.
 Requested convergence on MAX density matrix=1.00D-06.
 Requested convergence on             energy=1.00D-06.
 No special actions if energy rises.
 Integral accuracy reduced to 1.0D-05 until final iterations.
 Initial convergence to 1.0D-05 achieved.  Increase integral accuracy.
 DSYEVD-2 returned Info=       12641 IAlg= 4 N=   128 NDim=   128 NE2=      261727 trying  DSYEV.
 DSYEVD-2 returned Info=       12641 IAlg= 4 N=   128 NDim=   128 NE2=      261727 trying  DSYEV.
 SCF Done:  E(RB3LYP) =  -2993.77147656     A.U. after   17 cycles
            NFock= 17  Conv=0.27D-08     -V/T= 2.0043
 Calling FoFJK, ICntrl=      2127 FMM=F ISym2X=0 I1Cent= 0 IOpClX= 0 NMat=1 NMatS=1 NMatT=0.
 ***** Axes restored to original set *****
 -------------------------------------------------------------------
 Center     Atomic                   Forces (Hartrees/Bohr)
 Number     Number              X              Y              Z
 -------------------------------------------------------------------
      1        6           0.009154310    0.006284813   -0.000065615
      2        6          -0.010889893    0.004539277   -0.000655927
      3        6          -0.019780612    0.005987836    0.000105085
      4        6          -0.021630539   -0.002467146    0.000402461
      5        6           0.011044883   -0.005785657   -0.000150553
      6        6           0.045746710   -0.003286321   -0.000390388
      7        1          -0.004439309   -0.004499192   -0.000075224
      8        1           0.004647679   -0.003461154    0.000834629
      9        1           0.003399562    0.004199271    0.000351980
     10        1          -0.004388777    0.004955797    0.000045103
     11        6          -0.068433982    0.003361252    0.000172933
     12        6           0.040498699   -0.001923375   -0.000025506
     13       35          -0.028440542    0.001384426    0.000041927
     14        8           0.024833245   -0.024815545    0.000492268
     15        6           0.029038493    0.009255143   -0.001719383
     16        1          -0.006638150    0.010695819    0.005127631
     17        1           0.005800008   -0.017387914   -0.001382055
     18        1          -0.009521784    0.012962670   -0.003109365
 -------------------------------------------------------------------
 Cartesian Forces:  Max     0.068433982 RMS     0.015913851

 GradGradGradGradGradGradGradGradGradGradGradGradGradGradGradGradGradGrad
 Berny optimization.
 Using GEDIIS/GDIIS optimizer.
 FormGI is forming the generalized inverse of G from B-inverse, IUseBI=4.
 GSVD:  received Info=                   1 from GESDD.
 Internal  Forces:  Max     0.056447060 RMS     0.011125347
 Search for a local minimum.
 Step number   3 out of a maximum of   86
 All quantities printed in internal units (Hartrees-Bohrs-Radians)
 Mixed Optimization -- RFO/linear search
 Update second derivatives using D2CorX and points    2    3
 DE= -1.11D-03 DEPred=-1.81D-02 R= 6.15D-02
 Trust test= 6.15D-02 RLast= 6.84D-01 DXMaxT set to 2.52D-01
 ITU= -1  1  0
 Use linear search instead of GDIIS.
 Linear search step of   0.299 exceeds DXMaxT=   0.252 but not scaled.
 Quartic linear search produced a step of -0.47355.
 Iteration  1 RMS(Cart)=  0.07267358 RMS(Int)=  0.00648083
 Iteration  2 RMS(Cart)=  0.00632785 RMS(Int)=  0.00143964
 Iteration  3 RMS(Cart)=  0.00003300 RMS(Int)=  0.00143943
 Iteration  4 RMS(Cart)=  0.00000004 RMS(Int)=  0.00143943
 Variable       Old X    -DE/DX   Delta X   Delta X   Delta X     New X
                                 (Linear)    (Quad)   (Total)
    R1        2.64315   0.00044  -0.00119   0.00000  -0.00119   2.64196
    R2        2.66853   0.00026  -0.01325   0.00000  -0.01322   2.65531
    R3        2.03286   0.00619   0.01446   0.00000   0.01446   2.04732
    R4        2.63841   0.00315   0.00830   0.00000   0.00827   2.64668
    R5        2.03312   0.00511   0.00988   0.00000   0.00988   2.04300
    R6        2.64110   0.01008  -0.00004   0.00000  -0.00007   2.64103
    R7        2.54170   0.04277   0.12044   0.00000   0.12044   2.66214
    R8        2.62914  -0.00116   0.00238   0.00000   0.00238   2.63152
    R9        2.03172   0.00539   0.01496   0.00000   0.01496   2.04668
   R10        2.67872   0.00135  -0.01655   0.00000  -0.01653   2.66219
   R11        2.03205   0.00640   0.01479   0.00000   0.01479   2.04684
   R12        2.57610   0.05645   0.11657   0.00000   0.11657   2.69266
   R13        2.30835  -0.01207  -0.01486   0.00000  -0.01486   2.29349
   R14        3.36100   0.02847   0.08761   0.00000   0.08761   3.44861
   R15        2.77033  -0.00282  -0.01162   0.00000  -0.01162   2.75872
   R16        2.09931  -0.00949  -0.02521   0.00000  -0.02521   2.07410
   R17        2.07398  -0.00308  -0.01757   0.00000  -0.01757   2.05641
   R18        2.10123  -0.01013  -0.02866   0.00000  -0.02866   2.07257
    A1        2.11033   0.00346  -0.00515   0.00000  -0.00513   2.10520
    A2        2.08495  -0.00041   0.00311   0.00000   0.00310   2.08805
    A3        2.08790  -0.00305   0.00204   0.00000   0.00203   2.08993
    A4        2.06525   0.00559   0.01291   0.00000   0.01288   2.07812
    A5        2.07912  -0.00006  -0.00287   0.00000  -0.00285   2.07627
    A6        2.13871  -0.00552  -0.00999   0.00000  -0.00996   2.12876
    A7        2.13249  -0.01142  -0.02202   0.00000  -0.02199   2.11050
    A8        2.19098  -0.00684   0.00048   0.00000   0.00063   2.19161
    A9        1.95971   0.01827   0.02087   0.00000   0.02102   1.98073
   A10        2.08120   0.00460   0.01034   0.00000   0.01029   2.09149
   A11        2.07267  -0.00268   0.00514   0.00000   0.00517   2.07784
   A12        2.12931  -0.00193  -0.01549   0.00000  -0.01546   2.11385
   A13        2.09761   0.00342  -0.00156   0.00000  -0.00155   2.09606
   A14        2.09261  -0.00001   0.00060   0.00000   0.00059   2.09320
   A15        2.09297  -0.00342   0.00096   0.00000   0.00096   2.09392
   A16        2.07936  -0.00565   0.00552   0.00000   0.00557   2.08493
   A17        2.10071   0.00311  -0.00220   0.00000  -0.00222   2.09849
   A18        2.10309   0.00254  -0.00331   0.00000  -0.00333   2.09976
   A19        2.07656   0.00604  -0.02041   0.00000  -0.02041   2.05615
   A20        2.02503  -0.01443  -0.07484   0.00000  -0.07131   1.95372
   A21        1.65548   0.03482   0.18102   0.00000   0.17945   1.83493
   A22        2.06193  -0.02066  -0.09838   0.00000  -0.09554   1.96639
   A23        1.91581  -0.00327  -0.00563   0.00000  -0.00642   1.90939
   A24        1.88250   0.00933   0.01163   0.00000   0.01835   1.90084
   A25        1.90584  -0.00209  -0.00714   0.00000  -0.00941   1.89642
   A26        3.14252  -0.00023  -0.00031   0.00000  -0.00031   3.14221
   A27        3.14164  -0.00019   0.00014   0.00000   0.00014   3.14178
   A28        3.14106   0.00005   0.00023   0.00000   0.00023   3.14129
   A29        3.14170  -0.00001  -0.00003   0.00000  -0.00003   3.14167
    D1        0.00278  -0.00002  -0.00037   0.00000  -0.00038   0.00240
    D2       -3.12357  -0.00029  -0.00694   0.00000  -0.00696  -3.13053
    D3        3.14102   0.00007   0.00086   0.00000   0.00086  -3.14130
    D4        0.01468  -0.00020  -0.00571   0.00000  -0.00572   0.00896
    D5        0.00795  -0.00012  -0.00267   0.00000  -0.00265   0.00530
    D6       -3.14070   0.00006  -0.00047   0.00000  -0.00047  -3.14117
    D7       -3.13029  -0.00021  -0.00391   0.00000  -0.00390  -3.13419
    D8        0.00424  -0.00003  -0.00171   0.00000  -0.00172   0.00252
    D9       -0.01499   0.00031   0.00395   0.00000   0.00401  -0.01098
   D10        3.12478   0.00030  -0.02384   0.00000  -0.02402   3.10075
   D11        3.11080   0.00064   0.01076   0.00000   0.01087   3.12167
   D12       -0.03262   0.00064  -0.01703   0.00000  -0.01716  -0.04978
   D13        0.01601  -0.00032  -0.00422   0.00000  -0.00426   0.01174
   D14       -3.12734  -0.00027  -0.00457   0.00000  -0.00459  -3.13193
   D15       -3.12398  -0.00030   0.02069   0.00000   0.02061  -3.10337
   D16        0.01586  -0.00024   0.02034   0.00000   0.02028   0.03614
   D17        0.03770  -0.00011   0.05156   0.00000   0.05135   0.08905
   D18       -3.10556  -0.00014   0.02488   0.00000   0.02509  -3.08047
   D19       -0.00464   0.00005   0.00086   0.00000   0.00081  -0.00383
   D20        3.13766   0.00007   0.00073   0.00000   0.00072   3.13838
   D21        3.13877  -0.00001   0.00118   0.00000   0.00113   3.13989
   D22       -0.00212   0.00001   0.00106   0.00000   0.00103  -0.00109
   D23       -0.00700   0.00011   0.00242   0.00000   0.00241  -0.00458
   D24       -3.14152  -0.00008   0.00021   0.00000   0.00022  -3.14130
   D25        3.13389   0.00010   0.00254   0.00000   0.00251   3.13640
   D26       -0.00063  -0.00009   0.00033   0.00000   0.00031  -0.00032
   D27        1.11718  -0.01179  -0.02399   0.00000  -0.02975   1.08744
   D28        3.12053  -0.00009   0.03947   0.00000   0.03825  -3.12441
   D29       -1.15883   0.01229   0.08989   0.00000   0.09686  -1.06196
         Item               Value     Threshold  Converged?
 Maximum Force            0.056447     0.000450     NO 
 RMS     Force            0.011125     0.000300     NO 
 Maximum Displacement     0.380546     0.001800     NO 
 RMS     Displacement     0.072837     0.001200     NO 
 Predicted change in Energy=-1.473837D-02
 GradGradGradGradGradGradGradGradGradGradGradGradGradGradGradGradGradGrad

                          Input orientation:                          
 ---------------------------------------------------------------------
 Center     Atomic      Atomic             Coordinates (Angstroms)
 Number     Number       Type             X           Y           Z
 ---------------------------------------------------------------------
      1          6           0       -0.536568   -1.145256   -0.002257
      2          6           0        0.859867   -1.212679   -0.006269
      3          6           0        1.598618   -0.022995    0.015493
      4          6           0        0.958906    1.219515    0.027781
      5          6           0       -0.432201    1.282471    0.032542
      6          6           0       -1.193039    0.096888    0.020325
      7          1           0       -1.117132   -2.059814   -0.018686
      8          1           0        1.337079   -2.182359   -0.034295
      9          1           0        1.559954    2.120454    0.035422
     10          1           0       -0.929626    2.244555    0.045081
     11          6           0       -2.616700    0.156042    0.024769
     12          6           0       -3.829344    0.205677    0.028253
     13         35           0       -5.652750    0.279959    0.033573
     14          8           0        3.003644    0.068407    0.061354
     15          6           0        3.769979   -1.171062   -0.025876
     16          1           0        3.606948   -1.687687   -0.980429
     17          1           0        4.812144   -0.866453    0.046882
     18          1           0        3.548673   -1.863481    0.795373
 ---------------------------------------------------------------------
                    Distance matrix (angstroms):
                    1          2          3          4          5
     1  C    0.000000
     2  C    1.398067   0.000000
     3  C    2.412220   1.400562   0.000000
     4  C    2.798121   2.434447   1.397573   0.000000
     5  C    2.430218   2.810110   2.414282   1.392539   0.000000
     6  C    1.405128   2.435178   2.794234   2.427183   1.408770
     7  H    1.083394   2.150887   3.394864   3.881506   3.412130
     8  H    2.141767   1.081110   2.175715   3.423392   3.890999
     9  H    3.880939   3.406117   2.143891   1.083056   2.161228
    10  H    3.412851   3.893249   3.396274   2.148851   1.083141
    11  C    2.453784   3.736426   4.219129   3.730409   2.457833
    12  C    3.559259   4.899145   5.432792   4.894406   3.563718
    13  Br   5.311105   6.681596   7.257716   6.678083   5.315935
    14  O    3.743010   2.498307   1.408743   2.346727   3.644148
    15  C    4.306690   2.910476   2.456538   3.690510   4.866370
    16  H    4.291827   2.953147   2.792212   4.059610   5.114946
    17  H    5.356198   3.967769   3.322522   4.381673   5.667559
    18  H    4.223891   2.880252   2.792547   4.098896   5.130914
                    6          7          8          9         10
     6  C    0.000000
     7  H    2.158390   0.000000
     8  H    3.405797   2.457318   0.000000
     9  H    3.416727   4.964309   4.309146   0.000000
    10  H    2.163902   4.308923   4.974115   2.492690   0.000000
    11  C    1.424897   2.675932   4.593907   4.615569   2.684869
    12  C    2.638561   3.534225   5.691973   5.719350   3.544809
    13  Br   4.463486   5.103832   7.411162   7.443825   5.115434
    14  O    4.196980   4.638591   2.802238   2.509145   4.495164
    15  C    5.122634   4.967272   2.634729   3.965104   5.810143
    16  H    5.217863   4.835324   2.508421   4.441179   6.090542
    17  H    6.082018   6.048530   3.716755   4.415709   6.530413
    18  H    5.189179   4.740356   2.383522   4.517108   6.123239
                   11         12         13         14         15
    11  C    0.000000
    12  C    1.213664   0.000000
    13  Br   3.038590   1.824926   0.000000
    14  O    5.621147   6.834447   8.659023   0.000000
    15  C    6.523301   7.723216   9.533983   1.459850   0.000000
    16  H    6.568376   7.739555   9.520600   2.129120   1.097567
    17  H    7.498914   8.707762  10.527508   2.035889   1.088203
    18  H    6.533309   7.700975   9.478441   2.137296   1.096755
                   16         17         18
    16  H    0.000000
    17  H    1.783897   0.000000
    18  H    1.785434   1.775011   0.000000
 Stoichiometry    C9H7BrO
 Framework group  C1[X(C9H7BrO)]
[...]
 6,-0.1376727,-0.003656,-0.0007911,-0.0036974,-0.0005206,0.0316229,-0.0
 701709,-0.0017676,-0.0784766,-0.0343723,-0.004258,-0.0019856,-0.004265
 4,0.127831,0.0147976,0.0746293,0.0021492,0.1019738,-0.0410052,-0.00512
 53,0.0028777,-0.0050863,0.1457778,0.0160009,-0.0688111,-0.0016918,-0.0
 74925,-0.0030568,-0.0038906,-0.0018457,-0.0038937,0.1453773,0.0471936,
 0.0754374,0.0021157,0.0668731,-0.0443855,-0.0047008,0.001889,-0.004715
 2,0.1280706,-0.0354801,-0.0097493,-0.0001177,-0.0075682,-0.0210054,-0.
 0031542,-0.0000305,-0.0031543,0.0969976,0.3118297,-0.0171674,-0.001175
 7,-0.0210116,-0.2138546,0.0019577,-0.0012303,0.0019502,-0.2859287,-0.3
 800952,0.0266205,0.0013165,0.0184499,0.1072503,-0.0004508,0.0010483,-0
 .0004575,0.1232355,-2.0739751,0.4345438,0.0136431,0.2867874,-0.4537706
 ,-0.0023819,0.0097083,-0.0025848,-0.3772669,0.692475,-0.2073957,-0.005
 9456,-0.64322,0.5279848,0.0053919,-0.0176445,0.0048904,0.3545656,0.039
 2157,-0.0286874,-0.0690964,0.1401976,-0.0507845,-0.0790143,-0.005375,-
 0.0855025,-0.091408,-0.1466213,-0.0052342,0.0001828,-0.0360946,0.05998
 03,-0.00112,-0.0006379,-0.001161,0.1039228,0.0394003,-0.0320942,0.0671
 303,0.1399559,-0.0596835,0.0803898,0.0125332,0.0872925,-0.0827337|Pola
 r=214.9558325,-12.3616669,88.4833902,-0.5391117,1.3318871,39.3498599|P
 G=C01 [X(C9H7Br1O1)]|NImag=0||0.71312284,0.03959559,0.71731732,0.00039
 032,0.01542089,0.14050421,-0.34920247,-0.01923442,-0.00017890,0.706412
 17,0.03843384,-0.12776516,-0.00182806,-0.03772167,0.73177073,0.0013661
 3,-0.00175976,-0.06126269,-0.00168120,0.01613020,0.13147296,-0.0351843
 6,-0.03387222,-0.00086272,-0.17187139,-0.10521019,-0.00269748,0.661231
 27,-0.07615100,0.03813031,0.00102928,-0.04081651,-0.28021227,-0.005615
 76,-0.00961910,0.71858223,-0.00199564,0.00097911,0.00309514,-0.0009726
 8,-0.00554098,-0.06891574,-0.00085210,0.01506005,0.15738324,-0.0423227
 0,0.02766426,0.00078653,0.05614456,0.01098169,0.00023908,-0.14610771,0
 .03841136,0.00112036,0.74872714,0.02552350,-0.01895358,-0.00043689,-0.
 02238338,-0.04954596,-0.00153353,0.10212838,-0.29152211,-0.00608865,0.
 04122438,0.71750638,0.00072878,-0.00043890,-0.00378954,-0.00065509,-0.
 00157251,0.00863849,0.00282748,-0.00601366,-0.06896928,0.00037782,0.01
 564333,0.13215255,0.05540055,-0.02269350,-0.00066219,-0.04734386,-0.02
 148561,-0.00052497,-0.03074261,0.07675604,0.00209572,-0.37132789,-0.01
 935552,-0.00015439,0.72201485,0.01328192,-0.05919853,-0.00185610,-0.02
 612081,-0.01410910,-0.00023477,0.03442926,0.03183948,0.00073930,0.0368
 2331,-0.13189054,-0.00196105,-0.04871626,0.71369984,0.00030170,-0.0018
 1557,0.00948067,-0.00064921,-0.00023965,-0.00422851,0.00096200,0.00068
 908,0.00276712,0.00134953,-0.00189519,-0.06033325,-0.00198592,0.015418
 25,0.14068486,-0.15455362,0.09908061,0.00275685,-0.03028413,0.03004131
 ,0.00084853,0.00656735,-0.00113338,-0.00004480,-0.03726090,-0.02650788
 ,-0.00065821,-0.16196781,-0.10084282,-0.00259054,0.70051637,0.05230921
 ,-0.27606499,-0.00561720,0.06933421,0.02431171,0.00037975,-0.00067326,
 -0.06932449,-0.00169958,-0.06349956,0.03344254,0.00079446,-0.05394699,
 -0.25464862,-0.00493273,-0.00816425,0.63764575,0.00150354,-0.00567133,
 -0.06892275,0.00190119,0.00042659,0.00710496,-0.00003320,-0.00169881,-
 0.00590801,-0.00165000,0.00075037,0.00657776,-0.00133488,-0.00487917,-
 0.06824647,-0.00084586,0.01266437,0.16569030,-0.13962082,-0.12934200,-
 0.00334741,-0.01332860,-0.02848694,-0.00074311,-0.00439921,0.00236314,
 0.00007722,-0.00039960,0.00062348,0.00001644,-0.00127558,0.00284953,0.
 00008472,0.00988719,0.01687481,0.00044601,0.14743115,-0.12762376,-0.26
 533710,-0.00592967,0.00517595,0.00495012,0.00002375,0.00163341,0.00143
 184,-0.00016510,0.00082410,0.00045505,0.00002732,0.00390203,-0.0030526
 6,-0.00024225,-0.01792367,-0.01931845,-0.00061662,0.13550975,0.2799241
 7,-0.00330186,-0.00592649,-0.03863239,0.00015938,0.00006324,0.00384016
 ,0.00005767,-0.00016617,0.00751504,0.00002162,0.00002779,-0.00059851,0
 .00011331,-0.00024069,0.00580505,-0.00048676,-0.00065898,0.00447420,0.
 00348899,0.00663992,0.02638330,-0.01145096,0.03141612,0.00085794,-0.11
 618353,0.11425344,0.00315272,0.01204550,-0.01708104,-0.00046640,-0.001
 88416,-0.00288014,-0.00006899,-0.00068622,-0.00069203,-0.00001801,-0.0
 0453827,-0.00141853,-0.00002476,0.00066779,-0.00038291,-0.00001602,0.1
 2750454,-0.00292398,0.00238601,-0.00000558,0.11316822,-0.29003273,-0.0
 0696407,0.01730967,-0.01979318,-0.00066186,-0.00396556,-0.00249691,-0.
 00019868,-0.00102511,0.00035460,0.00001791,-0.00097746,0.00211811,-0.0
 0012993,0.00028085,0.00100209,0.00014193,-0.12376655,0.30530338,-0.000
 06101,-0.00004605,0.00272144,0.00312295,-0.00696415,-0.03498936,0.0004
 5399,-0.00062267,0.00415313,-0.00009809,-0.00020029,0.00509229,-0.0000
 2719,0.00001737,-0.00026684,-0.00001249,-0.00012926,0.00701386,0.00000
 167,0.00014288,-0.00430894,-0.00343348,0.00765981,0.02475700,-0.000456
 14,0.00073729,0.00001972,-0.00142621,0.00249363,0.00007444,0.01029939,
 0.01563255,0.00041231,-0.14558365,-0.13337180,-0.00344324,-0.01238452,
 -0.02849420,-0.00074502,-0.00400451,0.00210700,0.00006997,0.00006316,-
 0.00010877,-0.00000409,0.00043972,0.00076901,0.00002022,0.15195848,0.0
 0123885,0.00022696,0.00001767,0.00383414,-0.00308165,-0.00022181,-0.02
 016857,-0.02070439,-0.00066038,-0.13091810,-0.26193218,-0.00587926,0.0
 0470733,0.00597689,0.00007490,0.00163858,0.00168275,-0.00016157,-0.000
 09903,-0.00001935,0.00002417,-0.00087227,-0.00096866,-0.00002768,0.141
 67159,0.27565601,0.00003310,0.00001834,-0.00048635,0.00011049,-0.00022
 029,0.00502629,-0.00054680,-0.00070302,0.00482013,-0.00337707,-0.00587
 564,-0.03679181,0.00014398,0.00011383,0.00297383,0.00005747,-0.0001623
 1,0.00764111,-0.00000381,0.00002419,-0.00091675,-0.00002380,-0.0000295
 9,0.00010020,0.00364501,0.00652957,0.02577898,-0.00174331,-0.00303751,
 -0.00007296,-0.00060801,-0.00050126,-0.00001326,-0.00417639,-0.0018110
 7,-0.00003393,-0.01105058,0.03034863,0.00083066,-0.12194934,0.11876866
 ,0.00327848,0.00978276,-0.01894930,-0.00051402,0.00055678,-0.00083569,
 -0.00002258,0.00007345,0.00009034,0.00000118,0.00069501,-0.00041653,-0
 .00001748,0.12833475,-0.00398457,-0.00248845,-0.00020746,-0.00065464,0
 .00057941,0.00002854,-0.00129245,0.00157803,-0.00017932,-0.00371921,0.
 00323165,-0.00001615,0.11739325,-0.28396365,-0.00669471,0.01557382,-0.
 01899706,-0.00063932,0.00070599,-0.00101069,-0.00003865,0.00008914,-0.
 00004982,0.00002478,0.00039336,0.00087215,0.00014855,-0.12480135,0.299
 34831,-0.00009817,-0.00020877,0.00543002,-0.00001744,0.00002829,-0.000
 45736,-0.00002000,-0.00017858,0.00832462,-0.00008188,-0.00005582,0.003
 99525,0.00324177,-0.00669733,-0.03936073,0.00041044,-0.00059778,0.0041
 5831,0.00001873,-0.00003680,0.00039877,0.00000115,0.00002475,-0.000977
 69,0.00000421,0.00014950,-0.00468773,-0.00346241,0.00745244,0.02680837
 ,-0.04102296,0.01777987,0.00052916,0.00662836,0.00378849,0.00010244,-0
 .00372431,0.00006476,0.00000544,0.00635371,-0.00487483,-0.00012972,-0.
 04408763,-0.01378432,-0.00031333,-0.31078973,0.00815536,0.00046947,0.0
 0130732,-0.00114698,-0.00003750,-0.00036836,0.00006679,0.00000302,-0.0
 0047993,0.00000036,0.00000121,0.00137426,0.00111864,0.00002363,1.44310
 249,0.03517286,0.00151902,-0.00012634,0.00112735,-0.00426589,-0.000310
 75,0.00032934,-0.00156057,-0.00002904,-0.00213636,-0.00411595,-0.00029
 591,-0.03149268,0.00532060,0.00006523,0.00850519,-0.08100695,0.0001536
 2,0.00044230,0.00076883,0.00013748,0.00128750,0.00009866,-0.00001540,-
 0.00121215,0.00026731,-0.00000504,-0.00045953,0.00067583,0.00012487,-0
 .04907238,0.13347552,0.00099551,-0.00010682,0.00464635,0.00003116,-0.0
 0031524,0.00729561,0.00001351,-0.00002869,-0.00049247,-0.00005607,-0.0
 0029147,0.00699643,-0.00078742,0.00004525,0.00431006,0.00049334,0.0001
 5359,-0.08709103,0.00000501,0.00013898,-0.00437406,0.00003577,-0.00001
 387,0.00061234,-0.00003122,-0.00000649,0.00051135,-0.00001874,0.000123
 37,-0.00396526,-0.00284837,-0.00052771,0.15533503,0.00610905,-0.009045
 35,-0.00024954,-0.00236805,-0.00002118,0.00000106,0.00203043,-0.000068
 48,-0.00000427,-0.00241942,0.00028752,0.00000944,0.00654137,0.00812177
 ,0.00020996,-0.02334848,0.00166620,0.00011514,-0.00011401,0.00100456,0
 .00002769,-0.00024987,-0.00009153,-0.00000232,-0.00020409,0.00010482,0
 .00000288,-0.00019031,-0.00098198,-0.00002553,-1.05750975,0.03715463,0
 .00214181,1.32084491,0.00039698,-0.00070407,-0.00002136,-0.00024325,-0
 .00005700,0.00001581,-0.00013758,0.00068286,0.00002058,0.00046132,-0.0
 0007100,0.00001635,-0.00094539,-0.00131143,-0.00004074,0.00138253,0.01
 200695,-0.00044434,-0.00001782,0.00008372,-0.00000759,-0.00008167,-0.0
 0009955,0.00000070,0.00007701,-0.00011130,0.00000024,0.00004493,0.0001
 6771,-0.00000430,0.03714806,-0.06387675,0.00090544,-0.04691473,0.07966
 914,0.00000369,-0.00001000,0.00012120,-0.00000448,0.00001641,-0.000651
 38,-0.00000691,0.00002045,-0.00007806,0.00001434,0.00001565,-0.0006853
 9,-0.00003281,-0.00005159,0.00020333,0.00009056,-0.00044410,0.02850282
 ,0.00000021,-0.00000857,0.00036630,-0.00000207,0.00000069,-0.00012040,
 0.00000212,0.00000021,-0.00012493,0.00000193,-0.00000330,0.00032703,0.
 00215027,0.00090516,-0.09930159,-0.00271687,-0.00045340,0.09867144,-0.
 00113047,-0.00004986,0.00000043,-0.00023807,-0.00018976,-0.00000513,0.
 00113589,0.00019512,0.00000398,-0.00012711,0.00015230,0.00000394,-0.00
 108440,0.00017106,0.00000630,0.00424639,-0.00004227,-0.00000626,0.0000
 8884,-0.00002588,-0.00000071,-0.00015948,0.00007284,0.00000210,-0.0001
 4659,-0.00003717,-0.00000085,0.00009341,0.00000811,0.00000017,-0.00232
 225,0.00053079,0.00003333,-0.24878087,0.00878298,0.00049810,0.24982761
 ,-0.00072528,-0.00015476,-0.00000715,-0.00000726,0.00019474,0.00001071
 ,-0.00003633,0.00002765,-0.00000129,0.00003592,0.00018634,0.00000963,0
 .00078901,-0.00022943,-0.00001050,-0.00005968,0.00270511,0.00007609,-0
 .00001143,-0.00002872,-0.00000375,-0.00004302,0.00000346,0.00000100,0.
 00005423,-0.00000052,0.00000069,0.00000160,-0.00002966,-0.00000348,0.0
 0052586,0.01232695,-0.00011113,0.00882119,-0.02639028,0.00001509,-0.00
 940165,0.01141561,-0.00001797,-0.00000802,0.00013754,-0.00000020,0.000
 01077,-0.00020235,-0.00000203,-0.00000154,0.00007730,0.00000087,0.0000
 0966,-0.00017623,0.00002256,-0.00000970,0.00013327,-0.00000604,0.00007
 607,-0.00012987,-0.00000030,-0.00000380,0.00011220,-0.00000100,0.00000
 087,-0.00003237,0.00000160,0.00000079,-0.00002841,0.00000003,-0.000003
 42,0.00009971,0.00004102,-0.00011146,0.01645223,0.00049101,0.00001545,
 -0.02734566,-0.00053261,0.00002513,0.01089283,0.00393332,-0.00138295,-
 0.00003397,-0.03957280,-0.00550752,-0.00009176,-0.26487788,-0.03139752
 ,-0.00057851,-0.04848133,0.01372178,0.00043112,0.00839307,0.00156941,0
 .00003748,-0.00540027,-0.00228185,-0.00005548,-0.00122672,-0.00006265,
 -0.00000043,0.00047773,0.00033601,0.00000555,0.00101535,-0.00086123,-0
 .00002807,-0.00085759,0.00028954,0.00000902,0.00206068,-0.00014797,-0.
 00000718,-0.00045564,0.00001572,0.00000129,-0.00175950,0.00007580,0.00
 000393,0.47262945,0.00370125,-0.00760720,-0.00038235,-0.03723131,0.003
 91302,-0.00007645,0.01452263,-0.10249828,-0.00168437,0.04848166,0.0043
 5801,-0.00008312,-0.00270955,-0.00791890,-0.00032927,0.00002815,0.0039
 5684,0.00013036,-0.00136843,0.00022272,0.00001081,0.00185356,0.0013067
 4,0.00011066,-0.00039834,0.00144435,0.00012375,0.00162741,-0.00004124,
 -0.00000858,-0.00006176,0.00035139,0.00002704,-0.00001799,0.00003298,-
 0.00000222,0.00018541,-0.00004175,-0.00000111,-0.09212147,0.32883667,0
 .00010197,-0.00037583,0.00647794,-0.00094047,-0.00011391,0.00839269,0.
 00065391,-0.00163031,-0.04036010,0.00136300,-0.00004238,0.00532943,-0.
 00007726,-0.00033436,0.00448100,0.00000605,0.00013301,-0.00090752,-0.0
 0003531,0.00000924,-0.00011919,0.00004567,0.00011221,-0.00289965,-0.00
 001559,0.00012422,-0.00315146,0.00004490,-0.00000701,0.00020742,-0.000
 00487,0.00002711,-0.00065265,0.00000021,-0.00000226,0.00011654,0.00000
 706,-0.00000099,-0.00000823,-0.00294985,0.00719734,0.06470377,-0.00037
 644,0.00173827,0.00004787,0.00254482,0.00079616,0.00001678,-0.04409648
 ,0.04023226,0.00112673,-0.00096787,-0.00575560,-0.00014979,-0.00130827
 ,0.00152765,0.00004431,0.00127606,0.00027811,0.00000606,0.00041682,0.0
 0005101,0.00000089,-0.00239934,0.00078711,0.00002405,0.00012228,0.0004
 0076,0.00000983,-0.00023647,-0.00014720,-0.00000401,-0.00060882,0.0000
 4623,0.00000161,0.00014302,0.00000800,-0.00000005,0.00040075,-0.000021
 73,-0.00000098,-0.10150366,0.02383072,0.00069119,0.58039162,0.00153469
 ,-0.00179153,-0.00006352,-0.00969805,0.00329219,0.00013986,0.01209740,
 -0.00224026,0.00004779,-0.00493496,0.00218777,-0.00000994,0.00016537,-
 0.00016253,-0.00004731,-0.00128884,0.00074860,0.00001624,-0.00054189,-
 0.00012692,-0.00000289,-0.00115412,-0.00053163,-0.00001574,-0.00009363
 ,0.00032138,0.00002650,-0.00031189,0.00018462,0.00001304,0.00060017,-0
 .00007577,0.00000534,-0.00009437,-0.00002498,-0.00000016,-0.00059949,0
 .00003202,0.00000092,0.06202196,-0.16472034,-0.00297971,0.08734127,0.4
 6631091,0.00004234,-0.00006435,0.00051855,-0.00026450,0.00012814,-0.00
 151482,0.00037345,0.00001533,-0.00456589,-0.00012816,-0.00000867,0.002
 77119,0.00000792,-0.00004882,0.00159072,-0.00003586,0.00001421,0.00020
 800,-0.00001502,-0.00000354,0.00000314,-0.00002763,-0.00001866,0.00011
 253,-0.00000345,0.00002590,-0.00066369,-0.00000841,0.00001283,-0.00028
 740,0.00001649,0.00000607,-0.00030575,-0.00000272,-0.00000038,-0.00001
 107,-0.00001651,0.00000030,0.00002182,0.00171550,-0.00293661,-0.056391
 88,0.00233170,-0.00292533,0.57162658,-0.00078161,0.00036867,-0.0005154
 5,0.00025485,-0.00088614,-0.00004634,0.00464571,0.00092079,0.00199329,
 -0.00115964,0.00067499,-0.00046133,0.00090069,0.00041870,-0.00022310,-
 0.00004919,-0.00089975,-0.00006329,-0.00000850,0.00000952,0.00003556,-
 0.00171902,-0.00017045,0.00145819,0.00004601,-0.00013807,0.00012030,-0
 .00000256,-0.00000308,0.00004652,0.00001934,-0.00003512,0.00011881,-0.
 00001321,0.00000940,-0.00000575,0.00001780,0.00000049,-0.00000647,-0.0
 0077160,0.01831163,0.01679427,-0.06630891,-0.03113952,-0.04938153,0.06
 685682,0.00002604,0.00002009,0.00000326,0.00092174,0.00069161,0.000468
 44,-0.00668536,0.00030428,-0.00098046,0.00130363,-0.00067998,0.0004045
 3,-0.00057766,-0.00010540,0.00028757,0.00036880,0.00030627,-0.00003893
 ,0.00007290,0.00003228,0.00001236,-0.00011737,0.00025763,-0.00007941,-
 0.00011039,0.00021055,-0.00021859,0.00005087,-0.00002924,-0.00005183,-
 0.00013769,0.00002432,-0.00002685,0.00003777,-0.00000053,0.00000900,0.
 00011563,-0.00000641,-0.00000105,0.00700144,-0.02955092,-0.02329777,-0
 .02797188,-0.10966014,-0.10243741,0.02583883,0.12997542,-0.00007913,0.
 00050854,-0.00006219,0.00038338,-0.00114239,-0.00000926,-0.00145145,-0
 .00012738,0.00033883,0.00054378,-0.00008388,-0.00021900,-0.00021180,0.
 00003663,0.00001821,0.00008562,0.00003390,-0.00006669,0.00004554,-0.00
 000574,0.00001113,0.00025115,0.00079705,-0.00022798,-0.00004292,0.0000
 8054,-0.00001377,0.00001661,0.00000260,0.00000826,-0.00006643,0.000061
 02,0.00002189,0.00000686,0.00000108,0.00000551,0.00002431,-0.00000465,
 -0.00000268,0.00305466,-0.00168563,0.00640076,-0.04650518,-0.10495662,
 -0.23558604,0.05021034,0.11909199,0.25015603,0.00006004,-0.00006183,-0
 .00000157,0.00018720,0.00010611,0.00000319,0.00258124,0.00247482,0.000
 06470,-0.00097298,-0.00020512,-0.00000402,0.00000603,0.00028307,0.0000
 0749,-0.00002995,0.00005255,0.00000142,-0.00003730,-0.00001144,-0.0000
 0022,0.00015192,0.00013391,0.00000274,0.00000043,0.00004611,0.00000128
 ,-0.00009314,0.00001323,0.00000042,0.00004835,-0.00001114,-0.00000039,
 -0.00000189,0.00000444,0.00000013,-0.00007967,0.00000211,0.00000015,-0
 .02278090,0.00218184,0.00008765,-0.30142877,-0.08047058,-0.00182129,-0
 .00442919,-0.00261958,0.00138039,0.33117939,0.00017229,0.00041855,0.00
 000801,-0.00039055,-0.00128738,-0.00004545,0.00199543,-0.00496517,-0.0
 0014779,0.00163212,0.00050183,0.00000505,-0.00017605,-0.00051290,-0.00
 001313,-0.00009405,0.00013115,0.00000451,0.00006960,-0.00000951,-0.000
 00112,-0.00030683,0.00084750,0.00003581,-0.00003440,-0.00004276,-0.000
 00164,0.00013989,0.00000386,0.00000080,-0.00002940,0.00004734,0.000001
 80,-0.00000092,0.00000350,0.00000011,0.00001503,-0.00000365,-0.0000001
 5,0.04151644,-0.00126465,-0.00010623,-0.09301659,-0.07266280,-0.000399
 68,-0.01531312,-0.00278492,0.00149721,0.08060084,0.08475556,0.00000475
 ,0.00000829,0.00011370,-0.00001044,-0.00004617,0.00043075,0.00004977,-
 0.00014712,0.00041513,0.00004527,0.00000701,0.00024723,-0.00000482,-0.
 00001382,-0.00001182,-0.00000255,0.00000443,-0.00003380,0.00000194,-0.
 00000104,0.00002957,-0.00000903,0.00003547,-0.00047872,-0.00000090,-0.
 00000169,0.00001853,0.00000382,0.00000096,-0.00003254,-0.00000087,0.00
 000180,-0.00001874,-0.00000002,0.00000010,-0.00000064,0.00000050,-0.00
 000013,0.00000125,0.00114089,-0.00005572,0.00070050,-0.00215625,-0.000
 41583,-0.05312482,-0.02777601,-0.00899193,0.00092385,0.00178097,0.0008
 3359,0.04957536,-0.00077995,0.00033898,0.00053589,0.00025516,-0.000884
 38,-0.00000114,0.00464358,0.00102725,-0.00195142,-0.00115987,0.0006493
 3,0.00049911,0.00090157,0.00040612,0.00024316,-0.00004925,-0.00090168,
 0.00001493,-0.00000870,0.00001141,-0.00003494,-0.00172146,-0.00009412,
 -0.00146107,0.00004581,-0.00013158,-0.00012768,-0.00000273,-0.00000059
 ,-0.00004661,0.00001924,-0.00002887,-0.00012047,-0.00001321,0.00000907
 ,0.00000628,0.00001774,0.00000016,0.00000643,-0.00082171,0.01918460,-0
 .01577252,-0.06606034,-0.03343353,0.04721767,0.00250221,0.00248229,-0.
 00764572,-0.00436083,-0.01677971,0.02693297,0.06659274,0.00002158,0.00
 004709,0.00000257,0.00094025,0.00065359,-0.00043472,-0.00675046,0.0002
 4404,0.00099200,0.00133001,-0.00066137,-0.00043149,-0.00058871,-0.0000
 8771,-0.00029188,0.00037305,0.00030479,0.00005787,0.00007520,0.0000325
 9,-0.00001139,-0.00010327,0.00029430,0.00010764,-0.00011198,0.00020246
 ,0.00023046,0.00005181,-0.00003177,0.00004957,-0.00014101,0.00002611,0
 .00002745,0.00003807,0.00000003,-0.00000942,0.00011680,-0.00000670,0.0
 0000058,0.00721506,-0.03077945,0.02128765,-0.03012455,-0.12108059,0.10
 864068,0.00203222,0.01099509,-0.01410426,-0.00251934,-0.00317554,0.008
 78180,0.02814525,0.14302304,0.00008196,-0.00050329,-0.00009086,-0.0003
 3395,0.00117973,0.00002957,0.00108093,0.00011952,0.00039987,-0.0004709
 4,0.00005861,-0.00023761,0.00017837,-0.00004325,-0.00000050,-0.0000657
 5,-0.00001184,-0.00006521,-0.00004152,0.00000685,0.00001099,-0.0002532
 2,-0.00076845,-0.00026084,0.00003683,-0.00006860,-0.00000552,-0.000013
 83,-0.00000474,0.00001094,0.00005894,-0.00006070,0.00002025,-0.0000047
 8,-0.00000140,0.00000496,-0.00001815,0.00000443,-0.00000237,-0.0026542
 0,-0.00035453,0.00768064,0.04451524,0.11116736,-0.22440116,0.00770197,
 0.01584708,-0.02169688,-0.00150305,-0.00167170,0.00124521,-0.04829486,
 -0.12489508,0.23735852||0.00000815,0.00000002,-0.00000258,-0.00000004,
 -0.00000168,-0.00000200,0.00000111,0.00000842,-0.00000106,0.00000733,-
 0.00000561,0.00000194,-0.00000746,0.00000532,-0.00000300,-0.00001661,-
 0.00000548,0.00001258,0.00000283,-0.00000302,-0.00000004,0.00000613,0.
 00000066,0.00000114,-0.00000387,0.00000203,-0.00000050,-0.00000230,-0.
 00000217,0.00000020,0.00001113,-0.00000726,-0.00001709,-0.00000326,0.0
 0000029,0.00001128,0.00000331,-0.00000826,-0.00000232,-0.00000187,-0.0
 0001065,0.00000108,-0.00000072,0.00001800,-0.00000357,-0.00000414,0.00
 000241,-0.00000157,0.00000372,0.00000561,-0.00000006,-0.00000344,0.000
 00136,0.00000556|||@


 ... A MOLECULAR SYSTEM ... (PASSES) ... FROM ONE STATE OF EQUILIBRIUM 
 TO ANOTHER ... BY MEANS OF ALL POSSIBLE INTERMEDIATE PATHS, 
 BUT THE PATH MOST ECONOMICAL OF ENERGY WILL BE THE MORE OFTEN TRAVELED.

                      -- HENRY EYRING, 1945
 Job cpu time:       0 days  0 hours  7 minutes 16.0 seconds.
 File lengths (MBytes):  RWF=     50 Int=      0 D2E=      0 Chk=      2 Scr=      1
 Normal termination of Gaussian 09 at Wed Sep 13 20:05:49 2023.
