 Entering Gaussian System, Link 0=C:\G09W\g09.exe
 Input=C:\Users\vivek\Downloads\14_09_23\molecule_32.gjf
 Output=C:\Users\vivek\Downloads\14_09_23\molecule_32.log
 Initial command:
 C:/G09W\l1.exe ".\Gau-8292.inp" "C:\Users\vivek\Downloads\14_09_23\molecule_32.log" /scrdir=".\"
 Entering Link 1 = C:/G09W\l1.exe PID=     15916.
  
 Copyright (c) 1988,1990,1992,1993,1995,1998,2003,2009,2013,
            Gaussian, Inc.  All Rights Reserved.
  
 This is part of the Gaussian(R) 09 program.  It is based on
 the Gaussian(R) 03 system (copyright 2003, Gaussian, Inc.),
 the Gaussian(R) 98 system (copyright 1998, Gaussian, Inc.),
 the Gaussian(R) 94 system (copyright 1995, Gaussian, Inc.),
 the Gaussian 92(TM) system (copyright 1992, Gaussian, Inc.),
 the Gaussian 90(TM) system (copyright 1990, Gaussian, Inc.),
 the Gaussian 88(TM) system (copyright 1988, Gaussian, Inc.),
 the Gaussian 86(TM) system (copyright 1986, Carnegie Mellon
 University), and the Gaussian 82(TM) system (copyright 1983,
 Carnegie Mellon University). Gaussian is a federally registered
 trademark of Gaussian, Inc.
  
 This software contains proprietary and confidential information,
 including trade secrets, belonging to Gaussian, Inc.
  
 This software is provided under written license and may be
 used, copied, transmitted, or stored only in accord with that
 written license.
  
 The following legend is applicable only to US Government
 contracts under FAR:
  
                    RESTRICTED RIGHTS LEGEND
  
 Use, reproduction and disclosure by the US Government is
 subject to restrictions as set forth in subparagraphs (a)
 and (c) of the Commercial Computer Software - Restricted
 Rights clause in FAR 52.227-19.
  
 Gaussian, Inc.
 340 Quinnipiac St., Bldg. 40, Wallingford CT 06492
  
  
 ---------------------------------------------------------------
 Warning -- This program may not be used in any manner that
 competes with the business of Gaussian, Inc. or will provide
 assistance to any competitor of Gaussian, Inc.  The licensee
 of this program is prohibited from giving any competitor of
 Gaussian, Inc. access to this program.  By using this program,
 the user acknowledges that Gaussian, Inc. is engaged in the
 business of creating and licensing software in the field of
 computational chemistry and represents and warrants to the
 licensee that it is not a competitor of Gaussian, Inc. and that
 it will not use this program in any manner prohibited above.
 ---------------------------------------------------------------
  

 Cite this work as:
 Gaussian 09, Revision D.01,
 M. J. Frisch, G. W. Trucks, H. B. Schlegel, G. E. Scuseria, 
 M. A. Robb, J. R. Cheeseman, G. Scalmani, V. Barone, B. Mennucci, 
 G. A. Petersson, H. Nakatsuji, M. Caricato, X. Li, H. P. Hratchian, 
 A. F. Izmaylov, J. Bloino, G. Zheng, J. L. Sonnenberg, M. Hada, 
 M. Ehara, K. Toyota, R. Fukuda, J. Hasegawa, M. Ishida, T. Nakajima, 
 Y. Honda, O. Kitao, H. Nakai, T. Vreven, J. A. Montgomery, Jr., 
 J. E. Peralta, F. Ogliaro, M. Bearpark, J. J. Heyd, E. Brothers, 
 K. N. Kudin, V. N. Staroverov, T. Keith, R. Kobayashi, J. Normand, 
 K. Raghavachari, A. Rendell, J. C. Burant, S. S. Iyengar, J. Tomasi, 
 M. Cossi, N. Rega, J. M. Millam, M. Klene, J. E. Knox, J. B. Cross, 
 V. Bakken, C. Adamo, J. Jaramillo, R. Gomperts, R. E. Stratmann, 
 O. Yazyev, A. J. Austin, R. Cammi, C. Pomelli, J. W. Ochterski, 
 R. L. Martin, K. Morokuma, V. G. Zakrzewski, G. A. Voth, 
 P. Salvador, J. J. Dannenberg, S. Dapprich, A. D. Daniels, 
 O. Farkas, J. B. Foresman, J. V. Ortiz, J. Cioslowski, 
 and D. J. Fox, Gaussian, Inc., Wallingford CT, 2013.
 
 ******************************************
 Gaussian 09:  EM64W-G09RevD.01 13-Apr-2013
                14-Sep-2023 
 ******************************************
 %nprocshared=8
 Will use up to    8 processors via shared memory.
 %mem=8GB
 %chk=C:\Users\vivek\Downloads\molecule_32.chk
 ---------------------------------------------------------------------
 # opt freq rb3lyp/6-31+g(d) geom=connectivity empiricaldispersion=gd3
 ---------------------------------------------------------------------
 1/14=-1,18=20,19=15,26=3,38=1,57=2/1,3;
 2/9=110,12=2,17=6,18=5,40=1/2;
 3/5=1,6=6,7=11,11=2,16=1,25=1,30=1,71=1,74=-5,116=1,124=31/1,2,3;
 4//1;
 5/5=2,38=5/2;
 6/7=2,8=2,9=2,10=2,28=1/1;
 7//1,2,3,16;
 1/14=-1,18=20,19=15,26=3/3(2);
 2/9=110/2;
 99//99;
 2/9=110/2;
 3/5=1,6=6,7=11,11=2,16=1,25=1,30=1,71=1,74=-5,116=1,124=31/1,2,3;
 4/5=5,16=3,69=1/1;
 5/5=2,38=5/2;
 7//1,2,3,16;
 1/14=-1,18=20,19=15,26=3/3(-5);
 2/9=110/2;
 6/7=2,8=2,9=2,10=2,19=2,28=1/1;
 99/9=1/99;
 -------------------
 Title Card Required
 -------------------
 Symbolic Z-matrix:
 Charge =  0 Multiplicity = 1
 C                    -2.02788  -0.24557  -0.1243 
 C                    -0.62898  -0.25958  -0.20681 
 C                    -1.98136   2.15103   0.25763 
 C                    -0.58246   2.13703   0.17512 
 C                     0.09373   0.93172  -0.0571 
 H                    -0.03065   3.04661   0.28943 
 H                     1.16182   0.92102  -0.12009 
 O                     0.061    -1.48949  -0.44376 
 H                     0.92612  -1.45613  -0.02897 
 H                    -2.57969  -1.15516  -0.23861 
 H                    -2.49764   3.07131   0.43493 
 N                    -2.70407   0.95973   0.10792 
 

 GradGradGradGradGradGradGradGradGradGradGradGradGradGradGradGradGradGrad
 Berny optimization.
 Initialization pass.
                           ----------------------------
                           !    Initial Parameters    !
                           ! (Angstroms and Degrees)  !
 --------------------------                            --------------------------
 ! Name  Definition              Value          Derivative Info.                !
 --------------------------------------------------------------------------------
 ! R1    R(1,2)                  1.4014         estimate D2E/DX2                !
 ! R2    R(1,10)                 1.07           estimate D2E/DX2                !
 ! R3    R(1,12)                 1.4014         estimate D2E/DX2                !
 ! R4    R(2,5)                  1.4014         estimate D2E/DX2                !
 ! R5    R(2,8)                  1.43           estimate D2E/DX2                !
 ! R6    R(3,4)                  1.4014         estimate D2E/DX2                !
 ! R7    R(3,11)                 1.07           estimate D2E/DX2                !
 ! R8    R(3,12)                 1.4014         estimate D2E/DX2                !
 ! R9    R(4,5)                  1.4014         estimate D2E/DX2                !
 ! R10   R(4,6)                  1.07           estimate D2E/DX2                !
 ! R11   R(5,7)                  1.07           estimate D2E/DX2                !
 ! R12   R(8,9)                  0.96           estimate D2E/DX2                !
 ! A1    A(2,1,10)             120.0            estimate D2E/DX2                !
 ! A2    A(2,1,12)             120.0            estimate D2E/DX2                !
 ! A3    A(10,1,12)            120.0            estimate D2E/DX2                !
 ! A4    A(1,2,5)              120.0            estimate D2E/DX2                !
 ! A5    A(1,2,8)              120.0            estimate D2E/DX2                !
 ! A6    A(5,2,8)              120.0            estimate D2E/DX2                !
 ! A7    A(4,3,11)             120.0            estimate D2E/DX2                !
 ! A8    A(4,3,12)             120.0            estimate D2E/DX2                !
 ! A9    A(11,3,12)            120.0            estimate D2E/DX2                !
 ! A10   A(3,4,5)              120.0            estimate D2E/DX2                !
 ! A11   A(3,4,6)              120.0            estimate D2E/DX2                !
 ! A12   A(5,4,6)              120.0            estimate D2E/DX2                !
 ! A13   A(2,5,4)              120.0            estimate D2E/DX2                !
 ! A14   A(2,5,7)              120.0            estimate D2E/DX2                !
 ! A15   A(4,5,7)              120.0            estimate D2E/DX2                !
 ! A16   A(2,8,9)              109.4712         estimate D2E/DX2                !
 ! A17   A(1,12,3)             120.0            estimate D2E/DX2                !
 ! D1    D(10,1,2,5)          -180.0            estimate D2E/DX2                !
 ! D2    D(10,1,2,8)             0.0            estimate D2E/DX2                !
 ! D3    D(12,1,2,5)             0.0            estimate D2E/DX2                !
 ! D4    D(12,1,2,8)          -180.0            estimate D2E/DX2                !
 ! D5    D(2,1,12,3)             0.0            estimate D2E/DX2                !
 ! D6    D(10,1,12,3)         -180.0            estimate D2E/DX2                !
 ! D7    D(1,2,5,4)              0.0            estimate D2E/DX2                !
 ! D8    D(1,2,5,7)            180.0            estimate D2E/DX2                !
 ! D9    D(8,2,5,4)            180.0            estimate D2E/DX2                !
 ! D10   D(8,2,5,7)              0.0            estimate D2E/DX2                !
 ! D11   D(1,2,8,9)           -150.0            estimate D2E/DX2                !
 ! D12   D(5,2,8,9)             30.0            estimate D2E/DX2                !
 ! D13   D(11,3,4,5)          -180.0            estimate D2E/DX2                !
 ! D14   D(11,3,4,6)             0.0            estimate D2E/DX2                !
 ! D15   D(12,3,4,5)             0.0            estimate D2E/DX2                !
 ! D16   D(12,3,4,6)          -180.0            estimate D2E/DX2                !
 ! D17   D(4,3,12,1)             0.0            estimate D2E/DX2                !
 ! D18   D(11,3,12,1)          180.0            estimate D2E/DX2                !
 ! D19   D(3,4,5,2)              0.0            estimate D2E/DX2                !
 ! D20   D(3,4,5,7)           -180.0            estimate D2E/DX2                !
 ! D21   D(6,4,5,2)           -180.0            estimate D2E/DX2                !
 ! D22   D(6,4,5,7)              0.0            estimate D2E/DX2                !
 --------------------------------------------------------------------------------
 Trust Radius=3.00D-01 FncErr=1.00D-07 GrdErr=1.00D-06
 Number of steps in this run=     61 maximum allowed number of steps=    100.
 GradGradGradGradGradGradGradGradGradGradGradGradGradGradGradGradGradGrad

                          Input orientation:                          
 ---------------------------------------------------------------------
 Center     Atomic      Atomic             Coordinates (Angstroms)
 Number     Number       Type             X           Y           Z
 ---------------------------------------------------------------------
      1          6           0       -2.027884   -0.245574   -0.124301
      2          6           0       -0.628985   -0.259582   -0.206807
      3          6           0       -1.981359    2.151034    0.257627
      4          6           0       -0.582460    2.137026    0.175121
      5          6           0        0.093727    0.931718   -0.057096
      6          1           0       -0.030653    3.046610    0.289429
      7          1           0        1.161818    0.921022   -0.120091
      8          8           0        0.061002   -1.489489   -0.443764
      9          1           0        0.926123   -1.456125   -0.028971
     10          1           0       -2.579690   -1.155158   -0.238609
     11          1           0       -2.497643    3.071314    0.434930
     12          7           0       -2.704071    0.959734    0.107916
 ---------------------------------------------------------------------
                    Distance matrix (angstroms):
                    1          2          3          4          5
     1  C    0.000000
     2  C    1.401400   0.000000
     3  C    2.427296   2.802800   0.000000
     4  C    2.802800   2.427296   1.401400   0.000000
     5  C    2.427296   1.401400   2.427296   1.401400   0.000000
     6  H    3.872800   3.396345   2.146700   1.070000   2.146700
     7  H    3.396345   2.146700   3.396345   2.146700   1.070000
     8  O    2.452106   1.430000   4.232800   3.734792   2.452106
     9  H    3.193850   1.970203   4.641895   3.902334   2.528926
    10  H    1.070000   2.146700   3.396345   3.872800   3.396345
    11  H    3.396345   3.872800   1.070000   2.146700   3.396345
    12  N    1.401400   2.427296   1.401400   2.427296   2.802800
                    6          7          8          9         10
     6  H    0.000000
     7  H    2.471400   0.000000
     8  O    4.595886   2.669667   0.000000
     9  H    4.614263   2.390541   0.960000   0.000000
    10  H    4.942800   4.280590   2.669667   3.524947   0.000000
    11  H    2.471400   4.280590   5.302800   5.695181   4.280590
    12  N    3.396345   3.872800   3.734792   4.362731   2.146700
                   11         12
    11  H    0.000000
    12  N    2.146700   0.000000
 Stoichiometry    C5H5NO
 Framework group  C1[X(C5H5NO)]
 Deg. of freedom    30
 Full point group                 C1      NOp   1
 Largest Abelian subgroup         C1      NOp   1
 Largest concise Abelian subgroup C1      NOp   1
                         Standard orientation:                         
 ---------------------------------------------------------------------
 Center     Atomic      Atomic             Coordinates (Angstroms)
 Number     Number       Type             X           Y           Z
 ---------------------------------------------------------------------
      1          6           0        0.226201   -1.247377   -0.003183
      2          6           0        0.923997   -0.032161   -0.019086
      3          6           0       -1.878623   -0.038556    0.012047
      4          6           0       -1.180827    1.176660   -0.003855
      5          6           0        0.220483    1.179857   -0.019422
      6          1           0       -1.717976    2.102064   -0.004112
      7          1           0        0.753265    2.107702   -0.031563
      8          8           0        2.353905   -0.028899   -0.034971
      9          1           0        2.677058    0.758687    0.408741
     10          1           0        0.763349   -2.172781   -0.002926
     11          1           0       -2.948554   -0.040997    0.023932
     12          7           0       -1.175109   -1.250575    0.012384
 ---------------------------------------------------------------------
 Rotational constants (GHZ):      5.7234295      2.5418185      1.7625296
 Standard basis: 6-31+G(d) (6D, 7F)
 There are   143 symmetry adapted cartesian basis functions of A   symmetry.
 There are   143 symmetry adapted basis functions of A   symmetry.
   143 basis functions,   244 primitive gaussians,   143 cartesian basis functions
    25 alpha electrons       25 beta electrons
       nuclear repulsion energy       268.7798364404 Hartrees.
 NAtoms=   12 NActive=   12 NUniq=   12 SFac= 1.00D+00 NAtFMM=   60 NAOKFM=F Big=F
 Integral buffers will be    131072 words long.
 Raffenetti 2 integral format.
 Two-electron integral symmetry is turned on.
 Nuclear repulsion after empirical dispersion term =      268.7737665552 Hartrees.
 One-electron integrals computed using PRISM.
 NBasis=   143 RedAO= T EigKep=  2.26D-05  NBF=   143
 NBsUse=   143 1.00D-06 EigRej= -1.00D+00 NBFU=   143
 ExpMin= 4.38D-02 ExpMax= 5.48D+03 ExpMxC= 8.25D+02 IAcc=2 IRadAn=         4 AccDes= 0.00D+00
 Harris functional with IExCor=  402 and IRadAn=       4 diagonalized for initial guess.
 HarFok:  IExCor=  402 AccDes= 0.00D+00 IRadAn=         4 IDoV= 1 UseB2=F ITyADJ=14
 ICtDFT=  3500011 ScaDFX=  1.000000  1.000000  1.000000  1.000000
 FoFCou: FMM=F IPFlag=           0 FMFlag=      100000 FMFlg1=           0
         NFxFlg=           0 DoJE=T BraDBF=F KetDBF=T FulRan=T
         wScrn=  0.000000 ICntrl=     500 IOpCl=  0 I1Cent=   200000004 NGrid=           0
         NMat0=    1 NMatS0=      1 NMatT0=    0 NMatD0=    1 NMtDS0=    0 NMtDT0=    0
 Petite list used in FoFCou.
 Keep R1 ints in memory in canonical form, NReq=54583987.
 Requested convergence on RMS density matrix=1.00D-08 within 128 cycles.
 Requested convergence on MAX density matrix=1.00D-06.
 Requested convergence on             energy=1.00D-06.
 No special actions if energy rises.
 SCF Done:  E(RB3LYP) =  -323.507506096     A.U. after   14 cycles
            NFock= 14  Conv=0.24D-08     -V/T= 2.0107

 **********************************************************************

            Population analysis using the SCF density.

 **********************************************************************

 Orbital symmetries:
       Occupied  (A) (A) (A) (A) (A) (A) (A) (A) (A) (A) (A) (A)
                 (A) (A) (A) (A) (A) (A) (A) (A) (A) (A) (A) (A)
                 (A)
       Virtual   (A) (A) (A) (A) (A) (A) (A) (A) (A) (A) (A) (A)
                 (A) (A) (A) (A) (A) (A) (A) (A) (A) (A) (A) (A)
                 (A) (A) (A) (A) (A) (A) (A) (A) (A) (A) (A) (A)
                 (A) (A) (A) (A) (A) (A) (A) (A) (A) (A) (A) (A)
                 (A) (A) (A) (A) (A) (A) (A) (A) (A) (A) (A) (A)
                 (A) (A) (A) (A) (A) (A) (A) (A) (A) (A) (A) (A)
                 (A) (A) (A) (A) (A) (A) (A) (A) (A) (A) (A) (A)
                 (A) (A) (A) (A) (A) (A) (A) (A) (A) (A) (A) (A)
                 (A) (A) (A) (A) (A) (A) (A) (A) (A) (A) (A) (A)
                 (A) (A) (A) (A) (A) (A) (A) (A) (A) (A)
 The electronic state is 1-A.
 Alpha  occ. eigenvalues --  -19.19855 -14.35746 -10.27671 -10.24130 -10.23888
 Alpha  occ. eigenvalues --  -10.22413 -10.21825  -1.06120  -0.92555  -0.80800
 Alpha  occ. eigenvalues --   -0.77132  -0.65774  -0.63427  -0.55553  -0.53225
 Alpha  occ. eigenvalues --   -0.49661  -0.46418  -0.43381  -0.42153  -0.41239
 Alpha  occ. eigenvalues --   -0.37874  -0.35460  -0.29070  -0.26758  -0.25638
 Alpha virt. eigenvalues --   -0.05215  -0.02422  -0.00964   0.00927   0.02844
 Alpha virt. eigenvalues --    0.03925   0.05209   0.05356   0.06245   0.08521
 Alpha virt. eigenvalues --    0.08790   0.09459   0.09892   0.11782   0.12936
 Alpha virt. eigenvalues --    0.13289   0.13836   0.14205   0.15074   0.15158
 Alpha virt. eigenvalues --    0.15208   0.18400   0.20218   0.20615   0.20813
 Alpha virt. eigenvalues --    0.21712   0.22509   0.24492   0.24567   0.24930
 Alpha virt. eigenvalues --    0.25710   0.26695   0.27477   0.29296   0.30935
 Alpha virt. eigenvalues --    0.32062   0.32593   0.33818   0.35546   0.36801
 Alpha virt. eigenvalues --    0.37174   0.53681   0.54747   0.62465   0.65216
 Alpha virt. eigenvalues --    0.65690   0.69921   0.70293   0.70909   0.73239
 Alpha virt. eigenvalues --    0.74525   0.76242   0.80470   0.87475   0.90363
 Alpha virt. eigenvalues --    0.93492   0.94024   0.96450   1.00141   1.00331
 Alpha virt. eigenvalues --    1.00871   1.03170   1.08590   1.10074   1.13076
 Alpha virt. eigenvalues --    1.16405   1.16988   1.17197   1.18475   1.20888
 Alpha virt. eigenvalues --    1.23428   1.26556   1.34662   1.36237   1.41110
 Alpha virt. eigenvalues --    1.42347   1.45028   1.46339   1.46952   1.51832
 Alpha virt. eigenvalues --    1.62863   1.74383   1.78266   1.79753   1.83381
 Alpha virt. eigenvalues --    1.85835   1.91598   1.93301   1.94747   1.97827
 Alpha virt. eigenvalues --    2.07530   2.12222   2.13488   2.14000   2.21600
 Alpha virt. eigenvalues --    2.24428   2.27683   2.28701   2.41421   2.49822
 Alpha virt. eigenvalues --    2.51671   2.58056   2.62961   2.64847   2.68147
 Alpha virt. eigenvalues --    2.72835   2.77482   2.80694   2.97422   3.05029
 Alpha virt. eigenvalues --    3.36357   4.12052   4.15730   4.22988   4.26711
 Alpha virt. eigenvalues --    4.32911   4.40018   4.68204
          Condensed to atoms (all electrons):
               1          2          3          4          5          6
     1  C    6.900652  -0.647015   0.050564  -0.036456  -0.566704  -0.008939
     2  C   -0.647015   6.415048  -0.196646  -0.334852   0.235593  -0.002440
     3  C    0.050564  -0.196646   5.783779   0.004469   0.016828   0.032052
     4  C   -0.036456  -0.334852   0.004469   6.084572   0.015537   0.263881
     5  C   -0.566704   0.235593   0.016828   0.015537   6.306091   0.004741
     6  H   -0.008939  -0.002440   0.032052   0.263881   0.004741   0.526103
     7  H   -0.005677  -0.021702  -0.007499   0.048581   0.274826  -0.005475
     8  O   -0.213867   0.201326   0.015843   0.032234  -0.032793  -0.000343
     9  H    0.088285   0.002197  -0.004596   0.012781  -0.091397  -0.000017
    10  H    0.396553  -0.103350   0.029857  -0.030942   0.049834   0.000021
    11  H    0.028004  -0.015726   0.420705  -0.126991   0.037878  -0.001248
    12  N    0.135794   0.134363   0.210264   0.067714  -0.067874   0.004743
               7          8          9         10         11         12
     1  C   -0.005677  -0.213867   0.088285   0.396553   0.028004   0.135794
     2  C   -0.021702   0.201326   0.002197  -0.103350  -0.015726   0.134363
     3  C   -0.007499   0.015843  -0.004596   0.029857   0.420705   0.210264
     4  C    0.048581   0.032234   0.012781  -0.030942  -0.126991   0.067714
     5  C    0.274826  -0.032793  -0.091397   0.049834   0.037878  -0.067874
     6  H   -0.005475  -0.000343  -0.000017   0.000021  -0.001248   0.004743
     7  H    0.540466  -0.010837   0.004609  -0.000139  -0.000147   0.001261
     8  O   -0.010837   8.515247   0.162554   0.001698   0.000097   0.008233
     9  H    0.004609   0.162554   0.364702  -0.000297  -0.000001  -0.000807
    10  H   -0.000139   0.001698  -0.000297   0.523626   0.000002  -0.072774
    11  H   -0.000147   0.000097  -0.000001   0.000002   0.535119  -0.069742
    12  N    0.001261   0.008233  -0.000807  -0.072774  -0.069742   6.871340
 Mulliken charges:
               1
     1  C   -0.121194
     2  C    0.333204
     3  C   -0.355621
     4  C   -0.000528
     5  C   -0.182560
     6  H    0.186923
     7  H    0.181734
     8  O   -0.679392
     9  H    0.461985
    10  H    0.205912
    11  H    0.192051
    12  N   -0.222514
 Sum of Mulliken charges =   0.00000
 Mulliken charges with hydrogens summed into heavy atoms:
               1
     1  C    0.084718
     2  C    0.333204
     3  C   -0.163570
     4  C    0.186395
     5  C   -0.000825
     8  O   -0.217407
    12  N   -0.222514
 Electronic spatial extent (au):  <R**2>=            663.7027
 Charge=              0.0000 electrons
 Dipole moment (field-independent basis, Debye):
    X=              0.6055    Y=              3.3873    Z=              0.7223  Tot=              3.5160
 Quadrupole moment (field-independent basis, Debye-Ang):
   XX=            -39.0786   YY=            -39.1179   ZZ=            -43.4623
   XY=             -0.6900   XZ=              2.3472   YZ=              0.8272
 Traceless Quadrupole moment (field-independent basis, Debye-Ang):
   XX=              1.4743   YY=              1.4350   ZZ=             -2.9093
   XY=             -0.6900   XZ=              2.3472   YZ=              0.8272
 Octapole moment (field-independent basis, Debye-Ang**2):
  XXX=              0.0879  YYY=             10.2495  ZZZ=              0.4075  XYY=             14.6574
  XXY=             19.2265  XXZ=              6.8684  XZZ=              5.2357  YZZ=             -0.3980
  YYZ=              0.2410  XYZ=              2.1442
 Hexadecapole moment (field-independent basis, Debye-Ang**3):
 XXXX=           -495.4820 YYYY=           -280.7425 ZZZZ=            -50.3046 XXXY=             23.7634
 XXXZ=             19.5252 YYYX=            -18.8229 YYYZ=              0.7796 ZZZX=              1.7024
 ZZZY=              0.6857 XXYY=           -135.5989 XXZZ=           -102.6264 YYZZ=            -61.9363
 XXYZ=              6.1114 YYXZ=              1.6845 ZZXY=              1.7825
 N-N= 2.687737665552D+02 E-N=-1.289914508499D+03  KE= 3.200966987327D+02
 Calling FoFJK, ICntrl=      2127 FMM=F ISym2X=0 I1Cent= 0 IOpClX= 0 NMat=1 NMatS=1 NMatT=0.
 ***** Axes restored to original set *****
 -------------------------------------------------------------------
 Center     Atomic                   Forces (Hartrees/Bohr)
 Number     Number              X              Y              Z
 -------------------------------------------------------------------
      1        6           0.003228770    0.061705969    0.008456951
      2        6           0.020769488   -0.018833078   -0.000466400
      3        6           0.003473679   -0.066703335   -0.011236629
      4        6          -0.008170916   -0.012713253   -0.001253465
      5        6          -0.017362880    0.002592551    0.001586116
      6        1           0.006977609    0.010403974    0.001243351
      7        1           0.012604670   -0.000485496   -0.001297094
      8        8          -0.032858933    0.023118236    0.000484895
      9        1           0.009108979    0.002554782    0.003293793
     10        1          -0.010987892   -0.005714411   -0.000052260
     11        1          -0.013012703    0.004647715    0.001728680
     12        7           0.026230129   -0.000573654   -0.002487938
 -------------------------------------------------------------------
 Cartesian Forces:  Max     0.066703335 RMS     0.018915048

 GradGradGradGradGradGradGradGradGradGradGradGradGradGradGradGradGradGrad
 Berny optimization.
 FormGI is forming the generalized inverse of G from B-inverse, IUseBI=4.
 Internal  Forces:  Max     0.053295720 RMS     0.013458156
 Search for a local minimum.
 Step number   1 out of a maximum of   61
 All quantities printed in internal units (Hartrees-Bohrs-Radians)
 Mixed Optimization -- RFO/linear search
 Second derivative matrix not updated -- first step.
 ITU=  0
     Eigenvalues ---    0.01295   0.01754   0.01911   0.01927   0.01954
     Eigenvalues ---    0.02037   0.02070   0.02070   0.02070   0.16000
     Eigenvalues ---    0.16000   0.16000   0.16000   0.16000   0.22000
     Eigenvalues ---    0.23189   0.23485   0.25000   0.37230   0.37230
     Eigenvalues ---    0.37230   0.37230   0.40989   0.41399   0.41977
     Eigenvalues ---    0.45389   0.45389   0.45389   0.45389   0.55473
 RFO step:  Lambda=-2.32559075D-02 EMin= 1.29493776D-02
 Linear search not attempted -- first point.
 Iteration  1 RMS(Cart)=  0.05466780 RMS(Int)=  0.00121943
 Iteration  2 RMS(Cart)=  0.00136993 RMS(Int)=  0.00015941
 Iteration  3 RMS(Cart)=  0.00000174 RMS(Int)=  0.00015941
 Iteration  4 RMS(Cart)=  0.00000000 RMS(Int)=  0.00015941
 Variable       Old X    -DE/DX   Delta X   Delta X   Delta X     New X
                                 (Linear)    (Quad)   (Total)
    R1        2.64826  -0.00602   0.00000  -0.01286  -0.01291   2.63535
    R2        2.02201   0.01053   0.00000   0.02662   0.02662   2.04863
    R3        2.64826  -0.05330   0.00000  -0.11574  -0.11583   2.53243
    R4        2.64826  -0.01065   0.00000  -0.01852  -0.01847   2.62979
    R5        2.70231  -0.03417   0.00000  -0.07888  -0.07888   2.62343
    R6        2.64826  -0.00317   0.00000  -0.00641  -0.00637   2.64190
    R7        2.02201   0.01056   0.00000   0.02670   0.02670   2.04871
    R8        2.64826  -0.05125   0.00000  -0.11121  -0.11125   2.53701
    R9        2.64826  -0.01202   0.00000  -0.02116  -0.02106   2.62720
   R10        2.02201   0.01258   0.00000   0.03179   0.03179   2.05380
   R11        2.02201   0.01266   0.00000   0.03201   0.03201   2.05402
   R12        1.81414   0.00972   0.00000   0.01682   0.01682   1.83096
    A1        2.09440  -0.00059   0.00000   0.01060   0.01066   2.10506
    A2        2.09440   0.01436   0.00000   0.05070   0.05057   2.14497
    A3        2.09440  -0.01377   0.00000  -0.06130  -0.06124   2.03316
    A4        2.09440  -0.00250   0.00000  -0.00259  -0.00266   2.09173
    A5        2.09440  -0.00825   0.00000  -0.03346  -0.03355   2.06084
    A6        2.09440   0.01075   0.00000   0.03605   0.03594   2.13033
    A7        2.09440   0.00052   0.00000   0.01796   0.01795   2.11234
    A8        2.09440   0.01730   0.00000   0.06418   0.06420   2.15859
    A9        2.09440  -0.01782   0.00000  -0.08214  -0.08214   2.01225
   A10        2.09440  -0.00683   0.00000  -0.01930  -0.01914   2.07525
   A11        2.09440   0.00400   0.00000   0.01284   0.01275   2.10715
   A12        2.09440   0.00283   0.00000   0.00646   0.00638   2.10077
   A13        2.09440  -0.01431   0.00000  -0.04292  -0.04275   2.05164
   A14        2.09440   0.00671   0.00000   0.01902   0.01894   2.11333
   A15        2.09440   0.00760   0.00000   0.02390   0.02381   2.11821
   A16        1.91063  -0.00306   0.00000  -0.01668  -0.01668   1.89396
   A17        2.09440  -0.00803   0.00000  -0.05006  -0.05025   2.04414
    D1       -3.14159  -0.00033   0.00000  -0.00800  -0.00788   3.13371
    D2        0.00000   0.00075   0.00000   0.01738   0.01695   0.01695
    D3        0.00000  -0.00015   0.00000  -0.00372  -0.00370  -0.00370
    D4       -3.14159   0.00093   0.00000   0.02166   0.02113  -3.12046
    D5        0.00000  -0.00017   0.00000  -0.00406  -0.00412  -0.00412
    D6       -3.14159   0.00001   0.00000   0.00023  -0.00010   3.14149
    D7        0.00000   0.00041   0.00000   0.00967   0.00964   0.00964
    D8        3.14159   0.00058   0.00000   0.01343   0.01351  -3.12808
    D9        3.14159  -0.00067   0.00000  -0.01571  -0.01622   3.12538
   D10        0.00000  -0.00050   0.00000  -0.01195  -0.01234  -0.01234
   D11       -2.61799  -0.00203   0.00000  -0.05372  -0.05374  -2.67173
   D12        0.52360  -0.00095   0.00000  -0.02834  -0.02832   0.49528
   D13       -3.14159   0.00003   0.00000   0.00049   0.00059  -3.14100
   D14        0.00000  -0.00021   0.00000  -0.00477  -0.00481  -0.00480
   D15        0.00000   0.00001   0.00000   0.00008   0.00018   0.00018
   D16       -3.14159  -0.00022   0.00000  -0.00518  -0.00522   3.13638
   D17        0.00000   0.00024   0.00000   0.00587   0.00591   0.00591
   D18        3.14159   0.00023   0.00000   0.00546   0.00552  -3.13607
   D19        0.00000  -0.00034   0.00000  -0.00786  -0.00794  -0.00794
   D20       -3.14159  -0.00051   0.00000  -0.01161  -0.01182   3.12977
   D21       -3.14159  -0.00010   0.00000  -0.00259  -0.00256   3.13903
   D22        0.00000  -0.00027   0.00000  -0.00635  -0.00645  -0.00645
         Item               Value     Threshold  Converged?
 Maximum Force            0.053296     0.000450     NO 
 RMS     Force            0.013458     0.000300     NO 
 Maximum Displacement     0.185751     0.001800     NO 
 RMS     Displacement     0.054916     0.001200     NO 
 Predicted change in Energy=-1.242075D-02
 GradGradGradGradGradGradGradGradGradGradGradGradGradGradGradGradGradGrad

                          Input orientation:                          
 ---------------------------------------------------------------------
 Center     Atomic      Atomic             Coordinates (Angstroms)
 Number     Number       Type             X           Y           Z
 ---------------------------------------------------------------------
      1          6           0       -2.002076   -0.188002   -0.109668
      2          6           0       -0.610420   -0.233324   -0.187544
      3          6           0       -1.965905    2.073501    0.240857
      4          6           0       -0.570138    2.117499    0.174617
      5          6           0        0.129451    0.937268   -0.049964
      6          1           0       -0.037975    3.057913    0.291278
      7          1           0        1.214109    0.927063   -0.119632
      8          8           0       -0.009333   -1.460421   -0.432882
      9          1           0        0.881756   -1.448045   -0.052653
     10          1           0       -2.590971   -1.091191   -0.222344
     11          1           0       -2.545783    2.973019    0.413916
     12          7           0       -2.682790    0.947249    0.099401
 ---------------------------------------------------------------------
                    Distance matrix (angstroms):
                    1          2          3          4          5
     1  C    0.000000
     2  C    1.394570   0.000000
     3  C    2.288793   2.709670   0.000000
     4  C    2.728846   2.378897   1.398031   0.000000
     5  C    2.411059   1.391626   2.401275   1.390254   0.000000
     6  H    3.815025   3.374790   2.165300   1.086824   2.154440
     7  H    3.404014   2.163334   3.399525   2.165008   1.086941
     8  O    2.386323   1.388259   4.095205   3.672202   2.432036
     9  H    3.147609   1.928816   4.538349   3.856521   2.501138
    10  H    1.084087   2.158641   3.258917   3.812747   3.397802
    11  H    3.249894   3.793154   1.084131   2.166183   3.393574
    12  N    1.340103   2.402251   1.342527   2.416287   2.816223
                    6          7          8          9         10
     6  H    0.000000
     7  H    2.505411   0.000000
     8  O    4.576087   2.700928   0.000000
     9  H    4.611708   2.399183   0.968900   0.000000
    10  H    4.898639   4.308426   2.616393   3.495136   0.000000
    11  H    2.512240   4.313630   5.177454   5.613512   4.113960
    12  N    3.389214   3.903103   3.636973   4.297272   2.065717
                   11         12
    11  H    0.000000
    12  N    2.054613   0.000000
 Stoichiometry    C5H5NO
 Framework group  C1[X(C5H5NO)]
 Deg. of freedom    30
 Full point group                 C1      NOp   1
 Largest Abelian subgroup         C1      NOp   1
 Largest concise Abelian subgroup C1      NOp   1
                         Standard orientation:                         
 ---------------------------------------------------------------------
 Center     Atomic      Atomic             Coordinates (Angstroms)
 Number     Number       Type             X           Y           Z
 ---------------------------------------------------------------------
      1          6           0        0.181452   -1.201412    0.001405
      2          6           0        0.907553   -0.010816   -0.007729
      3          6           0       -1.801643   -0.058674    0.008850
      4          6           0       -1.152228    1.179321   -0.002053
      5          6           0        0.237645    1.208932   -0.015602
      6          1           0       -1.721534    2.105099   -0.005046
      7          1           0        0.783313    2.148772   -0.035361
      8          8           0        2.293156   -0.090731   -0.039040
      9          1           0        2.656765    0.706912    0.373660
     10          1           0        0.690576   -2.158509    0.000245
     11          1           0       -2.883878   -0.121945    0.019002
     12          7           0       -1.158167   -1.236942    0.007229
 ---------------------------------------------------------------------
 Rotational constants (GHZ):      5.7718749      2.6811024      1.8329199
 Standard basis: 6-31+G(d) (6D, 7F)
 There are   143 symmetry adapted cartesian basis functions of A   symmetry.
 There are   143 symmetry adapted basis functions of A   symmetry.
   143 basis functions,   244 primitive gaussians,   143 cartesian basis functions
    25 alpha electrons       25 beta electrons
       nuclear repulsion energy       273.3625971239 Hartrees.
 NAtoms=   12 NActive=   12 NUniq=   12 SFac= 1.00D+00 NAtFMM=   60 NAOKFM=F Big=F
 Integral buffers will be    131072 words long.
 Raffenetti 2 integral format.
 Two-electron integral symmetry is turned on.
 Nuclear repulsion after empirical dispersion term =      273.3565878822 Hartrees.
 One-electron integrals computed using PRISM.
 NBasis=   143 RedAO= T EigKep=  2.14D-05  NBF=   143
 NBsUse=   143 1.00D-06 EigRej= -1.00D+00 NBFU=   143
 Initial guess from the checkpoint file:  "C:\Users\vivek\Downloads\molecule_32.chk"
 B after Tr=     0.000000    0.000000    0.000000
         Rot=    0.999990   -0.000205   -0.000148    0.004505 Ang=  -0.52 deg.
 ExpMin= 4.38D-02 ExpMax= 5.48D+03 ExpMxC= 8.25D+02 IAcc=2 IRadAn=         4 AccDes= 0.00D+00
 Harris functional with IExCor=  402 and IRadAn=       4 diagonalized for initial guess.
 HarFok:  IExCor=  402 AccDes= 0.00D+00 IRadAn=         4 IDoV= 1 UseB2=F ITyADJ=14
 ICtDFT=  3500011 ScaDFX=  1.000000  1.000000  1.000000  1.000000
 FoFCou: FMM=F IPFlag=           0 FMFlag=      100000 FMFlg1=           0
         NFxFlg=           0 DoJE=T BraDBF=F KetDBF=T FulRan=T
         wScrn=  0.000000 ICntrl=     500 IOpCl=  0 I1Cent=   200000004 NGrid=           0
         NMat0=    1 NMatS0=      1 NMatT0=    0 NMatD0=    1 NMtDS0=    0 NMtDT0=    0
 Petite list used in FoFCou.
 Keep R1 ints in memory in canonical form, NReq=54583987.
 Requested convergence on RMS density matrix=1.00D-08 within 128 cycles.
 Requested convergence on MAX density matrix=1.00D-06.
 Requested convergence on             energy=1.00D-06.
 No special actions if energy rises.
 SCF Done:  E(RB3LYP) =  -323.519711509     A.U. after   12 cycles
            NFock= 12  Conv=0.71D-08     -V/T= 2.0095
 Calling FoFJK, ICntrl=      2127 FMM=F ISym2X=0 I1Cent= 0 IOpClX= 0 NMat=1 NMatS=1 NMatT=0.
 ***** Axes restored to original set *****
 -------------------------------------------------------------------
 Center     Atomic                   Forces (Hartrees/Bohr)
 Number     Number              X              Y              Z
 -------------------------------------------------------------------
      1        6          -0.006284528    0.004087965   -0.000261134
      2        6           0.009245138   -0.014271888   -0.002920440
      3        6          -0.002876501   -0.000321973   -0.000183484
      4        6          -0.001211870    0.003911387    0.000957608
      5        6          -0.001113882    0.001143129    0.000855407
      6        1          -0.001073068    0.000378096    0.000129292
      7        1           0.000627341   -0.000368890   -0.000226189
      8        8          -0.006845539    0.007158923    0.004080933
      9        1           0.002213688   -0.001325493   -0.002105199
     10        1           0.000969326   -0.003181090   -0.000308040
     11        1           0.000038039    0.002933101    0.000514009
     12        7           0.006311856   -0.000143265   -0.000532763
 -------------------------------------------------------------------
 Cartesian Forces:  Max     0.014271888 RMS     0.003983479

 GradGradGradGradGradGradGradGradGradGradGradGradGradGradGradGradGradGrad
 Berny optimization.
 Using GEDIIS/GDIIS optimizer.
 FormGI is forming the generalized inverse of G from B-inverse, IUseBI=4.
 Internal  Forces:  Max     0.007511400 RMS     0.002270414
 Search for a local minimum.
 Step number   2 out of a maximum of   61
 All quantities printed in internal units (Hartrees-Bohrs-Radians)
 Mixed Optimization -- RFO/linear search
 Update second derivatives using D2CorX and points    1    2
 DE= -1.22D-02 DEPred=-1.24D-02 R= 9.83D-01
 TightC=F SS=  1.41D+00  RLast= 2.62D-01 DXNew= 5.0454D-01 7.8510D-01
 Trust test= 9.83D-01 RLast= 2.62D-01 DXMaxT set to 5.05D-01
 ITU=  1  0
 Use linear search instead of GDIIS.
     Eigenvalues ---    0.01286   0.01760   0.01917   0.01934   0.01960
     Eigenvalues ---    0.02035   0.02070   0.02070   0.02071   0.15910
     Eigenvalues ---    0.16000   0.16000   0.16000   0.16629   0.22001
     Eigenvalues ---    0.23125   0.24486   0.25209   0.36101   0.37230
     Eigenvalues ---    0.37230   0.37334   0.38635   0.41112   0.41667
     Eigenvalues ---    0.45344   0.45389   0.45389   0.49629   0.55409
 RFO step:  Lambda=-1.41224189D-03 EMin= 1.28600733D-02
 Quartic linear search produced a step of  0.00206.
 Iteration  1 RMS(Cart)=  0.02970623 RMS(Int)=  0.00204214
 Iteration  2 RMS(Cart)=  0.00191909 RMS(Int)=  0.00005419
 Iteration  3 RMS(Cart)=  0.00000664 RMS(Int)=  0.00005404
 Iteration  4 RMS(Cart)=  0.00000000 RMS(Int)=  0.00005404
 Variable       Old X    -DE/DX   Delta X   Delta X   Delta X     New X
                                 (Linear)    (Quad)   (Total)
    R1        2.63535   0.00276  -0.00003   0.00556   0.00555   2.64090
    R2        2.04863   0.00216   0.00005   0.00708   0.00713   2.05576
    R3        2.53243  -0.00022  -0.00024  -0.00638  -0.00661   2.52582
    R4        2.62979   0.00439  -0.00004   0.00912   0.00909   2.63888
    R5        2.62343  -0.00751  -0.00016  -0.02214  -0.02230   2.60112
    R6        2.64190  -0.00093  -0.00001  -0.00249  -0.00252   2.63937
    R7        2.04871   0.00250   0.00006   0.00799   0.00804   2.05675
    R8        2.53701  -0.00073  -0.00023  -0.00741  -0.00764   2.52936
    R9        2.62720   0.00549  -0.00004   0.01127   0.01122   2.63842
   R10        2.05380  -0.00018   0.00007   0.00106   0.00112   2.05492
   R11        2.05402   0.00064   0.00007   0.00329   0.00335   2.05738
   R12        1.83096   0.00119   0.00003   0.00298   0.00301   1.83397
    A1        2.10506  -0.00260   0.00002  -0.01558  -0.01557   2.08949
    A2        2.14497   0.00000   0.00010   0.00232   0.00245   2.14742
    A3        2.03316   0.00260  -0.00013   0.01326   0.01312   2.04628
    A4        2.09173  -0.00410  -0.00001  -0.01558  -0.01560   2.07613
    A5        2.06084  -0.00156  -0.00007  -0.00846  -0.00858   2.05227
    A6        2.13033   0.00565   0.00007   0.02365   0.02366   2.15399
    A7        2.11234  -0.00043   0.00004  -0.00346  -0.00341   2.10893
    A8        2.15859  -0.00247   0.00013  -0.00889  -0.00877   2.14982
    A9        2.01225   0.00290  -0.00017   0.01235   0.01218   2.02443
   A10        2.07525  -0.00019  -0.00004  -0.00138  -0.00145   2.07381
   A11        2.10715  -0.00107   0.00003  -0.00638  -0.00635   2.10080
   A12        2.10077   0.00126   0.00001   0.00773   0.00775   2.10853
   A13        2.05164   0.00207  -0.00009   0.00871   0.00862   2.06026
   A14        2.11333  -0.00143   0.00004  -0.00693  -0.00689   2.10644
   A15        2.11821  -0.00064   0.00005  -0.00179  -0.00174   2.11647
   A16        1.89396   0.00410  -0.00003   0.02462   0.02458   1.91854
   A17        2.04414   0.00469  -0.00010   0.01475   0.01466   2.05880
    D1        3.13371   0.00003  -0.00002  -0.00026  -0.00020   3.13351
    D2        0.01695   0.00029   0.00003   0.01656   0.01643   0.03339
    D3       -0.00370  -0.00001  -0.00001  -0.00158  -0.00155  -0.00525
    D4       -3.12046   0.00024   0.00004   0.01524   0.01508  -3.10538
    D5       -0.00412  -0.00006  -0.00001  -0.00232  -0.00236  -0.00648
    D6        3.14149  -0.00009   0.00000  -0.00353  -0.00362   3.13787
    D7        0.00964   0.00012   0.00002   0.00680   0.00680   0.01644
    D8       -3.12808   0.00015   0.00003   0.00793   0.00797  -3.12011
    D9        3.12538  -0.00026  -0.00003  -0.01120  -0.01137   3.11400
   D10       -0.01234  -0.00023  -0.00003  -0.01007  -0.01021  -0.02255
   D11       -2.67173  -0.00208  -0.00011  -0.14089  -0.14109  -2.81282
   D12        0.49528  -0.00166  -0.00006  -0.12307  -0.12304   0.37224
   D13       -3.14100   0.00005   0.00000   0.00203   0.00205  -3.13896
   D14       -0.00480  -0.00008  -0.00001  -0.00374  -0.00375  -0.00855
   D15        0.00018   0.00011   0.00000   0.00454   0.00454   0.00472
   D16        3.13638  -0.00002  -0.00001  -0.00124  -0.00125   3.13512
   D17        0.00591   0.00001   0.00001   0.00083   0.00084   0.00676
   D18       -3.13607   0.00006   0.00001   0.00320   0.00322  -3.13285
   D19       -0.00794  -0.00018  -0.00002  -0.00818  -0.00824  -0.01618
   D20        3.12977  -0.00021  -0.00002  -0.00932  -0.00942   3.12035
   D21        3.13903  -0.00004  -0.00001  -0.00238  -0.00237   3.13666
   D22       -0.00645  -0.00008  -0.00001  -0.00352  -0.00356  -0.01001
         Item               Value     Threshold  Converged?
 Maximum Force            0.007511     0.000450     NO 
 RMS     Force            0.002270     0.000300     NO 
 Maximum Displacement     0.160410     0.001800     NO 
 RMS     Displacement     0.030093     0.001200     NO 
 Predicted change in Energy=-7.355286D-04
 GradGradGradGradGradGradGradGradGradGradGradGradGradGradGradGradGradGrad

                          Input orientation:                          
 ---------------------------------------------------------------------
 Center     Atomic      Atomic             Coordinates (Angstroms)
 Number     Number       Type             X           Y           Z
 ---------------------------------------------------------------------
      1          6           0       -2.000407   -0.186819   -0.100011
      2          6           0       -0.605564   -0.245834   -0.162862
      3          6           0       -1.969526    2.081683    0.229537
      4          6           0       -0.574297    2.123435    0.181050
      5          6           0        0.127696    0.935123   -0.029817
      6          1           0       -0.048293    3.068274    0.295402
      7          1           0        1.214455    0.924674   -0.094229
      8          8           0       -0.029728   -1.472449   -0.404646
      9          1           0        0.903175   -1.458267   -0.137538
     10          1           0       -2.584236   -1.098167   -0.209687
     11          1           0       -2.549524    2.988618    0.389719
     12          7           0       -2.673823    0.952259    0.088466
 ---------------------------------------------------------------------
                    Distance matrix (angstroms):
                    1          2          3          4          5
     1  C    0.000000
     2  C    1.397505   0.000000
     3  C    2.292522   2.726116   0.000000
     4  C    2.729480   2.394304   1.396696   0.000000
     5  C    2.406762   1.396436   2.404206   1.396190   0.000000
     6  H    3.816115   3.391736   2.160750   1.087418   2.164965
     7  H    3.401586   2.165011   3.403121   2.170816   1.088716
     8  O    2.372598   1.376456   4.098397   3.683745   2.441656
     9  H    3.169980   1.935698   4.573664   3.887546   2.518191
    10  H    1.087861   2.154949   3.268369   3.817231   3.394289
    11  H    3.259566   3.813923   1.088388   2.166473   3.400053
    12  N    1.336605   2.403391   1.338481   2.405875   2.804068
                    6          7          8          9         10
     6  H    0.000000
     7  H    2.518207   0.000000
     8  O    4.594408   2.718557   0.000000
     9  H    4.645676   2.403576   0.970493   0.000000
    10  H    4.903607   4.305261   2.589132   3.506695   0.000000
    11  H    2.504276   4.319909   5.184738   5.654549   4.130655
    12  N    3.378424   3.892666   3.621272   4.319332   2.073926
                   11         12
    11  H    0.000000
    12  N    2.062271   0.000000
 Stoichiometry    C5H5NO
 Framework group  C1[X(C5H5NO)]
 Deg. of freedom    30
 Full point group                 C1      NOp   1
 Largest Abelian subgroup         C1      NOp   1
 Largest concise Abelian subgroup C1      NOp   1
                         Standard orientation:                         
 ---------------------------------------------------------------------
 Center     Atomic      Atomic             Coordinates (Angstroms)
 Number     Number       Type             X           Y           Z
 ---------------------------------------------------------------------
      1          6           0        0.193742   -1.194997    0.006112
      2          6           0        0.918315   -0.000004    0.004154
      3          6           0       -1.806760   -0.075337    0.002797
      4          6           0       -1.171479    1.168517    0.000383
      5          6           0        0.224016    1.211526   -0.009124
      6          1           0       -1.756994    2.084827   -0.004665
      7          1           0        0.759984    2.158922   -0.031091
      8          8           0        2.291446   -0.087221   -0.035010
      9          1           0        2.684543    0.749086    0.261506
     10          1           0        0.721996   -2.145987    0.008769
     11          1           0       -2.892771   -0.147047    0.007671
     12          7           0       -1.142190   -1.237180    0.001709
 ---------------------------------------------------------------------
 Rotational constants (GHZ):      5.8046491      2.6727867      1.8312763
 Standard basis: 6-31+G(d) (6D, 7F)
 There are   143 symmetry adapted cartesian basis functions of A   symmetry.
 There are   143 symmetry adapted basis functions of A   symmetry.
   143 basis functions,   244 primitive gaussians,   143 cartesian basis functions
    25 alpha electrons       25 beta electrons
       nuclear repulsion energy       273.3795905414 Hartrees.
 NAtoms=   12 NActive=   12 NUniq=   12 SFac= 1.00D+00 NAtFMM=   60 NAOKFM=F Big=F
 Integral buffers will be    131072 words long.
 Raffenetti 2 integral format.
 Two-electron integral symmetry is turned on.
 Nuclear repulsion after empirical dispersion term =      273.3735870634 Hartrees.
 One-electron integrals computed using PRISM.
 NBasis=   143 RedAO= T EigKep=  2.14D-05  NBF=   143
 NBsUse=   143 1.00D-06 EigRej= -1.00D+00 NBFU=   143
 Initial guess from the checkpoint file:  "C:\Users\vivek\Downloads\molecule_32.chk"
 B after Tr=     0.000000    0.000000    0.000000
         Rot=    0.999992    0.000219   -0.000114   -0.004066 Ang=   0.47 deg.
 ExpMin= 4.38D-02 ExpMax= 5.48D+03 ExpMxC= 8.25D+02 IAcc=2 IRadAn=         4 AccDes= 0.00D+00
 Harris functional with IExCor=  402 and IRadAn=       4 diagonalized for initial guess.
 HarFok:  IExCor=  402 AccDes= 0.00D+00 IRadAn=         4 IDoV= 1 UseB2=F ITyADJ=14
 ICtDFT=  3500011 ScaDFX=  1.000000  1.000000  1.000000  1.000000
 FoFCou: FMM=F IPFlag=           0 FMFlag=      100000 FMFlg1=           0
         NFxFlg=           0 DoJE=T BraDBF=F KetDBF=T FulRan=T
         wScrn=  0.000000 ICntrl=     500 IOpCl=  0 I1Cent=   200000004 NGrid=           0
         NMat0=    1 NMatS0=      1 NMatT0=    0 NMatD0=    1 NMtDS0=    0 NMtDT0=    0
 Petite list used in FoFCou.
 Keep R1 ints in memory in canonical form, NReq=54583987.
 Requested convergence on RMS density matrix=1.00D-08 within 128 cycles.
 Requested convergence on MAX density matrix=1.00D-06.
 Requested convergence on             energy=1.00D-06.
 No special actions if energy rises.
 SCF Done:  E(RB3LYP) =  -323.520697883     A.U. after   12 cycles
            NFock= 12  Conv=0.40D-08     -V/T= 2.0096
 Calling FoFJK, ICntrl=      2127 FMM=F ISym2X=0 I1Cent= 0 IOpClX= 0 NMat=1 NMatS=1 NMatT=0.
 ***** Axes restored to original set *****
 -------------------------------------------------------------------
 Center     Atomic                   Forces (Hartrees/Bohr)
 Number     Number              X              Y              Z
 -------------------------------------------------------------------
      1        6          -0.004083025    0.000540759   -0.000244809
      2        6           0.005030084   -0.003413415   -0.002757265
      3        6          -0.000616473    0.002491079    0.000540585
      4        6           0.000968616    0.000243403   -0.000162760
      5        6          -0.000682688    0.000548005    0.001086940
      6        1          -0.000113971   -0.000677874   -0.000054624
      7        1          -0.000220723    0.000128607    0.000197052
      8        8          -0.001755130    0.002465819    0.003523679
      9        1           0.000159091    0.000091736   -0.001874233
     10        1           0.000701892   -0.000242800   -0.000093210
     11        1           0.000696691   -0.000028915   -0.000146254
     12        7          -0.000084363   -0.002146403   -0.000015102
 -------------------------------------------------------------------
 Cartesian Forces:  Max     0.005030084 RMS     0.001689954

 GradGradGradGradGradGradGradGradGradGradGradGradGradGradGradGradGradGrad
 Berny optimization.
 Using GEDIIS/GDIIS optimizer.
 FormGI is forming the generalized inverse of G from B-inverse, IUseBI=4.
 Internal  Forces:  Max     0.003237113 RMS     0.000838234
 Search for a local minimum.
 Step number   3 out of a maximum of   61
 All quantities printed in internal units (Hartrees-Bohrs-Radians)
 Mixed Optimization -- En-DIIS/RFO-DIIS
 Update second derivatives using D2CorX and points    1    2    3
 DE= -9.86D-04 DEPred=-7.36D-04 R= 1.34D+00
 TightC=F SS=  1.41D+00  RLast= 1.99D-01 DXNew= 8.4853D-01 5.9772D-01
 Trust test= 1.34D+00 RLast= 1.99D-01 DXMaxT set to 5.98D-01
 ITU=  1  1  0
 Use linear search instead of GDIIS.
     Eigenvalues ---    0.00725   0.01759   0.01928   0.01954   0.01982
     Eigenvalues ---    0.02063   0.02070   0.02070   0.02117   0.15786
     Eigenvalues ---    0.16000   0.16000   0.16137   0.16494   0.22008
     Eigenvalues ---    0.23231   0.24531   0.25063   0.36243   0.37230
     Eigenvalues ---    0.37270   0.37358   0.37885   0.41152   0.43297
     Eigenvalues ---    0.45340   0.45389   0.48186   0.49589   0.55776
 RFO step:  Lambda=-5.22011006D-04 EMin= 7.24862222D-03
 Quartic linear search produced a step of  0.58251.
 Iteration  1 RMS(Cart)=  0.03720747 RMS(Int)=  0.00494144
 Iteration  2 RMS(Cart)=  0.00465018 RMS(Int)=  0.00006740
 Iteration  3 RMS(Cart)=  0.00005772 RMS(Int)=  0.00003508
 Iteration  4 RMS(Cart)=  0.00000001 RMS(Int)=  0.00003508
 Variable       Old X    -DE/DX   Delta X   Delta X   Delta X     New X
                                 (Linear)    (Quad)   (Total)
    R1        2.64090   0.00285   0.00323   0.00808   0.01133   2.65223
    R2        2.05576  -0.00016   0.00415  -0.00119   0.00297   2.05872
    R3        2.52582  -0.00015  -0.00385  -0.00343  -0.00727   2.51854
    R4        2.63888   0.00019   0.00529  -0.00230   0.00301   2.64189
    R5        2.60112  -0.00324  -0.01299  -0.01045  -0.02344   2.57769
    R6        2.63937   0.00054  -0.00147   0.00204   0.00055   2.63993
    R7        2.05675  -0.00042   0.00469  -0.00244   0.00225   2.05900
    R8        2.52936   0.00225  -0.00445   0.00505   0.00058   2.52995
    R9        2.63842  -0.00036   0.00653  -0.00484   0.00169   2.64010
   R10        2.05492  -0.00065   0.00065  -0.00166  -0.00101   2.05391
   R11        2.05738  -0.00023   0.00195  -0.00042   0.00153   2.05891
   R12        1.83397  -0.00036   0.00175  -0.00099   0.00076   1.83473
    A1        2.08949  -0.00064  -0.00907  -0.00280  -0.01190   2.07759
    A2        2.14742  -0.00022   0.00143   0.00064   0.00210   2.14952
    A3        2.04628   0.00086   0.00764   0.00218   0.00980   2.05608
    A4        2.07613  -0.00055  -0.00909   0.00013  -0.00903   2.06710
    A5        2.05227  -0.00038  -0.00500  -0.00127  -0.00641   2.04586
    A6        2.15399   0.00094   0.01378   0.00244   0.01609   2.17008
    A7        2.10893  -0.00029  -0.00199  -0.00207  -0.00404   2.10489
    A8        2.14982  -0.00057  -0.00511   0.00065  -0.00449   2.14532
    A9        2.02443   0.00087   0.00710   0.00142   0.00853   2.03297
   A10        2.07381   0.00039  -0.00084   0.00141   0.00054   2.07434
   A11        2.10080   0.00004  -0.00370   0.00332  -0.00037   2.10042
   A12        2.10853  -0.00043   0.00452  -0.00465  -0.00013   2.10840
   A13        2.06026   0.00070   0.00502   0.00018   0.00522   2.06548
   A14        2.10644  -0.00019  -0.00401   0.00192  -0.00210   2.10434
   A15        2.11647  -0.00051  -0.00101  -0.00209  -0.00311   2.11336
   A16        1.91854   0.00085   0.01432   0.00190   0.01622   1.93475
   A17        2.05880   0.00024   0.00854  -0.00277   0.00577   2.06457
    D1        3.13351   0.00016  -0.00011   0.01198   0.01181  -3.13786
    D2        0.03339  -0.00024   0.00957  -0.02156  -0.01196   0.02143
    D3       -0.00525   0.00010  -0.00090   0.00768   0.00676   0.00151
    D4       -3.10538  -0.00031   0.00879  -0.02586  -0.01701  -3.12238
    D5       -0.00648   0.00004  -0.00138   0.00394   0.00257  -0.00391
    D6        3.13787  -0.00002  -0.00211  -0.00026  -0.00239   3.13548
    D7        0.01644  -0.00017   0.00396  -0.01532  -0.01136   0.00508
    D8       -3.12011  -0.00022   0.00464  -0.01838  -0.01374  -3.13385
    D9        3.11400   0.00022  -0.00663   0.02020   0.01361   3.12761
   D10       -0.02255   0.00017  -0.00595   0.01714   0.01123  -0.01132
   D11       -2.81282  -0.00135  -0.08219  -0.11692  -0.19908  -3.01190
   D12        0.37224  -0.00173  -0.07167  -0.15201  -0.22370   0.14854
   D13       -3.13896   0.00001   0.00119   0.00047   0.00165  -3.13731
   D14       -0.00855   0.00010  -0.00218   0.00833   0.00616  -0.00239
   D15        0.00472   0.00000   0.00265  -0.00040   0.00224   0.00696
   D16        3.13512   0.00009  -0.00073   0.00746   0.00675  -3.14131
   D17        0.00676  -0.00009   0.00049  -0.00763  -0.00716  -0.00040
   D18       -3.13285  -0.00010   0.00188  -0.00846  -0.00658  -3.13942
   D19       -0.01618   0.00012  -0.00480   0.01191   0.00713  -0.00905
   D20        3.12035   0.00017  -0.00549   0.01501   0.00953   3.12988
   D21        3.13666   0.00003  -0.00138   0.00396   0.00260   3.13925
   D22       -0.01001   0.00008  -0.00207   0.00705   0.00500  -0.00501
         Item               Value     Threshold  Converged?
 Maximum Force            0.003237     0.000450     NO 
 RMS     Force            0.000838     0.000300     NO 
 Maximum Displacement     0.220796     0.001800     NO 
 RMS     Displacement     0.039426     0.001200     NO 
 Predicted change in Energy=-4.752107D-04
 GradGradGradGradGradGradGradGradGradGradGradGradGradGradGradGradGradGrad

                          Input orientation:                          
 ---------------------------------------------------------------------
 Center     Atomic      Atomic             Coordinates (Angstroms)
 Number     Number       Type             X           Y           Z
 ---------------------------------------------------------------------
      1          6           0       -2.003914   -0.186354   -0.091657
      2          6           0       -0.603036   -0.253898   -0.144505
      3          6           0       -1.972005    2.086107    0.216275
      4          6           0       -0.575920    2.123686    0.182961
      5          6           0        0.126239    0.930873   -0.006800
      6          1           0       -0.049149    3.067545    0.296800
      7          1           0        1.214867    0.919618   -0.049613
      8          8           0       -0.044894   -1.481477   -0.349846
      9          1           0        0.920513   -1.442543   -0.254378
     10          1           0       -2.581813   -1.104149   -0.194341
     11          1           0       -2.548222    2.999826    0.358637
     12          7           0       -2.672740    0.953297    0.081852
 ---------------------------------------------------------------------
                    Distance matrix (angstroms):
                    1          2          3          4          5
     1  C    0.000000
     2  C    1.403500   0.000000
     3  C    2.293451   2.734933   0.000000
     4  C    2.729627   2.400181   1.396988   0.000000
     5  C    2.406854   1.398029   2.405609   1.397082   0.000000
     6  H    3.815739   3.396104   2.160343   1.086884   2.165248
     7  H    3.403747   2.165853   3.404049   2.170435   1.089528
     8  O    2.362576   1.364053   4.094131   3.682807   2.442621
     9  H    3.186967   1.935498   4.586888   3.892115   2.515008
    10  H    1.089430   2.154291   3.273866   3.819015   3.392643
    11  H    3.263553   3.824084   1.089576   2.165285   3.401007
    12  N    1.332756   2.406705   1.338790   2.403474   2.800472
                    6          7          8          9         10
     6  H    0.000000
     7  H    2.516213   0.000000
     8  O    4.594755   2.728076   0.000000
     9  H    4.645958   2.389221   0.970896   0.000000
    10  H    4.904960   4.304807   2.569537   3.519148   0.000000
    11  H    2.500756   4.319117   5.181764   5.669440   4.141198
    12  N    3.376312   3.889976   3.608333   4.331809   2.077892
                   11         12
    11  H    0.000000
    12  N    2.068911   0.000000
 Stoichiometry    C5H5NO
 Framework group  C1[X(C5H5NO)]
 Deg. of freedom    30
 Full point group                 C1      NOp   1
 Largest Abelian subgroup         C1      NOp   1
 Largest concise Abelian subgroup C1      NOp   1
                         Standard orientation:                         
 ---------------------------------------------------------------------
 Center     Atomic      Atomic             Coordinates (Angstroms)
 Number     Number       Type             X           Y           Z
 ---------------------------------------------------------------------
      1          6           0        0.197113   -1.193845    0.004463
      2          6           0        0.925117    0.006080    0.002414
      3          6           0       -1.808417   -0.081310   -0.001319
      4          6           0       -1.176862    1.164767    0.001418
      5          6           0        0.219385    1.212897   -0.002348
      6          1           0       -1.765268    2.078602    0.000130
      7          1           0        0.749443    2.164753   -0.011323
      8          8           0        2.285678   -0.089655   -0.016228
      9          1           0        2.695177    0.782787    0.101223
     10          1           0        0.737154   -2.139975    0.011725
     11          1           0       -2.895692   -0.152074   -0.002525
     12          7           0       -1.134894   -1.238341    0.000404
 ---------------------------------------------------------------------
 Rotational constants (GHZ):      5.8104475      2.6764138      1.8325764
 Standard basis: 6-31+G(d) (6D, 7F)
 There are   143 symmetry adapted cartesian basis functions of A   symmetry.
 There are   143 symmetry adapted basis functions of A   symmetry.
   143 basis functions,   244 primitive gaussians,   143 cartesian basis functions
    25 alpha electrons       25 beta electrons
       nuclear repulsion energy       273.5162433334 Hartrees.
 NAtoms=   12 NActive=   12 NUniq=   12 SFac= 1.00D+00 NAtFMM=   60 NAOKFM=F Big=F
 Integral buffers will be    131072 words long.
 Raffenetti 2 integral format.
 Two-electron integral symmetry is turned on.
 Nuclear repulsion after empirical dispersion term =      273.5102458181 Hartrees.
 One-electron integrals computed using PRISM.
 NBasis=   143 RedAO= T EigKep=  2.12D-05  NBF=   143
 NBsUse=   143 1.00D-06 EigRej= -1.00D+00 NBFU=   143
 Initial guess from the checkpoint file:  "C:\Users\vivek\Downloads\molecule_32.chk"
 B after Tr=     0.000000    0.000000    0.000000
         Rot=    0.999999    0.000130   -0.000038   -0.001406 Ang=   0.16 deg.
 ExpMin= 4.38D-02 ExpMax= 5.48D+03 ExpMxC= 8.25D+02 IAcc=2 IRadAn=         4 AccDes= 0.00D+00
 Harris functional with IExCor=  402 and IRadAn=       4 diagonalized for initial guess.
 HarFok:  IExCor=  402 AccDes= 0.00D+00 IRadAn=         4 IDoV= 1 UseB2=F ITyADJ=14
 ICtDFT=  3500011 ScaDFX=  1.000000  1.000000  1.000000  1.000000
 FoFCou: FMM=F IPFlag=           0 FMFlag=      100000 FMFlg1=           0
         NFxFlg=           0 DoJE=T BraDBF=F KetDBF=T FulRan=T
         wScrn=  0.000000 ICntrl=     500 IOpCl=  0 I1Cent=   200000004 NGrid=           0
         NMat0=    1 NMatS0=      1 NMatT0=    0 NMatD0=    1 NMtDS0=    0 NMtDT0=    0
 Petite list used in FoFCou.
 Keep R1 ints in memory in canonical form, NReq=54583987.
 Requested convergence on RMS density matrix=1.00D-08 within 128 cycles.
 Requested convergence on MAX density matrix=1.00D-06.
 Requested convergence on             energy=1.00D-06.
 No special actions if energy rises.
 SCF Done:  E(RB3LYP) =  -323.521219424     A.U. after   12 cycles
            NFock= 12  Conv=0.46D-08     -V/T= 2.0096
 Calling FoFJK, ICntrl=      2127 FMM=F ISym2X=0 I1Cent= 0 IOpClX= 0 NMat=1 NMatS=1 NMatT=0.
 ***** Axes restored to original set *****
 -------------------------------------------------------------------
 Center     Atomic                   Forces (Hartrees/Bohr)
 Number     Number              X              Y              Z
 -------------------------------------------------------------------
      1        6           0.000486816   -0.002195463   -0.000261236
      2        6          -0.001406140    0.004778677   -0.000145106
      3        6           0.001366270    0.002928349    0.000599348
      4        6          -0.000258718   -0.000715089   -0.000390888
      5        6           0.000500164   -0.001046852    0.000253069
      6        1           0.000205309   -0.000463958   -0.000067347
      7        1          -0.000449040    0.000200941    0.000168062
      8        8           0.002296954   -0.003247191    0.000838799
      9        1          -0.000749885    0.000686638   -0.000749682
     10        1           0.000150606    0.001106976   -0.000091263
     11        1           0.000402941   -0.001278001   -0.000192224
     12        7          -0.002545276   -0.000755028    0.000038468
 -------------------------------------------------------------------
 Cartesian Forces:  Max     0.004778677 RMS     0.001411190

 GradGradGradGradGradGradGradGradGradGradGradGradGradGradGradGradGradGrad
 Berny optimization.
 Using GEDIIS/GDIIS optimizer.
 FormGI is forming the generalized inverse of G from B-inverse, IUseBI=4.
 Internal  Forces:  Max     0.002923325 RMS     0.000755378
 Search for a local minimum.
 Step number   4 out of a maximum of   61
 All quantities printed in internal units (Hartrees-Bohrs-Radians)
 Mixed Optimization -- En-DIIS/RFO-DIIS
 Swapping is turned off.
 Update second derivatives using D2CorX and points    2    3    4
 DE= -5.22D-04 DEPred=-4.75D-04 R= 1.10D+00
 TightC=F SS=  1.41D+00  RLast= 3.05D-01 DXNew= 1.0052D+00 9.1549D-01
 Trust test= 1.10D+00 RLast= 3.05D-01 DXMaxT set to 9.15D-01
 ITU=  1  1  1  0
     Eigenvalues ---    0.00558   0.01759   0.01930   0.01956   0.01981
     Eigenvalues ---    0.02062   0.02070   0.02070   0.02107   0.15941
     Eigenvalues ---    0.16000   0.16006   0.16136   0.17197   0.21999
     Eigenvalues ---    0.23433   0.24798   0.26750   0.37210   0.37230
     Eigenvalues ---    0.37327   0.37802   0.40577   0.41240   0.43906
     Eigenvalues ---    0.45362   0.45615   0.47650   0.52028   0.56484
 En-DIIS/RFO-DIIS IScMMF=        0 using points:     4    3
 RFO step:  Lambda=-5.03241497D-05.
 DidBck=F Rises=F RFO-DIIS coefs:    1.20621   -0.20621
 Iteration  1 RMS(Cart)=  0.01780343 RMS(Int)=  0.00095995
 Iteration  2 RMS(Cart)=  0.00095414 RMS(Int)=  0.00001184
 Iteration  3 RMS(Cart)=  0.00000196 RMS(Int)=  0.00001177
 Iteration  4 RMS(Cart)=  0.00000000 RMS(Int)=  0.00001177
 Variable       Old X    -DE/DX   Delta X   Delta X   Delta X     New X
                                 (Linear)    (Quad)   (Total)
    R1        2.65223   0.00028   0.00234   0.00002   0.00236   2.65459
    R2        2.05872  -0.00100   0.00061  -0.00190  -0.00129   2.05744
    R3        2.51854   0.00109  -0.00150   0.00250   0.00101   2.51955
    R4        2.64189  -0.00144   0.00062  -0.00233  -0.00171   2.64018
    R5        2.57769   0.00292  -0.00483   0.00687   0.00204   2.57972
    R6        2.63993  -0.00017   0.00011  -0.00107  -0.00096   2.63896
    R7        2.05900  -0.00131   0.00046  -0.00251  -0.00204   2.05696
    R8        2.52995   0.00207   0.00012   0.00341   0.00352   2.53347
    R9        2.64010  -0.00092   0.00035  -0.00037  -0.00002   2.64008
   R10        2.05391  -0.00031  -0.00021  -0.00046  -0.00067   2.05325
   R11        2.05891  -0.00046   0.00032  -0.00083  -0.00052   2.05839
   R12        1.83473  -0.00079   0.00016  -0.00104  -0.00088   1.83385
    A1        2.07759   0.00058  -0.00245   0.00224  -0.00022   2.07737
    A2        2.14952  -0.00025   0.00043  -0.00048  -0.00004   2.14947
    A3        2.05608  -0.00033   0.00202  -0.00175   0.00026   2.05634
    A4        2.06710   0.00091  -0.00186   0.00172  -0.00016   2.06694
    A5        2.04586   0.00057  -0.00132   0.00200   0.00065   2.04651
    A6        2.17008  -0.00148   0.00332  -0.00368  -0.00040   2.16968
    A7        2.10489   0.00033  -0.00083   0.00221   0.00138   2.10627
    A8        2.14532   0.00004  -0.00093  -0.00033  -0.00126   2.14406
    A9        2.03297  -0.00038   0.00176  -0.00188  -0.00012   2.03285
   A10        2.07434   0.00049   0.00011   0.00142   0.00153   2.07587
   A11        2.10042   0.00017  -0.00008   0.00070   0.00062   2.10104
   A12        2.10840  -0.00066  -0.00003  -0.00210  -0.00213   2.10627
   A13        2.06548  -0.00009   0.00108  -0.00073   0.00035   2.06583
   A14        2.10434   0.00027  -0.00043   0.00128   0.00084   2.10518
   A15        2.11336  -0.00018  -0.00064  -0.00054  -0.00119   2.11217
   A16        1.93475  -0.00104   0.00334  -0.00472  -0.00137   1.93338
   A17        2.06457  -0.00110   0.00119  -0.00157  -0.00038   2.06418
    D1       -3.13786  -0.00008   0.00244  -0.00636  -0.00395   3.14138
    D2        0.02143  -0.00024  -0.00247  -0.00814  -0.01058   0.01085
    D3        0.00151  -0.00001   0.00139  -0.00163  -0.00025   0.00126
    D4       -3.12238  -0.00017  -0.00351  -0.00342  -0.00688  -3.12927
    D5       -0.00391   0.00003   0.00053   0.00006   0.00060  -0.00332
    D6        3.13548   0.00010  -0.00049   0.00474   0.00425   3.13974
    D7        0.00508  -0.00007  -0.00234  -0.00031  -0.00264   0.00244
    D8       -3.13385  -0.00010  -0.00283  -0.00128  -0.00411  -3.13797
    D9        3.12761   0.00013   0.00281   0.00168   0.00451   3.13213
   D10       -0.01132   0.00010   0.00232   0.00070   0.00304  -0.00828
   D11       -3.01190  -0.00059  -0.04105  -0.05252  -0.09356  -3.10546
   D12        0.14854  -0.00079  -0.04613  -0.05448  -0.10063   0.04792
   D13       -3.13731  -0.00006   0.00034  -0.00310  -0.00276  -3.14007
   D14       -0.00239   0.00005   0.00127   0.00095   0.00223  -0.00016
   D15        0.00696  -0.00011   0.00046  -0.00542  -0.00496   0.00199
   D16       -3.14131   0.00000   0.00139  -0.00137   0.00003  -3.14128
   D17       -0.00040   0.00004  -0.00148   0.00354   0.00206   0.00166
   D18       -3.13942  -0.00001  -0.00136   0.00130  -0.00006  -3.13948
   D19       -0.00905   0.00012   0.00147   0.00360   0.00508  -0.00397
   D20        3.12988   0.00016   0.00197   0.00458   0.00656   3.13644
   D21        3.13925   0.00001   0.00054  -0.00048   0.00006   3.13931
   D22       -0.00501   0.00004   0.00103   0.00050   0.00154  -0.00347
         Item               Value     Threshold  Converged?
 Maximum Force            0.002923     0.000450     NO 
 RMS     Force            0.000755     0.000300     NO 
 Maximum Displacement     0.098587     0.001800     NO 
 RMS     Displacement     0.017748     0.001200     NO 
 Predicted change in Energy=-8.600924D-05
 GradGradGradGradGradGradGradGradGradGradGradGradGradGradGradGradGradGrad

                          Input orientation:                          
 ---------------------------------------------------------------------
 Center     Atomic      Atomic             Coordinates (Angstroms)
 Number     Number       Type             X           Y           Z
 ---------------------------------------------------------------------
      1          6           0       -2.005710   -0.187145   -0.087062
      2          6           0       -0.603404   -0.256070   -0.132948
      3          6           0       -1.972193    2.088309    0.211836
      4          6           0       -0.576464    2.122705    0.181684
      5          6           0        0.125495    0.928025    0.003366
      6          1           0       -0.047463    3.065120    0.293775
      7          1           0        1.214169    0.916308   -0.030198
      8          8           0       -0.043826   -1.486689   -0.322764
      9          1           0        0.924843   -1.430551   -0.306548
     10          1           0       -2.583385   -1.103963   -0.192466
     11          1           0       -2.547486    3.002301    0.347774
     12          7           0       -2.674649    0.954180    0.078935
 ---------------------------------------------------------------------
                    Distance matrix (angstroms):
                    1          2          3          4          5
     1  C    0.000000
     2  C    1.404748   0.000000
     3  C    2.295246   2.736525   0.000000
     4  C    2.729538   2.399644   1.396479   0.000000
     5  C    2.407034   1.397124   2.406245   1.397070   0.000000
     6  H    3.815363   3.394328   2.159968   1.086532   2.163661
     7  H    3.404183   2.165318   3.403685   2.169483   1.089255
     8  O    2.365028   1.365131   4.096951   3.683191   2.442513
     9  H    3.190982   1.935221   4.587365   3.888177   2.509558
    10  H    1.088748   2.154713   3.275303   3.818260   3.391954
    11  H    3.264226   3.824595   1.088495   2.164763   3.400891
    12  N    1.333288   2.408246   1.340655   2.403828   2.801285
                    6          7          8          9         10
     6  H    0.000000
     7  H    2.512781   0.000000
     8  O    4.593375   2.728102   0.000000
     9  H    4.638623   2.380720   0.970429   0.000000
    10  H    4.903935   4.304561   2.571540   3.525243   0.000000
    11  H    2.501395   4.317902   5.183528   5.668807   4.141805
    12  N    3.377029   3.890533   3.611154   4.334960   2.077965
                   11         12
    11  H    0.000000
    12  N    2.069600   0.000000
 Stoichiometry    C5H5NO
 Framework group  C1[X(C5H5NO)]
 Deg. of freedom    30
 Full point group                 C1      NOp   1
 Largest Abelian subgroup         C1      NOp   1
 Largest concise Abelian subgroup C1      NOp   1
                         Standard orientation:                         
 ---------------------------------------------------------------------
 Center     Atomic      Atomic             Coordinates (Angstroms)
 Number     Number       Type             X           Y           Z
 ---------------------------------------------------------------------
      1          6           0        0.195421   -1.195085    0.003285
      2          6           0        0.925324    0.005147    0.003402
      3          6           0       -1.809918   -0.078506   -0.001463
      4          6           0       -1.175184    1.165383    0.000371
      5          6           0        0.221115    1.211810    0.000371
      6          1           0       -1.760330    2.080892    0.000195
      7          1           0        0.751092    2.163434   -0.003040
      8          8           0        2.287010   -0.091225   -0.006923
      9          1           0        2.694623    0.788800    0.026872
     10          1           0        0.734355   -2.141086    0.005426
     11          1           0       -2.896209   -0.147728   -0.002938
     12          7           0       -1.137165   -1.238143   -0.000989
 ---------------------------------------------------------------------
 Rotational constants (GHZ):      5.8093053      2.6741420      1.8312262
 Standard basis: 6-31+G(d) (6D, 7F)
 There are   143 symmetry adapted cartesian basis functions of A   symmetry.
 There are   143 symmetry adapted basis functions of A   symmetry.
   143 basis functions,   244 primitive gaussians,   143 cartesian basis functions
    25 alpha electrons       25 beta electrons
       nuclear repulsion energy       273.4423881727 Hartrees.
 NAtoms=   12 NActive=   12 NUniq=   12 SFac= 1.00D+00 NAtFMM=   60 NAOKFM=F Big=F
 Integral buffers will be    131072 words long.
 Raffenetti 2 integral format.
 Two-electron integral symmetry is turned on.
 Nuclear repulsion after empirical dispersion term =      273.4363940336 Hartrees.
 One-electron integrals computed using PRISM.
 NBasis=   143 RedAO= T EigKep=  2.12D-05  NBF=   143
 NBsUse=   143 1.00D-06 EigRej= -1.00D+00 NBFU=   143
 Initial guess from the checkpoint file:  "C:\Users\vivek\Downloads\molecule_32.chk"
 B after Tr=     0.000000    0.000000    0.000000
         Rot=    1.000000    0.000009    0.000002    0.000487 Ang=   0.06 deg.
 ExpMin= 4.38D-02 ExpMax= 5.48D+03 ExpMxC= 8.25D+02 IAcc=2 IRadAn=         4 AccDes= 0.00D+00
 Harris functional with IExCor=  402 and IRadAn=       4 diagonalized for initial guess.
 HarFok:  IExCor=  402 AccDes= 0.00D+00 IRadAn=         4 IDoV= 1 UseB2=F ITyADJ=14
 ICtDFT=  3500011 ScaDFX=  1.000000  1.000000  1.000000  1.000000
 FoFCou: FMM=F IPFlag=           0 FMFlag=      100000 FMFlg1=           0
         NFxFlg=           0 DoJE=T BraDBF=F KetDBF=T FulRan=T
         wScrn=  0.000000 ICntrl=     500 IOpCl=  0 I1Cent=   200000004 NGrid=           0
         NMat0=    1 NMatS0=      1 NMatT0=    0 NMatD0=    1 NMtDS0=    0 NMtDT0=    0
 Petite list used in FoFCou.
 Keep R1 ints in memory in canonical form, NReq=54583987.
 Requested convergence on RMS density matrix=1.00D-08 within 128 cycles.
 Requested convergence on MAX density matrix=1.00D-06.
 Requested convergence on             energy=1.00D-06.
 No special actions if energy rises.
 SCF Done:  E(RB3LYP) =  -323.521332877     A.U. after   11 cycles
            NFock= 11  Conv=0.32D-08     -V/T= 2.0096
 Calling FoFJK, ICntrl=      2127 FMM=F ISym2X=0 I1Cent= 0 IOpClX= 0 NMat=1 NMatS=1 NMatT=0.
 ***** Axes restored to original set *****
 -------------------------------------------------------------------
 Center     Atomic                   Forces (Hartrees/Bohr)
 Number     Number              X              Y              Z
 -------------------------------------------------------------------
      1        6           0.001193148   -0.001294176   -0.000286154
      2        6          -0.001885533    0.003667204   -0.000253169
      3        6           0.001027383    0.000915745    0.000129755
      4        6          -0.000172629   -0.000567487   -0.000038608
      5        6           0.000504481   -0.000772255    0.000104022
      6        1           0.000213217   -0.000157026   -0.000066735
      7        1          -0.000248744    0.000160753    0.000069684
      8        8           0.001294801   -0.002187522    0.000319226
      9        1          -0.000382024    0.000539041   -0.000132854
     10        1          -0.000126531    0.000748115    0.000032758
     11        1           0.000049017   -0.000743744   -0.000140353
     12        7          -0.001466587   -0.000308649    0.000262428
 -------------------------------------------------------------------
 Cartesian Forces:  Max     0.003667204 RMS     0.000972198

 GradGradGradGradGradGradGradGradGradGradGradGradGradGradGradGradGradGrad
 Berny optimization.
 Using GEDIIS/GDIIS optimizer.
 FormGI is forming the generalized inverse of G from B-inverse, IUseBI=4.
 Internal  Forces:  Max     0.001833684 RMS     0.000497637
 Search for a local minimum.
 Step number   5 out of a maximum of   61
 All quantities printed in internal units (Hartrees-Bohrs-Radians)
 Mixed Optimization -- En-DIIS/RFO-DIIS
 Swapping is turned off.
 Update second derivatives using D2CorX and points    3    4    5
 DE= -1.13D-04 DEPred=-8.60D-05 R= 1.32D+00
 TightC=F SS=  1.41D+00  RLast= 1.39D-01 DXNew= 1.5397D+00 4.1664D-01
 Trust test= 1.32D+00 RLast= 1.39D-01 DXMaxT set to 9.15D-01
 ITU=  1  1  1  1  0
     Eigenvalues ---    0.00503   0.01762   0.01932   0.01964   0.02003
     Eigenvalues ---    0.02060   0.02070   0.02082   0.02102   0.15970
     Eigenvalues ---    0.15997   0.16004   0.16130   0.16949   0.22025
     Eigenvalues ---    0.23413   0.24777   0.26551   0.37178   0.37230
     Eigenvalues ---    0.37334   0.37446   0.38789   0.41294   0.43093
     Eigenvalues ---    0.45115   0.45417   0.47638   0.50212   0.55626
 En-DIIS/RFO-DIIS IScMMF=        0 using points:     5    4    3
 RFO step:  Lambda=-2.36627034D-05.
 DidBck=F Rises=F RFO-DIIS coefs:    1.68419   -0.85508    0.17090
 Iteration  1 RMS(Cart)=  0.00650675 RMS(Int)=  0.00015484
 Iteration  2 RMS(Cart)=  0.00016552 RMS(Int)=  0.00001819
 Iteration  3 RMS(Cart)=  0.00000007 RMS(Int)=  0.00001819
 Variable       Old X    -DE/DX   Delta X   Delta X   Delta X     New X
                                 (Linear)    (Quad)   (Total)
    R1        2.65459  -0.00059  -0.00032  -0.00146  -0.00178   2.65281
[...]
     Eigenvalues ---    0.45471   0.47456   0.50199   0.50603   0.55141
 Angle between quadratic step and forces=  55.05 degrees.
 Linear search not attempted -- first point.
 Iteration  1 RMS(Cart)=  0.00007811 RMS(Int)=  0.00000001
 Iteration  2 RMS(Cart)=  0.00000001 RMS(Int)=  0.00000000
 Variable       Old X    -DE/DX   Delta X   Delta X   Delta X     New X
                                 (Linear)    (Quad)   (Total)
    R1        2.65196  -0.00003   0.00000  -0.00013  -0.00013   2.65184
    R2        2.05561   0.00000   0.00000   0.00001   0.00001   2.05561
    R3        2.52129   0.00002   0.00000   0.00010   0.00010   2.52139
    R4        2.63763   0.00003   0.00000   0.00012   0.00012   2.63775
    R5        2.58621  -0.00001   0.00000  -0.00003  -0.00003   2.58618
    R6        2.63827   0.00002   0.00000   0.00011   0.00011   2.63837
    R7        2.05501   0.00001   0.00000   0.00005   0.00005   2.05506
    R8        2.53568  -0.00003   0.00000  -0.00013  -0.00013   2.53555
    R9        2.63886  -0.00001   0.00000  -0.00007  -0.00007   2.63879
   R10        2.05317   0.00000   0.00000   0.00000   0.00000   2.05317
   R11        2.05748   0.00000   0.00000   0.00001   0.00001   2.05749
   R12        1.83322   0.00001   0.00000   0.00001   0.00001   1.83323
    A1        2.08214   0.00001   0.00000   0.00008   0.00008   2.08222
    A2        2.14827   0.00000   0.00000  -0.00001  -0.00001   2.14826
    A3        2.05278  -0.00001   0.00000  -0.00007  -0.00007   2.05271
    A4        2.07131   0.00000   0.00000  -0.00001  -0.00001   2.07131
    A5        2.04761   0.00000   0.00000   0.00004   0.00004   2.04765
    A6        2.16426   0.00000   0.00000  -0.00003  -0.00003   2.16423
    A7        2.10844  -0.00001   0.00000  -0.00011  -0.00011   2.10833
    A8        2.14575   0.00000   0.00000   0.00002   0.00002   2.14577
    A9        2.02899   0.00001   0.00000   0.00009   0.00009   2.02908
   A10        2.07622  -0.00001   0.00000  -0.00004  -0.00004   2.07618
   A11        2.10255   0.00000   0.00000  -0.00006  -0.00006   2.10249
   A12        2.10441   0.00001   0.00000   0.00010   0.00010   2.10451
   A13        2.06342   0.00000   0.00000   0.00002   0.00002   2.06345
   A14        2.10792   0.00000   0.00000  -0.00007  -0.00007   2.10785
   A15        2.11184   0.00000   0.00000   0.00005   0.00005   2.11189
   A16        1.92598   0.00001   0.00000   0.00005   0.00005   1.92604
   A17        2.06139   0.00001   0.00000   0.00002   0.00002   2.06141
    D1        3.14154   0.00000   0.00000   0.00005   0.00005  -3.14159
    D2        0.00019  -0.00001   0.00000  -0.00019  -0.00019   0.00000
    D3       -0.00026   0.00001   0.00000   0.00026   0.00026   0.00000
    D4        3.14158   0.00000   0.00000   0.00002   0.00002  -3.14159
    D5        0.00027  -0.00001   0.00000  -0.00027  -0.00027   0.00000
    D6       -3.14153   0.00000   0.00000  -0.00006  -0.00006   3.14159
    D7        0.00009   0.00000   0.00000  -0.00009  -0.00009   0.00000
    D8       -3.14143   0.00000   0.00000  -0.00016  -0.00016   3.14159
    D9        3.14142   0.00000   0.00000   0.00017   0.00017   3.14159
   D10       -0.00010   0.00000   0.00000   0.00009   0.00009   0.00000
   D11       -3.14142   0.00000   0.00000  -0.00017  -0.00017  -3.14159
   D12        0.00043   0.00000   0.00000  -0.00043  -0.00043   0.00000
   D13        3.14153   0.00000   0.00000   0.00007   0.00007   3.14159
   D14       -0.00002   0.00000   0.00000   0.00002   0.00002   0.00000
   D15       -0.00004   0.00000   0.00000   0.00004   0.00004   0.00000
   D16       -3.14159   0.00000   0.00000  -0.00001  -0.00001   3.14159
   D17       -0.00011   0.00000   0.00000   0.00011   0.00011   0.00000
   D18        3.14150   0.00000   0.00000   0.00009   0.00009  -3.14159
   D19        0.00005   0.00000   0.00000  -0.00005  -0.00005   0.00000
   D20        3.14157   0.00000   0.00000   0.00002   0.00002  -3.14159
   D21       -3.14159   0.00000   0.00000   0.00000   0.00000   3.14159
   D22       -0.00007   0.00000   0.00000   0.00007   0.00007   0.00000
         Item               Value     Threshold  Converged?
 Maximum Force            0.000034     0.000450     YES
 RMS     Force            0.000011     0.000300     YES
 Maximum Displacement     0.000305     0.001800     YES
 RMS     Displacement     0.000078     0.001200     YES
 Predicted change in Energy=-1.739915D-08
 Optimization completed.
    -- Stationary point found.
                           ----------------------------
                           !   Optimized Parameters   !
                           ! (Angstroms and Degrees)  !
 --------------------------                            --------------------------
 ! Name  Definition              Value          Derivative Info.                !
 --------------------------------------------------------------------------------
 ! R1    R(1,2)                  1.4034         -DE/DX =    0.0                 !
 ! R2    R(1,10)                 1.0878         -DE/DX =    0.0                 !
 ! R3    R(1,12)                 1.3342         -DE/DX =    0.0                 !
 ! R4    R(2,5)                  1.3958         -DE/DX =    0.0                 !
 ! R5    R(2,8)                  1.3686         -DE/DX =    0.0                 !
 ! R6    R(3,4)                  1.3961         -DE/DX =    0.0                 !
 ! R7    R(3,11)                 1.0875         -DE/DX =    0.0                 !
 ! R8    R(3,12)                 1.3418         -DE/DX =    0.0                 !
 ! R9    R(4,5)                  1.3964         -DE/DX =    0.0                 !
 ! R10   R(4,6)                  1.0865         -DE/DX =    0.0                 !
 ! R11   R(5,7)                  1.0888         -DE/DX =    0.0                 !
 ! R12   R(8,9)                  0.9701         -DE/DX =    0.0                 !
 ! A1    A(2,1,10)             119.2977         -DE/DX =    0.0                 !
 ! A2    A(2,1,12)             123.0867         -DE/DX =    0.0                 !
 ! A3    A(10,1,12)            117.6156         -DE/DX =    0.0                 !
 ! A4    A(1,2,5)              118.6776         -DE/DX =    0.0                 !
 ! A5    A(1,2,8)              117.3195         -DE/DX =    0.0                 !
 ! A6    A(5,2,8)              124.0029         -DE/DX =    0.0                 !
 ! A7    A(4,3,11)             120.8048         -DE/DX =    0.0                 !
 ! A8    A(4,3,12)             122.9426         -DE/DX =    0.0                 !
 ! A9    A(11,3,12)            116.2526         -DE/DX =    0.0                 !
 ! A10   A(3,4,5)              118.9586         -DE/DX =    0.0                 !
 ! A11   A(3,4,6)              120.4674         -DE/DX =    0.0                 !
 ! A12   A(5,4,6)              120.574          -DE/DX =    0.0                 !
 ! A13   A(2,5,4)              118.2255         -DE/DX =    0.0                 !
 ! A14   A(2,5,7)              120.7751         -DE/DX =    0.0                 !
 ! A15   A(4,5,7)              120.9994         -DE/DX =    0.0                 !
 ! A16   A(2,8,9)              110.3506         -DE/DX =    0.0                 !
 ! A17   A(1,12,3)             118.109          -DE/DX =    0.0                 !
 ! D1    D(10,1,2,5)          -180.003          -DE/DX =    0.0                 !
 ! D2    D(10,1,2,8)             0.0107         -DE/DX =    0.0                 !
 ! D3    D(12,1,2,5)            -0.0147         -DE/DX =    0.0                 !
 ! D4    D(12,1,2,8)          -180.001          -DE/DX =    0.0                 !
 ! D5    D(2,1,12,3)             0.0152         -DE/DX =    0.0                 !
 ! D6    D(10,1,12,3)          180.0037         -DE/DX =    0.0                 !
 ! D7    D(1,2,5,4)              0.0049         -DE/DX =    0.0                 !
 ! D8    D(1,2,5,7)            180.0092         -DE/DX =    0.0                 !
 ! D9    D(8,2,5,4)            179.9903         -DE/DX =    0.0                 !
 ! D10   D(8,2,5,7)             -0.0054         -DE/DX =    0.0                 !
 ! D11   D(1,2,8,9)           -179.99           -DE/DX =    0.0                 !
 ! D12   D(5,2,8,9)              0.0245         -DE/DX =    0.0                 !
 ! D13   D(11,3,4,5)           179.9962         -DE/DX =    0.0                 !
 ! D14   D(11,3,4,6)            -0.0009         -DE/DX =    0.0                 !
 ! D15   D(12,3,4,5)            -0.0026         -DE/DX =    0.0                 !
 ! D16   D(12,3,4,6)           180.0004         -DE/DX =    0.0                 !
 ! D17   D(4,3,12,1)            -0.0064         -DE/DX =    0.0                 !
 ! D18   D(11,3,12,1)         -180.0052         -DE/DX =    0.0                 !
 ! D19   D(3,4,5,2)              0.0031         -DE/DX =    0.0                 !
 ! D20   D(3,4,5,7)           -180.0012         -DE/DX =    0.0                 !
 ! D21   D(6,4,5,2)            180.0001         -DE/DX =    0.0                 !
 ! D22   D(6,4,5,7)             -0.0042         -DE/DX =    0.0                 !
 --------------------------------------------------------------------------------
 GradGradGradGradGradGradGradGradGradGradGradGradGradGradGradGradGradGrad

 1|1|UNPC-ASUS|Freq|RB3LYP|6-31+G(d)|C5H5N1O1|VIVEK|14-Sep-2023|0||#N G
 eom=AllCheck Guess=TCheck SCRF=Check GenChk RB3LYP/6-31+G(d) Freq||Tit
 le Card Required||0,1|C,-2.006984168,-0.1878238623,-0.0877520992|C,-0.
 6059087702,-0.2547498133,-0.1316223487|C,-1.9709093108,2.0874683965,0.
 2111410622|C,-0.575536007,2.1208554159,0.1804507306|C,0.1256815797,0.9
 259943516,0.0055043902|H,-0.0444341579,3.0622103487,0.291083321|H,1.21
 39975699,0.9135889757,-0.0235144204|O,-0.041266215,-1.4887893689,-0.30
 84946683|H,0.9261444576,-1.4181746486,-0.323217997|H,-2.5871310087,-1.
 1018749023,-0.1936102819|H,-2.546979372,2.9999283151,0.3458228915|N,-2
 .6767483075,0.9538969219,0.0795931||Version=EM64W-G09RevD.01|State=1-A
 |HF=-323.5213724|RMSD=4.033e-009|RMSF=2.316e-005|ZeroPoint=0.0926979|T
 hermal=0.0981369|Dipole=1.4260478,0.2598145,-0.0014586|DipoleDeriv=0.1
 863902,0.4953753,0.0599004,-0.0307245,0.111217,0.019159,-0.0094595,0.0
 059518,-0.0270976,0.2427606,-0.8232222,-0.1111927,-0.6108516,1.0834438
 ,0.1402803,-0.0833003,0.1456946,0.1562402,0.1395149,-0.268218,-0.03973
 96,-0.0263063,0.1252404,0.0218117,-0.0078489,0.0278969,-0.0314161,0.01
 96498,0.2329239,0.0275417,-0.0517189,0.0161855,0.0172869,-0.0099341,0.
 0101544,-0.1038412,0.1417379,-0.1128413,-0.0223276,0.2207755,-0.126071
 7,-0.0017613,0.0216375,0.0066064,-0.1545142,0.0347009,-0.0772619,-0.00
 75875,-0.0690607,-0.0627477,-0.0246511,-0.0065264,-0.0244504,0.1345746
 ,-0.1125927,0.034729,0.0110314,0.0420703,0.063811,-0.0116699,0.0120164
 ,-0.0114787,0.1426134,-0.4552549,0.6158119,0.082882,0.57682,-1.2194881
 ,-0.1239045,0.0778322,-0.1250633,-0.406883,0.1881312,-0.0775009,-0.006
 2868,-0.1347276,0.2882515,-0.0043001,-0.0138593,-0.0056826,0.3457809,0
 .0461226,-0.0697527,-0.0074391,-0.0449158,-0.0554529,-0.0214597,-0.004
 1373,-0.0207998,0.1132677,0.021568,0.0808387,0.0132364,0.0564045,-0.08
 36831,-0.0288183,0.010019,-0.0294349,0.1202132,-0.4527286,-0.0308818,-
 0.0000186,0.0722351,-0.1407057,0.018027,0.0135609,0.0206057,-0.288938|
 Polar=76.641853,-3.7708832,83.1884685,-1.4480641,5.9508028,39.5516517|
 PG=C01 [X(C5H5N1O1)]|NImag=0||0.67040976,0.03708242,0.75277715,-0.0083
 2920,0.07934038,0.15430225,-0.29634144,-0.06136021,-0.00245873,0.69752
 938,0.01854604,-0.12586659,-0.00767338,0.00779309,0.68888859,0.0080685
 4,-0.00566348,-0.07214231,-0.01280588,0.07139110,0.15530630,0.05622625
 ,-0.02420096,-0.00450863,-0.06223854,-0.02918380,-0.00248455,0.6830639
 4,0.02513989,-0.09199149,-0.01323487,-0.04357083,-0.01430286,0.0002744
 5,-0.05516932,0.72032676,0.00199052,-0.01199963,0.00205077,-0.00437745
 ,-0.00008685,-0.00796715,-0.02076653,0.07698185,0.15708731,-0.05390494
 ,0.03853181,0.00629137,0.07619043,0.02205101,0.00094220,-0.32449975,0.
 03904608,0.01164854,0.68002473,0.01907733,-0.01571810,-0.00181532,-0.0
 2339238,-0.05636422,-0.00659399,-0.02904869,-0.13158123,-0.00791979,0.
 03675856,0.72318209,0.00372884,-0.00230432,-0.00597599,-0.00504373,-0.
 00773351,-0.00273653,0.00267632,-0.00963158,-0.06725091,-0.00904483,0.
 07752822,0.13788342,-0.02183716,-0.02659826,-0.00280065,-0.20304007,-0
 .13142981,-0.01376461,-0.02603752,0.02978266,0.00476246,-0.18344269,0.
 12396714,0.01955379,0.74441673,-0.06782563,0.03932662,0.00609073,-0.05
 660159,-0.25651284,-0.02422236,0.07783803,0.03546422,0.00174034,0.0634
 3450,-0.28609406,-0.03203899,-0.00888897,0.66577706,-0.00823383,0.0050
 4893,0.00692274,-0.00390581,-0.02233426,-0.06469214,0.01109229,0.00294
 465,0.00751641,0.01158379,-0.03356128,-0.05956697,-0.01679041,0.071703
 62,0.13289839,-0.00118506,0.00226291,0.00032392,-0.00120997,0.00309162
 ,0.00063552,-0.00612999,-0.02987148,-0.00375242,-0.12812999,-0.1200021
 5,-0.01347044,0.01199358,0.01554528,0.00181046,0.12977452,0.00087710,0
 .00039756,0.00005172,0.00419483,-0.00131708,-0.00131546,0.00205159,0.0
 0336591,0.00024618,-0.11972247,-0.27027384,-0.02794557,-0.01478496,-0.
 01811458,-0.00235411,0.12876615,0.28463623,0.00014119,0.00001639,-0.00
 016340,0.00077922,-0.00128776,0.00768020,0.00045180,0.00104945,0.00123
 140,-0.01343350,-0.02794018,-0.03857801,-0.00218328,-0.00311482,0.0022
 2873,0.01432349,0.03097131,0.02861556,0.00114914,-0.00385429,-0.000370
 25,-0.01509155,0.00581174,0.00128380,0.00174188,0.00352493,0.00062212,
 -0.01187945,-0.00175661,0.00014941,-0.33302244,0.00020139,0.00751617,0
 .00092264,0.00032870,-0.00008154,0.35459244,-0.00272860,-0.00483342,-0
 .00143750,-0.02659186,0.00414245,0.00048476,0.00192501,-0.00497071,-0.
 00175814,0.02883799,0.00566995,-0.00040870,0.00005917,-0.06003526,-0.0
 0325063,-0.00042257,0.00070999,0.00063547,-0.00172730,0.05754268,-0.00
 022270,-0.00140983,0.00642133,-0.00298390,-0.00033050,0.00556905,0.000
 41131,-0.00179763,0.00776609,0.00417725,0.00036098,0.00320933,0.007499
 08,-0.00325590,-0.03597151,-0.00018024,0.00061676,-0.00394959,-0.00856
 725,0.00457721,0.02392680,-0.02808595,0.05629269,0.00825088,-0.1373792
 1,0.09773728,0.01535802,0.00352150,0.00482568,0.00051210,-0.00755215,-
 0.00043138,0.00033312,0.01378753,-0.01479324,-0.00210180,0.00046507,-0
 .00072384,-0.00010171,0.00299269,-0.00082059,-0.00027602,0.64440581,0.
 01819628,-0.00828223,-0.00220915,0.04341879,-0.26828371,-0.03140172,0.
 00530768,-0.00352247,-0.00041573,-0.00822018,0.00234129,-0.00053806,0.
 02423592,-0.04995533,-0.00820794,0.00113144,-0.00153694,-0.00025639,-0
 .00040017,0.00353504,0.00096620,-0.05960741,0.37117955,0.00323082,-0.0
 0316361,0.00452977,0.00819147,-0.03275861,-0.04290104,0.00057502,-0.00
 040678,-0.00144581,-0.00068997,-0.00073265,0.00790420,0.00304018,-0.00
 721922,0.00665322,0.00014225,-0.00020996,0.00016458,-0.00022155,0.0009
 7544,-0.00358178,-0.02329193,0.04729106,0.03068758,0.00304494,0.003749
 71,0.00046566,-0.02200607,-0.00290228,0.00007910,0.00088414,-0.0004039
 6,-0.00006094,-0.00142920,-0.00002837,0.00002285,0.00562029,-0.0040793
 3,-0.00068877,0.00016557,-0.00025110,-0.00003735,-0.00024765,0.0010237
 4,0.00014832,-0.48811354,-0.01982924,0.00944747,0.50319824,0.00091774,
 -0.00696911,-0.00119262,0.04721751,-0.00133322,-0.00089115,-0.00035690
 ,0.00022633,-0.00003706,0.00010218,-0.00035503,0.00000224,0.00190692,0
 .00207026,0.00027869,-0.00005696,0.00019721,0.00002777,-0.00184444,-0.
 00130860,-0.00016588,-0.07323614,-0.04754566,-0.00409650,0.02358586,0.
 05417471,0.00009141,-0.00126442,0.00173889,0.00669539,0.00035141,-0.00
 360132,-0.00005423,-0.00003530,0.00057347,0.00003868,0.00000606,-0.000
 39523,0.00010027,0.00042803,-0.00035488,-0.00001170,0.00003265,0.00000
 105,-0.00022886,-0.00023774,0.00027994,0.00239796,-0.00542053,-0.00348
 029,-0.00930205,0.00607077,0.00476185,-0.14992021,-0.13116960,-0.01448
 172,-0.01210670,-0.02818235,-0.00321783,0.00040338,0.00440697,0.000840
 61,-0.00043169,0.00134572,0.00018684,-0.00571347,0.00174154,0.00050786
 ,0.00013919,-0.00007257,-0.00005314,-0.00079838,-0.00138677,-0.0001777
 1,0.00152425,-0.00008067,-0.00011538,0.00036660,0.00028584,0.00001857,
 0.15102032,-0.13144675,-0.23882500,-0.02311433,0.00218868,0.00263758,-
 0.00070435,0.00257045,-0.00100955,-0.00161611,0.00001736,-0.00016173,-
 0.00001458,0.00089105,0.00073457,-0.00063828,-0.00026502,-0.00005142,0
 .00021044,0.00021423,0.00033808,0.00011833,-0.00044806,0.00135448,0.00
 053823,-0.00026401,0.00001502,0.00006054,0.13386706,0.26796882,-0.0145
 1265,-0.02311618,-0.04102254,0.00077900,0.00005441,0.00756124,0.000599
 75,-0.00166137,0.01052360,0.00001245,-0.00004729,-0.00005944,0.0003949
 8,-0.00065806,0.00530954,-0.00007862,0.00020532,-0.00156813,0.00003301
 ,0.00015828,-0.00058157,-0.00016322,0.00052849,-0.00257044,-0.00005403
 ,0.00004679,-0.00038724,0.01447741,0.02863162,0.02855844,0.00024815,-0
 .00431215,-0.00033944,-0.00069474,-0.00103623,-0.00010289,-0.14608973,
 0.13042335,0.01991824,-0.01149536,0.02713752,0.00397136,-0.00538766,-0
 .00178480,0.00006479,0.00032001,-0.00046601,-0.00014623,-0.00071791,0.
 00150213,0.00021812,0.00044915,0.00006871,-0.00003160,-0.00000484,-0.0
 0020781,-0.00003631,0.00034625,-0.00053056,-0.00006526,0.14930519,-0.0
 0242649,-0.00163551,-0.00138446,-0.00063812,0.00000676,-0.00006679,0.1
 2896233,-0.24059883,-0.03002711,-0.00252933,0.00480249,0.00013130,-0.0
 0067821,0.00100463,-0.00071083,0.00059748,0.00034029,0.00043174,-0.000
 22208,0.00017072,0.00001530,0.00040747,-0.00005454,0.00013617,0.000060
 00,-0.00002763,0.00004243,0.00054391,-0.00070044,-0.00017669,-0.130773
 90,0.26957517,-0.00009214,-0.00133683,0.00916843,-0.00004888,-0.000056
 13,0.00062807,0.01972791,-0.03006357,-0.04171823,0.00006110,-0.0006137
 7,0.00420360,0.00021062,-0.00068480,0.00643563,-0.00000598,0.00045840,
 -0.00299088,-0.00000871,-0.00002802,0.00009350,0.00001331,0.00014444,-
 0.00114681,-0.00000116,0.00004932,-0.00035487,0.00007630,-0.00014950,0
 .00051432,-0.02033319,0.03540141,0.03096493,-0.17980349,0.11357592,0.0
 1795679,-0.02361154,0.03770368,0.00600857,-0.18084555,-0.10813395,-0.0
 1133725,-0.03344995,-0.03362668,-0.00306353,0.00266289,-0.00478716,-0.
 00085476,-0.00712558,-0.00019744,0.00034105,0.00035858,0.00032964,-0.0
 0004627,-0.00601514,-0.00422115,-0.00027679,-0.00147848,0.00168620,0.0
 0029085,0.01517044,-0.00679442,-0.00142282,0.01372151,0.00669694,0.000
 40081,0.40041631,0.08459067,-0.29837988,-0.03342122,0.10734210,0.02830
 513,-0.00129101,-0.08069543,-0.27140608,-0.02510795,-0.09830753,0.0245
 5239,0.00295357,0.00153735,-0.07366529,-0.00891855,-0.00077668,0.00164
 665,-0.00074341,-0.00027610,-0.00096092,0.00030498,-0.00920246,0.00077
 051,-0.00035356,-0.00066102,0.00085571,-0.00003392,0.01870092,-0.03230
 041,-0.00396532,-0.02002024,-0.03288310,-0.00312095,-0.00223157,0.6534
 6528,0.01413919,-0.03414740,-0.06582996,0.01517930,0.00046407,0.017295
 64,-0.00772046,-0.02441929,-0.06836695,-0.01158708,0.00132901,0.021362
 53,-0.00002243,-0.00876855,-0.00737916,0.00026375,-0.00075723,0.007328
 49,-0.00012636,0.00028957,-0.00318159,-0.00093071,-0.00048068,0.005186
 81,-0.00001912,-0.00009237,0.00121861,0.00193819,-0.00332200,-0.006277
 78,-0.00311761,-0.00379246,-0.00579770,-0.00799666,0.07369735,0.104441
 07||-0.00005422,0.00002478,-0.00002189,0.00004861,0.00003366,0.0000301
 0,0.00004188,0.00004847,0.00000015,-0.00003944,0.00000671,-0.00000432,
 -0.00000106,-0.00003895,-0.00000450,0.00000347,-0.00000505,0.00000064,
 -0.00000188,0.00000563,-0.00000150,0.00000800,-0.00001047,-0.00001008,
 -0.00000427,0.00000550,0.00000212,0.00000866,-0.00000159,0.00000146,-0
 .00000160,-0.00001748,-0.00000301,-0.00000816,-0.00005121,0.00001083||
 |@


 THE LENGTH OF A MEETING IS PROPORTIONAL TO THE
 SQUARE OF THE PARTICIPANTS.
 Job cpu time:       0 days  0 hours  1 minutes 25.0 seconds.
 File lengths (MBytes):  RWF=     31 Int=      0 D2E=      0 Chk=      3 Scr=      1
 Normal termination of Gaussian 09 at Thu Sep 14 13:17:03 2023.
