 Entering Link 1 = C:\G09W\l1.exe PID=      2344.
  
 Copyright (c) 1988,1990,1992,1993,1995,1998,2003,2009,2013,
            Gaussian, Inc.  All Rights Reserved.
  
 This is part of the Gaussian(R) 09 program.  It is based on
 the Gaussian(R) 03 system (copyright 2003, Gaussian, Inc.),
 the Gaussian(R) 98 system (copyright 1998, Gaussian, Inc.),
 the Gaussian(R) 94 system (copyright 1995, Gaussian, Inc.),
 the Gaussian 92(TM) system (copyright 1992, Gaussian, Inc.),
 the Gaussian 90(TM) system (copyright 1990, Gaussian, Inc.),
 the Gaussian 88(TM) system (copyright 1988, Gaussian, Inc.),
 the Gaussian 86(TM) system (copyright 1986, Carnegie Mellon
 University), and the Gaussian 82(TM) system (copyright 1983,
 Carnegie Mellon University). Gaussian is a federally registered
 trademark of Gaussian, Inc.
  
 This software contains proprietary and confidential information,
 including trade secrets, belonging to Gaussian, Inc.
  
 This software is provided under written license and may be
 used, copied, transmitted, or stored only in accord with that
 written license.
  
 The following legend is applicable only to US Government
 contracts under FAR:
  
                    RESTRICTED RIGHTS LEGEND
  
 Use, reproduction and disclosure by the US Government is
 subject to restrictions as set forth in subparagraphs (a)
 and (c) of the Commercial Computer Software - Restricted
 Rights clause in FAR 52.227-19.
  
 Gaussian, Inc.
 340 Quinnipiac St., Bldg. 40, Wallingford CT 06492
  
  
 ---------------------------------------------------------------
 Warning -- This program may not be used in any manner that
 competes with the business of Gaussian, Inc. or will provide
 assistance to any competitor of Gaussian, Inc.  The licensee
 of this program is prohibited from giving any competitor of
 Gaussian, Inc. access to this program.  By using this program,
 the user acknowledges that Gaussian, Inc. is engaged in the
 business of creating and licensing software in the field of
 computational chemistry and represents and warrants to the
 licensee that it is not a competitor of Gaussian, Inc. and that
 it will not use this program in any manner prohibited above.
 ---------------------------------------------------------------
  

 Cite this work as:
 Gaussian 09, Revision D.01,
 M. J. Frisch, G. W. Trucks, H. B. Schlegel, G. E. Scuseria, 
 M. A. Robb, J. R. Cheeseman, G. Scalmani, V. Barone, B. Mennucci, 
 G. A. Petersson, H. Nakatsuji, M. Caricato, X. Li, H. P. Hratchian, 
 A. F. Izmaylov, J. Bloino, G. Zheng, J. L. Sonnenberg, M. Hada, 
 M. Ehara, K. Toyota, R. Fukuda, J. Hasegawa, M. Ishida, T. Nakajima, 
 Y. Honda, O. Kitao, H. Nakai, T. Vreven, J. A. Montgomery, Jr., 
 J. E. Peralta, F. Ogliaro, M. Bearpark, J. J. Heyd, E. Brothers, 
 K. N. Kudin, V. N. Staroverov, T. Keith, R. Kobayashi, J. Normand, 
 K. Raghavachari, A. Rendell, J. C. Burant, S. S. Iyengar, J. Tomasi, 
 M. Cossi, N. Rega, J. M. Millam, M. Klene, J. E. Knox, J. B. Cross, 
 V. Bakken, C. Adamo, J. Jaramillo, R. Gomperts, R. E. Stratmann, 
 O. Yazyev, A. J. Austin, R. Cammi, C. Pomelli, J. W. Ochterski, 
 R. L. Martin, K. Morokuma, V. G. Zakrzewski, G. A. Voth, 
 P. Salvador, J. J. Dannenberg, S. Dapprich, A. D. Daniels, 
 O. Farkas, J. B. Foresman, J. V. Ortiz, J. Cioslowski, 
 and D. J. Fox, Gaussian, Inc., Wallingford CT, 2013.
 
 ******************************************
 Gaussian 09:  EM64W-G09RevD.01 13-Apr-2013
                14-Sep-2023 
 ******************************************
 %nprocshared=2
 Will use up to    2 processors via shared memory.
 %mem=2GB
 %chk=E:\PROJECT- VIT group\ML\Substrates\molecule_8.chk
 -----------------------------------------------------
 # opt freq b3lyp/6-31g nosymm empiricaldispersion=gd3
 -----------------------------------------------------
 1/14=-1,18=20,19=15,26=3,38=1/1,3;
 2/9=110,12=2,15=1,17=6,18=5,40=1/2;
 3/5=1,6=6,11=2,16=1,25=1,30=1,71=1,74=-5,124=31/1,2,3;
 4//1;
 5/5=2,38=5/2;
 6/7=2,8=2,9=2,10=2,28=1/1;
 7/30=1/1,2,3,16;
 1/14=-1,18=20,19=15,26=3/3(2);
 2/9=110,15=1/2;
 99//99;
 2/9=110,15=1/2;
 3/5=1,6=6,11=2,16=1,25=1,30=1,71=1,74=-5,124=31/1,2,3;
 4/5=5,16=3,69=1/1;
 5/5=2,38=5/2;
 7/30=1/1,2,3,16;
 1/14=-1,18=20,19=15,26=3/3(-5);
 2/9=110,15=1/2;
 6/7=2,8=2,9=2,10=2,19=2,28=1/1;
 99/9=1/99;
 -----------
 molecule_11
 -----------
 Symbolic Z-matrix:
 Charge =  0 Multiplicity = 1
 C                    -0.26413  -0.70775   0. 
 C                     1.13103  -0.70775   0. 
 C                     1.82857   0.5       0. 
 C                     1.13092   1.70851  -0.0012 
 C                    -0.26391   1.70843  -0.00168 
 C                    -0.96151   0.50022  -0.00068 
 H                     1.68054  -1.66026   0.00132 
 H                    -0.81403   2.66071  -0.00263 
 B                     3.47857   0.50012   0.00095 
 O                     4.24934   0.49944  -1.33228 
 H                     5.19316   0.50175  -1.1568 
 O                     4.2478    0.50091   1.33507 
 H                     5.19183   0.4995    1.16067 
 H                    -2.03151   0.50025  -0.00044 
 H                     1.66591   2.63516  -0.00175 
 Cl                   -1.14405  -2.232     0.00072 
 

 GradGradGradGradGradGradGradGradGradGradGradGradGradGradGradGradGradGrad
 Berny optimization.
 Initialization pass.
                           ----------------------------
                           !    Initial Parameters    !
                           ! (Angstroms and Degrees)  !
 --------------------------                            --------------------------
 ! Name  Definition              Value          Derivative Info.                !
 --------------------------------------------------------------------------------
 ! R1    R(1,2)                  1.3952         estimate D2E/DX2                !
 ! R2    R(1,6)                  1.3948         estimate D2E/DX2                !
 ! R3    R(1,16)                 1.76           estimate D2E/DX2                !
 ! R4    R(2,3)                  1.3947         estimate D2E/DX2                !
 ! R5    R(2,7)                  1.0997         estimate D2E/DX2                !
 ! R6    R(3,4)                  1.3954         estimate D2E/DX2                !
 ! R7    R(3,9)                  1.65           estimate D2E/DX2                !
 ! R8    R(4,5)                  1.3948         estimate D2E/DX2                !
 ! R9    R(4,15)                 1.07           estimate D2E/DX2                !
 ! R10   R(5,6)                  1.3951         estimate D2E/DX2                !
 ! R11   R(5,8)                  1.0998         estimate D2E/DX2                !
 ! R12   R(6,14)                 1.07           estimate D2E/DX2                !
 ! R13   R(9,10)                 1.54           estimate D2E/DX2                !
 ! R14   R(9,12)                 1.54           estimate D2E/DX2                !
 ! R15   R(10,11)                0.96           estimate D2E/DX2                !
 ! R16   R(12,13)                0.96           estimate D2E/DX2                !
 ! A1    A(2,1,6)              119.9985         estimate D2E/DX2                !
 ! A2    A(2,1,16)             119.9972         estimate D2E/DX2                !
 ! A3    A(6,1,16)             120.0043         estimate D2E/DX2                !
 ! A4    A(1,2,3)              120.0086         estimate D2E/DX2                !
 ! A5    A(1,2,7)              119.9808         estimate D2E/DX2                !
 ! A6    A(3,2,7)              120.0106         estimate D2E/DX2                !
 ! A7    A(2,3,4)              119.9942         estimate D2E/DX2                !
 ! A8    A(2,3,9)              120.0128         estimate D2E/DX2                !
 ! A9    A(4,3,9)              119.993          estimate D2E/DX2                !
 ! A10   A(3,4,5)              119.994          estimate D2E/DX2                !
 ! A11   A(3,4,15)             120.003          estimate D2E/DX2                !
 ! A12   A(5,4,15)             120.003          estimate D2E/DX2                !
 ! A13   A(4,5,6)              120.0047         estimate D2E/DX2                !
 ! A14   A(4,5,8)              120.0113         estimate D2E/DX2                !
 ! A15   A(6,5,8)              119.984          estimate D2E/DX2                !
 ! A16   A(1,6,5)              120.0            estimate D2E/DX2                !
 ! A17   A(1,6,14)             120.0            estimate D2E/DX2                !
 ! A18   A(5,6,14)             120.0            estimate D2E/DX2                !
 ! A19   A(3,9,10)             120.0            estimate D2E/DX2                !
 ! A20   A(3,9,12)             120.0            estimate D2E/DX2                !
 ! A21   A(10,9,12)            120.0            estimate D2E/DX2                !
 ! A22   A(9,10,11)            109.5            estimate D2E/DX2                !
 ! A23   A(9,12,13)            109.5            estimate D2E/DX2                !
 ! D1    D(6,1,2,3)              0.0323         estimate D2E/DX2                !
 ! D2    D(6,1,2,7)            179.9532         estimate D2E/DX2                !
 ! D3    D(16,1,2,3)          -179.9729         estimate D2E/DX2                !
 ! D4    D(16,1,2,7)            -0.052          estimate D2E/DX2                !
 ! D5    D(2,1,6,5)              0.0149         estimate D2E/DX2                !
 ! D6    D(2,1,6,14)          -179.9851         estimate D2E/DX2                !
 ! D7    D(16,1,6,5)          -179.9798         estimate D2E/DX2                !
 ! D8    D(16,1,6,14)            0.0202         estimate D2E/DX2                !
 ! D9    D(1,2,3,4)             -0.0568         estimate D2E/DX2                !
 ! D10   D(1,2,3,9)            179.9619         estimate D2E/DX2                !
 ! D11   D(7,2,3,4)           -179.9777         estimate D2E/DX2                !
 ! D12   D(7,2,3,9)              0.041          estimate D2E/DX2                !
 ! D13   D(2,3,4,5)              0.0341         estimate D2E/DX2                !
 ! D14   D(2,3,4,15)          -179.9659         estimate D2E/DX2                !
 ! D15   D(9,3,4,5)           -179.9846         estimate D2E/DX2                !
 ! D16   D(9,3,4,15)             0.0154         estimate D2E/DX2                !
 ! D17   D(2,3,9,10)            89.9874         estimate D2E/DX2                !
 ! D18   D(2,3,9,12)           -90.0126         estimate D2E/DX2                !
 ! D19   D(4,3,9,10)           -89.9939         estimate D2E/DX2                !
 ! D20   D(4,3,9,12)            90.0061         estimate D2E/DX2                !
 ! D21   D(3,4,5,6)              0.0131         estimate D2E/DX2                !
 ! D22   D(3,4,5,8)           -179.9995         estimate D2E/DX2                !
 ! D23   D(15,4,5,6)          -179.9869         estimate D2E/DX2                !
 ! D24   D(15,4,5,8)             0.0005         estimate D2E/DX2                !
 ! D25   D(4,5,6,1)             -0.0376         estimate D2E/DX2                !
 ! D26   D(4,5,6,14)           179.9624         estimate D2E/DX2                !
 ! D27   D(8,5,6,1)            179.975          estimate D2E/DX2                !
 ! D28   D(8,5,6,14)            -0.025          estimate D2E/DX2                !
 ! D29   D(3,9,10,11)          179.8644         estimate D2E/DX2                !
 ! D30   D(12,9,10,11)          -0.1356         estimate D2E/DX2                !
 ! D31   D(3,9,12,13)          179.9122         estimate D2E/DX2                !
 ! D32   D(10,9,12,13)          -0.0878         estimate D2E/DX2                !
 --------------------------------------------------------------------------------
 Trust Radius=3.00D-01 FncErr=1.00D-07 GrdErr=1.00D-06
 Number of steps in this run=     81 maximum allowed number of steps=    100.
 GradGradGradGradGradGradGradGradGradGradGradGradGradGradGradGradGradGrad

                          Input orientation:                          
 ---------------------------------------------------------------------
 Center     Atomic      Atomic             Coordinates (Angstroms)
 Number     Number       Type             X           Y           Z
 ---------------------------------------------------------------------
      1          6           0       -0.264127   -0.707751    0.000000
      2          6           0        1.131033   -0.707751    0.000000
      3          6           0        1.828571    0.500000    0.000000
      4          6           0        1.130917    1.708509   -0.001199
      5          6           0       -0.263908    1.708431   -0.001678
      6          6           0       -0.961509    0.500225   -0.000682
      7          1           0        1.680541   -1.660264    0.001315
      8          1           0       -0.814030    2.660712   -0.002631
      9          5           0        3.478571    0.500120    0.000951
     10          8           0        4.249340    0.499439   -1.332283
     11          1           0        5.193161    0.501746   -1.156796
     12          8           0        4.247802    0.500914    1.335074
     13          1           0        5.191827    0.499499    1.160673
     14          1           0       -2.031509    0.500254   -0.000441
     15          1           0        1.665914    2.635158   -0.001751
     16         17           0       -1.144053   -2.231998    0.000720
 ---------------------------------------------------------------------
                    Distance matrix (angstroms):
                    1          2          3          4          5
     1  C    0.000000
     2  C    1.395160   0.000000
     3  C    2.416205   1.394712   0.000000
     4  C    2.790065   2.416260   1.395427   0.000000
     5  C    2.416183   2.789946   2.416356   1.394825   0.000000
     6  C    1.394829   2.416183   2.790080   2.416236   1.395138
     7  H    2.165414   1.099655   2.165330   3.413316   3.889601
     8  H    3.413055   3.889707   3.413506   2.165528   1.099761
     9  B    3.932778   2.640054   1.650000   2.640395   3.932705
    10  O    4.858360   3.599461   2.763168   3.599750   4.858145
    11  H    5.708156   4.393397   3.557899   4.392438   5.707012
    12  O    4.858065   3.599658   2.763168   3.599845   4.858037
    13  H    5.707192   4.392568   3.557899   4.393477   5.707680
    14  H    2.140774   3.385402   3.860080   3.385383   2.141053
    15  H    3.860065   3.385431   2.141345   1.070000   2.140803
    16  Cl   1.760000   2.738494   4.037364   4.550065   4.037529
                    6          7          8          9         10
     6  C    0.000000
     7  H    3.412938   0.000000
     8  H    2.165516   4.989362   0.000000
     9  B    4.440080   2.810724   4.805683   0.000000
    10  O    5.378300   3.611305   5.663638   1.540000   0.000000
    11  H    6.262313   4.284157   6.486877   2.068864   0.960000
    12  O    5.377840   3.611153   5.663596   1.540000   2.667358
    13  H    6.261971   4.282267   6.488022   2.068864   2.665167
    14  H    1.070000   4.295015   2.479887   5.510080   6.420503
    15  H    3.385453   4.295448   2.480076   2.800735   3.606342
    16  Cl   2.738315   2.881877   4.903829   5.369648   6.190826
                   11         12         13         14         15
    11  H    0.000000
    12  O    2.665168   0.000000
    13  H    2.317471   0.960000   0.000000
    14  H    7.316626   6.419762   7.316062   0.000000
    15  H    4.281010   3.606694   4.283028   4.269514   0.000000
    16  Cl   6.998105   6.190428   6.996423   2.872765   5.620065
                   16
    16  Cl   0.000000
 Symmetry turned off by external request.
 Stoichiometry    C6H6BClO2
 Framework group  C1[X(C6H6BClO2)]
 Deg. of freedom    42
 Full point group                 C1      NOp   1
 Rotational constants (GHZ):      1.9505028      0.5912798      0.5081182
 Standard basis: 6-31G (6D, 7F)
   106 basis functions,   268 primitive gaussians,   106 cartesian basis functions
    40 alpha electrons       40 beta electrons
       nuclear repulsion energy       521.8377730249 Hartrees.
 NAtoms=   16 NActive=   16 NUniq=   16 SFac= 1.00D+00 NAtFMM=   60 NAOKFM=F Big=F
 Integral buffers will be    131072 words long.
 Raffenetti 2 integral format.
 Two-electron integral symmetry is turned off.
 Nuclear repulsion after empirical dispersion term =      521.8262160905 Hartrees.
 One-electron integrals computed using PRISM.
 NBasis=   106 RedAO= T EigKep=  6.56D-04  NBF=   106
 NBsUse=   106 1.00D-06 EigRej= -1.00D+00 NBFU=   106
 ExpMin= 1.27D-01 ExpMax= 2.52D+04 ExpMxC= 3.78D+03 IAcc=1 IRadAn=         1 AccDes= 0.00D+00
 Harris functional with IExCor=  402 and IRadAn=       1 diagonalized for initial guess.
 HarFok:  IExCor=  402 AccDes= 0.00D+00 IRadAn=         1 IDoV= 1 UseB2=F ITyADJ=14
 ICtDFT=  3500011 ScaDFX=  1.000000  1.000000  1.000000  1.000000
 FoFCou: FMM=F IPFlag=           0 FMFlag=      100000 FMFlg1=           0
         NFxFlg=           0 DoJE=T BraDBF=F KetDBF=T FulRan=T
         wScrn=  0.000000 ICntrl=     500 IOpCl=  0 I1Cent=   200000004 NGrid=           0
         NMat0=    1 NMatS0=      1 NMatT0=    0 NMatD0=    1 NMtDS0=    0 NMtDT0=    0
 Symmetry not used in FoFCou.
 Keep R1 ints in memory in canonical form, NReq=17064270.
 Requested convergence on RMS density matrix=1.00D-08 within 128 cycles.
 Requested convergence on MAX density matrix=1.00D-06.
 Requested convergence on             energy=1.00D-06.
 No special actions if energy rises.
 Integral accuracy reduced to 1.0D-05 until final iterations.
 Initial convergence to 1.0D-05 achieved.  Increase integral accuracy.
 SCF Done:  E(RB3LYP) =  -867.699888607     A.U. after   15 cycles
            NFock= 15  Conv=0.52D-08     -V/T= 2.0040

 **********************************************************************

            Population analysis using the SCF density.

 **********************************************************************

 Alpha  occ. eigenvalues -- -101.52866 -19.17911 -19.17910 -10.25474 -10.20611
 Alpha  occ. eigenvalues --  -10.20269 -10.20224 -10.20034 -10.19794  -9.46266
 Alpha  occ. eigenvalues --   -7.22634  -7.21514  -7.21489  -6.86257  -1.03712
 Alpha  occ. eigenvalues --   -1.01145  -0.89870  -0.84383  -0.76430  -0.74139
 Alpha  occ. eigenvalues --   -0.62598  -0.60904  -0.55853  -0.52597  -0.52327
 Alpha  occ. eigenvalues --   -0.47777  -0.45905  -0.43656  -0.42319  -0.41828
 Alpha  occ. eigenvalues --   -0.39796  -0.37118  -0.36246  -0.34662  -0.34362
 Alpha  occ. eigenvalues --   -0.33373  -0.32253  -0.31176  -0.26592  -0.24946
 Alpha virt. eigenvalues --   -0.01736  -0.01400  -0.01120   0.01766   0.03767
 Alpha virt. eigenvalues --    0.10225   0.10551   0.12712   0.14897   0.16133
 Alpha virt. eigenvalues --    0.16506   0.18474   0.25226   0.27387   0.27751
 Alpha virt. eigenvalues --    0.29733   0.31880   0.33801   0.38579   0.42151
 Alpha virt. eigenvalues --    0.43048   0.44411   0.46224   0.47239   0.48243
 Alpha virt. eigenvalues --    0.50000   0.53489   0.56768   0.57276   0.58740
 Alpha virt. eigenvalues --    0.61359   0.61858   0.63748   0.63949   0.65360
 Alpha virt. eigenvalues --    0.66258   0.68789   0.73379   0.76162   0.80287
 Alpha virt. eigenvalues --    0.82893   0.84078   0.84304   0.86708   0.88443
 Alpha virt. eigenvalues --    0.88964   0.90101   0.92670   0.96138   0.99527
 Alpha virt. eigenvalues --    1.01730   1.04808   1.08526   1.09149   1.15772
 Alpha virt. eigenvalues --    1.17083   1.19115   1.21803   1.23250   1.24582
 Alpha virt. eigenvalues --    1.33303   1.43356   1.49074   1.63622   1.75570
 Alpha virt. eigenvalues --    1.90602
          Condensed to atoms (all electrons):
               1          2          3          4          5          6
     1  C    5.313548   0.435933  -0.036571  -0.052417  -0.031469   0.472687
     2  C    0.435933   5.094732   0.482640  -0.023948  -0.045161  -0.064072
     3  C   -0.036571   0.482640   5.029181   0.498680  -0.048478  -0.033693
     4  C   -0.052417  -0.023948   0.498680   4.975059   0.506757  -0.039377
     5  C   -0.031469  -0.045161  -0.048478   0.506757   4.901142   0.518206
     6  C    0.472687  -0.064072  -0.033693  -0.039377   0.518206   4.991469
     7  H   -0.036679   0.355122  -0.030347   0.005273   0.000368   0.003865
     8  H    0.004892   0.000614   0.004594  -0.033196   0.355167  -0.036109
     9  B    0.006964  -0.032879   0.286266  -0.031039   0.006915  -0.000904
    10  O   -0.000005   0.000201  -0.039378   0.000203  -0.000002   0.000000
    11  H    0.000002   0.000026   0.004299   0.000020   0.000002   0.000000
    12  O   -0.000005   0.000200  -0.039361   0.000200  -0.000002   0.000000
    13  H    0.000002   0.000027   0.004299   0.000019   0.000002   0.000000
    14  H   -0.035953   0.004523   0.000432   0.004917  -0.027760   0.355421
    15  H    0.000216   0.006636  -0.040106   0.358752  -0.037840   0.005458
    16  Cl   0.216179  -0.067507   0.002784   0.000653   0.002565  -0.069612
               7          8          9         10         11         12
     1  C   -0.036679   0.004892   0.006964  -0.000005   0.000002  -0.000005
     2  C    0.355122   0.000614  -0.032879   0.000201   0.000026   0.000200
     3  C   -0.030347   0.004594   0.286266  -0.039378   0.004299  -0.039361
     4  C    0.005273  -0.033196  -0.031039   0.000203   0.000020   0.000200
     5  C    0.000368   0.355167   0.006915  -0.000002   0.000002  -0.000002
     6  C    0.003865  -0.036109  -0.000904   0.000000   0.000000   0.000000
     7  H    0.552308   0.000010  -0.009077   0.000063  -0.000007   0.000064
     8  H    0.000010   0.573813  -0.000179   0.000000   0.000000   0.000000
     9  B   -0.009077  -0.000179   3.535074   0.318090  -0.017413   0.318092
    10  O    0.000063   0.000000   0.318090   8.152520   0.224620  -0.034721
    11  H   -0.000007   0.000000  -0.017413   0.224620   0.426531  -0.001743
    12  O    0.000064   0.000000   0.318092  -0.034721  -0.001743   8.152505
    13  H   -0.000007   0.000000  -0.017415  -0.001743   0.002513   0.224625
    14  H   -0.000174  -0.005020  -0.000003   0.000000   0.000000   0.000000
    15  H   -0.000133  -0.004079  -0.009781   0.000048  -0.000003   0.000048
    16  Cl   0.002469  -0.000125  -0.000156   0.000000   0.000000   0.000000
              13         14         15         16
     1  C    0.000002  -0.035953   0.000216   0.216179
     2  C    0.000027   0.004523   0.006636  -0.067507
     3  C    0.004299   0.000432  -0.040106   0.002784
     4  C    0.000019   0.004917   0.358752   0.000653
     5  C    0.000002  -0.027760  -0.037840   0.002565
     6  C    0.000000   0.355421   0.005458  -0.069612
     7  H   -0.000007  -0.000174  -0.000133   0.002469
     8  H    0.000000  -0.005020  -0.004079  -0.000125
     9  B   -0.017415  -0.000003  -0.009781  -0.000156
    10  O   -0.001743   0.000000   0.000048   0.000000
    11  H    0.002513   0.000000  -0.000003   0.000000
    12  O    0.224625   0.000000   0.000048   0.000000
    13  H    0.426524   0.000000  -0.000003   0.000000
    14  H    0.000000   0.551511  -0.000165   0.001716
    15  H   -0.000003  -0.000165   0.585882   0.000011
    16  Cl   0.000000   0.001716   0.000011  16.799131
 Mulliken charges:
               1
     1  C   -0.257324
     2  C   -0.147087
     3  C   -0.045243
     4  C   -0.170556
     5  C   -0.100412
     6  C   -0.103339
     7  H    0.156880
     8  H    0.139618
     9  B    0.647446
    10  O   -0.619897
    11  H    0.361154
    12  O   -0.619902
    13  H    0.361158
    14  H    0.150555
    15  H    0.135058
    16  Cl   0.111893
 Sum of Mulliken charges =   0.00000
 Mulliken charges with hydrogens summed into heavy atoms:
               1
     1  C   -0.257324
     2  C    0.009792
     3  C   -0.045243
     4  C   -0.035498
     5  C    0.039206
     6  C    0.047216
     9  B    0.647446
    10  O   -0.258743
    12  O   -0.258745
    16  Cl   0.111893
 Electronic spatial extent (au):  <R**2>=           2486.4569
 Charge=              0.0000 electrons
 Dipole moment (field-independent basis, Debye):
    X=              2.9894    Y=              1.8334    Z=              0.0010  Tot=              3.5068
 Quadrupole moment (field-independent basis, Debye-Ang):
   XX=            -36.7577   YY=            -62.4680   ZZ=            -73.4656
   XY=             -1.2892   XZ=              0.0184   YZ=             -0.0166
 Traceless Quadrupole moment (field-independent basis, Debye-Ang):
   XX=             20.8061   YY=             -4.9043   ZZ=            -15.9018
   XY=             -1.2892   XZ=              0.0184   YZ=             -0.0166
 Octapole moment (field-independent basis, Debye-Ang**2):
  XXX=            -21.3484  YYY=             17.8890  ZZZ=             -0.0447  XYY=            -63.8390
  XXY=             16.5319  XXZ=              0.1006  XZZ=            -93.4197  YZZ=             -3.3870
  YYZ=             -0.0336  XYZ=             -0.0532
 Hexadecapole moment (field-independent basis, Debye-Ang**3):
 XXXX=           -895.2695 YYYY=           -729.9199 ZZZZ=           -214.4429 XXXY=           -127.4910
 XXXZ=              0.4414 YYYX=           -216.5456 YYYZ=              0.0472 ZZZX=             -0.2449
 ZZZY=              0.0891 XXYY=           -469.7383 XXZZ=           -465.1045 YYZZ=           -169.4398
 XXYZ=             -0.1997 YYXZ=             -0.1219 ZZXY=            -85.6502
 N-N= 5.218262160904D+02 E-N=-3.088988727713D+03  KE= 8.642586183002D+02
 Calling FoFJK, ICntrl=      2127 FMM=F ISym2X=0 I1Cent= 0 IOpClX= 0 NMat=1 NMatS=1 NMatT=0.
 -------------------------------------------------------------------
 Center     Atomic                   Forces (Hartrees/Bohr)
 Number     Number              X              Y              Z
 -------------------------------------------------------------------
      1        6           0.016350033    0.025780171   -0.000038386
      2        6           0.003611622   -0.018370109    0.000138046
      3        6           0.053180127    0.000694132   -0.000027810
      4        6          -0.006402746   -0.001345183   -0.000008482
      5        6          -0.003725809    0.009963270    0.000013790
      6        6           0.000844116   -0.000838841   -0.000020086
      7        1          -0.006653264    0.008088590   -0.000049317
      8        1           0.004061002   -0.008960570    0.000016378
      9        5           0.024288675   -0.000869132    0.000011360
     10        8          -0.054091559    0.000185697    0.069879620
     11        1           0.020687977   -0.000003146   -0.003649703
     12        8          -0.054011988    0.000126319   -0.069941894
     13        1           0.020683134   -0.000033335    0.003673175
     14        1          -0.010269668   -0.000984498   -0.000013031
     15        1           0.004749405    0.009486225    0.000000194
     16       17          -0.013301055   -0.022919591    0.000016146
 -------------------------------------------------------------------
 Cartesian Forces:  Max     0.069941894 RMS     0.021644713

 GradGradGradGradGradGradGradGradGradGradGradGradGradGradGradGradGradGrad
 Berny optimization.
 FormGI is forming the generalized inverse of G from B-inverse, IUseBI=4.
 Internal  Forces:  Max     0.074057166 RMS     0.014688617
 Search for a local minimum.
 Step number   1 out of a maximum of   81
 All quantities printed in internal units (Hartrees-Bohrs-Radians)
 Mixed Optimization -- RFO/linear search
 Second derivative matrix not updated -- first step.
 ITU=  0
     Eigenvalues ---    0.00230   0.00300   0.00369   0.00369   0.01562
     Eigenvalues ---    0.02152   0.02153   0.02154   0.02155   0.02155
     Eigenvalues ---    0.02155   0.02156   0.02157   0.16000   0.16000
     Eigenvalues ---    0.16000   0.16000   0.16000   0.16000   0.20635
     Eigenvalues ---    0.22000   0.23479   0.23493   0.25000   0.25000
     Eigenvalues ---    0.25000   0.25000   0.28519   0.28519   0.29539
     Eigenvalues ---    0.33709   0.33720   0.37230   0.37230   0.42218
     Eigenvalues ---    0.42394   0.46412   0.46453   0.46466   0.46497
     Eigenvalues ---    0.55473   0.55473
 RFO step:  Lambda=-4.69570571D-02 EMin= 2.30000000D-03
 Linear search not attempted -- first point.
 Maximum step size (   0.300) exceeded in Quadratic search.
    -- Step size scaled by   0.779
 Iteration  1 RMS(Cart)=  0.04625387 RMS(Int)=  0.00041825
 Iteration  2 RMS(Cart)=  0.00042352 RMS(Int)=  0.00000196
 Iteration  3 RMS(Cart)=  0.00000032 RMS(Int)=  0.00000195
 Variable       Old X    -DE/DX   Delta X   Delta X   Delta X     New X
                                 (Linear)    (Quad)   (Total)
    R1        2.63647   0.00145   0.00000   0.00210   0.00211   2.63858
    R2        2.63584   0.00206   0.00000   0.00274   0.00274   2.63858
    R3        3.32592   0.02650   0.00000   0.06026   0.06026   3.38618
    R4        2.63562   0.00886   0.00000   0.01376   0.01376   2.64939
    R5        2.07805  -0.01033   0.00000  -0.02094  -0.02094   2.05711
    R6        2.63697   0.00966   0.00000   0.01511   0.01511   2.65209
    R7        3.11805  -0.04244   0.00000  -0.13045  -0.13045   2.98759
    R8        2.63584   0.00459   0.00000   0.00709   0.00709   2.64292
    R9        2.02201   0.01059   0.00000   0.01967   0.01967   2.04167
   R10        2.63643   0.00385   0.00000   0.00557   0.00557   2.64200
   R11        2.07825  -0.00979   0.00000  -0.01985  -0.01985   2.05840
   R12        2.02201   0.01027   0.00000   0.01907   0.01907   2.04108
   R13        2.91018  -0.07406   0.00000  -0.17359  -0.17359   2.73659
   R14        2.91018  -0.07406   0.00000  -0.17359  -0.17359   2.73659
   R15        1.81414   0.01967   0.00000   0.02545   0.02545   1.83959
   R16        1.81414   0.01967   0.00000   0.02545   0.02545   1.83959
    A1        2.09437   0.00486   0.00000   0.01196   0.01197   2.10633
    A2        2.09435  -0.00232   0.00000  -0.00571  -0.00571   2.08864
    A3        2.09447  -0.00253   0.00000  -0.00626  -0.00626   2.08821
    A4        2.09455  -0.00105   0.00000  -0.00260  -0.00260   2.09195
    A5        2.09406  -0.00126   0.00000  -0.00543  -0.00543   2.08863
    A6        2.09458   0.00231   0.00000   0.00803   0.00803   2.10261
    A7        2.09429  -0.00290   0.00000  -0.00632  -0.00631   2.08798
    A8        2.09462   0.00065   0.00000   0.00108   0.00108   2.09569
    A9        2.09427   0.00224   0.00000   0.00524   0.00524   2.09951
   A10        2.09429  -0.00013   0.00000   0.00068   0.00067   2.09496
   A11        2.09445   0.00070   0.00000   0.00205   0.00205   2.09650
   A12        2.09445  -0.00057   0.00000  -0.00273  -0.00273   2.09172
   A13        2.09448   0.00200   0.00000   0.00558   0.00557   2.10005
   A14        2.09459   0.00000   0.00000   0.00098   0.00098   2.09557
   A15        2.09411  -0.00200   0.00000  -0.00656  -0.00655   2.08756
   A16        2.09440  -0.00277   0.00000  -0.00930  -0.00930   2.08510
   A17        2.09439   0.00039   0.00000   0.00091   0.00091   2.09531
   A18        2.09439   0.00238   0.00000   0.00838   0.00839   2.10278
   A19        2.09440  -0.00035   0.00000  -0.00092  -0.00093   2.09347
   A20        2.09440  -0.00036   0.00000  -0.00093  -0.00093   2.09346
   A21        2.09440   0.00071   0.00000   0.00186   0.00186   2.09625
   A22        1.91114   0.01337   0.00000   0.05030   0.05030   1.96143
   A23        1.91114   0.01337   0.00000   0.05029   0.05029   1.96143
    D1        0.00056  -0.00002   0.00000  -0.00021  -0.00021   0.00035
    D2        3.14078   0.00002   0.00000   0.00022   0.00022   3.14100
    D3       -3.14112  -0.00002   0.00000  -0.00019  -0.00019  -3.14131
    D4       -0.00091   0.00002   0.00000   0.00024   0.00024  -0.00067
    D5        0.00026  -0.00001   0.00000  -0.00007  -0.00007   0.00019
    D6       -3.14133   0.00000   0.00000  -0.00003  -0.00002  -3.14136
    D7       -3.14124  -0.00001   0.00000  -0.00009  -0.00009  -3.14133
    D8        0.00035   0.00000   0.00000  -0.00004  -0.00004   0.00031
    D9       -0.00099   0.00003   0.00000   0.00033   0.00033  -0.00066
   D10        3.14093   0.00002   0.00000   0.00022   0.00022   3.14115
   D11       -3.14120  -0.00001   0.00000  -0.00009  -0.00009  -3.14130
   D12        0.00072  -0.00002   0.00000  -0.00020  -0.00020   0.00052
   D13        0.00060  -0.00001   0.00000  -0.00017  -0.00017   0.00043
   D14       -3.14100  -0.00001   0.00000  -0.00017  -0.00017  -3.14116
   D15       -3.14132  -0.00001   0.00000  -0.00006  -0.00006  -3.14138
   D16        0.00027  -0.00001   0.00000  -0.00006  -0.00006   0.00021
   D17        1.57058   0.00008   0.00000   0.00123   0.00123   1.57181
   D18       -1.57102  -0.00007   0.00000  -0.00108  -0.00108  -1.57210
   D19       -1.57069   0.00007   0.00000   0.00112   0.00112  -1.56957
   D20        1.57090  -0.00008   0.00000  -0.00119  -0.00119   1.56971
   D21        0.00023  -0.00001   0.00000  -0.00011  -0.00011   0.00012
   D22       -3.14158   0.00000   0.00000   0.00001   0.00001  -3.14157
   D23       -3.14136  -0.00001   0.00000  -0.00011  -0.00011  -3.14148
   D24        0.00001   0.00000   0.00000   0.00001   0.00001   0.00002
   D25       -0.00066   0.00002   0.00000   0.00023   0.00023  -0.00043
   D26        3.14094   0.00002   0.00000   0.00019   0.00019   3.14112
   D27        3.14116   0.00001   0.00000   0.00011   0.00011   3.14126
   D28       -0.00044   0.00001   0.00000   0.00006   0.00006  -0.00037
   D29        3.13923  -0.00004   0.00000  -0.00059  -0.00059   3.13864
   D30       -0.00237   0.00011   0.00000   0.00173   0.00173  -0.00064
   D31        3.14006   0.00006   0.00000   0.00096   0.00096   3.14102
   D32       -0.00153  -0.00009   0.00000  -0.00135  -0.00135  -0.00288
         Item               Value     Threshold  Converged?
 Maximum Force            0.074057     0.000450     NO 
 RMS     Force            0.014689     0.000300     NO 
 Maximum Displacement     0.149222     0.001800     NO 
 RMS     Displacement     0.046340     0.001200     NO 
 Predicted change in Energy=-2.444056D-02
 GradGradGradGradGradGradGradGradGradGradGradGradGradGradGradGradGradGrad

                          Input orientation:                          
 ---------------------------------------------------------------------
 Center     Atomic      Atomic             Coordinates (Angstroms)
 Number     Number       Type             X           Y           Z
 ---------------------------------------------------------------------
      1          6           0       -0.232744   -0.701917    0.000016
      2          6           0        1.163509   -0.709700    0.000230
      3          6           0        1.868301    0.502266    0.000077
      4          6           0        1.162595    1.715352   -0.001097
      5          6           0       -0.235974    1.711548   -0.001590
      6          6           0       -0.938565    0.502826   -0.000775
      7          1           0        1.697068   -1.658546    0.001413
      8          1           0       -0.784278    2.652743   -0.002518
      9          5           0        3.449265    0.499376    0.000923
     10          8           0        4.172846    0.498773   -1.253486
     11          1           0        5.137774    0.499595   -1.124811
     12          8           0        4.171494    0.500237    1.256109
     13          1           0        5.136557    0.497739    1.128472
     14          1           0       -2.018641    0.496938   -0.000714
     15          1           0        1.697743    2.653913   -0.001624
     16         17           0       -1.128406   -2.253902    0.000649
 ---------------------------------------------------------------------
                    Distance matrix (angstroms):
                    1          2          3          4          5
     1  C    0.000000
     2  C    1.396275   0.000000
     3  C    2.421662   1.401996   0.000000
     4  C    2.791086   2.425052   1.403424   0.000000
     5  C    2.413468   2.796605   2.427002   1.398575   0.000000
     6  C    1.396278   2.426714   2.806866   2.425921   1.398086
     7  H    2.153907   1.088575   2.167587   3.415971   3.885125
     8  H    3.399697   3.885859   3.414781   2.160791   1.089259
     9  B    3.873021   2.585835   1.580967   2.589877   3.879479
    10  O    4.735202   3.476825   2.623425   3.479964   4.740861
    11  H    5.617056   4.303822   3.457576   4.306140   5.622065
    12  O    4.735003   3.476946   2.623417   3.480021   4.740765
    13  H    5.616224   4.303016   3.457570   4.307073   5.622674
    14  H    2.150972   3.403242   3.886946   3.406581   2.157123
    15  H    3.871482   3.405774   2.158397   1.080407   2.151119
    16  Cl   1.791890   2.763591   4.071451   4.582975   4.064632
                    6          7          8          9         10
     6  C    0.000000
     7  H    3.408533   0.000000
     8  H    2.155446   4.974365   0.000000
     9  B    4.387832   2.779716   4.749725   0.000000
    10  O    5.262682   3.515433   5.547754   1.448141   0.000000
    11  H    6.179430   4.214784   6.400490   2.029368   0.973470
    12  O    5.262364   3.515308   5.547711   1.448139   2.509596
    13  H    6.179185   4.213064   6.401520   2.029365   2.569526
    14  H    1.080092   4.295650   2.484180   5.467907   6.316957
    15  H    3.402542   4.312460   2.482021   2.776665   3.512537
    16  Cl   2.763258   2.887517   4.918699   5.341873   6.103551
                   11         12         13         14         15
    11  H    0.000000
    12  O    2.569528   0.000000
    13  H    2.253283   0.973470   0.000000
    14  H    7.244161   6.316438   7.243750   0.000000
    15  H    4.211465   3.512785   4.213270   4.296981   0.000000
    16  Cl   6.936383   6.103311   6.934931   2.891304   5.663371
                   16
    16  Cl   0.000000
 Symmetry turned off by external request.
 Stoichiometry    C6H6BClO2
 Framework group  C1[X(C6H6BClO2)]
 Deg. of freedom    42
 Full point group                 C1      NOp   1
 Rotational constants (GHZ):      2.0050909      0.6091321      0.5178783
 Standard basis: 6-31G (6D, 7F)
   106 basis functions,   268 primitive gaussians,   106 cartesian basis functions
    40 alpha electrons       40 beta electrons
       nuclear repulsion energy       527.0207572067 Hartrees.
 NAtoms=   16 NActive=   16 NUniq=   16 SFac= 1.00D+00 NAtFMM=   60 NAOKFM=F Big=F
 Integral buffers will be    131072 words long.
 Raffenetti 2 integral format.
 Two-electron integral symmetry is turned off.
 Nuclear repulsion after empirical dispersion term =      527.0090763476 Hartrees.
 One-electron integrals computed using PRISM.
 NBasis=   106 RedAO= T EigKep=  6.72D-04  NBF=   106
 NBsUse=   106 1.00D-06 EigRej= -1.00D+00 NBFU=   106
 Initial guess from the checkpoint file:  "E:\PROJECT- VIT group\ML\Substrates\molecule_8.chk"
 B after Tr=    -0.000403   -0.012263    0.000000
         Rot=    0.999999   -0.000007   -0.000001   -0.001352 Ang=  -0.15 deg.
 ExpMin= 1.27D-01 ExpMax= 2.52D+04 ExpMxC= 3.78D+03 IAcc=1 IRadAn=         1 AccDes= 0.00D+00
 Harris functional with IExCor=  402 and IRadAn=       1 diagonalized for initial guess.
 HarFok:  IExCor=  402 AccDes= 0.00D+00 IRadAn=         1 IDoV= 1 UseB2=F ITyADJ=14
 ICtDFT=  3500011 ScaDFX=  1.000000  1.000000  1.000000  1.000000
 FoFCou: FMM=F IPFlag=           0 FMFlag=      100000 FMFlg1=           0
         NFxFlg=           0 DoJE=T BraDBF=F KetDBF=T FulRan=T
         wScrn=  0.000000 ICntrl=     500 IOpCl=  0 I1Cent=   200000004 NGrid=           0
         NMat0=    1 NMatS0=      1 NMatT0=    0 NMatD0=    1 NMtDS0=    0 NMtDT0=    0
 Symmetry not used in FoFCou.
 Keep R1 ints in memory in canonical form, NReq=17064270.
 Requested convergence on RMS density matrix=1.00D-08 within 128 cycles.
 Requested convergence on MAX density matrix=1.00D-06.
 Requested convergence on             energy=1.00D-06.
 No special actions if energy rises.
 Integral accuracy reduced to 1.0D-05 until final iterations.
 Initial convergence to 1.0D-05 achieved.  Increase integral accuracy.
 SCF Done:  E(RB3LYP) =  -867.727184399     A.U. after   13 cycles
            NFock= 13  Conv=0.54D-08     -V/T= 2.0038
 Calling FoFJK, ICntrl=      2127 FMM=F ISym2X=0 I1Cent= 0 IOpClX= 0 NMat=1 NMatS=1 NMatT=0.
 -------------------------------------------------------------------
 Center     Atomic                   Forces (Hartrees/Bohr)
 Number     Number              X              Y              Z
 -------------------------------------------------------------------
      1        6           0.010234134    0.016407391   -0.000024876
      2        6          -0.002258476   -0.007128803    0.000089371
      3        6           0.020860886    0.001338539   -0.000030431
      4        6          -0.005193066   -0.002543330   -0.000005618
      5        6           0.000270865    0.003598002    0.000009704
      6        6          -0.001732700   -0.002136093   -0.000008639
      7        1          -0.002101584    0.002479465   -0.000030112
      8        1           0.000969569   -0.002695590    0.000009467
      9        5           0.017995750   -0.000456549    0.000007758
     10        8          -0.021055918    0.000132466    0.037264853
     11        1           0.005408237   -0.000047659   -0.006947963
     12        8          -0.021015623    0.000044147   -0.037287050
     13        1           0.005400739   -0.000012115    0.006953845
     14        1          -0.002611293   -0.000456001   -0.000012653
     15        1           0.001370633    0.002781325    0.000003140
     16       17          -0.006542153   -0.011305196    0.000009203
 -------------------------------------------------------------------
 Cartesian Forces:  Max     0.037287050 RMS     0.010478157

 GradGradGradGradGradGradGradGradGradGradGradGradGradGradGradGradGradGrad
 Berny optimization.
 Using GEDIIS/GDIIS optimizer.
 FormGI is forming the generalized inverse of G from B-inverse, IUseBI=4.
 Internal  Forces:  Max     0.034079704 RMS     0.006803688
 Search for a local minimum.
 Step number   2 out of a maximum of   81
 All quantities printed in internal units (Hartrees-Bohrs-Radians)
 Mixed Optimization -- RFO/linear search
 Update second derivatives using D2CorX and points    1    2
 DE= -2.73D-02 DEPred=-2.44D-02 R= 1.12D+00
 TightC=F SS=  1.41D+00  RLast= 3.00D-01 DXNew= 5.0454D-01 9.0006D-01
 Trust test= 1.12D+00 RLast= 3.00D-01 DXMaxT set to 5.05D-01
 ITU=  1  0
 Use linear search instead of GDIIS.
     Eigenvalues ---    0.00230   0.00300   0.00369   0.00369   0.01558
     Eigenvalues ---    0.02152   0.02153   0.02154   0.02155   0.02155
     Eigenvalues ---    0.02155   0.02156   0.02157   0.13752   0.16000
     Eigenvalues ---    0.16000   0.16000   0.16000   0.16006   0.21614
     Eigenvalues ---    0.22043   0.22402   0.23500   0.24073   0.25000
     Eigenvalues ---    0.25000   0.25000   0.27766   0.28519   0.29483
     Eigenvalues ---    0.33714   0.33861   0.37229   0.37418   0.42229
     Eigenvalues ---    0.42377   0.46434   0.46454   0.46459   0.46673
     Eigenvalues ---    0.55473   0.56261
 RFO step:  Lambda=-3.29191514D-03 EMin= 2.30000000D-03
 Quartic linear search produced a step of  0.59036.
 Iteration  1 RMS(Cart)=  0.03611070 RMS(Int)=  0.00251615
 Iteration  2 RMS(Cart)=  0.00214454 RMS(Int)=  0.00005878
 Iteration  3 RMS(Cart)=  0.00000422 RMS(Int)=  0.00005870
 Iteration  4 RMS(Cart)=  0.00000000 RMS(Int)=  0.00005870
 Variable       Old X    -DE/DX   Delta X   Delta X   Delta X     New X
                                 (Linear)    (Quad)   (Total)
    R1        2.63858  -0.00135   0.00124  -0.00647  -0.00521   2.63336
    R2        2.63858  -0.00132   0.00162  -0.00711  -0.00550   2.63308
    R3        3.38618   0.01306   0.03558   0.01281   0.04838   3.43456
    R4        2.64939   0.00361   0.00813   0.00096   0.00910   2.65849
    R5        2.05711  -0.00319  -0.01236   0.00406  -0.00830   2.04881
    R6        2.65209   0.00356   0.00892  -0.00020   0.00872   2.66081
    R7        2.98759  -0.01327  -0.07701   0.03793  -0.03908   2.94851
    R8        2.64292   0.00077   0.00418  -0.00319   0.00098   2.64390
    R9        2.04167   0.00310   0.01161  -0.00425   0.00736   2.04903
   R10        2.64200   0.00075   0.00329  -0.00234   0.00094   2.64294
   R11        2.05840  -0.00282  -0.01172   0.00482  -0.00690   2.05151
   R12        2.04108   0.00261   0.01126  -0.00576   0.00550   2.04657
   R13        2.73659  -0.03408  -0.10248  -0.02270  -0.12518   2.61141
   R14        2.73659  -0.03408  -0.10248  -0.02270  -0.12518   2.61141
   R15        1.83959   0.00444   0.01503  -0.00791   0.00711   1.84671
   R16        1.83959   0.00444   0.01503  -0.00791   0.00711   1.84671
    A1        2.10633   0.00401   0.00706   0.01238   0.01946   2.12580
    A2        2.08864  -0.00197  -0.00337  -0.00627  -0.00965   2.07899
    A3        2.08821  -0.00203  -0.00369  -0.00611  -0.00981   2.07840
    A4        2.09195  -0.00035  -0.00153   0.00046  -0.00105   2.09090
    A5        2.08863  -0.00046  -0.00321   0.00151  -0.00171   2.08692
    A6        2.10261   0.00081   0.00474  -0.00197   0.00276   2.10537
    A7        2.08798  -0.00355  -0.00373  -0.01487  -0.01859   2.06939
    A8        2.09569   0.00124   0.00063   0.00616   0.00679   2.10249
    A9        2.09951   0.00231   0.00309   0.00871   0.01180   2.11131
   A10        2.09496   0.00196   0.00040   0.01428   0.01467   2.10963
   A11        2.09650  -0.00079   0.00121  -0.00811  -0.00689   2.08961
   A12        2.09172  -0.00117  -0.00161  -0.00617  -0.00777   2.08394
   A13        2.10005   0.00031   0.00329  -0.00377  -0.00051   2.09954
   A14        2.09557   0.00038   0.00058   0.00263   0.00322   2.09880
   A15        2.08756  -0.00069  -0.00387   0.00114  -0.00271   2.08485
   A16        2.08510  -0.00237  -0.00549  -0.00848  -0.01398   2.07112
   A17        2.09531   0.00074   0.00054   0.00427   0.00482   2.10013
   A18        2.10278   0.00164   0.00495   0.00420   0.00916   2.11194
   A19        2.09347  -0.00321  -0.00055  -0.01918  -0.01978   2.07369
   A20        2.09346  -0.00321  -0.00055  -0.01918  -0.01979   2.07367
   A21        2.09625   0.00642   0.00110   0.03841   0.03944   2.13570
   A22        1.96143   0.01398   0.02969   0.07686   0.10656   2.06799
   A23        1.96143   0.01398   0.02969   0.07687   0.10656   2.06799
    D1        0.00035  -0.00001  -0.00012   0.00010  -0.00003   0.00033
    D2        3.14100   0.00001   0.00013  -0.00001   0.00012   3.14111
    D3       -3.14131  -0.00001  -0.00011   0.00010  -0.00001  -3.14132
    D4       -0.00067   0.00002   0.00014   0.00000   0.00014  -0.00053
    D5        0.00019   0.00000  -0.00004   0.00001  -0.00003   0.00016
    D6       -3.14136   0.00000  -0.00001  -0.00006  -0.00007  -3.14143
    D7       -3.14133  -0.00001  -0.00005   0.00000  -0.00005  -3.14137
    D8        0.00031   0.00000  -0.00003  -0.00006  -0.00009   0.00022
    D9       -0.00066   0.00002   0.00020  -0.00011   0.00008  -0.00058
   D10        3.14115   0.00001   0.00013  -0.00007   0.00007   3.14122
   D11       -3.14130  -0.00001  -0.00005  -0.00001  -0.00007  -3.14136
   D12        0.00052  -0.00001  -0.00012   0.00004  -0.00008   0.00044
   D13        0.00043  -0.00001  -0.00010   0.00004  -0.00006   0.00036
   D14       -3.14116  -0.00001  -0.00010   0.00003  -0.00007  -3.14123
   D15       -3.14138   0.00000  -0.00004  -0.00001  -0.00005  -3.14143
   D16        0.00021   0.00000  -0.00004  -0.00002  -0.00006   0.00015
   D17        1.57181   0.00002   0.00073  -0.01038  -0.00948   1.56233
   D18       -1.57210  -0.00002  -0.00064   0.01052   0.00971  -1.56239
   D19       -1.56957   0.00002   0.00066  -0.01033  -0.00949  -1.57906
   D20        1.56971  -0.00002  -0.00070   0.01057   0.00970   1.57941
   D21        0.00012  -0.00001  -0.00007   0.00007   0.00000   0.00012
   D22       -3.14157   0.00000   0.00001  -0.00004  -0.00003   3.14158
   D23       -3.14148  -0.00001  -0.00007   0.00008   0.00001  -3.14147
   D24        0.00002   0.00000   0.00000  -0.00003  -0.00002  -0.00001
   D25       -0.00043   0.00001   0.00013  -0.00009   0.00004  -0.00038
   D26        3.14112   0.00001   0.00011  -0.00002   0.00008   3.14121
   D27        3.14126   0.00001   0.00006   0.00001   0.00008   3.14134
   D28       -0.00037   0.00001   0.00004   0.00008   0.00012  -0.00025
   D29        3.13864   0.00001  -0.00035   0.01239   0.01221  -3.13234
   D30       -0.00064   0.00007   0.00102  -0.00847  -0.00762  -0.00826
   D31        3.14102   0.00001   0.00057  -0.01106  -0.01065   3.13037
   D32       -0.00288  -0.00004  -0.00080   0.00980   0.00917   0.00628
         Item               Value     Threshold  Converged?
 Maximum Force            0.034080     0.000450     NO 
 RMS     Force            0.006804     0.000300     NO 
 Maximum Displacement     0.148460     0.001800     NO 
 RMS     Displacement     0.036882     0.001200     NO 
 Predicted change in Energy=-8.498827D-03
 GradGradGradGradGradGradGradGradGradGradGradGradGradGradGradGradGradGrad

                          Input orientation:                          
 ---------------------------------------------------------------------
 Center     Atomic      Atomic             Coordinates (Angstroms)
 Number     Number       Type             X           Y           Z
 ---------------------------------------------------------------------
      1          6           0       -0.209090   -0.687891   -0.000013
      2          6           0        1.184325   -0.704588    0.000257
      3          6           0        1.898044    0.507735    0.000120
      4          6           0        1.173978    1.715339   -0.001009
      5          6           0       -0.225112    1.713545   -0.001538
      6          6           0       -0.929073    0.505047   -0.000804
      7          1           0        1.708042   -1.653889    0.001328
      8          1           0       -0.773252    2.650609   -0.002396
      9          5           0        3.458329    0.507120    0.000923
     10          8           0        4.124965    0.496099   -1.209495
     11          1           0        5.102146    0.487819   -1.203372
     12          8           0        4.123706    0.497183    1.212045
     13          1           0        5.100876    0.487205    1.206941
     14          1           0       -2.011972    0.490226   -0.000843
     15          1           0        1.705075    2.660668   -0.001472
     16         17           0       -1.112443   -2.264987    0.000600
 ---------------------------------------------------------------------
                    Distance matrix (angstroms):
                    1          2          3          4          5
     1  C    0.000000
     2  C    1.393515   0.000000
     3  C    2.422713   1.406813   0.000000
     4  C    2.772795   2.419949   1.408041   0.000000
     5  C    2.401489   2.798907   2.441674   1.399091   0.000000
     6  C    1.393368   2.435091   2.827119   2.426444   1.398581
     7  H    2.146753   1.084183   2.169959   3.411294   3.882873
     8  H    3.385833   3.884516   3.424579   2.160194   1.085610
     9  B    3.857202   2.576689   1.560284   2.584193   3.875977
    10  O    4.652818   3.398899   2.534261   3.413987   4.675950
    11  H    5.571319   4.268474   3.422726   4.287538   5.597007
    12  O    4.652592   3.398918   2.534254   3.414132   4.675953
    13  H    5.570757   4.268001   3.422714   4.288122   5.597364
    14  H    2.153681   3.412315   3.910055   3.413382   2.165497
    15  H    3.857056   3.405309   2.161564   1.084303   2.150038
    16  Cl   1.817492   2.776687   4.092801   4.590285   4.076282
                    6          7          8          9         10
     6  C    0.000000
     7  H    3.408134   0.000000
     8  H    2.151214   4.968454   0.000000
     9  B    4.387402   2.780911   4.743505   0.000000
    10  O    5.196568   3.453992   5.485576   1.381897   0.000000
    11  H    6.149965   4.190246   6.374975   2.037851   0.977235
    12  O    5.196310   3.453749   5.485646   1.381898   2.421541
    13  H    6.149736   4.189166   6.375595   2.037851   2.606078
    14  H    1.083000   4.293685   2.490318   5.470326   6.254828
    15  H    3.403739   4.314559   2.478348   2.776990   3.464181
    16  Cl   2.776097   2.885927   4.927286   5.345702   6.043043
                   11         12         13         14         15
    11  H    0.000000
    12  O    2.606084   0.000000
    13  H    2.410314   0.977235   0.000000
    14  H    7.215036   6.254413   7.214663   0.000000
    15  H    4.207841   3.464544   4.208999   4.304330   0.000000
    16  Cl   6.902796   6.042718   6.901822   2.898336   5.674547
                   16
    16  Cl   0.000000
 Symmetry turned off by external request.
 Stoichiometry    C6H6BClO2
 Framework group  C1[X(C6H6BClO2)]
 Deg. of freedom    42
 Full point group                 C1      NOp   1
 Rotational constants (GHZ):      2.0299640      0.6199656      0.5239883
 Standard basis: 6-31G (6D, 7F)
   106 basis functions,   268 primitive gaussians,   106 cartesian basis functions
    40 alpha electrons       40 beta electrons
       nuclear repulsion energy       530.3402288226 Hartrees.
 NAtoms=   16 NActive=   16 NUniq=   16 SFac= 1.00D+00 NAtFMM=   60 NAOKFM=F Big=F
 Integral buffers will be    131072 words long.
 Raffenetti 2 integral format.
 Two-electron integral symmetry is turned off.
 Nuclear repulsion after empirical dispersion term =      530.3285234096 Hartrees.
 One-electron integrals computed using PRISM.
 NBasis=   106 RedAO= T EigKep=  6.76D-04  NBF=   106
 NBsUse=   106 1.00D-06 EigRej= -1.00D+00 NBFU=   106
 Initial guess from the checkpoint file:  "E:\PROJECT- VIT group\ML\Substrates\molecule_8.chk"
 B after Tr=     0.003379   -0.005252    0.000007
         Rot=    1.000000   -0.000018   -0.000003   -0.000973 Ang=  -0.11 deg.
 ExpMin= 1.27D-01 ExpMax= 2.52D+04 ExpMxC= 3.78D+03 IAcc=1 IRadAn=         1 AccDes= 0.00D+00
 Harris functional with IExCor=  402 and IRadAn=       1 diagonalized for initial guess.
 HarFok:  IExCor=  402 AccDes= 0.00D+00 IRadAn=         1 IDoV= 1 UseB2=F ITyADJ=14
 ICtDFT=  3500011 ScaDFX=  1.000000  1.000000  1.000000  1.000000
 FoFCou: FMM=F IPFlag=           0 FMFlag=      100000 FMFlg1=           0
         NFxFlg=           0 DoJE=T BraDBF=F KetDBF=T FulRan=T
         wScrn=  0.000000 ICntrl=     500 IOpCl=  0 I1Cent=   200000004 NGrid=           0
         NMat0=    1 NMatS0=      1 NMatT0=    0 NMatD0=    1 NMtDS0=    0 NMtDT0=    0
 Symmetry not used in FoFCou.
 Keep R1 ints in memory in canonical form, NReq=17064270.
 Requested convergence on RMS density matrix=1.00D-08 within 128 cycles.
 Requested convergence on MAX density matrix=1.00D-06.
 Requested convergence on             energy=1.00D-06.
 No special actions if energy rises.
 Integral accuracy reduced to 1.0D-05 until final iterations.
 Initial convergence to 1.0D-05 achieved.  Increase integral accuracy.
 SCF Done:  E(RB3LYP) =  -867.734389255     A.U. after   14 cycles
            NFock= 14  Conv=0.39D-08     -V/T= 2.0035
 Calling FoFJK, ICntrl=      2127 FMM=F ISym2X=0 I1Cent= 0 IOpClX= 0 NMat=1 NMatS=1 NMatT=0.
 -------------------------------------------------------------------
 Center     Atomic                   Forces (Hartrees/Bohr)
 Number     Number              X              Y              Z
 -------------------------------------------------------------------
      1        6           0.003961941    0.005734613   -0.000016909
      2        6          -0.000625866   -0.001502410    0.000073968
      3        6           0.000140509    0.001946710   -0.000038745
      4        6          -0.001072471   -0.001173793   -0.000003262
      5        6           0.001227655    0.000844245    0.000014630
      6        6          -0.001815353   -0.001158663   -0.000010787
      7        1          -0.000361415    0.000078273   -0.000021981
      8        1           0.000220231   -0.000226976    0.000004403
      9        5          -0.003609170   -0.001976221   -0.000001223
     10        8           0.004452508    0.000522347   -0.002602051
     11        1          -0.002329640    0.000033617   -0.002713217
     12        8           0.004449861    0.000486065    0.002605989
     13        1          -0.002332767    0.000067992    0.002710411
     14        1          -0.000223703   -0.000207064   -0.000009265
     15        1           0.000288696    0.000739096    0.000003263
     16       17          -0.002371016   -0.004207831    0.000004776
 -------------------------------------------------------------------
 Cartesian Forces:  Max     0.005734613 RMS     0.001962849

 GradGradGradGradGradGradGradGradGradGradGradGradGradGradGradGradGradGrad
 Berny optimization.
 Using GEDIIS/GDIIS optimizer.
 FormGI is forming the generalized inverse of G from B-inverse, IUseBI=4.
 Internal  Forces:  Max     0.005675350 RMS     0.001632295
 Search for a local minimum.
 Step number   3 out of a maximum of   81
 All quantities printed in internal units (Hartrees-Bohrs-Radians)
 Mixed Optimization -- RFO/linear search
 Update second derivatives using D2CorX and points    1    2    3
 DE= -7.20D-03 DEPred=-8.50D-03 R= 8.48D-01
 TightC=F SS=  1.41D+00  RLast= 2.52D-01 DXNew= 8.4853D-01 7.5480D-01
 Trust test= 8.48D-01 RLast= 2.52D-01 DXMaxT set to 7.55D-01
 ITU=  1  1  0
 Use linear search instead of GDIIS.
     Eigenvalues ---    0.00230   0.00304   0.00369   0.00369   0.01546
     Eigenvalues ---    0.02152   0.02153   0.02154   0.02155   0.02155
     Eigenvalues ---    0.02155   0.02156   0.02157   0.13281   0.16000
     Eigenvalues ---    0.16000   0.16000   0.16001   0.16006   0.21669
     Eigenvalues ---    0.22038   0.22819   0.23506   0.24134   0.24999
     Eigenvalues ---    0.25000   0.25003   0.28519   0.29086   0.33662
     Eigenvalues ---    0.33714   0.36915   0.37229   0.39185   0.42196
     Eigenvalues ---    0.42415   0.46415   0.46455   0.46460   0.46819
     Eigenvalues ---    0.55473   0.57685
 RFO step:  Lambda=-9.42486380D-04 EMin= 2.29999997D-03
 Quartic linear search produced a step of  0.01066.
 Iteration  1 RMS(Cart)=  0.04519162 RMS(Int)=  0.00188737
 Iteration  2 RMS(Cart)=  0.00253080 RMS(Int)=  0.00093724
 Iteration  3 RMS(Cart)=  0.00000280 RMS(Int)=  0.00093723
 Iteration  4 RMS(Cart)=  0.00000000 RMS(Int)=  0.00093723
 Variable       Old X    -DE/DX   Delta X   Delta X   Delta X     New X
                                 (Linear)    (Quad)   (Total)
    R1        2.63336  -0.00073  -0.00006  -0.00147  -0.00152   2.63184
    R2        2.63308  -0.00029  -0.00006  -0.00044  -0.00050   2.63259
    R3        3.43456   0.00483   0.00052   0.01977   0.02028   3.45485
    R4        2.65849   0.00076   0.00010   0.00240   0.00249   2.66098
    R5        2.04881  -0.00024  -0.00009  -0.00196  -0.00204   2.04677
    R6        2.66081  -0.00001   0.00009   0.00083   0.00093   2.66174
    R7        2.94851   0.00063  -0.00042  -0.00491  -0.00533   2.94318
    R8        2.64390  -0.00026   0.00001  -0.00013  -0.00012   2.64378
    R9        2.04903   0.00079   0.00008   0.00324   0.00332   2.05236
   R10        2.64294   0.00105   0.00001   0.00259   0.00260   2.64553
   R11        2.05151  -0.00031  -0.00007  -0.00207  -0.00214   2.04936
   R12        2.04657   0.00023   0.00006   0.00172   0.00178   2.04835
   R13        2.61141   0.00568  -0.00133   0.00900   0.00767   2.61908
   R14        2.61141   0.00567  -0.00133   0.00900   0.00767   2.61908
   R15        1.84671  -0.00235   0.00008  -0.00269  -0.00262   1.84409
   R16        1.84671  -0.00235   0.00008  -0.00269  -0.00262   1.84409
    A1        2.12580   0.00115   0.00021   0.00540   0.00561   2.13140
    A2        2.07899  -0.00063  -0.00010  -0.00290  -0.00300   2.07599
    A3        2.07840  -0.00052  -0.00010  -0.00250  -0.00261   2.07579
    A4        2.09090  -0.00022  -0.00001  -0.00119  -0.00120   2.08970
    A5        2.08692  -0.00018  -0.00002  -0.00158  -0.00160   2.08532
    A6        2.10537   0.00040   0.00003   0.00277   0.00280   2.10817
    A7        2.06939  -0.00046  -0.00020  -0.00234  -0.00254   2.06685
    A8        2.10249  -0.00028   0.00007  -0.00095  -0.00088   2.10161
    A9        2.11131   0.00074   0.00013   0.00329   0.00342   2.11473
   A10        2.10963   0.00037   0.00016   0.00177   0.00192   2.11155
   A11        2.08961  -0.00008  -0.00007  -0.00005  -0.00012   2.08949
   A12        2.08394  -0.00030  -0.00008  -0.00171  -0.00180   2.08215
   A13        2.09954   0.00021  -0.00001   0.00146   0.00146   2.10099
   A14        2.09880  -0.00019   0.00003  -0.00098  -0.00095   2.09785
   A15        2.08485  -0.00003  -0.00003  -0.00048  -0.00051   2.08434
   A16        2.07112  -0.00106  -0.00015  -0.00510  -0.00525   2.06587
   A17        2.10013   0.00032   0.00005   0.00105   0.00110   2.10123
   A18        2.11194   0.00074   0.00010   0.00405   0.00414   2.11609
   A19        2.07369  -0.00227  -0.00021  -0.00820  -0.01273   2.06096
   A20        2.07367  -0.00227  -0.00021  -0.00820  -0.01273   2.06095
   A21        2.13570   0.00455   0.00042   0.01901   0.01489   2.15058
   A22        2.06799   0.00498   0.00114   0.03387   0.03500   2.10299
   A23        2.06799   0.00498   0.00114   0.03386   0.03500   2.10299
    D1        0.00033  -0.00001   0.00000  -0.00051  -0.00051  -0.00018
    D2        3.14111   0.00001   0.00000   0.00049   0.00049  -3.14158
    D3       -3.14132  -0.00001   0.00000  -0.00046  -0.00046   3.14141
    D4       -0.00053   0.00001   0.00000   0.00054   0.00054   0.00001
    D5        0.00016   0.00000   0.00000  -0.00019  -0.00019  -0.00002
    D6       -3.14143   0.00000   0.00000  -0.00006  -0.00006  -3.14149
    D7       -3.14137   0.00000   0.00000  -0.00024  -0.00024   3.14157
    D8        0.00022   0.00000   0.00000  -0.00012  -0.00012   0.00010
    D9       -0.00058   0.00002   0.00000   0.00082   0.00082   0.00024
   D10        3.14122   0.00001   0.00000   0.00048   0.00048  -3.14149
   D11       -3.14136   0.00000   0.00000  -0.00019  -0.00019  -3.14155
   D12        0.00044  -0.00001   0.00000  -0.00053  -0.00053  -0.00010
   D13        0.00036  -0.00001   0.00000  -0.00045  -0.00046  -0.00009
   D14       -3.14123  -0.00001   0.00000  -0.00043  -0.00043   3.14152
   D15       -3.14143   0.00000   0.00000  -0.00011  -0.00011  -3.14155
   D16        0.00015   0.00000   0.00000  -0.00009  -0.00009   0.00006
   D17        1.56233   0.00036  -0.00010   0.08585   0.08486   1.64718
   D18       -1.56239  -0.00035   0.00010  -0.08454  -0.08354  -1.64593
   D19       -1.57906   0.00035  -0.00010   0.08551   0.08451  -1.49455
   D20        1.57941  -0.00036   0.00010  -0.08489  -0.08389   1.49552
   D21        0.00012  -0.00001   0.00000  -0.00023  -0.00024  -0.00011
   D22        3.14158   0.00000   0.00000   0.00005   0.00005  -3.14155
   D23       -3.14147  -0.00001   0.00000  -0.00026  -0.00026   3.14146
   D24       -0.00001   0.00000   0.00000   0.00003   0.00003   0.00002
   D25       -0.00038   0.00001   0.00000   0.00055   0.00056   0.00017
   D26        3.14121   0.00001   0.00000   0.00043   0.00043  -3.14155
   D27        3.14134   0.00001   0.00000   0.00027   0.00027  -3.14157
   D28       -0.00025   0.00000   0.00000   0.00014   0.00015  -0.00011
   D29       -3.13234  -0.00035   0.00013  -0.09232  -0.09275   3.05810
   D30       -0.00826   0.00031  -0.00008   0.08415   0.08462   0.07637
   D31        3.13037   0.00037  -0.00011   0.09668   0.09712  -3.05569
   D32        0.00628  -0.00029   0.00010  -0.07979  -0.08025  -0.07396
         Item               Value     Threshold  Converged?
 Maximum Force            0.005675     0.000450     NO 
 RMS     Force            0.001632     0.000300     NO 
 Maximum Displacement     0.164321     0.001800     NO 
 RMS     Displacement     0.045618     0.001200     NO 
 Predicted change in Energy=-4.976627D-04
 GradGradGradGradGradGradGradGradGradGradGradGradGradGradGradGradGradGrad

                          Input orientation:                          
 ---------------------------------------------------------------------
 Center     Atomic      Atomic             Coordinates (Angstroms)
 Number     Number       Type             X           Y           Z
 ---------------------------------------------------------------------
      1          6           0       -0.222979   -0.690144   -0.000044
      2          6           0        1.169062   -0.733321    0.000691
      3          6           0        1.904963    0.467213    0.000205
      4          6           0        1.199194    1.686167   -0.000731
      5          6           0       -0.199657    1.708443   -0.001280
      6          6           0       -0.926761    0.512118   -0.001044
      7          1           0        1.672588   -1.692264    0.001449
      8          1           0       -0.730143    2.654314   -0.002038
      9          5           0        3.462144    0.437470    0.000881
     10          8           0        4.116782    0.517499   -1.218101
     11          1           0        5.090420    0.572049   -1.254640
     12          8           0        4.115715    0.517587    1.220429
     13          1           0        5.089209    0.574160    1.257739
     14          1           0       -2.010702    0.513020   -0.001504
     15          1           0        1.745679    2.624720   -0.001052
     16         17           0       -1.156970   -2.261790    0.000312
 ---------------------------------------------------------------------
                    Distance matrix (angstroms):
                    1          2          3          4          5
     1  C    0.000000
     2  C    1.392711   0.000000
     3  C    2.422316   1.408131   0.000000
     4  C    2.769375   2.419677   1.408531   0.000000
     5  C    2.398702   2.799216   2.443375   1.399029   0.000000
     6  C    1.393106   2.437949   2.832080   2.428596   1.399955
     7  H    2.144159   1.083101   2.171944   3.411437   3.882025
     8  H    3.382694   3.883691   3.424500   2.158623   1.084475
     9  B    3.853784   2.574680   1.557465   2.584606   3.876102
    10  O    4.666432   3.426230   2.525656   3.370473   4.640113
    11  H    5.603513   4.319363   3.425312   4.237356   5.554028
    12  O    4.666094   3.425682   2.525650   3.370891   4.640383
    13  H    5.603554   4.319401   3.425237   4.237041   5.553722
    14  H    2.154892   3.415299   3.915933   3.417559   2.170005
    15  H    3.855378   3.407188   2.163379   1.086060   2.150324
    16  Cl   1.828226   2.783280   4.101572   4.597595   4.084018
                    6          7          8          9         10
     6  C    0.000000
     7  H    3.408213   0.000000
     8  H    2.151200   4.966474   0.000000
     9  B    4.389540   2.781776   4.742328   0.000000
    10  O    5.188311   3.513465   5.434838   1.385955   0.000000
    11  H    6.146671   4.287943   6.307439   2.060516   0.975850
    12  O    5.188313   3.512581   5.435289   1.385955   2.438530
    13  H    6.146566   4.288151   6.307054   2.060513   2.660565
    14  H    1.083941   4.293006   2.494990   5.473368   6.247094
    15  H    3.406614   4.317603   2.475998   2.780345   3.397605
    16  Cl   2.783445   2.886306   4.934599   5.349974   6.084524
                   11         12         13         14         15
    11  H    0.000000
    12  O    2.660635   0.000000
    13  H    2.512380   0.975849   0.000000
    14  H    7.211086   6.247089   7.210975   0.000000
    15  H    4.119737   3.398396   4.119289   4.309254   0.000000
    16  Cl   6.973912   6.083982   6.974130   2.903176   5.683604
                   16
    16  Cl   0.000000
 Symmetry turned off by external request.
 Stoichiometry    C6H6BClO2
 Framework group  C1[X(C6H6BClO2)]
 Deg. of freedom    42
 Full point group                 C1      NOp   1
 Rotational constants (GHZ):      2.0587772      0.6136026      0.5222869
 Standard basis: 6-31G (6D, 7F)
   106 basis functions,   268 primitive gaussians,   106 cartesian basis functions
    40 alpha electrons       40 beta electrons
       nuclear repulsion energy       529.7258385320 Hartrees.
 NAtoms=   16 NActive=   16 NUniq=   16 SFac= 1.00D+00 NAtFMM=   60 NAOKFM=F Big=F
 Integral buffers will be    131072 words long.
 Raffenetti 2 integral format.
 Two-electron integral symmetry is turned off.
 Nuclear repulsion after empirical dispersion term =      529.7141493116 Hartrees.
 One-electron integrals computed using PRISM.
 NBasis=   106 RedAO= T EigKep=  6.79D-04  NBF=   106
 NBsUse=   106 1.00D-06 EigRej= -1.00D+00 NBFU=   106
 Initial guess from the checkpoint file:  "E:\PROJECT- VIT group\ML\Substrates\molecule_8.chk"
 B after Tr=    -0.015029   -0.000822   -0.000004
         Rot=    0.999998   -0.000061   -0.000009    0.002126 Ang=  -0.24 deg.
 ExpMin= 1.27D-01 ExpMax= 2.52D+04 ExpMxC= 3.78D+03 IAcc=1 IRadAn=         1 AccDes= 0.00D+00
 Harris functional with IExCor=  402 and IRadAn=       1 diagonalized for initial guess.
 HarFok:  IExCor=  402 AccDes= 0.00D+00 IRadAn=         1 IDoV= 1 UseB2=F ITyADJ=14
 ICtDFT=  3500011 ScaDFX=  1.000000  1.000000  1.000000  1.000000
 FoFCou: FMM=F IPFlag=           0 FMFlag=      100000 FMFlg1=           0
         NFxFlg=           0 DoJE=T BraDBF=F KetDBF=T FulRan=T
         wScrn=  0.000000 ICntrl=     500 IOpCl=  0 I1Cent=   200000004 NGrid=           0
         NMat0=    1 NMatS0=      1 NMatT0=    0 NMatD0=    1 NMtDS0=    0 NMtDT0=    0
 Symmetry not used in FoFCou.
 Keep R1 ints in memory in canonical form, NReq=17064270.
 Requested convergence on RMS density matrix=1.00D-08 within 128 cycles.
 Requested convergence on MAX density matrix=1.00D-06.
 Requested convergence on             energy=1.00D-06.
 No special actions if energy rises.
 Integral accuracy reduced to 1.0D-05 until final iterations.
 Initial convergence to 1.0D-05 achieved.  Increase integral accuracy.
 SCF Done:  E(RB3LYP) =  -867.733898339     A.U. after   12 cycles
            NFock= 12  Conv=0.83D-08     -V/T= 2.0036
 Calling FoFJK, ICntrl=      2127 FMM=F ISym2X=0 I1Cent= 0 IOpClX= 0 NMat=1 NMatS=1 NMatT=0.
 -------------------------------------------------------------------
 Center     Atomic                   Forces (Hartrees/Bohr)
 Number     Number              X              Y              Z
 -------------------------------------------------------------------
      1        6           0.001268034    0.002325337    0.000003055
      2        6          -0.001622114    0.000232174   -0.000021228
      3        6          -0.003040788   -0.005761497    0.000016135
      4        6           0.000878180    0.000091577   -0.000001915
      5        6           0.000948351   -0.000595887   -0.000013223
      6        6          -0.000996167   -0.000919155    0.000013202
      7        1           0.000154741   -0.000441567    0.000003182
      8        1          -0.000114846    0.000472378    0.000002287
      9        5           0.002250313    0.015324966   -0.000000532
     10        8           0.002357913   -0.003838614   -0.000454247
     11        1          -0.002048277   -0.000708224   -0.000143053
     12        8           0.002354442   -0.003803028    0.000456098
     13        1          -0.002044913   -0.000747023    0.000141515
     14        1           0.000565977    0.000008438   -0.000003032
     15        1          -0.000155502   -0.000404098   -0.000000073
     16       17          -0.000755345   -0.001235776    0.000001829
 -------------------------------------------------------------------
 Cartesian Forces:  Max     0.015324966 RMS     0.002697166

 GradGradGradGradGradGradGradGradGradGradGradGradGradGradGradGradGradGrad
 Berny optimization.
 Using GEDIIS/GDIIS optimizer.
 FormGI is forming the generalized inverse of G from B-inverse, IUseBI=4.
 Internal  Forces:  Max     0.003413501 RMS     0.001189086
 Search for a local minimum.
 Step number   4 out of a maximum of   81
 All quantities printed in internal units (Hartrees-Bohrs-Radians)
 Mixed Optimization -- RFO/linear search
 Update second derivatives using D2CorX and points    1    2    4    3
 DE=  4.91D-04 DEPred=-4.98D-04 R=-9.86D-01
 Trust test=-9.86D-01 RLast= 2.52D-01 DXMaxT set to 3.77D-01
 ITU= -1  1  1  0
 Use linear search instead of GDIIS.
 Energy rises -- skip Quadratic/GDIIS search.
 Quartic linear search produced a step of -0.67168.
 Iteration  1 RMS(Cart)=  0.03093611 RMS(Int)=  0.00079511
 Iteration  2 RMS(Cart)=  0.00115725 RMS(Int)=  0.00020675
 Iteration  3 RMS(Cart)=  0.00000037 RMS(Int)=  0.00020675
 Variable       Old X    -DE/DX   Delta X   Delta X   Delta X     New X
                                 (Linear)    (Quad)   (Total)
    R1        2.63184  -0.00047   0.00102   0.00000   0.00102   2.63286
    R2        2.63259  -0.00073   0.00033   0.00000   0.00033   2.63292
    R3        3.45485   0.00145  -0.01362   0.00000  -0.01362   3.44122
    R4        2.66098   0.00050  -0.00167   0.00000  -0.00167   2.65931
    R5        2.04677   0.00046   0.00137   0.00000   0.00137   2.04814
    R6        2.66174  -0.00100  -0.00062   0.00000  -0.00062   2.66112
    R7        2.94318   0.00275   0.00358   0.00000   0.00358   2.94676
    R8        2.64378  -0.00044   0.00008   0.00000   0.00008   2.64386
    R9        2.05236  -0.00043  -0.00223   0.00000  -0.00223   2.05013
   R10        2.64553   0.00024  -0.00174   0.00000  -0.00174   2.64379
   R11        2.04936   0.00047   0.00144   0.00000   0.00144   2.05080
   R12        2.04835  -0.00057  -0.00119   0.00000  -0.00119   2.04716
   R13        2.61908   0.00041  -0.00515   0.00000  -0.00515   2.61392
   R14        2.61908   0.00041  -0.00515   0.00000  -0.00515   2.61393
   R15        1.84409  -0.00208   0.00176   0.00000   0.00176   1.84585
   R16        1.84409  -0.00208   0.00176   0.00000   0.00176   1.84585
    A1        2.13140   0.00036  -0.00377   0.00000  -0.00377   2.12764
    A2        2.07599  -0.00014   0.00202   0.00000   0.00202   2.07800
    A3        2.07579  -0.00022   0.00175   0.00000   0.00175   2.07754
    A4        2.08970  -0.00014   0.00081   0.00000   0.00081   2.09050
    A5        2.08532   0.00000   0.00107   0.00000   0.00107   2.08639
    A6        2.10817   0.00014  -0.00188   0.00000  -0.00188   2.10629
    A7        2.06685  -0.00011   0.00170   0.00000   0.00170   2.06856
    A8        2.10161   0.00247   0.00059   0.00000   0.00059   2.10220
    A9        2.11473  -0.00237  -0.00230   0.00000  -0.00230   2.11243
   A10        2.11155   0.00009  -0.00129   0.00000  -0.00129   2.11026
   A11        2.08949  -0.00012   0.00008   0.00000   0.00008   2.08957
   A12        2.08215   0.00003   0.00121   0.00000   0.00121   2.08335
   A13        2.10099   0.00023  -0.00098   0.00000  -0.00098   2.10002
   A14        2.09785  -0.00025   0.00064   0.00000   0.00064   2.09849
   A15        2.08434   0.00002   0.00034   0.00000   0.00034   2.08468
   A16        2.06587  -0.00043   0.00352   0.00000   0.00352   2.06939
   A17        2.10123   0.00023  -0.00074   0.00000  -0.00074   2.10049
   A18        2.11609   0.00020  -0.00278   0.00000  -0.00278   2.11330
   A19        2.06096   0.00012   0.00855   0.00000   0.00952   2.07047
   A20        2.06095   0.00012   0.00855   0.00000   0.00952   2.07046
   A21        2.15058   0.00055  -0.01000   0.00000  -0.00902   2.14156
   A22        2.10299   0.00037  -0.02351   0.00000  -0.02351   2.07948
   A23        2.10299   0.00037  -0.02351   0.00000  -0.02351   2.07948
    D1       -0.00018   0.00000   0.00034   0.00000   0.00034   0.00016
    D2       -3.14158   0.00000  -0.00033   0.00000  -0.00033   3.14128
    D3        3.14141   0.00000   0.00031   0.00000   0.00031  -3.14147
    D4        0.00001   0.00000  -0.00036   0.00000  -0.00036  -0.00035
    D5       -0.00002   0.00000   0.00013   0.00000   0.00013   0.00010
    D6       -3.14149   0.00000   0.00004   0.00000   0.00004  -3.14145
    D7        3.14157   0.00000   0.00016   0.00000   0.00016  -3.14145
    D8        0.00010   0.00000   0.00008   0.00000   0.00008   0.00018
    D9        0.00024  -0.00001  -0.00055   0.00000  -0.00055  -0.00031
   D10       -3.14149   0.00000  -0.00032   0.00000  -0.00032   3.14137
   D11       -3.14155   0.00000   0.00013   0.00000   0.00013  -3.14142
   D12       -0.00010   0.00000   0.00036   0.00000   0.00036   0.00026
   D13       -0.00009   0.00000   0.00031   0.00000   0.00031   0.00021
   D14        3.14152   0.00000   0.00029   0.00000   0.00029  -3.14137
   D15       -3.14155   0.00000   0.00008   0.00000   0.00008  -3.14147
   D16        0.00006   0.00000   0.00006   0.00000   0.00006   0.00012
   D17        1.64718  -0.00277  -0.05700   0.00000  -0.05682   1.59036
   D18       -1.64593   0.00278   0.05611   0.00000   0.05594  -1.58999
   D19       -1.49455  -0.00277  -0.05676   0.00000  -0.05659  -1.55114
   D20        1.49552   0.00278   0.05635   0.00000   0.05617   1.55170
   D21       -0.00011   0.00000   0.00016   0.00000   0.00016   0.00004
   D22       -3.14155   0.00000  -0.00004   0.00000  -0.00004  -3.14159
   D23        3.14146   0.00000   0.00017   0.00000   0.00017  -3.14155
   D24        0.00002   0.00000  -0.00002   0.00000  -0.00002   0.00000
   D25        0.00017  -0.00001  -0.00037   0.00000  -0.00037  -0.00020
   D26       -3.14155   0.00000  -0.00029   0.00000  -0.00029   3.14135
   D27       -3.14157   0.00000  -0.00018   0.00000  -0.00018   3.14143
   D28       -0.00011   0.00000  -0.00010   0.00000  -0.00010  -0.00021
   D29        3.05810   0.00339   0.06230   0.00000   0.06244   3.12054
   D30        0.07637  -0.00243  -0.05684   0.00000  -0.05699   0.01938
   D31       -3.05569  -0.00341  -0.06524   0.00000  -0.06539  -3.12108
   D32       -0.07396   0.00240   0.05390   0.00000   0.05405  -0.01991
         Item               Value     Threshold  Converged?
 Maximum Force            0.003414     0.000450     NO 
 RMS     Force            0.001189     0.000300     NO 
 Maximum Displacement     0.111103     0.001800     NO 
 RMS     Displacement     0.030763     0.001200     NO 
 Predicted change in Energy=-1.530312D-04
 GradGradGradGradGradGradGradGradGradGradGradGradGradGradGradGradGradGrad

                          Input orientation:                          
 ---------------------------------------------------------------------
 Center     Atomic      Atomic             Coordinates (Angstroms)
 Number     Number       Type             X           Y           Z
 ---------------------------------------------------------------------
      1          6           0       -0.213944   -0.688650   -0.000026
      2          6           0        1.179077   -0.713982    0.000399
      3          6           0        1.900045    0.494548    0.000150
      4          6           0        1.181912    1.705877   -0.000916
      5          6           0       -0.217146    1.711924   -0.001453
      6          6           0       -0.928674    0.507342   -0.000885
      7          1           0        1.696227   -1.666472    0.001366
      8          1           0       -0.759547    2.651892   -0.002278
      9          5           0        3.459371    0.484428    0.000913
     10          8           0        4.122864    0.503275   -1.212653
     11          1           0        5.099540    0.515059   -1.220720
     12          8           0        4.121668    0.504032    1.215122
     13          1           0        5.098340    0.515366    1.224148
     14          1           0       -2.011940    0.497631   -0.001064
     15          1           0        1.718028    2.649033   -0.001330
     16         17           0       -1.127278   -2.264061    0.000500
 ---------------------------------------------------------------------
                    Distance matrix (angstroms):
                    1          2          3          4          5
     1  C    0.000000
[...]
 ! D5    D(2,1,6,5)             -0.0101         -DE/DX =    0.0                 !
 ! D6    D(2,1,6,14)           179.9864         -DE/DX =    0.0                 !
 ! D7    D(16,1,6,5)           179.9888         -DE/DX =    0.0                 !
 ! D8    D(16,1,6,14)           -0.0147         -DE/DX =    0.0                 !
 ! D9    D(1,2,3,4)             -0.0067         -DE/DX =    0.0                 !
 ! D10   D(1,2,3,9)            179.9902         -DE/DX =    0.0                 !
 ! D11   D(7,2,3,4)            179.9923         -DE/DX =    0.0                 !
 ! D12   D(7,2,3,9)             -0.0108         -DE/DX =    0.0                 !
 ! D13   D(2,3,4,5)             -0.0024         -DE/DX =    0.0                 !
 ! D14   D(2,3,4,15)           180.0018         -DE/DX =    0.0                 !
 ! D15   D(9,3,4,5)            180.0007         -DE/DX =    0.0                 !
 ! D16   D(9,3,4,15)             0.0049         -DE/DX =    0.0                 !
 ! D17   D(2,3,9,10)             0.0234         -DE/DX =    0.0                 !
 ! D18   D(2,3,9,12)          -179.9687         -DE/DX =    0.0                 !
 ! D19   D(4,3,9,10)          -179.9797         -DE/DX =    0.0                 !
 ! D20   D(4,3,9,12)             0.0282         -DE/DX =    0.0                 !
 ! D21   D(3,4,5,6)              0.0054         -DE/DX =    0.0                 !
 ! D22   D(3,4,5,8)           -179.9857         -DE/DX =    0.0                 !
 ! D23   D(15,4,5,6)          -179.9988         -DE/DX =    0.0                 !
 ! D24   D(15,4,5,8)             0.0101         -DE/DX =    0.0                 !
 ! D25   D(4,5,6,1)              0.0007         -DE/DX =    0.0                 !
 ! D26   D(4,5,6,14)          -179.9958         -DE/DX =    0.0                 !
 ! D27   D(8,5,6,1)            179.9919         -DE/DX =    0.0                 !
 ! D28   D(8,5,6,14)            -0.0047         -DE/DX =    0.0                 !
 ! D29   D(3,9,10,11)         -179.907          -DE/DX =    0.0                 !
 ! D30   D(12,9,10,11)           0.0846         -DE/DX =    0.0                 !
 ! D31   D(3,9,12,13)         -179.919          -DE/DX =    0.0                 !
 ! D32   D(10,9,12,13)           0.0894         -DE/DX =    0.0                 !
 --------------------------------------------------------------------------------
 GradGradGradGradGradGradGradGradGradGradGradGradGradGradGradGradGradGrad

 1|1|UNPC-LAPTOP-H4OM2LBP|Freq|RB3LYP|6-31G|C6H6B1Cl1O2|SREEKALA P NAIR
 |14-Sep-2023|0||#N Geom=AllCheck Guess=TCheck SCRF=Check GenChk RB3LYP
 /6-31G Freq||molecule_11||0,1|C,-0.201158166,-0.6384798408,-0.32001727
 59|C,1.1883893053,-0.6598616905,-0.3382851646|C,1.9020771064,0.5056209
 201,0.0097644777|C,1.1811206707,1.6621795317,0.3671061857|C,-0.2168365
 594,1.6602023514,0.3781492721|C,-0.9236319757,0.5007164319,0.031929348
 6|H,1.7253332639,-1.5583625694,-0.6158333349|H,-0.7642544141,2.5555771
 96,0.6544586393|B,3.4540162012,0.5023500078,-0.0041375409|O,4.10210541
 29,-0.6702048536,-0.3661853031|H,5.0713685268,-0.7255247394,-0.3896661
 226|O,4.1140020793,1.6723286078,0.3464241416|H,5.0841555989,1.71914177
 41,0.3513734755|H,-2.0067738751,0.4818801904,0.0351601627|H,1.72959500
 49,2.558508207,0.6347503618|Cl,-1.1209628599,-2.1588305945,-0.77371888
 29||Version=EM64W-G09RevD.01|HF=-867.7464507|RMSD=5.873e-009|RMSF=5.18
 3e-006|ZeroPoint=0.1155667|Thermal=0.124572|Dipole=1.6761868,0.8105641
 ,0.2320608|DipoleDeriv=0.3415406,0.5715544,0.1704892,0.5994789,0.84415
 4,0.255869,0.1788769,0.2560793,0.0608094,-0.0387636,-0.1819207,-0.0555
 871,-0.0822702,-0.160975,-0.0247827,-0.0253053,-0.0238689,-0.0840046,-
 0.6897124,-0.0592098,-0.0132802,0.0353437,-0.1187051,0.0024705,0.01543
 82,0.003164,-0.1264857,0.0487763,0.1446943,0.0427339,-0.0386935,0.0283
 757,0.0395117,-0.0130095,0.0380265,-0.0890334,-0.0206052,-0.1024158,-0
 .0320116,-0.1382663,0.0591049,0.0581525,-0.0428072,0.0577433,-0.110761
 5,-0.0236798,-0.1300714,-0.0399628,-0.067932,-0.1834199,-0.0296873,-0.
 0210424,-0.0291901,-0.0922188,0.1105953,0.0381002,0.0118682,0.0390242,
 0.022538,-0.0346415,0.0120837,-0.0346377,0.1248825,0.0051798,0.0650204
 ,0.0207913,0.0725433,-0.0645396,-0.0598081,0.0230177,-0.0596998,0.1121
 577,2.0808256,0.0834052,0.0123508,-0.0116834,1.3439683,0.2502066,-0.01
 64273,0.2495779,0.5973381,-0.8090672,0.2820214,0.0877464,0.5203245,-0.
 967489,-0.1113307,0.1607146,-0.1095706,-0.649891,0.076016,-0.0321113,-
 0.0072686,-0.1348064,0.3775236,-0.0123994,-0.038754,-0.0130607,0.41774
 06,-0.8179448,-0.3503094,-0.1051453,-0.5219023,-1.0089951,-0.1150098,-
 0.15794,-0.1167522,-0.6503736,0.0750344,0.0286589,0.0119181,0.1339942,
 0.3858939,-0.0120065,0.0441993,-0.0109047,0.4173778,-0.0494881,-0.0021
 416,0.000936,-0.0097039,0.0959864,-0.0139406,-0.0013723,-0.0139671,0.1
 378867,0.0744087,-0.056064,-0.0166783,-0.0578866,-0.0223809,-0.0439884
 ,-0.017144,-0.043991,0.1109729,-0.3631158,-0.299211,-0.0889002,-0.3375
 643,-0.6310401,-0.1486154,-0.1005284,-0.1489481,-0.1763969|Polar=117.5
 441738,11.85794,98.6170967,2.866396,20.817401,36.0351786|PG=C01 [X(C6H
 6B1Cl1O2)]|NImag=0||0.63257917,-0.08095921,0.49544284,-0.02890003,0.11
 344046,0.15880554,-0.34361314,-0.01310184,-0.00168595,0.70089214,0.047
 24407,-0.10872016,-0.01261504,-0.04972626,0.67503966,0.01668441,-0.012
 12089,-0.07253117,-0.01979967,0.16078190,0.19636631,-0.03216432,-0.024
 38489,-0.00700991,-0.16953250,-0.10362522,-0.03064138,0.64232681,-0.07
 334695,0.02570509,0.00480006,-0.05595884,-0.25060180,-0.05457245,-0.00
 163727,0.61330094,-0.02189143,0.00435405,0.01345349,-0.01615417,-0.054
 13859,-0.08567155,-0.00466279,0.14230994,0.18791181,-0.05498945,0.0286
 8130,0.00906391,0.06090798,0.01547980,0.00428055,-0.17541155,0.0602148
 5,0.01918241,0.70430021,0.02862342,-0.01647678,-0.00271103,-0.01806695
 ,-0.05424830,-0.01912052,0.10221430,-0.25100073,-0.05543560,0.04394226
 ,0.67254214,0.00905967,-0.00270419,-0.00918711,-0.00591749,-0.01940384
 ,0.00332138,0.03193221,-0.05511062,-0.08817074,0.00873476,0.15817570,0
 .19865963,0.06489061,-0.02515994,-0.00809552,-0.05152023,-0.02562330,-
 0.00739212,-0.03058377,0.06478476,0.02001825,-0.34248881,-0.02811422,-
 0.00629780,0.69565800,0.02436015,-0.05802448,-0.02037352,-0.02644648,-
 0.01413287,-0.00213634,0.02947908,0.02696279,0.00400078,0.02918979,-0.
 12625407,-0.01768577,-0.03463686,0.68040697,0.00692813,-0.01995563,0.0
 0226276,-0.00762914,-0.00215032,-0.00690986,0.00929896,0.00372933,0.01
 396221,0.01113675,-0.01719085,-0.07438559,-0.01509808,0.16413121,0.190
 82923,-0.18488841,0.13288870,0.04134879,-0.02711672,0.02844085,0.00892
 640,-0.00075901,0.00165469,0.00045174,-0.02759629,-0.03251501,-0.00954
 215,-0.18289025,-0.11803818,-0.03488559,0.76884894,0.07160260,-0.24841
 718,-0.05569987,0.06800874,0.02855753,0.00519028,0.00055037,-0.0566371
 0,-0.01513649,-0.07149326,0.02738184,0.00624298,-0.05517098,-0.2656076
 4,-0.06020755,0.00231734,0.62153024,0.02270970,-0.05618033,-0.08420625
 ,0.02096010,0.00549763,0.01111306,0.00011740,-0.01514656,-0.01137489,-
 0.02140890,0.00587925,0.01078930,-0.01575545,-0.05964347,-0.08378614,-
 0.00451213,0.14600515,0.18489018,-0.01352114,0.02785289,0.00861742,-0.
 13006605,0.12073266,0.03744213,0.01148091,-0.01544152,-0.00474919,-0.0
 0159035,-0.00333333,-0.00093652,-0.00049963,-0.00088987,-0.00026947,-0
 .00485651,-0.00144250,-0.00034665,0.13855251,-0.00533166,0.00262275,-0
 .00056065,0.12234732,-0.25700468,-0.06650156,0.01338743,-0.01714404,-0
 .00623997,-0.00352990,-0.00121813,-0.00251079,-0.00068954,0.00019971,0
 .00021434,-0.00111465,0.00160377,-0.00127883,-0.12678016,0.27154873,-0
 .00147218,-0.00083427,0.00437218,0.03792503,-0.06651923,-0.06205554,0.
 00401265,-0.00599380,0.00119443,-0.00099967,-0.00250874,0.00638390,-0.
 00020916,0.00021755,-0.00041994,-0.00024780,-0.00127621,0.00545682,-0.
 03948085,0.07510863,0.05112298,-0.00073485,-0.00244311,-0.00067432,-0.
 00048388,-0.00093835,-0.00028466,-0.00543281,-0.00131218,-0.00029525,-
 0.01135544,0.02918345,0.00898685,-0.13184655,0.11790759,0.03655301,0.0
 1056819,-0.01736737,-0.00533075,0.00005569,0.00012621,0.00002874,0.138
 06590,-0.00287201,-0.00049959,-0.00235021,-0.00082417,0.00022020,0.000
 21221,-0.00046200,0.00197647,-0.00151051,-0.00405802,0.00399786,0.0001
 4884,0.11753099,-0.25092646,-0.06546201,0.01591886,-0.01816708,-0.0067
 1220,0.00007570,-0.00011864,0.00030075,-0.12506280,0.26401165,-0.00080
 346,-0.00235298,0.00660849,-0.00025150,0.00021232,-0.00038952,-0.00003
 725,-0.00150504,0.00651103,-0.00110161,-0.00012370,0.00358275,0.036434
 78,-0.06547441,-0.05862127,0.00477572,-0.00643440,0.00151321,0.0000129
 2,0.00030066,-0.00102032,-0.03887948,0.07311560,0.04905866,0.00087737,
 -0.00648467,-0.00192239,-0.01587712,-0.00770476,-0.00219985,-0.2164117
 3,-0.00004820,0.00128772,-0.01467437,0.00856357,0.00274379,0.00193515,
 0.00231539,0.00073531,0.00255586,0.00095896,0.00026446,0.00052679,0.00
 069087,0.00018702,0.00074143,-0.00058772,-0.00018153,0.55311350,-0.003
 79963,-0.00139935,-0.00233094,-0.02251087,0.00407373,0.00085716,0.0003
 1844,-0.06712116,-0.00218800,0.02217189,0.00582802,0.00100594,0.004304
 92,-0.00313092,-0.00271968,-0.00006741,-0.00319196,-0.00081701,-0.0025
 5306,-0.00281671,0.00004161,0.00120329,-0.00000882,-0.00011188,0.00116
 774,0.53370220,-0.00110814,-0.00230669,0.00568852,-0.00668820,0.000731
 74,0.00216364,0.00138924,-0.00220735,-0.06055863,0.00687501,0.00111973
 ,0.00220029,0.00133959,-0.00270262,0.00487398,-0.00004581,-0.00082669,
 -0.00075026,-0.00081459,0.00002213,-0.00286320,0.00036274,-0.00009689,
 0.00029421,-0.00307915,0.12131120,0.17167403,0.00161338,0.00226428,0.0
 0066672,-0.00243165,0.00164396,0.00052659,-0.01826291,0.02590168,0.008
 09421,-0.00310893,-0.00366408,-0.00107876,-0.00138211,0.00045666,0.000
 14686,-0.00081129,0.00053262,0.00016876,-0.00118605,0.00060716,0.00017
 444,-0.00059473,0.00014998,0.00004953,-0.13684557,0.12532500,0.0388489
 0,0.63328180,0.00000822,-0.00116359,-0.00017920,-0.00133469,-0.0041858
 0,-0.00154510,0.01032331,-0.00277801,-0.00270251,-0.00063773,0.0020128
 2,0.00026020,0.00045520,0.00067372,0.00030808,0.00036614,0.00021535,0.
 00006203,0.00009641,0.00061793,0.00038737,0.00020459,-0.00009950,0.000
 00471,0.07436579,-0.22550865,-0.05634761,-0.15423681,0.29846882,-0.000
 01914,-0.00019800,-0.00064194,-0.00036939,-0.00156273,0.00044977,0.003
 35625,-0.00281643,0.00489761,-0.00016576,0.00029234,0.00125092,0.00014
 961,0.00031128,-0.00026265,0.00011927,0.00005826,0.00001791,0.00001736
 ,0.00035889,-0.00052929,0.00006603,0.00000457,-0.00011812,0.02329729,-
 0.05668933,-0.05986895,-0.05114561,0.08312690,0.05497603,0.00017628,0.
 00006848,0.00001948,0.00065648,-0.00001243,-0.00001263,0.00214843,0.00
 396081,0.00122409,-0.00128980,-0.00077492,-0.00022094,-0.00001745,0.00
 060437,0.00017982,0.00004517,-0.00000363,-0.00000096,0.00030138,0.0001
 8792,0.00005341,-0.00013213,-0.00001101,-0.00000266,-0.01962008,-0.014
 35880,-0.00423087,-0.48509972,0.05572270,0.02021761,0.49861354,0.00022
 115,0.00051030,0.00015142,-0.00060767,-0.00004041,0.00011595,-0.001042
 47,-0.00235311,-0.00218160,0.00062671,0.00027580,-0.00002480,-0.000045
 64,-0.00029282,0.00005885,-0.00018947,-0.00003161,-0.00002584,0.000339
 90,0.00050591,0.00014597,0.00002132,0.00001485,0.00001525,0.03645196,-
 0.00587120,-0.00212027,0.01224779,-0.02536305,-0.00460150,-0.04409042,
 0.03279680,0.00006675,0.00015275,0.00005324,-0.00019338,0.00011006,-0.
 00036867,-0.00029536,-0.00222584,0.00417727,0.00020701,-0.00001376,0.0
 0033209,-0.00001869,0.00005158,-0.00046802,-0.00005782,-0.00002647,0.0
 0005074,0.00010172,0.00014973,0.00005475,0.00000735,0.00001552,-0.0000
 3123,0.01128401,-0.00178325,-0.00036074,0.00693453,-0.00488665,-0.0120
 0269,-0.01678282,0.00776907,0.01070320,-0.00064383,0.00129598,0.000395
 37,-0.00309518,0.00295423,0.00093413,-0.01837604,-0.02553488,-0.007590
 73,-0.00222588,-0.00188576,-0.00054691,0.00078994,-0.00071237,-0.00022
 437,-0.00078372,-0.00107852,-0.00032072,0.00016793,0.00001584,0.000003
 29,-0.00023877,0.00019664,0.00006118,-0.13856969,-0.12655069,-0.037677
 71,0.01179371,0.01180918,0.00367137,0.00354800,-0.00221614,-0.00074335
 ,0.63518164,-0.00017923,0.00149476,0.00058206,0.00067598,0.00183182,0.
 00020019,-0.01011469,-0.00247108,-0.00241096,0.00095377,-0.00472341,-0
 .00172214,-0.00038459,0.00047187,0.00027425,-0.00034584,-0.00025263,-0
 .00007088,0.00085512,0.00067672,0.00018190,-0.00038198,0.00015981,0.00
 006287,-0.07526979,-0.22421296,-0.05469477,-0.01246967,-0.04822168,-0.
 02104300,-0.00289069,0.00332970,0.00224391,0.15165033,0.29642833,-0.00
 005562,0.00057468,-0.00024568,0.00024764,0.00018930,0.00119418,-0.0028
 9074,-0.00227882,0.00504940,0.00030637,-0.00169126,0.00038599,-0.00012
 499,0.00027916,-0.00034551,-0.00009974,-0.00006867,-0.00002726,0.00025
 869,0.00018920,0.00010531,-0.00011484,0.00005847,-0.00001855,-0.022024
 83,-0.05420591,-0.05880491,-0.00371584,-0.02124355,0.01481211,-0.00093
 300,0.00223125,-0.00329678,0.04043211,0.07995602,0.05340586,0.00012849
 ,-0.00040565,-0.00012804,-0.00131540,0.00064679,0.00020912,0.00214787,
 -0.00396269,-0.00118171,0.00071103,0.00002588,-0.00000170,0.00001787,0
 .00001433,0.00000450,0.00002746,0.00001938,0.00000592,-0.00002220,-0.0
 0008471,-0.00002357,-0.00002741,0.00000858,0.00000307,-0.02006433,0.01
 433601,0.00455983,0.00364000,0.00292443,0.00081743,0.00076595,-0.00161
 955,-0.00048258,-0.48528236,-0.05171072,-0.01119487,0.49919608,-0.0000
 2150,-0.00040804,0.00001590,-0.00061836,0.00025924,-0.00001385,0.00093
 394,-0.00235830,-0.00218659,0.00053997,0.00000166,0.00012952,-0.000009
 73,0.00019319,0.00004774,0.00016220,0.00004277,-0.00000068,-0.00010070
 ,-0.00003968,-0.00009147,0.00006258,-0.00002647,-0.00001880,-0.0365396
 4,-0.00572344,-0.00151140,0.00225343,0.00330728,0.00219542,0.00156579,
 -0.00319597,-0.00139816,-0.00812920,-0.02500852,-0.00429874,0.04012990
 ,0.03236520,-0.00001010,0.00001636,-0.00045315,-0.00017797,-0.00002487
 ,0.00031365,0.00030826,-0.00214864,0.00415310,0.00015505,0.00013268,-0
 .00039892,-0.00000394,0.00004712,0.00005243,0.00004974,0.00000216,0.00
 004001,-0.00002781,-0.00009084,0.00023602,0.00001957,-0.00001847,0.000
 02817,-0.01098135,-0.00200929,-0.00013335,0.00062969,0.00220116,-0.003
 34854,0.00047702,-0.00137579,0.00096792,0.00212310,-0.00386622,-0.0117
 8616,0.00751001,0.00693293,0.01032849,-0.01334656,-0.00534792,-0.00147
 913,0.00085455,0.00259471,0.00082662,0.00092418,-0.00003132,-0.0000254
 2,0.00103576,-0.00238013,-0.00067016,-0.00994841,0.00356816,0.00120280
 ,-0.34913295,-0.00217678,0.00189292,-0.00045182,-0.00015413,-0.0000413
 0,0.00082412,-0.00038564,-0.00015633,0.00007364,0.00001799,-0.00000208
 ,-0.00010224,0.00003609,0.00001252,-0.00001839,-0.00002997,-0.00000881
 ,-0.00009704,-0.00003496,-0.00000952,-0.00001615,0.00002849,0.00000879
 ,0.36864888,0.02879585,0.00218071,-0.00078177,0.00185435,-0.00383754,-
 0.00290383,-0.00008914,-0.00097070,-0.00000123,-0.00181485,-0.00359539
 ,-0.00329388,-0.02840281,0.00392130,0.00006847,-0.00526382,-0.05663799
 ,-0.00526080,0.00119362,0.00027562,0.00000553,0.00036912,0.00034123,0.
 00137725,-0.00001823,-0.00026958,0.00017290,0.00004241,0.00010394,0.00
 000956,0.00000822,0.00002074,-0.00000027,-0.00004145,0.00010400,0.0000
 1614,-0.00001147,0.00001860,0.00000719,0.00397417,0.05810076,0.0089060
 3,-0.00051364,0.00373381,0.00059919,-0.00290955,0.00478257,-0.00004252
 ,0.00000094,-0.00096279,-0.00049562,-0.00328945,0.00630677,-0.00851272
 ,-0.00020086,0.00449016,0.00095522,-0.00527657,-0.04080078,0.00036721,
 0.00001739,0.00022397,0.00006839,0.00137815,-0.00377727,-0.00001345,0.
 00017251,-0.00078614,0.00001458,0.00001010,0.00007371,0.00000276,-0.00
 000013,0.00002153,-0.00001154,0.00001671,0.00005666,-0.00000334,0.0000
 0671,-0.00000251,-0.00160999,0.00971110,0.02899680,-0.00083819,0.00108
 161,0.00033415,-0.00137939,0.00330236,0.00107094,0.01135124,0.01575365
 ,0.00470200,-0.13322544,-0.12064951,-0.03587791,-0.01167962,-0.0280092
 0,-0.00837670,-0.00498543,0.00111394,0.00043851,0.00050495,0.00073236,
 0.00022088,0.00065912,0.00041685,0.00008473,0.00026773,0.00223078,0.00
 066186,0.00020782,-0.00076239,-0.00023285,-0.00000528,0.00008163,0.000
 02652,-0.00110715,0.00011869,0.00005422,0.00025515,-0.00030632,-0.0000
 9590,-0.00052819,-0.00118342,-0.00035464,0.14033752,0.00109200,0.00044
 305,0.00013936,0.00338840,-0.00167482,-0.00263524,-0.01424143,-0.01816
 116,-0.00617059,-0.11912131,-0.25388861,-0.06344599,0.00463444,0.00453
 244,0.00001408,0.00092286,0.00192035,-0.00160474,-0.00078605,-0.000800
 80,-0.00032867,-0.00052666,0.00040184,0.00137047,-0.00101038,-0.002992
 73,-0.00006759,0.00009223,0.00069797,0.00019778,0.00010006,-0.00005023
 ,-0.00008794,-0.00050247,0.00087787,0.00042227,-0.00018321,0.00048489,
 0.00015212,0.00017248,0.00007455,0.00001596,0.12617580,0.26829810,0.00
 033731,0.00014142,-0.00000814,0.00109931,-0.00263197,0.00609616,-0.004
 41681,-0.00641447,0.00066010,-0.03541083,-0.06345374,-0.06065153,0.001
 54254,0.00029214,0.00443058,0.00038125,-0.00160707,0.00668642,-0.00024
 019,-0.00034128,0.00020052,-0.00019801,0.00136208,-0.00367975,-0.00033
 712,-0.00009403,-0.00275135,0.00002695,0.00020455,0.00010243,0.0000324
 9,-0.00008851,0.00021155,-0.00012822,0.00042482,-0.00041975,-0.0000564
 6,0.00015084,0.00003765,0.00005716,0.00002750,0.00002474,0.03738325,0.
 07177139,0.04998624,-0.05552543,-0.03584603,-0.01055055,-0.01687988,-0
 .03540911,-0.01057059,-0.00344480,0.00500342,0.00159027,0.00100135,-0.
 00116896,-0.00036696,-0.00043474,0.00083742,0.00029719,0.00177496,0.00
 362907,0.00111779,0.00060358,-0.00041035,-0.00013093,-0.00006786,-0.00
 003422,-0.00000811,0.00197143,-0.00123562,-0.00039065,-0.00071149,0.00
 065958,0.00020802,-0.00007236,-0.00014914,-0.00004508,-0.00106157,-0.0
 0047174,-0.00013505,-0.00016204,0.00004916,0.00001584,0.00128062,0.000
 58746,0.00013044,0.00016516,-0.00020677,-0.00007261,0.07156306,-0.0354
 3728,-0.09329033,-0.02152702,-0.00707865,-0.01553579,-0.00580790,-0.00
 160976,0.00365189,-0.00036212,-0.00114527,-0.00063470,-0.00006114,0.00
 652729,0.00100727,-0.00116031,-0.02513724,-0.03230866,-0.01070273,0.00
 018088,0.00109154,0.00116310,-0.00104572,-0.00127736,-0.00043791,0.003
 14911,-0.00135649,-0.00047581,-0.00114664,0.00122244,0.00035599,-0.000
 07645,-0.00025571,-0.00007028,-0.00127072,-0.00048460,-0.00012955,-0.0
 0012731,0.00008758,0.00004240,0.00014876,0.00016975,0.00086061,-0.0000
 9685,-0.00016272,0.00025634,0.06416584,0.13807590,-0.01043189,-0.02151
 310,-0.02770458,-0.00196442,-0.00556682,0.00212560,-0.00041821,-0.0004
 2024,0.00476815,-0.00035941,-0.00006105,-0.00041912,0.00202369,-0.0011
 1383,0.00429760,-0.00761709,-0.01093885,0.00038792,0.00004781,0.001162
 94,-0.00246259,-0.00031538,-0.00044589,0.00005951,0.00094006,-0.000439
 09,-0.00001716,-0.00034156,0.00033951,0.00019168,-0.00002279,-0.000069
 29,-0.00004417,-0.00037701,-0.00013474,-0.00006490,-0.00003762,0.00004
 064,-0.00003481,0.00000191,0.00084613,-0.00238124,-0.00003908,0.000257
 34,-0.00092588,0.01891100,0.03805634,0.02222398||0.00000626,-0.0000066
 7,0.00000343,-0.00001351,-0.00000789,-0.00000182,-0.00000868,0.0000110
 1,0.00000589,0.00000150,0.00000466,-0.00000082,0.00000077,0.00000209,-
 0.00000341,0.00000154,-0.00000405,-0.00000201,0.00000507,-0.00000259,0
 .00000681,-0.00000115,0.00000481,-0.00000462,0.00000831,0.00000280,-0.
 00000892,0.00000363,-0.00000218,0.00000342,-0.00000435,-0.00000247,0.0
 0000706,0.00000429,-0.00000460,0.00000060,-0.00000654,0.00000310,-0.00
 000471,0.00000206,0.00000128,0.00000007,0.00000075,-0.00000016,-0.0000
 0894,0.00000005,0.00000087,0.00000796|||@


 THE ONLY TROUBLE WITH A SURE THING IS THE UNCERTAINTY.
     -- FROM A TEABAG (BELONGING TO W.H.?)
 Job cpu time:       0 days  0 hours  2 minutes  7.0 seconds.
 File lengths (MBytes):  RWF=     31 Int=      0 D2E=      0 Chk=      3 Scr=      1
 Normal termination of Gaussian 09 at Thu Sep 14 09:35:52 2023.
