 Entering Gaussian System, Link 0=C:\G09W\g09.exe
 Input=C:\Users\vivek\Downloads\14_09_23\molecule_37.gjf
 Output=C:\Users\vivek\Downloads\14_09_23\molecule_37.log
 Initial command:
 C:/G09W\l1.exe ".\Gau-2032.inp" "C:\Users\vivek\Downloads\14_09_23\molecule_37.log" /scrdir=".\"
 Entering Link 1 = C:/G09W\l1.exe PID=      7288.
  
 Copyright (c) 1988,1990,1992,1993,1995,1998,2003,2009,2013,
            Gaussian, Inc.  All Rights Reserved.
  
 This is part of the Gaussian(R) 09 program.  It is based on
 the Gaussian(R) 03 system (copyright 2003, Gaussian, Inc.),
 the Gaussian(R) 98 system (copyright 1998, Gaussian, Inc.),
 the Gaussian(R) 94 system (copyright 1995, Gaussian, Inc.),
 the Gaussian 92(TM) system (copyright 1992, Gaussian, Inc.),
 the Gaussian 90(TM) system (copyright 1990, Gaussian, Inc.),
 the Gaussian 88(TM) system (copyright 1988, Gaussian, Inc.),
 the Gaussian 86(TM) system (copyright 1986, Carnegie Mellon
 University), and the Gaussian 82(TM) system (copyright 1983,
 Carnegie Mellon University). Gaussian is a federally registered
 trademark of Gaussian, Inc.
  
 This software contains proprietary and confidential information,
 including trade secrets, belonging to Gaussian, Inc.
  
 This software is provided under written license and may be
 used, copied, transmitted, or stored only in accord with that
 written license.
  
 The following legend is applicable only to US Government
 contracts under FAR:
  
                    RESTRICTED RIGHTS LEGEND
  
 Use, reproduction and disclosure by the US Government is
 subject to restrictions as set forth in subparagraphs (a)
 and (c) of the Commercial Computer Software - Restricted
 Rights clause in FAR 52.227-19.
  
 Gaussian, Inc.
 340 Quinnipiac St., Bldg. 40, Wallingford CT 06492
  
  
 ---------------------------------------------------------------
 Warning -- This program may not be used in any manner that
 competes with the business of Gaussian, Inc. or will provide
 assistance to any competitor of Gaussian, Inc.  The licensee
 of this program is prohibited from giving any competitor of
 Gaussian, Inc. access to this program.  By using this program,
 the user acknowledges that Gaussian, Inc. is engaged in the
 business of creating and licensing software in the field of
 computational chemistry and represents and warrants to the
 licensee that it is not a competitor of Gaussian, Inc. and that
 it will not use this program in any manner prohibited above.
 ---------------------------------------------------------------
  

 Cite this work as:
 Gaussian 09, Revision D.01,
 M. J. Frisch, G. W. Trucks, H. B. Schlegel, G. E. Scuseria, 
 M. A. Robb, J. R. Cheeseman, G. Scalmani, V. Barone, B. Mennucci, 
 G. A. Petersson, H. Nakatsuji, M. Caricato, X. Li, H. P. Hratchian, 
 A. F. Izmaylov, J. Bloino, G. Zheng, J. L. Sonnenberg, M. Hada, 
 M. Ehara, K. Toyota, R. Fukuda, J. Hasegawa, M. Ishida, T. Nakajima, 
 Y. Honda, O. Kitao, H. Nakai, T. Vreven, J. A. Montgomery, Jr., 
 J. E. Peralta, F. Ogliaro, M. Bearpark, J. J. Heyd, E. Brothers, 
 K. N. Kudin, V. N. Staroverov, T. Keith, R. Kobayashi, J. Normand, 
 K. Raghavachari, A. Rendell, J. C. Burant, S. S. Iyengar, J. Tomasi, 
 M. Cossi, N. Rega, J. M. Millam, M. Klene, J. E. Knox, J. B. Cross, 
 V. Bakken, C. Adamo, J. Jaramillo, R. Gomperts, R. E. Stratmann, 
 O. Yazyev, A. J. Austin, R. Cammi, C. Pomelli, J. W. Ochterski, 
 R. L. Martin, K. Morokuma, V. G. Zakrzewski, G. A. Voth, 
 P. Salvador, J. J. Dannenberg, S. Dapprich, A. D. Daniels, 
 O. Farkas, J. B. Foresman, J. V. Ortiz, J. Cioslowski, 
 and D. J. Fox, Gaussian, Inc., Wallingford CT, 2013.
 
 ******************************************
 Gaussian 09:  EM64W-G09RevD.01 13-Apr-2013
                14-Sep-2023 
 ******************************************
 %nprocshared=6
 Will use up to    6 processors via shared memory.
 %mem=8GB
 %chk=C:\Users\vivek\Downloads\molecule_37.chk
 ---------------------------------------------------------------------
 # opt freq rb3lyp/6-31+g(d) geom=connectivity empiricaldispersion=gd3
 ---------------------------------------------------------------------
 1/14=-1,18=20,19=15,26=3,38=1,57=2/1,3;
 2/9=110,12=2,17=6,18=5,40=1/2;
 3/5=1,6=6,7=11,11=2,16=1,25=1,30=1,71=1,74=-5,116=1,124=31/1,2,3;
 4//1;
 5/5=2,38=5/2;
 6/7=2,8=2,9=2,10=2,28=1/1;
 7//1,2,3,16;
 1/14=-1,18=20,19=15,26=3/3(2);
 2/9=110/2;
 99//99;
 2/9=110/2;
 3/5=1,6=6,7=11,11=2,16=1,25=1,30=1,71=1,74=-5,116=1,124=31/1,2,3;
 4/5=5,16=3,69=1/1;
 5/5=2,38=5/2;
 7//1,2,3,16;
 1/14=-1,18=20,19=15,26=3/3(-5);
 2/9=110/2;
 6/7=2,8=2,9=2,10=2,19=2,28=1/1;
 99/9=1/99;
 -------------------
 Title Card Required
 -------------------
 Symbolic Z-matrix:
 Charge =  0 Multiplicity = 1
 C                    -2.07125  -0.27626   0.00496 
 C                    -2.79069   0.92636   0.00054 
 C                    -0.67002  -0.25453   0.00276 
 C                    -2.1089    2.15072  -0.00609 
 C                    -0.70767   2.17245  -0.00829 
 C                     0.01177   0.96982  -0.00386 
 H                    -2.65821   3.06895  -0.00946 
 H                    -0.18711   3.10727  -0.01334 
 H                     1.08164   0.98642  -0.00555 
 O                     0.06411  -1.4817    0.00727 
 H                     1.0052   -1.29214   0.005 
 H                    -2.59181  -1.21108   0.01002 
 C                    -4.3305    0.90248   0.00296 
 H                    -4.68061   0.38862  -0.86783 
 H                    -4.67799   0.39661   0.87945 
 H                    -4.70277   1.90563  -0.00107 
 

 GradGradGradGradGradGradGradGradGradGradGradGradGradGradGradGradGradGrad
 Berny optimization.
 Initialization pass.
                           ----------------------------
                           !    Initial Parameters    !
                           ! (Angstroms and Degrees)  !
 --------------------------                            --------------------------
 ! Name  Definition              Value          Derivative Info.                !
 --------------------------------------------------------------------------------
 ! R1    R(1,2)                  1.4014         estimate D2E/DX2                !
 ! R2    R(1,3)                  1.4014         estimate D2E/DX2                !
 ! R3    R(1,12)                 1.07           estimate D2E/DX2                !
 ! R4    R(2,4)                  1.4014         estimate D2E/DX2                !
 ! R5    R(2,13)                 1.54           estimate D2E/DX2                !
 ! R6    R(3,6)                  1.4014         estimate D2E/DX2                !
 ! R7    R(3,10)                 1.43           estimate D2E/DX2                !
 ! R8    R(4,5)                  1.4014         estimate D2E/DX2                !
 ! R9    R(4,7)                  1.07           estimate D2E/DX2                !
 ! R10   R(5,6)                  1.4014         estimate D2E/DX2                !
 ! R11   R(5,8)                  1.07           estimate D2E/DX2                !
 ! R12   R(6,9)                  1.07           estimate D2E/DX2                !
 ! R13   R(10,11)                0.96           estimate D2E/DX2                !
 ! R14   R(13,14)                1.07           estimate D2E/DX2                !
 ! R15   R(13,15)                1.07           estimate D2E/DX2                !
 ! R16   R(13,16)                1.07           estimate D2E/DX2                !
 ! A1    A(2,1,3)              120.0            estimate D2E/DX2                !
 ! A2    A(2,1,12)             120.0            estimate D2E/DX2                !
 ! A3    A(3,1,12)             120.0            estimate D2E/DX2                !
 ! A4    A(1,2,4)              120.0            estimate D2E/DX2                !
 ! A5    A(1,2,13)             120.0            estimate D2E/DX2                !
 ! A6    A(4,2,13)             120.0            estimate D2E/DX2                !
 ! A7    A(1,3,6)              120.0            estimate D2E/DX2                !
 ! A8    A(1,3,10)             120.0            estimate D2E/DX2                !
 ! A9    A(6,3,10)             120.0            estimate D2E/DX2                !
 ! A10   A(2,4,5)              120.0            estimate D2E/DX2                !
 ! A11   A(2,4,7)              120.0            estimate D2E/DX2                !
 ! A12   A(5,4,7)              120.0            estimate D2E/DX2                !
 ! A13   A(4,5,6)              120.0            estimate D2E/DX2                !
 ! A14   A(4,5,8)              120.0            estimate D2E/DX2                !
 ! A15   A(6,5,8)              120.0            estimate D2E/DX2                !
 ! A16   A(3,6,5)              120.0            estimate D2E/DX2                !
 ! A17   A(3,6,9)              120.0            estimate D2E/DX2                !
 ! A18   A(5,6,9)              120.0            estimate D2E/DX2                !
 ! A19   A(3,10,11)            109.5            estimate D2E/DX2                !
 ! A20   A(2,13,14)            109.4712         estimate D2E/DX2                !
 ! A21   A(2,13,15)            109.4712         estimate D2E/DX2                !
 ! A22   A(2,13,16)            109.4712         estimate D2E/DX2                !
 ! A23   A(14,13,15)           109.4713         estimate D2E/DX2                !
 ! A24   A(14,13,16)           109.4712         estimate D2E/DX2                !
 ! A25   A(15,13,16)           109.4712         estimate D2E/DX2                !
 ! D1    D(3,1,2,4)             -0.0001         estimate D2E/DX2                !
 ! D2    D(3,1,2,13)           179.9999         estimate D2E/DX2                !
 ! D3    D(12,1,2,4)           179.9999         estimate D2E/DX2                !
 ! D4    D(12,1,2,13)           -0.0001         estimate D2E/DX2                !
 ! D5    D(2,1,3,6)              0.0            estimate D2E/DX2                !
 ! D6    D(2,1,3,10)          -179.9998         estimate D2E/DX2                !
 ! D7    D(12,1,3,6)          -180.0            estimate D2E/DX2                !
 ! D8    D(12,1,3,10)            0.0002         estimate D2E/DX2                !
 ! D9    D(1,2,4,5)              0.0            estimate D2E/DX2                !
 ! D10   D(1,2,4,7)           -180.0            estimate D2E/DX2                !
 ! D11   D(13,2,4,5)          -180.0            estimate D2E/DX2                !
 ! D12   D(13,2,4,7)             0.0            estimate D2E/DX2                !
 ! D13   D(1,2,13,14)          -60.0001         estimate D2E/DX2                !
 ! D14   D(1,2,13,15)           59.9999         estimate D2E/DX2                !
 ! D15   D(1,2,13,16)          179.9999         estimate D2E/DX2                !
 ! D16   D(4,2,13,14)          119.9999         estimate D2E/DX2                !
 ! D17   D(4,2,13,15)         -120.0001         estimate D2E/DX2                !
 ! D18   D(4,2,13,16)           -0.0001         estimate D2E/DX2                !
 ! D19   D(1,3,6,5)              0.0            estimate D2E/DX2                !
 ! D20   D(1,3,6,9)            180.0            estimate D2E/DX2                !
 ! D21   D(10,3,6,5)           179.9999         estimate D2E/DX2                !
 ! D22   D(10,3,6,9)            -0.0002         estimate D2E/DX2                !
 ! D23   D(1,3,10,11)         -179.9995         estimate D2E/DX2                !
 ! D24   D(6,3,10,11)            0.0007         estimate D2E/DX2                !
 ! D25   D(2,4,5,6)              0.0            estimate D2E/DX2                !
 ! D26   D(2,4,5,8)           -179.9999         estimate D2E/DX2                !
 ! D27   D(7,4,5,6)           -180.0            estimate D2E/DX2                !
 ! D28   D(7,4,5,8)              0.0001         estimate D2E/DX2                !
 ! D29   D(4,5,6,3)              0.0            estimate D2E/DX2                !
 ! D30   D(4,5,6,9)           -180.0            estimate D2E/DX2                !
 ! D31   D(8,5,6,3)            179.9999         estimate D2E/DX2                !
 ! D32   D(8,5,6,9)             -0.0001         estimate D2E/DX2                !
 --------------------------------------------------------------------------------
 Trust Radius=3.00D-01 FncErr=1.00D-07 GrdErr=1.00D-06
 Number of steps in this run=     83 maximum allowed number of steps=    100.
 GradGradGradGradGradGradGradGradGradGradGradGradGradGradGradGradGradGrad

                          Input orientation:                          
 ---------------------------------------------------------------------
 Center     Atomic      Atomic             Coordinates (Angstroms)
 Number     Number       Type             X           Y           Z
 ---------------------------------------------------------------------
      1          6           0       -2.071246   -0.276261    0.004960
      2          6           0       -2.790688    0.926364    0.000538
      3          6           0       -0.670016   -0.254530    0.002758
      4          6           0       -2.108901    2.150718   -0.006085
      5          6           0       -0.707671    2.172448   -0.008286
      6          6           0        0.011771    0.969824   -0.003865
      7          1           0       -2.658211    3.068948   -0.009462
      8          1           0       -0.187111    3.107270   -0.013342
      9          1           0        1.081641    0.986416   -0.005545
     10          8           0        0.064109   -1.481698    0.007268
     11          1           0        1.005205   -1.292138    0.004997
     12          1           0       -2.591806   -1.211083    0.010018
     13          6           0       -4.330501    0.902484    0.002955
     14          1           0       -4.680609    0.388622   -0.867832
     15          1           0       -4.677990    0.396612    0.879451
     16          1           0       -4.702775    1.905627   -0.001074
 ---------------------------------------------------------------------
                    Distance matrix (angstroms):
                    1          2          3          4          5
     1  C    0.000000
     2  C    1.401400   0.000000
     3  C    1.401400   2.427296   0.000000
     4  C    2.427296   1.401400   2.802800   0.000000
     5  C    2.802800   2.427296   2.427296   1.401400   0.000000
     6  C    2.427296   2.802800   1.401400   2.427296   1.401400
     7  H    3.396345   2.146700   3.872800   1.070000   2.146700
     8  H    3.872800   3.396345   3.396345   2.146700   1.070000
     9  H    3.396345   3.872800   2.146700   3.396345   2.146700
    10  O    2.452106   3.734792   1.430000   4.232800   3.734792
    11  H    3.239839   4.396655   1.970533   4.642309   3.864904
    12  H    1.070000   2.146700   2.146700   3.396345   3.872800
    13  C    2.548270   1.540000   3.838989   2.548270   3.838989
    14  H    2.830656   2.148263   4.154086   3.234389   4.439042
    15  H    2.830654   2.148263   4.154086   3.234390   4.439043
    16  H    3.418423   2.148263   4.574870   2.605432   4.004010
                    6          7          8          9         10
     6  C    0.000000
     7  H    3.396345   0.000000
     8  H    2.146700   2.471400   0.000000
     9  H    1.070000   4.280590   2.471400   0.000000
    10  O    2.452106   5.302800   4.595886   2.669667   0.000000
    11  H    2.470519   5.695604   4.558152   2.279860   0.960000
    12  H    3.396345   4.280590   4.942800   4.280590   2.669667
    13  C    4.342800   2.736837   4.693509   5.412800   4.999694
    14  H    4.806524   3.465695   5.320970   5.856998   5.174577
    15  H    4.806524   3.465697   5.320971   5.856999   5.174577
    16  H    4.806524   2.352366   4.672827   5.856999   5.847839
                   11         12         13         14         15
    11  H    0.000000
    12  H    3.597927   0.000000
    13  C    5.769413   2.736837   0.000000
    14  H    5.992935   2.773585   1.070000   0.000000
    15  H    5.992933   2.773582   1.070000   1.747303   0.000000
    16  H    6.542688   3.764332   1.070000   1.747303   1.747303
                   16
    16  H    0.000000
 Stoichiometry    C7H8O
 Framework group  C1[X(C7H8O)]
 Deg. of freedom    42
 Full point group                 C1      NOp   1
 Largest Abelian subgroup         C1      NOp   1
 Largest concise Abelian subgroup C1      NOp   1
                         Standard orientation:                         
 ---------------------------------------------------------------------
 Center     Atomic      Atomic             Coordinates (Angstroms)
 Number     Number       Type             X           Y           Z
 ---------------------------------------------------------------------
      1          6           0        0.041915   -0.996931   -0.000001
      2          6           0        1.211182   -0.224445    0.000000
      3          6           0       -1.211712   -0.370558   -0.000001
      4          6           0        1.126824    1.174414    0.000000
      5          6           0       -0.126803    1.800787    0.000000
      6          6           0       -1.296071    1.028300    0.000000
      7          1           0        2.019585    1.764224    0.000001
      8          1           0       -0.191213    2.868846   -0.000001
      9          1           0       -2.253242    1.506550    0.000000
     10          8           0       -2.404842   -1.158810    0.000002
     11          1           0       -3.171039   -0.580413   -0.000006
     12          1           0        0.106324   -2.064990   -0.000003
     13          6           0        2.588794   -0.912766    0.000000
     14          1           0        2.682402   -1.523396    0.873653
     15          1           0        2.682402   -1.523398   -0.873650
     16          1           0        3.358749   -0.169753    0.000000
 ---------------------------------------------------------------------
 Rotational constants (GHZ):      3.6608851      1.7385509      1.1872801
 Standard basis: 6-31+G(d) (6D, 7F)
 There are   168 symmetry adapted cartesian basis functions of A   symmetry.
 There are   168 symmetry adapted basis functions of A   symmetry.
   168 basis functions,   288 primitive gaussians,   168 cartesian basis functions
    29 alpha electrons       29 beta electrons
       nuclear repulsion energy       340.6131723430 Hartrees.
 NAtoms=   16 NActive=   16 NUniq=   16 SFac= 1.00D+00 NAtFMM=   60 NAOKFM=F Big=F
 Integral buffers will be    131072 words long.
 Raffenetti 2 integral format.
 Two-electron integral symmetry is turned on.
 Nuclear repulsion after empirical dispersion term =      340.6038711100 Hartrees.
 One-electron integrals computed using PRISM.
 NBasis=   168 RedAO= T EigKep=  4.38D-06  NBF=   168
 NBsUse=   168 1.00D-06 EigRej= -1.00D+00 NBFU=   168
 ExpMin= 4.38D-02 ExpMax= 5.48D+03 ExpMxC= 8.25D+02 IAcc=2 IRadAn=         4 AccDes= 0.00D+00
 Harris functional with IExCor=  402 and IRadAn=       4 diagonalized for initial guess.
 HarFok:  IExCor=  402 AccDes= 0.00D+00 IRadAn=         4 IDoV= 1 UseB2=F ITyADJ=14
 ICtDFT=  3500011 ScaDFX=  1.000000  1.000000  1.000000  1.000000
 FoFCou: FMM=F IPFlag=           0 FMFlag=      100000 FMFlg1=           0
         NFxFlg=           0 DoJE=T BraDBF=F KetDBF=T FulRan=T
         wScrn=  0.000000 ICntrl=     500 IOpCl=  0 I1Cent=   200000004 NGrid=           0
         NMat0=    1 NMatS0=      1 NMatT0=    0 NMatD0=    1 NMtDS0=    0 NMtDT0=    0
 Petite list used in FoFCou.
 Keep R1 ints in memory in canonical form, NReq=103289120.
 Requested convergence on RMS density matrix=1.00D-08 within 128 cycles.
 Requested convergence on MAX density matrix=1.00D-06.
 Requested convergence on             energy=1.00D-06.
 No special actions if energy rises.
 SCF Done:  E(RB3LYP) =  -346.802591796     A.U. after   13 cycles
            NFock= 13  Conv=0.62D-08     -V/T= 2.0098

 **********************************************************************

            Population analysis using the SCF density.

 **********************************************************************

 Orbital symmetries:
       Occupied  (A) (A) (A) (A) (A) (A) (A) (A) (A) (A) (A) (A)
                 (A) (A) (A) (A) (A) (A) (A) (A) (A) (A) (A) (A)
                 (A) (A) (A) (A) (A)
       Virtual   (A) (A) (A) (A) (A) (A) (A) (A) (A) (A) (A) (A)
                 (A) (A) (A) (A) (A) (A) (A) (A) (A) (A) (A) (A)
                 (A) (A) (A) (A) (A) (A) (A) (A) (A) (A) (A) (A)
                 (A) (A) (A) (A) (A) (A) (A) (A) (A) (A) (A) (A)
                 (A) (A) (A) (A) (A) (A) (A) (A) (A) (A) (A) (A)
                 (A) (A) (A) (A) (A) (A) (A) (A) (A) (A) (A) (A)
                 (A) (A) (A) (A) (A) (A) (A) (A) (A) (A) (A) (A)
                 (A) (A) (A) (A) (A) (A) (A) (A) (A) (A) (A) (A)
                 (A) (A) (A) (A) (A) (A) (A) (A) (A) (A) (A) (A)
                 (A) (A) (A) (A) (A) (A) (A) (A) (A) (A) (A) (A)
                 (A) (A) (A) (A) (A) (A) (A) (A) (A) (A) (A) (A)
                 (A) (A) (A) (A) (A) (A) (A)
 The electronic state is 1-A.
 Alpha  occ. eigenvalues --  -19.18644 -10.26120 -10.20864 -10.20061 -10.19689
 Alpha  occ. eigenvalues --  -10.19212 -10.18894 -10.18318  -1.04796  -0.85857
 Alpha  occ. eigenvalues --   -0.77561  -0.74810  -0.69570  -0.61262  -0.60914
 Alpha  occ. eigenvalues --   -0.53018  -0.50619  -0.47548  -0.44710  -0.43142
 Alpha  occ. eigenvalues --   -0.41637  -0.40679  -0.39753  -0.38350  -0.36100
 Alpha  occ. eigenvalues --   -0.34368  -0.33220  -0.25219  -0.23282
 Alpha virt. eigenvalues --   -0.01781  -0.00260  -0.00205   0.01302   0.02082
 Alpha virt. eigenvalues --    0.03814   0.04370   0.04892   0.06232   0.06573
 Alpha virt. eigenvalues --    0.07907   0.08167   0.09344   0.10137   0.11959
 Alpha virt. eigenvalues --    0.12090   0.12913   0.13043   0.13998   0.15055
 Alpha virt. eigenvalues --    0.15133   0.16111   0.16272   0.17133   0.18358
 Alpha virt. eigenvalues --    0.18757   0.19931   0.20743   0.21791   0.22302
 Alpha virt. eigenvalues --    0.23159   0.23711   0.24356   0.24703   0.26193
 Alpha virt. eigenvalues --    0.26526   0.27039   0.27132   0.27606   0.29223
 Alpha virt. eigenvalues --    0.30707   0.31620   0.33368   0.34669   0.36155
 Alpha virt. eigenvalues --    0.36773   0.38375   0.40662   0.41315   0.56356
 Alpha virt. eigenvalues --    0.59645   0.65332   0.66255   0.66464   0.68187
 Alpha virt. eigenvalues --    0.70638   0.70783   0.71713   0.73542   0.74723
 Alpha virt. eigenvalues --    0.74807   0.77106   0.77596   0.80673   0.82384
 Alpha virt. eigenvalues --    0.84148   0.89519   0.91908   0.94236   0.96284
 Alpha virt. eigenvalues --    0.96553   1.00767   1.02723   1.04066   1.06231
 Alpha virt. eigenvalues --    1.08534   1.10552   1.15033   1.15976   1.18530
 Alpha virt. eigenvalues --    1.19043   1.19689   1.23509   1.24324   1.27718
 Alpha virt. eigenvalues --    1.28779   1.36218   1.36493   1.40864   1.41575
 Alpha virt. eigenvalues --    1.45805   1.45930   1.47957   1.48911   1.49970
 Alpha virt. eigenvalues --    1.73254   1.75246   1.80636   1.81453   1.85000
 Alpha virt. eigenvalues --    1.88029   1.89373   1.91089   1.95641   1.96542
 Alpha virt. eigenvalues --    1.98505   2.00612   2.10509   2.13075   2.15223
 Alpha virt. eigenvalues --    2.15455   2.23194   2.27171   2.28414   2.30786
 Alpha virt. eigenvalues --    2.37575   2.38130   2.38632   2.46116   2.50830
 Alpha virt. eigenvalues --    2.55408   2.63847   2.64299   2.68347   2.74583
 Alpha virt. eigenvalues --    2.76088   2.84402   2.89359   3.03120   3.08943
 Alpha virt. eigenvalues --    3.41882   4.16640   4.23458   4.25269   4.27576
 Alpha virt. eigenvalues --    4.33976   4.41973   4.48137   4.76569
          Condensed to atoms (all electrons):
               1          2          3          4          5          6
     1  C   10.927674  -0.899073  -2.026430  -1.652280  -0.192315  -0.917612
     2  C   -0.899073   6.546512   0.664597   0.206495   0.123436  -0.047629
     3  C   -2.026430   0.664597   7.211641   0.136104   0.322334   0.119439
     4  C   -1.652280   0.206495   0.136104   7.400964   0.347813  -0.267057
     5  C   -0.192315   0.123436   0.322334   0.347813   5.464727   0.115278
     6  C   -0.917612  -0.047629   0.119439  -0.267057   0.115278   6.497246
     7  H    0.033376   0.019838  -0.007900   0.226748   0.008369   0.017057
     8  H   -0.000920  -0.001761  -0.005095  -0.002751   0.271194   0.032699
     9  H   -0.001056   0.008553  -0.035540   0.004429   0.026082   0.283998
    10  O   -0.228388   0.041732   0.081273   0.023995   0.050513   0.012941
    11  H    0.165861  -0.009094  -0.061516  -0.004018  -0.000005  -0.085288
    12  H    0.240351  -0.022151  -0.021151   0.058584  -0.023482   0.042008
    13  C    0.251023  -0.588819  -0.514355   0.222892  -0.112781   0.063648
    14  H   -0.018224  -0.076831  -0.009643   0.028215  -0.002927   0.003101
    15  H   -0.018223  -0.076830  -0.009643   0.028215  -0.002927   0.003101
    16  H    0.028614  -0.113803  -0.000600  -0.028195  -0.008295   0.002794
               7          8          9         10         11         12
     1  C    0.033376  -0.000920  -0.001056  -0.228388   0.165861   0.240351
     2  C    0.019838  -0.001761   0.008553   0.041732  -0.009094  -0.022151
     3  C   -0.007900  -0.005095  -0.035540   0.081273  -0.061516  -0.021151
     4  C    0.226748  -0.002751   0.004429   0.023995  -0.004018   0.058584
     5  C    0.008369   0.271194   0.026082   0.050513  -0.000005  -0.023482
     6  C    0.017057   0.032699   0.283998   0.012941  -0.085288   0.042008
     7  H    0.552619  -0.004672  -0.000163   0.000092  -0.000001  -0.000145
     8  H   -0.004672   0.538281  -0.005260  -0.000509  -0.000010   0.000017
     9  H   -0.000163  -0.005260   0.563996  -0.014731   0.007653  -0.000156
    10  O    0.000092  -0.000509  -0.014731   8.589963   0.144285  -0.004154
    11  H   -0.000001  -0.000010   0.007653   0.144285   0.367777  -0.000089
    12  H   -0.000145   0.000017  -0.000156  -0.004154  -0.000089   0.535372
    13  C   -0.019696  -0.000145   0.001964  -0.004756   0.002197   0.007491
    14  H    0.000159   0.000003   0.000000  -0.000005   0.000000   0.000930
    15  H    0.000159   0.000003   0.000000  -0.000005   0.000000   0.000930
    16  H    0.004470  -0.000002   0.000000   0.000026   0.000000   0.000090
              13         14         15         16
     1  C    0.251023  -0.018224  -0.018223   0.028614
     2  C   -0.588819  -0.076831  -0.076830  -0.113803
     3  C   -0.514355  -0.009643  -0.009643  -0.000600
     4  C    0.222892   0.028215   0.028215  -0.028195
     5  C   -0.112781  -0.002927  -0.002927  -0.008295
     6  C    0.063648   0.003101   0.003101   0.002794
     7  H   -0.019696   0.000159   0.000159   0.004470
     8  H   -0.000145   0.000003   0.000003  -0.000002
     9  H    0.001964   0.000000   0.000000   0.000000
    10  O   -0.004756  -0.000005  -0.000005   0.000026
    11  H    0.002197   0.000000   0.000000   0.000000
    12  H    0.007491   0.000930   0.000930   0.000090
    13  C    6.232678   0.412984   0.412983   0.461683
    14  H    0.412984   0.493078  -0.031353  -0.026009
    15  H    0.412983  -0.031353   0.493079  -0.026009
    16  H    0.461683  -0.026009  -0.026009   0.499716
 Mulliken charges:
               1
     1  C    0.307622
     2  C    0.224829
     3  C    0.156486
     4  C   -0.730154
     5  C   -0.387015
     6  C    0.124277
     7  H    0.169691
     8  H    0.178928
     9  H    0.160231
    10  O   -0.692271
    11  H    0.472247
    12  H    0.185554
    13  C   -0.828991
    14  H    0.226523
    15  H    0.226523
    16  H    0.205521
 Sum of Mulliken charges =   0.00000
 Mulliken charges with hydrogens summed into heavy atoms:
               1
     1  C    0.493176
     2  C    0.224829
     3  C    0.156486
     4  C   -0.560462
     5  C   -0.208087
     6  C    0.284507
    10  O   -0.220024
    13  C   -0.170424
 Electronic spatial extent (au):  <R**2>=            989.5388
 Charge=              0.0000 electrons
 Dipole moment (field-independent basis, Debye):
    X=              0.0650    Y=              1.2589    Z=              0.0000  Tot=              1.2606
 Quadrupole moment (field-independent basis, Debye-Ang):
   XX=            -40.0000   YY=            -47.2158   ZZ=            -51.8719
   XY=             -4.5201   XZ=              0.0001   YZ=              0.0000
 Traceless Quadrupole moment (field-independent basis, Debye-Ang):
   XX=              6.3626   YY=             -0.8532   ZZ=             -5.5094
   XY=             -4.5201   XZ=              0.0001   YZ=              0.0000
 Octapole moment (field-independent basis, Debye-Ang**2):
  XXX=            -31.8290  YYY=              3.7677  ZZZ=              0.0000  XYY=              5.7876
  XXY=              8.9046  XXZ=             -0.0002  XZZ=             -1.4394  YZZ=             -4.6227
  YYZ=              0.0000  XYZ=              0.0000
 Hexadecapole moment (field-independent basis, Debye-Ang**3):
 XXXX=           -706.1603 YYYY=           -417.0977 ZZZZ=            -68.3981 XXXY=             -0.8346
 XXXZ=              0.0006 YYYX=             -5.3198 YYYZ=              0.0000 ZZZX=              0.0000
 ZZZY=              0.0000 XXYY=           -224.3987 XXZZ=           -155.7505 YYZZ=            -91.4848
 XXYZ=              0.0001 YYXZ=              0.0000 ZZXY=             -0.4387
 N-N= 3.406038711100D+02 E-N=-1.486498854501D+03  KE= 3.434519479387D+02
 Calling FoFJK, ICntrl=      2127 FMM=F ISym2X=0 I1Cent= 0 IOpClX= 0 NMat=1 NMatS=1 NMatT=0.
 ***** Axes restored to original set *****
 -------------------------------------------------------------------
 Center     Atomic                   Forces (Hartrees/Bohr)
 Number     Number              X              Y              Z
 -------------------------------------------------------------------
      1        6           0.011892883    0.005715963   -0.000044019
      2        6          -0.011364902    0.002218301    0.000006918
      3        6           0.018123018   -0.016611860    0.000048619
      4        6           0.011093428   -0.011703139    0.000036820
      5        6          -0.008692963   -0.016185889    0.000087178
      6        6          -0.013186136    0.003046705    0.000005929
      7        1          -0.006270093    0.010292045   -0.000037653
      8        1           0.006636861    0.010088603   -0.000056152
      9        1           0.013150268    0.000203672   -0.000020690
     10        8          -0.035325892    0.021790188   -0.000046599
     11        1           0.008532245    0.004335712   -0.000032571
     12        1          -0.004342901   -0.011411752    0.000058682
     13        6           0.036190245    0.000807826   -0.000057922
     14        1          -0.008858231   -0.008645189   -0.013477867
     15        1          -0.008817670   -0.008521447    0.013582866
     16        1          -0.008760160    0.014580261   -0.000053538
 -------------------------------------------------------------------
 Cartesian Forces:  Max     0.036190245 RMS     0.011538204

 GradGradGradGradGradGradGradGradGradGradGradGradGradGradGradGradGradGrad
 Berny optimization.
 FormGI is forming the generalized inverse of G from B-inverse, IUseBI=4.
 Internal  Forces:  Max     0.036173052 RMS     0.006983236
 Search for a local minimum.
 Step number   1 out of a maximum of   83
 All quantities printed in internal units (Hartrees-Bohrs-Radians)
 Mixed Optimization -- RFO/linear search
 Second derivative matrix not updated -- first step.
 ITU=  0
     Eigenvalues ---    0.00237   0.01295   0.01337   0.01930   0.02070
     Eigenvalues ---    0.02070   0.02070   0.02070   0.02070   0.02070
     Eigenvalues ---    0.02070   0.07243   0.07243   0.16000   0.16000
     Eigenvalues ---    0.16000   0.16000   0.16000   0.16000   0.16000
     Eigenvalues ---    0.16000   0.22000   0.23478   0.23493   0.25000
     Eigenvalues ---    0.25000   0.28519   0.37230   0.37230   0.37230
     Eigenvalues ---    0.37230   0.37230   0.37230   0.37230   0.40989
     Eigenvalues ---    0.41364   0.41554   0.45389   0.45389   0.45389
     Eigenvalues ---    0.45389   0.55473
 RFO step:  Lambda=-9.67703826D-03 EMin= 2.36824136D-03
 Linear search not attempted -- first point.
 Iteration  1 RMS(Cart)=  0.02941915 RMS(Int)=  0.00047299
 Iteration  2 RMS(Cart)=  0.00061724 RMS(Int)=  0.00005490
 Iteration  3 RMS(Cart)=  0.00000060 RMS(Int)=  0.00005490
 Variable       Old X    -DE/DX   Delta X   Delta X   Delta X     New X
                                 (Linear)    (Quad)   (Total)
    R1        2.64826  -0.00147   0.00000  -0.00315  -0.00315   2.64511
    R2        2.64826  -0.00874   0.00000  -0.01910  -0.01909   2.62917
    R3        2.02201   0.01208   0.00000   0.03163   0.03163   2.05364
    R4        2.64826   0.00020   0.00000   0.00070   0.00068   2.64894
    R5        2.91018  -0.00973   0.00000  -0.03299  -0.03299   2.87719
    R6        2.64826  -0.00259   0.00000  -0.00586  -0.00585   2.64242
    R7        2.70231  -0.03617   0.00000  -0.08621  -0.08621   2.61609
    R8        2.64826  -0.00192   0.00000  -0.00390  -0.00391   2.64436
    R9        2.02201   0.01205   0.00000   0.03155   0.03155   2.05355
   R10        2.64826  -0.00518   0.00000  -0.01121  -0.01120   2.63706
   R11        2.02201   0.01204   0.00000   0.03153   0.03153   2.05353
   R12        2.02201   0.01315   0.00000   0.03443   0.03443   2.05644
   R13        1.81414   0.00922   0.00000   0.01633   0.01633   1.83047
   R14        2.02201   0.01802   0.00000   0.04717   0.04717   2.06918
   R15        2.02201   0.01802   0.00000   0.04717   0.04717   2.06918
   R16        2.02201   0.01672   0.00000   0.04377   0.04377   2.06578
    A1        2.09440  -0.00065   0.00000  -0.00310  -0.00310   2.09130
    A2        2.09440   0.00210   0.00000   0.01201   0.01201   2.10640
    A3        2.09440  -0.00145   0.00000  -0.00890  -0.00891   2.08549
    A4        2.09440  -0.00279   0.00000  -0.01001  -0.01003   2.08436
    A5        2.09440  -0.00170   0.00000  -0.00692  -0.00691   2.08748
    A6        2.09440   0.00449   0.00000   0.01693   0.01695   2.11134
    A7        2.09440   0.00539   0.00000   0.01999   0.02002   2.11441
    A8        2.09440  -0.01333   0.00000  -0.05094  -0.05095   2.04344
    A9        2.09440   0.00794   0.00000   0.03095   0.03094   2.12533
   A10        2.09440   0.00076   0.00000   0.00460   0.00458   2.09897
   A11        2.09440  -0.00047   0.00000  -0.00286  -0.00285   2.09155
   A12        2.09440  -0.00028   0.00000  -0.00174  -0.00173   2.09267
   A13        2.09440   0.00121   0.00000   0.00598   0.00597   2.10037
   A14        2.09440   0.00030   0.00000   0.00234   0.00234   2.09674
   A15        2.09440  -0.00151   0.00000  -0.00832  -0.00831   2.08608
   A16        2.09440  -0.00392   0.00000  -0.01746  -0.01743   2.07696
   A17        2.09440   0.00195   0.00000   0.00870   0.00869   2.10309
   A18        2.09440   0.00196   0.00000   0.00875   0.00874   2.10314
   A19        1.91114  -0.00465   0.00000  -0.02740  -0.02740   1.88374
   A20        1.91063   0.00309   0.00000   0.01760   0.01743   1.92807
   A21        1.91063   0.00309   0.00000   0.01760   0.01743   1.92807
   A22        1.91063   0.00336   0.00000   0.02096   0.02074   1.93138
   A23        1.91063  -0.00356   0.00000  -0.02332  -0.02343   1.88720
   A24        1.91063  -0.00299   0.00000  -0.01642  -0.01664   1.89400
   A25        1.91063  -0.00299   0.00000  -0.01642  -0.01664   1.89400
    D1        0.00000   0.00000   0.00000   0.00000   0.00000   0.00000
    D2        3.14159   0.00000   0.00000   0.00000   0.00000   3.14159
    D3        3.14159   0.00000   0.00000   0.00000   0.00000   3.14159
    D4        0.00000   0.00000   0.00000   0.00000   0.00000   0.00000
    D5        0.00000   0.00000   0.00000   0.00000   0.00000   0.00000
    D6       -3.14159   0.00000   0.00000   0.00000   0.00000  -3.14159
    D7       -3.14159   0.00000   0.00000   0.00000   0.00000  -3.14159
    D8        0.00000   0.00000   0.00000   0.00000   0.00000   0.00000
    D9        0.00000   0.00000   0.00000   0.00000   0.00000   0.00000
   D10       -3.14159   0.00000   0.00000   0.00000   0.00000   3.14159
   D11       -3.14159   0.00000   0.00000   0.00000   0.00000  -3.14159
   D12        0.00000   0.00000   0.00000   0.00000   0.00000   0.00000
   D13       -1.04720   0.00029   0.00000   0.00350   0.00354  -1.04366
   D14        1.04720  -0.00029   0.00000  -0.00350  -0.00354   1.04366
   D15        3.14159   0.00000   0.00000   0.00000   0.00000   3.14159
   D16        2.09439   0.00029   0.00000   0.00350   0.00354   2.09793
   D17       -2.09440  -0.00029   0.00000  -0.00350  -0.00354  -2.09794
   D18        0.00000   0.00000   0.00000   0.00000   0.00000   0.00000
   D19        0.00000   0.00000   0.00000   0.00000   0.00000   0.00000
   D20        3.14159   0.00000   0.00000   0.00000   0.00000   3.14159
   D21        3.14159   0.00000   0.00000   0.00000   0.00000   3.14159
   D22        0.00000   0.00000   0.00000   0.00000   0.00000   0.00000
   D23       -3.14158   0.00000   0.00000   0.00000   0.00000  -3.14158
   D24        0.00001   0.00000   0.00000   0.00000   0.00000   0.00001
   D25        0.00000   0.00000   0.00000   0.00000   0.00000   0.00000
   D26       -3.14159   0.00000   0.00000   0.00000   0.00000  -3.14159
   D27       -3.14159   0.00000   0.00000   0.00000   0.00000  -3.14159
   D28        0.00000   0.00000   0.00000   0.00000   0.00000   0.00000
   D29        0.00000   0.00000   0.00000   0.00000   0.00000   0.00000
   D30       -3.14159   0.00000   0.00000   0.00000   0.00000   3.14159
   D31        3.14159   0.00000   0.00000   0.00000   0.00000   3.14159
   D32        0.00000   0.00000   0.00000   0.00000   0.00000   0.00000
         Item               Value     Threshold  Converged?
 Maximum Force            0.036173     0.000450     NO 
 RMS     Force            0.006983     0.000300     NO 
 Maximum Displacement     0.144399     0.001800     NO 
 RMS     Displacement     0.029321     0.001200     NO 
 Predicted change in Energy=-4.974309D-03
 GradGradGradGradGradGradGradGradGradGradGradGradGradGradGradGradGradGrad

                          Input orientation:                          
 ---------------------------------------------------------------------
 Center     Atomic      Atomic             Coordinates (Angstroms)
 Number     Number       Type             X           Y           Z
 ---------------------------------------------------------------------
      1          6           0       -2.061498   -0.269086    0.004912
      2          6           0       -2.785200    0.929031    0.000517
      3          6           0       -0.670564   -0.237270    0.002680
      4          6           0       -2.096184    2.149746   -0.006100
      5          6           0       -0.696996    2.169776   -0.008290
      6          6           0        0.025120    0.975677   -0.003912
      7          1           0       -2.651338    3.083929   -0.009541
      8          1           0       -0.164969    3.117300   -0.013421
      9          1           0        1.113267    0.988241   -0.005601
     10          8           0       -0.012304   -1.455126    0.007262
     11          1           0        0.940236   -1.279259    0.005037
     12          1           0       -2.574684   -1.227010    0.010064
     13          6           0       -4.307201    0.888408    0.002985
     14          1           0       -4.677548    0.358275   -0.880610
     15          1           0       -4.674889    0.366382    0.892497
     16          1           0       -4.720047    1.900608   -0.001024
 ---------------------------------------------------------------------
                    Distance matrix (angstroms):
                    1          2          3          4          5
     1  C    0.000000
     2  C    1.399732   0.000000
     3  C    1.391299   2.414942   0.000000
     4  C    2.419106   1.401761   2.780344   0.000000
     5  C    2.794653   2.429016   2.407216   1.399333   0.000000
     6  C    2.429709   2.810711   1.398306   2.424536   1.395473
     7  H    3.404531   2.159075   3.867037   1.086694   2.157575
     8  H    3.881336   3.413843   3.392495   2.160047   1.086684
     9  H    3.414691   3.898921   2.164255   3.413161   2.161732
    10  O    2.367676   3.656939   1.384377   4.163873   3.689032
    11  H    3.167153   4.330755   1.918444   4.580180   3.817925
    12  H    1.086740   2.166315   2.145999   3.410529   3.881263
    13  C    2.526456   1.522545   3.806872   2.545516   3.830875
    14  H    2.832216   2.164054   4.146178   3.261530   4.459515
    15  H    2.832215   2.164054   4.146178   3.261531   4.459515
    16  H    3.431544   2.165086   4.579176   2.635670   4.032052
                    6          7          8          9         10
     6  C    0.000000
     7  H    3.407079   0.000000
     8  H    2.150063   2.486596   0.000000
     9  H    1.088220   4.308616   2.483312   0.000000
    10  O    2.431116   5.250505   4.575020   2.690189   0.000000
    11  H    2.433568   5.651286   4.533382   2.274118   0.968642
    12  H    3.407493   4.311664   4.967928   4.302158   2.572516
    13  C    4.333205   2.749972   4.703861   5.421394   4.892679
    14  H    4.823368   3.506205   5.359814   5.890334   5.083428
    15  H    4.823368   3.506207   5.359815   5.890334   5.083428
    16  H    4.834472   2.383250   4.714789   5.904235   5.781338
                   11         12         13         14         15
    11  H    0.000000
    12  H    3.515313   0.000000
    13  C    5.677533   2.734347   0.000000
    14  H    5.918225   2.780011   1.094960   0.000000
    15  H    5.918222   2.780009   1.094960   1.773127   0.000000
    16  H    6.492334   3.792716   1.093164   1.776026   1.776026
                   16
    16  H    0.000000
 Stoichiometry    C7H8O
 Framework group  C1[X(C7H8O)]
 Deg. of freedom    42
 Full point group                 C1      NOp   1
 Largest Abelian subgroup         C1      NOp   1
 Largest concise Abelian subgroup C1      NOp   1
                         Standard orientation:                         
 ---------------------------------------------------------------------
 Center     Atomic      Atomic             Coordinates (Angstroms)
 Number     Number       Type             X           Y           Z
 ---------------------------------------------------------------------
      1          6           0        0.043845   -0.988652    0.000000
      2          6           0        1.205554   -0.207832    0.000000
      3          6           0       -1.203745   -0.372832    0.000000
      4          6           0        1.096034    1.189644    0.000000
      5          6           0       -0.164012    1.798261    0.000000
      6          6           0       -1.322589    1.020415    0.000000
      7          1           0        1.993559    1.802306    0.000000
      8          1           0       -0.246493    2.881810    0.000000
      9          1           0       -2.303797    1.491004    0.000000
     10          8           0       -2.314455   -1.199164    0.000001
     11          1           0       -3.103809   -0.637749   -0.000007
     12          1           0        0.104856   -2.073678   -0.000001
     13          6           0        2.568252   -0.886946    0.000000
     14          1           0        2.680799   -1.519619    0.886565
     15          1           0        2.680798   -1.519621   -0.886563
     16          1           0        3.369685   -0.143499   -0.000001
 ---------------------------------------------------------------------
 Rotational constants (GHZ):      3.6319379      1.7908832      1.2085336
 Standard basis: 6-31+G(d) (6D, 7F)
 There are   168 symmetry adapted cartesian basis functions of A   symmetry.
 There are   168 symmetry adapted basis functions of A   symmetry.
   168 basis functions,   288 primitive gaussians,   168 cartesian basis functions
    29 alpha electrons       29 beta electrons
       nuclear repulsion energy       342.3617980534 Hartrees.
 NAtoms=   16 NActive=   16 NUniq=   16 SFac= 1.00D+00 NAtFMM=   60 NAOKFM=F Big=F
 Integral buffers will be    131072 words long.
 Raffenetti 2 integral format.
 Two-electron integral symmetry is turned on.
 Nuclear repulsion after empirical dispersion term =      342.3524843830 Hartrees.
 One-electron integrals computed using PRISM.
 NBasis=   168 RedAO= T EigKep=  4.35D-06  NBF=   168
 NBsUse=   168 1.00D-06 EigRej= -1.00D+00 NBFU=   168
 Initial guess from the checkpoint file:  "C:\Users\vivek\Downloads\molecule_37.chk"
 B after Tr=     0.000000    0.000000    0.000000
         Rot=    0.999971    0.000000    0.000000   -0.007611 Ang=  -0.87 deg.
 ExpMin= 4.38D-02 ExpMax= 5.48D+03 ExpMxC= 8.25D+02 IAcc=2 IRadAn=         4 AccDes= 0.00D+00
 Harris functional with IExCor=  402 and IRadAn=       4 diagonalized for initial guess.
 HarFok:  IExCor=  402 AccDes= 0.00D+00 IRadAn=         4 IDoV= 1 UseB2=F ITyADJ=14
 ICtDFT=  3500011 ScaDFX=  1.000000  1.000000  1.000000  1.000000
 FoFCou: FMM=F IPFlag=           0 FMFlag=      100000 FMFlg1=           0
         NFxFlg=           0 DoJE=T BraDBF=F KetDBF=T FulRan=T
         wScrn=  0.000000 ICntrl=     500 IOpCl=  0 I1Cent=   200000004 NGrid=           0
         NMat0=    1 NMatS0=      1 NMatT0=    0 NMatD0=    1 NMtDS0=    0 NMtDT0=    0
 Petite list used in FoFCou.
 Keep R1 ints in memory in canonical form, NReq=103289120.
 Requested convergence on RMS density matrix=1.00D-08 within 128 cycles.
 Requested convergence on MAX density matrix=1.00D-06.
 Requested convergence on             energy=1.00D-06.
 No special actions if energy rises.
 SCF Done:  E(RB3LYP) =  -346.807830683     A.U. after   13 cycles
            NFock= 13  Conv=0.19D-08     -V/T= 2.0098
 Calling FoFJK, ICntrl=      2127 FMM=F ISym2X=0 I1Cent= 0 IOpClX= 0 NMat=1 NMatS=1 NMatT=0.
 ***** Axes restored to original set *****
 -------------------------------------------------------------------
 Center     Atomic                   Forces (Hartrees/Bohr)
 Number     Number              X              Y              Z
 -------------------------------------------------------------------
      1        6          -0.002346982    0.002749771   -0.000009070
      2        6          -0.006736166    0.000450415    0.000008040
      3        6           0.005744578   -0.009424790    0.000034440
      4        6           0.001913708   -0.000006457   -0.000002859
      5        6          -0.001751740   -0.000735602    0.000006021
      6        6          -0.000575078    0.002238932   -0.000009342
      7        1          -0.000174861    0.000158953   -0.000000450
      8        1          -0.000017690    0.000306986   -0.000001401
      9        1           0.000257265   -0.000311295    0.000001027
     10        8          -0.002966962    0.007427647   -0.000029416
     11        1           0.001931294   -0.002751778    0.000009638
     12        1           0.000927012   -0.000404332    0.000000440
     13        6           0.009095114    0.001093018   -0.000018629
     14        1          -0.001706177   -0.000529325   -0.000341072
     15        1          -0.001705132   -0.000526159    0.000351010
     16        1          -0.001888184    0.000264017    0.000001624
 -------------------------------------------------------------------
 Cartesian Forces:  Max     0.009424790 RMS     0.002753296

 GradGradGradGradGradGradGradGradGradGradGradGradGradGradGradGradGradGrad
 Berny optimization.
 Using GEDIIS/GDIIS optimizer.
 FormGI is forming the generalized inverse of G from B-inverse, IUseBI=4.
 Internal  Forces:  Max     0.005600762 RMS     0.001335967
 Search for a local minimum.
 Step number   2 out of a maximum of   83
 All quantities printed in internal units (Hartrees-Bohrs-Radians)
 Mixed Optimization -- RFO/linear search
 Update second derivatives using D2CorX and points    1    2
 DE= -5.24D-03 DEPred=-4.97D-03 R= 1.05D+00
 TightC=F SS=  1.41D+00  RLast= 1.67D-01 DXNew= 5.0454D-01 5.0236D-01
 Trust test= 1.05D+00 RLast= 1.67D-01 DXMaxT set to 5.02D-01
 ITU=  1  0
 Use linear search instead of GDIIS.
     Eigenvalues ---    0.00237   0.01295   0.01330   0.01933   0.02070
     Eigenvalues ---    0.02070   0.02070   0.02070   0.02070   0.02070
     Eigenvalues ---    0.02070   0.07005   0.07044   0.15042   0.16000
     Eigenvalues ---    0.16000   0.16000   0.16000   0.16000   0.16000
     Eigenvalues ---    0.16497   0.21868   0.23080   0.23711   0.24988
     Eigenvalues ---    0.25277   0.27840   0.36782   0.37230   0.37230
     Eigenvalues ---    0.37230   0.37230   0.37230   0.37586   0.39508
     Eigenvalues ---    0.41493   0.42402   0.45387   0.45389   0.45389
     Eigenvalues ---    0.46781   0.55334
 RFO step:  Lambda=-5.82079256D-04 EMin= 2.36824136D-03
 Quartic linear search produced a step of  0.07609.
 Iteration  1 RMS(Cart)=  0.01037211 RMS(Int)=  0.00020795
 Iteration  2 RMS(Cart)=  0.00019378 RMS(Int)=  0.00002305
 Iteration  3 RMS(Cart)=  0.00000003 RMS(Int)=  0.00002305
 Variable       Old X    -DE/DX   Delta X   Delta X   Delta X     New X
                                 (Linear)    (Quad)   (Total)
    R1        2.64511   0.00126  -0.00024   0.00315   0.00291   2.64802
    R2        2.62917   0.00337  -0.00145   0.00865   0.00720   2.63638
    R3        2.05364  -0.00008   0.00241  -0.00087   0.00154   2.05518
    R4        2.64894   0.00002   0.00005  -0.00017  -0.00013   2.64882
    R5        2.87719  -0.00380  -0.00251  -0.01362  -0.01613   2.86107
    R6        2.64242   0.00123  -0.00044   0.00323   0.00279   2.64521
    R7        2.61609  -0.00460  -0.00656  -0.01037  -0.01693   2.59916
    R8        2.64436  -0.00082  -0.00030  -0.00217  -0.00247   2.64188
    R9        2.05355   0.00023   0.00240   0.00002   0.00242   2.05597
   R10        2.63706   0.00069  -0.00085   0.00174   0.00089   2.63795
   R11        2.05353   0.00026   0.00240   0.00012   0.00251   2.05605
   R12        2.05644   0.00025   0.00262   0.00004   0.00266   2.05910
   R13        1.83047   0.00140   0.00124   0.00240   0.00364   1.83411
   R14        2.06918   0.00111   0.00359   0.00225   0.00584   2.07501
   R15        2.06918   0.00111   0.00359   0.00225   0.00584   2.07501
   R16        2.06578   0.00096   0.00333   0.00190   0.00523   2.07101
    A1        2.09130   0.00211  -0.00024   0.01079   0.01056   2.10186
    A2        2.10640  -0.00002   0.00091   0.00125   0.00217   2.10857
    A3        2.08549  -0.00209  -0.00068  -0.01205  -0.01273   2.07276
    A4        2.08436  -0.00141  -0.00076  -0.00639  -0.00716   2.07720
    A5        2.08748   0.00065  -0.00053   0.00319   0.00267   2.09015
    A6        2.11134   0.00077   0.00129   0.00320   0.00449   2.11583
    A7        2.11441  -0.00264   0.00152  -0.01122  -0.00969   2.10472
    A8        2.04344   0.00023  -0.00388   0.00182  -0.00206   2.04138
    A9        2.12533   0.00242   0.00235   0.00940   0.01175   2.13709
   A10        2.09897   0.00037   0.00035   0.00025   0.00059   2.09956
   A11        2.09155  -0.00025  -0.00022  -0.00056  -0.00078   2.09077
   A12        2.09267  -0.00012  -0.00013   0.00032   0.00019   2.09286
   A13        2.10037   0.00135   0.00045   0.00523   0.00568   2.10605
   A14        2.09674  -0.00084   0.00018  -0.00387  -0.00369   2.09305
   A15        2.08608  -0.00051  -0.00063  -0.00136  -0.00199   2.08409
   A16        2.07696   0.00023  -0.00133   0.00135   0.00003   2.07699
   A17        2.10309  -0.00044   0.00066  -0.00286  -0.00221   2.10088
   A18        2.10314   0.00021   0.00067   0.00152   0.00218   2.10532
   A19        1.88374   0.00560  -0.00208   0.03823   0.03614   1.91988
   A20        1.92807   0.00132   0.00133   0.00791   0.00917   1.93724
   A21        1.92807   0.00132   0.00133   0.00791   0.00917   1.93724
   A22        1.93138   0.00184   0.00158   0.01271   0.01419   1.94557
   A23        1.88720  -0.00164  -0.00178  -0.01218  -0.01399   1.87321
   A24        1.89400  -0.00150  -0.00127  -0.00874  -0.01010   1.88390
   A25        1.89400  -0.00150  -0.00127  -0.00874  -0.01010   1.88390
    D1        0.00000   0.00000   0.00000   0.00000   0.00000   0.00000
    D2        3.14159   0.00000   0.00000   0.00000   0.00000   3.14159
    D3        3.14159   0.00000   0.00000   0.00000   0.00000   3.14159
    D4        0.00000   0.00000   0.00000   0.00000   0.00000   0.00000
    D5        0.00000   0.00000   0.00000   0.00000   0.00000   0.00000
    D6       -3.14159   0.00000   0.00000   0.00000   0.00000  -3.14159
    D7       -3.14159   0.00000   0.00000   0.00000   0.00000  -3.14159
    D8        0.00000   0.00000   0.00000   0.00000   0.00000   0.00000
    D9        0.00000   0.00000   0.00000   0.00000   0.00000   0.00000
   D10        3.14159   0.00000   0.00000   0.00000   0.00000  -3.14159
   D11       -3.14159   0.00000   0.00000   0.00000   0.00000  -3.14159
   D12        0.00000   0.00000   0.00000   0.00000   0.00000   0.00000
   D13       -1.04366   0.00018   0.00027   0.00251   0.00280  -1.04086
   D14        1.04366  -0.00018  -0.00027  -0.00251  -0.00280   1.04085
   D15        3.14159   0.00000   0.00000   0.00000   0.00000   3.14159
   D16        2.09793   0.00018   0.00027   0.00251   0.00280   2.10074
   D17       -2.09794  -0.00018  -0.00027  -0.00251  -0.00280  -2.10074
   D18        0.00000   0.00000   0.00000   0.00000   0.00000   0.00000
   D19        0.00000   0.00000   0.00000   0.00000   0.00000   0.00000
   D20        3.14159   0.00000   0.00000   0.00000   0.00000  -3.14159
   D21        3.14159   0.00000   0.00000   0.00000   0.00000   3.14159
   D22        0.00000   0.00000   0.00000   0.00000   0.00000   0.00000
   D23       -3.14158   0.00000   0.00000   0.00000   0.00000  -3.14159
   D24        0.00001   0.00000   0.00000   0.00000   0.00000   0.00001
   D25        0.00000   0.00000   0.00000   0.00000   0.00000   0.00000
   D26       -3.14159   0.00000   0.00000   0.00000   0.00000   3.14159
   D27       -3.14159   0.00000   0.00000   0.00000   0.00000  -3.14159
   D28        0.00000   0.00000   0.00000   0.00000   0.00000   0.00000
   D29        0.00000   0.00000   0.00000   0.00000   0.00000   0.00000
   D30        3.14159   0.00000   0.00000   0.00000   0.00000   3.14159
   D31        3.14159   0.00000   0.00000   0.00000   0.00000   3.14159
   D32        0.00000   0.00000   0.00000   0.00000   0.00000   0.00000
         Item               Value     Threshold  Converged?
 Maximum Force            0.005601     0.000450     NO 
 RMS     Force            0.001336     0.000300     NO 
 Maximum Displacement     0.071701     0.001800     NO 
 RMS     Displacement     0.010403     0.001200     NO 
 Predicted change in Energy=-3.211489D-04
 GradGradGradGradGradGradGradGradGradGradGradGradGradGradGradGradGradGrad

                          Input orientation:                          
 ---------------------------------------------------------------------
 Center     Atomic      Atomic             Coordinates (Angstroms)
 Number     Number       Type             X           Y           Z
 ---------------------------------------------------------------------
      1          6           0       -2.057748   -0.261670    0.004872
      2          6           0       -2.788613    0.933897    0.000500
      3          6           0       -0.662855   -0.237078    0.002668
      4          6           0       -2.097380    2.153281   -0.006114
      5          6           0       -0.699476    2.171533   -0.008294
      6          6           0        0.028157    0.980237   -0.003937
      7          1           0       -2.652189    3.089157   -0.009563
      8          1           0       -0.169102    3.121507   -0.013435
      9          1           0        1.117682    0.995260   -0.005640
     10          8           0       -0.017713   -1.451796    0.007256
     11          1           0        0.943477   -1.317202    0.005203
     12          1           0       -2.564131   -1.224128    0.010034
     13          6           0       -4.301971    0.889497    0.002972
     14          1           0       -4.681352    0.355947   -0.878566
     15          1           0       -4.678699    0.364036    0.890486
     16          1           0       -4.732887    1.897146   -0.000989
 ---------------------------------------------------------------------
                    Distance matrix (angstroms):
                    1          2          3          4          5
     1  C    0.000000
     2  C    1.401272   0.000000
     3  C    1.395111   2.426940   0.000000
     4  C    2.415302   1.401694   2.787787   0.000000
     5  C    2.786674   2.428232   2.408914   1.398024   0.000000
     6  C    2.427634   2.817155   1.399784   2.427745   1.395943
     7  H    3.403177   2.159597   3.875750   1.087975   2.157573
     8  H    3.874688   3.412869   3.394723   2.157723   1.088014
     9  H    3.415162   3.906782   2.165418   3.417255   2.164645
    10  O    2.361810   3.656428   1.375416   4.161944   3.686944
    11  H    3.181430   4.358436   1.935711   4.614238   3.856261
    12  H    1.087555   2.169690   2.142235   3.409547   3.873988
    13  C    2.522246   1.514011   3.809506   2.541152   3.823834
    14  H    2.836408   2.165465   4.156509   3.266266   4.461956
    15  H    2.836407   2.165466   4.156508   3.266267   4.461957
    16  H    3.437571   2.169805   4.595660   2.647930   4.042740
                    6          7          8          9         10
     6  C    0.000000
     7  H    3.410547   0.000000
     8  H    2.150358   2.483301   0.000000
     9  H    1.089630   4.312348   2.485316   0.000000
    10  O    2.432491   5.249858   4.575854   2.697660   0.000000
    11  H    2.473079   5.687269   4.576059   2.319040   0.970570
    12  H    3.402848   4.314229   4.961981   4.299032   2.556577
    13  C    4.331084   2.749626   4.697099   5.420691   4.882268
    14  H    4.830547   3.513276   5.362571   5.899111   5.079581
    15  H    4.830547   3.513277   5.362573   5.899111   5.079580
    16  H    4.848533   2.397972   4.725183   5.919677   5.783455
                   11         12         13         14         15
    11  H    0.000000
    12  H    3.508846   0.000000
    13  C    5.690716   2.736339   0.000000
    14  H    5.934575   2.787270   1.098050   0.000000
    15  H    5.934572   2.787267   1.098050   1.769072   0.000000
    16  H    6.523280   3.800787   1.095929   1.774286   1.774286
                   16
    16  H    0.000000
 Stoichiometry    C7H8O
 Framework group  C1[X(C7H8O)]
 Deg. of freedom    42
 Full point group                 C1      NOp   1
 Largest Abelian subgroup         C1      NOp   1
 Largest concise Abelian subgroup C1      NOp   1
                         Standard orientation:                         
 ---------------------------------------------------------------------
 Center     Atomic      Atomic             Coordinates (Angstroms)
 Number     Number       Type             X           Y           Z
 ---------------------------------------------------------------------
      1          6           0        0.041613   -0.982782    0.000000
      2          6           0        1.209794   -0.208883    0.000000
      3          6           0       -1.211783   -0.370137    0.000000
      4          6           0        1.099601    1.188473    0.000000
      5          6           0       -0.159207    1.796647    0.000000
      6          6           0       -1.322651    1.025250    0.000000
      7          1           0        1.998361    1.801595    0.000000
      8          1           0       -0.237681    2.881827    0.000000
      9          1           0       -2.303427    1.499983    0.000001
     10          8           0       -2.310401   -1.197668    0.000001
     11          1           0       -3.124296   -0.668915   -0.000004
     12          1           0        0.093067   -2.069119   -0.000001
     13          6           0        2.562139   -0.889612    0.000000
     14          1           0        2.680562   -1.529366    0.884537
     15          1           0        2.680561   -1.529368   -0.884535
     16          1           0        3.379026   -0.159026   -0.000002
 ---------------------------------------------------------------------
 Rotational constants (GHZ):      3.6328332      1.7912337      1.2087504
 Standard basis: 6-31+G(d) (6D, 7F)
 There are   168 symmetry adapted cartesian basis functions of A   symmetry.
 There are   168 symmetry adapted basis functions of A   symmetry.
   168 basis functions,   288 primitive gaussians,   168 cartesian basis functions
    29 alpha electrons       29 beta electrons
       nuclear repulsion energy       342.3780004150 Hartrees.
 NAtoms=   16 NActive=   16 NUniq=   16 SFac= 1.00D+00 NAtFMM=   60 NAOKFM=F Big=F
 Integral buffers will be    131072 words long.
 Raffenetti 2 integral format.
 Two-electron integral symmetry is turned on.
 Nuclear repulsion after empirical dispersion term =      342.3686678971 Hartrees.
 One-electron integrals computed using PRISM.
 NBasis=   168 RedAO= T EigKep=  4.35D-06  NBF=   168
 NBsUse=   168 1.00D-06 EigRej= -1.00D+00 NBFU=   168
 Initial guess from the checkpoint file:  "C:\Users\vivek\Downloads\molecule_37.chk"
 B after Tr=     0.000000    0.000000    0.000000
         Rot=    1.000000    0.000000    0.000000    0.000692 Ang=   0.08 deg.
 ExpMin= 4.38D-02 ExpMax= 5.48D+03 ExpMxC= 8.25D+02 IAcc=2 IRadAn=         4 AccDes= 0.00D+00
 Harris functional with IExCor=  402 and IRadAn=       4 diagonalized for initial guess.
 HarFok:  IExCor=  402 AccDes= 0.00D+00 IRadAn=         4 IDoV= 1 UseB2=F ITyADJ=14
 ICtDFT=  3500011 ScaDFX=  1.000000  1.000000  1.000000  1.000000
 FoFCou: FMM=F IPFlag=           0 FMFlag=      100000 FMFlg1=           0
         NFxFlg=           0 DoJE=T BraDBF=F KetDBF=T FulRan=T
         wScrn=  0.000000 ICntrl=     500 IOpCl=  0 I1Cent=   200000004 NGrid=           0
         NMat0=    1 NMatS0=      1 NMatT0=    0 NMatD0=    1 NMtDS0=    0 NMtDT0=    0
 Petite list used in FoFCou.
 Keep R1 ints in memory in canonical form, NReq=103289120.
 Requested convergence on RMS density matrix=1.00D-08 within 128 cycles.
 Requested convergence on MAX density matrix=1.00D-06.
 Requested convergence on             energy=1.00D-06.
 No special actions if energy rises.
 SCF Done:  E(RB3LYP) =  -346.808169950     A.U. after   11 cycles
            NFock= 11  Conv=0.54D-08     -V/T= 2.0099
 Calling FoFJK, ICntrl=      2127 FMM=F ISym2X=0 I1Cent= 0 IOpClX= 0 NMat=1 NMatS=1 NMatT=0.
 ***** Axes restored to original set *****
 -------------------------------------------------------------------
 Center     Atomic                   Forces (Hartrees/Bohr)
 Number     Number              X              Y              Z
 -------------------------------------------------------------------
      1        6          -0.001233152    0.000870045   -0.000002132
      2        6          -0.001160181   -0.000899625    0.000005867
      3        6           0.001808543   -0.001849669    0.000005717
      4        6           0.000441473    0.000862357   -0.000004611
      5        6           0.000083384    0.000566047   -0.000002716
      6        6           0.000322675    0.000666796   -0.000003519
      7        1           0.000322304   -0.000500812    0.000001811
      8        1          -0.000291265   -0.000486301    0.000002660
      9        1          -0.000709579   -0.000049084    0.000001292
     10        8           0.000259691    0.000562185   -0.000002904
     11        1          -0.000934627    0.000096783    0.000000922
     12        1           0.000354255    0.000270427   -0.000001776
     13        6           0.000863770    0.000023427   -0.000001403
     14        1          -0.000116606    0.000262375    0.000543178
     15        1          -0.000118235    0.000257398   -0.000545204
     16        1           0.000107550   -0.000652350    0.000002820
 -------------------------------------------------------------------
 Cartesian Forces:  Max     0.001849669 RMS     0.000604248

 GradGradGradGradGradGradGradGradGradGradGradGradGradGradGradGradGradGrad
 Berny optimization.
 Using GEDIIS/GDIIS optimizer.
 FormGI is forming the generalized inverse of G from B-inverse, IUseBI=4.
 Internal  Forces:  Max     0.000915064 RMS     0.000327362
 Search for a local minimum.
 Step number   3 out of a maximum of   83
 All quantities printed in internal units (Hartrees-Bohrs-Radians)
 Mixed Optimization -- En-DIIS/RFO-DIIS
 Update second derivatives using D2CorX and points    1    2    3
 DE= -3.39D-04 DEPred=-3.21D-04 R= 1.06D+00
 TightC=F SS=  1.41D+00  RLast= 5.93D-02 DXNew= 8.4487D-01 1.7781D-01
 Trust test= 1.06D+00 RLast= 5.93D-02 DXMaxT set to 5.02D-01
 ITU=  1  1  0
 Use linear search instead of GDIIS.
     Eigenvalues ---    0.00237   0.01295   0.01325   0.01931   0.02070
     Eigenvalues ---    0.02070   0.02070   0.02070   0.02070   0.02070
     Eigenvalues ---    0.02070   0.06853   0.06949   0.13936   0.16000
     Eigenvalues ---    0.16000   0.16000   0.16000   0.16000   0.16011
     Eigenvalues ---    0.17581   0.21666   0.22333   0.23572   0.24987
     Eigenvalues ---    0.25259   0.27471   0.36898   0.37230   0.37230
     Eigenvalues ---    0.37230   0.37230   0.37254   0.38114   0.39379
     Eigenvalues ---    0.41494   0.42426   0.45387   0.45389   0.45754
     Eigenvalues ---    0.46549   0.56089
 RFO step:  Lambda=-2.34729336D-05 EMin= 2.36824136D-03
 Quartic linear search produced a step of  0.06854.
 Iteration  1 RMS(Cart)=  0.00117045 RMS(Int)=  0.00000249
 Iteration  2 RMS(Cart)=  0.00000209 RMS(Int)=  0.00000184
 Iteration  3 RMS(Cart)=  0.00000000 RMS(Int)=  0.00000184
 Variable       Old X    -DE/DX   Delta X   Delta X   Delta X     New X
                                 (Linear)    (Quad)   (Total)
    R1        2.64802  -0.00051   0.00020  -0.00132  -0.00112   2.64690
    R2        2.63638   0.00084   0.00049   0.00159   0.00208   2.63846
    R3        2.05518  -0.00040   0.00011  -0.00099  -0.00088   2.05430
    R4        2.64882   0.00059  -0.00001   0.00135   0.00134   2.65016
    R5        2.86107  -0.00073  -0.00111  -0.00234  -0.00345   2.85762
    R6        2.64521   0.00041   0.00019   0.00085   0.00105   2.64625
    R7        2.59916  -0.00090  -0.00116  -0.00227  -0.00343   2.59573
    R8        2.64188  -0.00031  -0.00017  -0.00069  -0.00086   2.64102
    R9        2.05597  -0.00060   0.00017  -0.00157  -0.00140   2.05457
   R10        2.63795  -0.00004   0.00006  -0.00020  -0.00014   2.63781
   R11        2.05605  -0.00057   0.00017  -0.00149  -0.00132   2.05473
   R12        2.05910  -0.00071   0.00018  -0.00188  -0.00170   2.05740
   R13        1.83411  -0.00092   0.00025  -0.00177  -0.00152   1.83259
   R14        2.07501  -0.00052   0.00040  -0.00139  -0.00099   2.07402
   R15        2.07501  -0.00052   0.00040  -0.00139  -0.00099   2.07402
   R16        2.07101  -0.00064   0.00036  -0.00172  -0.00136   2.06965
    A1        2.10186   0.00041   0.00072   0.00156   0.00228   2.10414
    A2        2.10857  -0.00001   0.00015   0.00027   0.00042   2.10898
    A3        2.07276  -0.00039  -0.00087  -0.00182  -0.00270   2.07007
    A4        2.07720  -0.00021  -0.00049  -0.00082  -0.00132   2.07588
    A5        2.09015   0.00008   0.00018   0.00027   0.00045   2.09060
    A6        2.11583   0.00013   0.00031   0.00056   0.00087   2.11670
    A7        2.10472  -0.00060  -0.00066  -0.00196  -0.00263   2.10209
    A8        2.04138   0.00012  -0.00014   0.00021   0.00007   2.04145
    A9        2.13709   0.00048   0.00081   0.00176   0.00256   2.13965
   A10        2.09956   0.00013   0.00004   0.00040   0.00044   2.10000
   A11        2.09077  -0.00004  -0.00005  -0.00002  -0.00007   2.09070
   A12        2.09286  -0.00009   0.00001  -0.00038  -0.00037   2.09249
   A13        2.10605   0.00004   0.00039  -0.00017   0.00022   2.10627
   A14        2.09305  -0.00003  -0.00025   0.00006  -0.00019   2.09286
   A15        2.08409   0.00000  -0.00014   0.00011  -0.00003   2.08406
   A16        2.07699   0.00024   0.00000   0.00100   0.00100   2.07799
   A17        2.10088  -0.00016  -0.00015  -0.00071  -0.00086   2.10002
   A18        2.10532  -0.00007   0.00015  -0.00029  -0.00014   2.10517
   A19        1.91988  -0.00041   0.00248  -0.00428  -0.00180   1.91808
   A20        1.93724   0.00035   0.00063   0.00212   0.00274   1.93998
   A21        1.93724   0.00035   0.00063   0.00212   0.00274   1.93998
   A22        1.94557   0.00007   0.00097   0.00004   0.00101   1.94658
   A23        1.87321  -0.00036  -0.00096  -0.00191  -0.00288   1.87034
   A24        1.88390  -0.00023  -0.00069  -0.00131  -0.00201   1.88189
   A25        1.88390  -0.00023  -0.00069  -0.00131  -0.00201   1.88189
    D1        0.00000   0.00000   0.00000   0.00000   0.00000   0.00000
    D2        3.14159   0.00000   0.00000   0.00000   0.00000   3.14159
    D3        3.14159   0.00000   0.00000   0.00000   0.00000   3.14159
    D4        0.00000   0.00000   0.00000   0.00000   0.00000   0.00000
    D5        0.00000   0.00000   0.00000   0.00000   0.00000   0.00000
    D6       -3.14159   0.00000   0.00000   0.00000   0.00000  -3.14159
    D7       -3.14159   0.00000   0.00000   0.00000   0.00000  -3.14159
    D8        0.00000   0.00000   0.00000   0.00000   0.00000   0.00000
    D9        0.00000   0.00000   0.00000   0.00000   0.00000   0.00000
   D10       -3.14159   0.00000   0.00000   0.00000   0.00000  -3.14159
   D11       -3.14159   0.00000   0.00000   0.00000   0.00000  -3.14159
   D12        0.00000   0.00000   0.00000   0.00000   0.00000   0.00000
   D13       -1.04086  -0.00001   0.00019  -0.00019   0.00001  -1.04085
   D14        1.04085   0.00001  -0.00019   0.00019  -0.00001   1.04085
   D15        3.14159   0.00000   0.00000   0.00000   0.00000   3.14159
   D16        2.10074  -0.00001   0.00019  -0.00019   0.00001   2.10074
   D17       -2.10074   0.00001  -0.00019   0.00019  -0.00001  -2.10075
   D18        0.00000   0.00000   0.00000   0.00000   0.00000   0.00000
   D19        0.00000   0.00000   0.00000   0.00000   0.00000   0.00000
   D20       -3.14159   0.00000   0.00000   0.00000   0.00000  -3.14159
   D21        3.14159   0.00000   0.00000   0.00000   0.00000   3.14159
   D22        0.00000   0.00000   0.00000   0.00000   0.00000   0.00000
   D23       -3.14159   0.00000   0.00000   0.00000   0.00000  -3.14159
   D24        0.00001   0.00000   0.00000   0.00000   0.00000   0.00000
   D25        0.00000   0.00000   0.00000   0.00000   0.00000   0.00000
   D26        3.14159   0.00000   0.00000   0.00000   0.00000   3.14159
   D27       -3.14159   0.00000   0.00000   0.00000   0.00000  -3.14159
   D28        0.00000   0.00000   0.00000   0.00000   0.00000   0.00000
   D29        0.00000   0.00000   0.00000   0.00000   0.00000   0.00000
   D30        3.14159   0.00000   0.00000   0.00000   0.00000   3.14159
   D31        3.14159   0.00000   0.00000   0.00000   0.00000   3.14159
   D32        0.00000   0.00000   0.00000   0.00000   0.00000   0.00000
         Item               Value     Threshold  Converged?
 Maximum Force            0.000915     0.000450     NO 
 RMS     Force            0.000327     0.000300     NO 
 Maximum Displacement     0.003873     0.001800     NO 
 RMS     Displacement     0.001170     0.001200     YES
 Predicted change in Energy=-1.314463D-05
 GradGradGradGradGradGradGradGradGradGradGradGradGradGradGradGradGradGrad

                          Input orientation:                          
 ---------------------------------------------------------------------
 Center     Atomic      Atomic             Coordinates (Angstroms)
 Number     Number       Type             X           Y           Z
 ---------------------------------------------------------------------
      1          6           0       -2.057532   -0.260555    0.004867
      2          6           0       -2.789063    0.933907    0.000500
      3          6           0       -0.661504   -0.237987    0.002670
      4          6           0       -2.096870    2.153563   -0.006116
      5          6           0       -0.699422    2.171729   -0.008295
      6          6           0        0.028364    0.980613   -0.003938
      7          1           0       -2.650900    3.089037   -0.009565
      8          1           0       -0.169517    3.121165   -0.013433
      9          1           0        1.116984    0.995954   -0.005641
     10          8           0       -0.018909   -1.452001    0.007259
     11          1           0        0.941428   -1.317131    0.005205
     12          1           0       -2.562510   -1.223223    0.010028
     13          6           0       -4.300581    0.889006    0.002972
     14          1           0       -4.682407    0.356034   -0.877207
     15          1           0       -4.679758    0.364111    0.889129
     16          1           0       -4.732602    1.895399   -0.000982
 ---------------------------------------------------------------------
                    Distance matrix (angstroms):
                    1          2          3          4          5
     1  C    0.000000
     2  C    1.400677   0.000000
     3  C    1.396213   2.428960   0.000000
     4  C    2.414463   1.402403   2.789241   0.000000
     5  C    2.785793   2.428760   2.410039   1.397568   0.000000
     6  C    2.427249   2.817817   1.400338   2.427434   1.395869
     7  H    3.401773   2.159577   3.876459   1.087231   2.156321
     8  H    3.873108   3.412669   3.395027   2.156617   1.087315
     9  H    3.414158   3.906544   2.164647   3.415979   2.163743
    10  O    2.361257   3.656003   1.373601   4.161514   3.687108
    11  H    3.179641   4.357035   1.932343   4.612711   3.855479
    12  H    1.087087   2.169015   2.141161   3.408777   3.872613
    13  C    2.520469   1.512188   3.809593   2.540773   3.822807
    14  H    2.836935   2.165423   4.158690   3.267247   4.462725
    15  H    2.836934   2.165423   4.158689   3.267248   4.462726
    16  H    3.435720   2.168367   4.596215   2.648350   4.042641
                    6          7          8          9         10
     6  C    0.000000
     7  H    3.409390   0.000000
     8  H    2.149700   2.481594   0.000000
     9  H    1.088729   4.310215   2.484283   0.000000
    10  O    2.433099   5.248684   4.575692   2.698686   0.000000
    11  H    2.472528   5.685011   4.575261   2.319763   0.969763
    12  H    3.401428   4.313210   4.959907   4.296937   2.553871
    13  C    4.329920   2.749862   4.695583   5.418627   4.879862
    14  H    4.831569   3.514132   5.362670   5.899326   5.079319
    15  H    4.831569   3.514134   5.362671   5.899326   5.079318
    16  H    4.848055   2.399651   4.724871   5.918334   5.781355
                   11         12         13         14         15
    11  H    0.000000
    12  H    3.505200   0.000000
    13  C    5.687329   2.735407   0.000000
    14  H    5.933434   2.788404   1.097527   0.000000
    15  H    5.933433   2.788402   1.097527   1.766357   0.000000
    16  H    6.520353   3.799371   1.095210   1.771986   1.771986
                   16
    16  H    0.000000
 Stoichiometry    C7H8O
 Framework group  C1[X(C7H8O)]
 Deg. of freedom    42
 Full point group                 C1      NOp   1
 Largest Abelian subgroup         C1      NOp   1
 Largest concise Abelian subgroup C1      NOp   1
                         Standard orientation:                         
 ---------------------------------------------------------------------
 Center     Atomic      Atomic             Coordinates (Angstroms)
 Number     Number       Type             X           Y           Z
 ---------------------------------------------------------------------
      1          6           0        0.041925   -0.981765    0.000000
      2          6           0        1.210303   -0.209243    0.000000
      3          6           0       -1.213307   -0.370371    0.000000
      4          6           0        1.099469    1.188773    0.000000
      5          6           0       -0.158913    1.796779    0.000000
      6          6           0       -1.322482    1.025704    0.000000
      7          1           0        1.997403    1.801788    0.000000
      8          1           0       -0.237102    2.881279    0.000000
      9          1           0       -2.302264    1.500422    0.000000
     10          8           0       -2.309387   -1.198254    0.000000
     11          1           0       -3.122349   -0.669546   -0.000002
     12          1           0        0.091929   -2.067701    0.000000
     13          6           0        2.560714   -0.889758    0.000000
     14          1           0        2.681545   -1.530038    0.883179
     15          1           0        2.681544   -1.530041   -0.883177
     16          1           0        3.378129   -0.160843   -0.000002
 ---------------------------------------------------------------------
 Rotational constants (GHZ):      3.6322226      1.7920867      1.2090432
 Standard basis: 6-31+G(d) (6D, 7F)
 There are   168 symmetry adapted cartesian basis functions of A   symmetry.
 There are   168 symmetry adapted basis functions of A   symmetry.
   168 basis functions,   288 primitive gaussians,   168 cartesian basis functions
    29 alpha electrons       29 beta electrons
       nuclear repulsion energy       342.4383785315 Hartrees.
 NAtoms=   16 NActive=   16 NUniq=   16 SFac= 1.00D+00 NAtFMM=   60 NAOKFM=F Big=F
 Integral buffers will be    131072 words long.
 Raffenetti 2 integral format.
 Two-electron integral symmetry is turned on.
 Nuclear repulsion after empirical dispersion term =      342.4290467275 Hartrees.
 One-electron integrals computed using PRISM.
 NBasis=   168 RedAO= T EigKep=  4.34D-06  NBF=   168
 NBsUse=   168 1.00D-06 EigRej= -1.00D+00 NBFU=   168
 Initial guess from the checkpoint file:  "C:\Users\vivek\Downloads\molecule_37.chk"
 B after Tr=     0.000000    0.000000    0.000000
         Rot=    1.000000    0.000000    0.000000    0.000008 Ang=   0.00 deg.
 Keep R1 ints in memory in canonical form, NReq=103289120.
 Requested convergence on RMS density matrix=1.00D-08 within 128 cycles.
 Requested convergence on MAX density matrix=1.00D-06.
 Requested convergence on             energy=1.00D-06.
 No special actions if energy rises.
 SCF Done:  E(RB3LYP) =  -346.808183712     A.U. after   10 cycles
            NFock= 10  Conv=0.47D-08     -V/T= 2.0099
 Calling FoFJK, ICntrl=      2127 FMM=F ISym2X=0 I1Cent= 0 IOpClX= 0 NMat=1 NMatS=1 NMatT=0.
 ***** Axes restored to original set *****
 -------------------------------------------------------------------
 Center     Atomic                   Forces (Hartrees/Bohr)
 Number     Number              X              Y              Z
 -------------------------------------------------------------------
      1        6          -0.000266725    0.000371641   -0.000001303
      2        6           0.000004324   -0.000432388    0.000001970
      3        6           0.000049326    0.000035947   -0.000000247
      4        6           0.000107917    0.000260553   -0.000001352
      5        6          -0.000080229    0.000149740   -0.000000566
      6        6           0.000016263   -0.000128653    0.000000568
      7        1           0.000019387   -0.000075855    0.000000318
      8        1          -0.000039619   -0.000089450    0.000000468
      9        1          -0.000051578    0.000011409    0.000000028
     10        8           0.000309680   -0.000098672    0.000000014
     11        1          -0.000073041   -0.000060147    0.000000365
     12        1           0.000037098    0.000004446   -0.000000079
     13        6          -0.000151814    0.000037481    0.000000058
[...]
 ! D6    D(2,1,3,10)           180.0            -DE/DX =    0.0                 !
 ! D7    D(12,1,3,6)          -180.0            -DE/DX =    0.0                 !
 ! D8    D(12,1,3,10)            0.0            -DE/DX =    0.0                 !
 ! D9    D(1,2,4,5)              0.0            -DE/DX =    0.0                 !
 ! D10   D(1,2,4,7)           -180.0            -DE/DX =    0.0                 !
 ! D11   D(13,2,4,5)          -180.0            -DE/DX =    0.0                 !
 ! D12   D(13,2,4,7)             0.0            -DE/DX =    0.0                 !
 ! D13   D(1,2,13,14)          -59.6363         -DE/DX =    0.0                 !
 ! D14   D(1,2,13,15)           59.6361         -DE/DX =    0.0                 !
 ! D15   D(1,2,13,16)          179.9999         -DE/DX =    0.0                 !
 ! D16   D(4,2,13,14)          120.3637         -DE/DX =    0.0                 !
 ! D17   D(4,2,13,15)         -120.3639         -DE/DX =    0.0                 !
 ! D18   D(4,2,13,16)           -0.0001         -DE/DX =    0.0                 !
 ! D19   D(1,3,6,5)              0.0            -DE/DX =    0.0                 !
 ! D20   D(1,3,6,9)            180.0            -DE/DX =    0.0                 !
 ! D21   D(10,3,6,5)          -180.0            -DE/DX =    0.0                 !
 ! D22   D(10,3,6,9)             0.0            -DE/DX =    0.0                 !
 ! D23   D(1,3,10,11)         -179.9998         -DE/DX =    0.0                 !
 ! D24   D(6,3,10,11)            0.0002         -DE/DX =    0.0                 !
 ! D25   D(2,4,5,6)              0.0            -DE/DX =    0.0                 !
 ! D26   D(2,4,5,8)           -180.0            -DE/DX =    0.0                 !
 ! D27   D(7,4,5,6)            180.0            -DE/DX =    0.0                 !
 ! D28   D(7,4,5,8)              0.0            -DE/DX =    0.0                 !
 ! D29   D(4,5,6,3)              0.0            -DE/DX =    0.0                 !
 ! D30   D(4,5,6,9)           -180.0            -DE/DX =    0.0                 !
 ! D31   D(8,5,6,3)            180.0            -DE/DX =    0.0                 !
 ! D32   D(8,5,6,9)              0.0            -DE/DX =    0.0                 !
 --------------------------------------------------------------------------------
 GradGradGradGradGradGradGradGradGradGradGradGradGradGradGradGradGradGrad

 1|1|UNPC-ASUS|Freq|RB3LYP|6-31+G(d)|C7H8O1|VIVEK|14-Sep-2023|0||#N Geo
 m=AllCheck Guess=TCheck SCRF=Check GenChk RB3LYP/6-31+G(d) Freq||Title
  Card Required||0,1|C,-2.0575321857,-0.2605548694,0.004867044|C,-2.789
 0625754,0.933907472,0.000500395|C,-0.6615036477,-0.2379866932,0.002670
 2367|C,-2.0968702414,2.1535629682,-0.0061164875|C,-0.6994224349,2.1717
 291803,-0.0082952242|C,0.0283640382,0.9806126921,-0.0039383946|H,-2.65
 0900212,3.0890366437,-0.0095646015|H,-0.1695167555,3.1211650846,-0.013
 4327165|H,1.1169835355,0.9959544374,-0.0056412963|O,-0.0189086061,-1.4
 520010953,0.0072593375|H,0.941427864,-1.3171307252,0.0052048997|H,-2.5
 625104331,-1.2232226585,0.0100278289|C,-4.3005813817,0.8890062828,0.00
 29723069|H,-4.6824065076,0.3560343031,-0.8772066366|H,-4.6797578475,0.
 3641108547,0.889129462|H,-4.7326018192,1.8953993526,-0.0009816139||Ver
 sion=EM64W-G09RevD.01|State=1-A|HF=-346.8081837|RMSD=3.983e-009|RMSF=1
 .229e-004|ZeroPoint=0.1319592|Thermal=0.1393548|Dipole=0.297688,0.3044
 657,-0.0018375|DipoleDeriv=-0.3228221,0.3271575,-0.0012684,0.0929703,-
 0.0763123,-0.0005714,-0.0001974,-0.0009224,-0.1707468,0.4120739,-0.020
 1844,-0.0006229,0.0983974,0.1813796,-0.0012742,-0.001165,-0.0010965,-0
 .0649369,0.5619861,-0.6335376,0.0021904,-0.6580289,1.1406974,-0.003817
 8,0.0023022,-0.0038545,0.0903305,-0.3126824,-0.1001481,0.0006646,-0.14
 85801,-0.0777927,-0.0002215,0.0008863,-0.000294,-0.1749141,0.247992,0.
 0304445,-0.0006964,-0.1146058,0.1375364,-0.0010225,-0.0000331,-0.00124
 ,-0.1235638,-0.0131538,-0.0929837,0.0001499,0.2682815,-0.3332128,0.000
 2222,-0.0015023,0.0007639,-0.1966854,-0.0012917,0.096508,-0.0002229,0.
 0809466,-0.0688483,0.0008541,-0.0001517,0.0008308,0.1444171,0.0123167,
 -0.0807127,0.0005549,-0.0819132,-0.0784459,0.0011044,0.0005603,0.00110
 26,0.1361313,-0.1430541,0.02906,0.0003152,0.0377311,0.0530216,0.000413
 3,0.0002756,0.0004263,0.1557398,-0.5837989,0.6262825,-0.0025665,0.6858
 804,-1.1820774,0.0026161,-0.0028386,0.0027047,-0.3853824,0.2027984,-0.
 0854842,0.0005984,-0.1481625,0.2802716,0.000501,0.0008847,0.0004075,0.
 3413121,0.0387593,-0.0742774,0.0004947,-0.0633622,-0.0459982,0.0009554
 ,0.0004448,0.0009718,0.1420829,0.0008521,-0.0137716,0.0002519,-0.09716
 53,0.1269773,0.0001452,0.0006328,0.0000201,0.1268597,-0.0475527,-0.011
 9867,-0.0241936,-0.0411037,0.0280521,-0.0841151,-0.0887249,-0.0800988,
 -0.0472689,-0.0472131,-0.0115256,0.0242986,-0.0400392,0.0295481,0.0835
 328,0.0890937,0.07943,-0.0491044,-0.0052096,0.0151595,0.0000521,0.1287
 537,-0.1147966,0.0006781,-0.0004673,0.0008485,0.0757294|Polar=106.0928
 888,-3.7939229,95.1302283,-0.0640186,-0.1923919,51.8267364|PG=C01 [X(C
 7H8O1)]|NImag=0||0.69705515,0.01893806,0.73013623,-0.00094999,-0.00281
 311,0.12136729,-0.17503907,0.11846262,-0.00037086,0.63652049,0.0557856
 6,-0.27555768,0.00089770,0.00230831,0.67016313,-0.00008418,0.00080371,
 -0.06101698,-0.00070739,-0.00228291,0.17184158,-0.32391668,-0.05923600
 ,0.00066179,-0.02758931,0.08345757,-0.00034318,0.71445316,0.01317197,-
 0.12463649,0.00026084,0.02920907,0.03917002,-0.00023153,0.01251314,0.6
 7225729,0.00033058,0.00036943,-0.06329333,-0.00009504,-0.00031289,-0.0
 0186992,-0.00090287,-0.00240531,0.15051183,0.05828842,-0.01803205,0.00
 000529,-0.16932750,-0.04873936,0.00038279,-0.05406959,-0.03423859,0.00
 023412,0.68935936,0.02415852,-0.05596918,0.00025097,-0.11487263,-0.272
 57436,0.00113213,-0.03238021,-0.01552678,0.00010867,-0.03826538,0.7084
 4299,-0.00018770,0.00031423,0.00681504,0.00068530,0.00103294,-0.062734
 10,0.00022562,0.00011145,-0.00238842,-0.00067458,-0.00262137,0.1228223
 6,-0.04892203,0.02593427,-0.00004654,-0.02546887,-0.07788490,0.0004008
 2,0.07062549,0.02849654,-0.00023700,-0.33604283,0.02885161,0.00028346,
 0.68462934,0.02389282,-0.01533154,0.00003041,-0.02933536,0.03001290,-0
 .00007388,-0.02409869,-0.05961975,0.00030661,-0.03375192,-0.12650648,0
 .00035932,0.02697821,0.72172982,-0.00003720,0.00002735,-0.00084964,0.0
 0017874,-0.00000107,0.00424336,0.00000358,0.00022774,-0.00049005,0.000
 56981,0.00026543,-0.05902040,-0.00095415,-0.00274405,0.13067900,-0.021
 08441,-0.02557326,0.00015743,0.00100471,0.00265091,-0.00001617,-0.1874
 7355,-0.12546089,0.00076335,-0.02894689,0.02644485,-0.00006822,-0.1845
 7763,0.12849654,-0.00039199,0.73572218,-0.06682739,0.02912883,-0.00000
 608,-0.00071968,-0.06505810,0.00029093,-0.04963504,-0.25491984,0.00096
 088,0.07312623,0.03033728,-0.00021997,0.06731759,-0.28486555,0.0009548
 7,-0.01452941,0.66996930,0.00034614,-0.00006795,0.00588892,-0.00000076
 ,0.00028588,-0.00169274,0.00041651,0.00107461,-0.06112877,-0.00028175,
 -0.00014997,0.00622418,-0.00011214,0.00086312,-0.05404378,-0.00086698,
 -0.00252432,0.11334497,-0.00114570,-0.00305879,0.00002418,0.00951175,-
 0.01354059,0.00005094,-0.00094440,-0.00094906,0.00000521,-0.13023479,0
 .12178425,-0.00040963,-0.01182451,0.02910818,-0.00011341,-0.00508052,-
 0.00180331,0.00002556,0.13811017,-0.00401588,-0.00295263,0.00004537,0.
 01616796,-0.02003754,0.00007738,-0.00131748,0.00011234,-0.00000020,0.1
 2117427,-0.26442218,0.00088174,-0.00254859,0.00419710,-0.00000927,-0.0
 0057246,0.00150861,0.00002353,-0.13037603,0.28043918,0.00002856,0.0000
 4393,0.00564893,-0.00008494,0.00012194,0.00218065,0.00000690,-0.000000
 75,-0.00036371,-0.00040684,0.00088082,-0.03193014,0.00003139,-0.000056
 75,0.00133431,0.00001993,0.00002538,0.00646522,0.00042504,-0.00097804,
 0.02387865,-0.00067314,0.00092138,-0.00000445,-0.00570009,0.00144930,0
 .00001195,-0.00141227,0.00302751,-0.00000104,-0.00948820,-0.02944615,0
 .00015384,-0.12589110,-0.11846678,0.00067673,0.01157626,0.01563333,-0.
 00008431,0.00061550,0.00041012,-0.00000867,0.13007847,0.00071593,0.000
 20992,-0.00000582,0.00036165,0.00167966,0.00002237,0.00420449,-0.00172
 522,0.00003418,0.00153145,0.00341188,-0.00000289,-0.11820625,-0.271952
 79,0.00125667,-0.01508884,-0.01900171,0.00012345,-0.00036515,0.0008513
 9,-0.00002125,0.12725270,0.28747960,-0.00000351,-0.00000613,-0.0008284
 0,0.00001693,0.00002074,0.00668880,-0.00000643,0.00003595,0.00712585,0
 .00001214,0.00004356,0.00328105,0.00067554,0.00125706,-0.03597754,0.00
 005622,0.00007738,0.00304025,-0.00000512,-0.00002242,-0.00391468,-0.00
 073925,-0.00139025,0.02526955,0.00091690,-0.00331303,0.00002088,0.0006
 1024,-0.00013343,-0.00000133,-0.01456968,0.00579284,0.00000020,0.00106
 996,0.00327819,-0.00000650,-0.01267726,-0.00260562,0.00003327,-0.33149
 175,-0.00667465,0.00048284,-0.00076014,-0.00017209,0.00000281,0.000885
 87,0.00039000,-0.00000916,0.35379367,-0.00198623,-0.00482691,0.0000467
 0,0.00031618,-0.00155297,0.00000351,-0.02734689,0.00271314,0.00004338,
 0.00180722,-0.00447275,0.00004855,0.02877522,0.00564563,-0.00006184,-0
 .00680816,-0.05952510,0.00014567,0.00147934,0.00011008,-0.00000003,-0.
 00027297,0.00072288,-0.00002134,0.00563806,0.05859379,0.00001480,0.000
 04869,0.00473110,-0.00000338,0.00000419,-0.00068121,0.00015178,-0.0000
 0631,0.00323012,0.00000023,0.00004635,0.00673466,-0.00011027,-0.000014
 78,0.00156066,0.00048346,0.00014546,-0.02991212,-0.00000474,0.00000244
 ,0.00058806,-0.00000613,-0.00002233,-0.00403169,-0.00052432,-0.0001786
 0,0.02139881,-0.03560528,0.05466801,-0.00018691,-0.00317707,-0.0114913
 5,0.00006501,-0.14505584,0.10117139,-0.00030434,0.00367407,0.00558171,
 -0.00003338,-0.00706629,0.00024087,0.00002044,0.01197157,-0.01106686,0
 .00004519,0.00027939,0.00030333,-0.00000284,0.00043203,-0.00053662,0.0
 0000191,0.00306831,-0.00115590,-0.00000494,0.65180752,0.01721847,-0.00
 315436,0.00001833,-0.00441332,-0.00026242,0.00003129,0.04758180,-0.255
 63576,0.00091770,0.00492257,-0.00323395,0.00000030,-0.00869852,0.00149
 812,0.00003960,0.02808136,-0.05162097,0.00023216,0.00031072,-0.0000361
 1,-0.00000345,0.00103531,-0.00179902,0.00000698,-0.00035517,0.00338191
 ,-0.00003214,-0.03768116,0.36720143,-0.00001561,-0.00003782,0.00649816
 ,0.00003263,0.00004191,0.00512913,-0.00005931,0.00083746,-0.03938125,-
 0.00003037,-0.00000071,-0.00155545,0.00006135,0.00002619,0.00730333,-0
 .00013389,0.00029089,0.00834417,-0.00000287,-0.00000344,-0.00068883,-0
 .00000529,0.00000934,0.00006599,-0.00000862,-0.00003094,-0.00375994,-0
 .00076690,-0.00151059,0.02454006,0.00156037,0.00424901,-0.00001800,-0.
 00114305,-0.00099737,0.00000889,-0.02476931,-0.00513715,0.00005518,0.0
 0073449,-0.00025081,0.00000038,-0.00129865,-0.00007037,0.00000110,0.00
 564636,-0.00414277,0.00000951,0.00001599,0.00003214,-0.00000027,0.0001
 1500,-0.00026955,0.00000107,-0.00007601,0.00099997,-0.00000357,-0.4809
 9395,-0.04763922,0.00093334,0.49977509,0.00207843,-0.00670171,0.000039
 08,0.00143506,0.00167880,-0.00000188,0.04575360,0.00247966,-0.00009640
 ,-0.00075864,-0.00023267,0.00000322,0.00036483,-0.00052990,-0.00000171
 ,0.00232075,0.00172146,-0.00001434,-0.00020788,0.00001150,-0.00000004,
 -0.00005131,0.00018039,-0.00000073,-0.00193831,-0.00126441,0.00001141,
 -0.10216741,-0.05761812,0.00040241,0.05294340,0.06074609,-0.00000807,0
 .00003582,0.00252268,-0.00000223,0.00000177,0.00174044,-0.00017751,-0.
 00002023,-0.00361806,0.00000271,0.00000246,0.00022167,-0.00000090,-0.0
 0000106,-0.00078432,-0.00002005,-0.00000465,-0.00065204,0.00000083,-0.
 00000040,-0.00006479,0.00000007,-0.00000041,0.00000351,0.00000987,0.00
 000701,0.00059469,0.00118265,0.00032081,-0.00306981,-0.00098421,-0.000
 33840,0.00407786,-0.12147752,-0.11450920,0.00065496,0.01184157,0.01473
 190,-0.00008138,-0.01027964,-0.03116977,0.00016539,-0.00146649,0.00332
 581,-0.00000330,-0.00075693,0.00093354,-0.00000428,-0.00563600,0.00177
 168,0.00000805,0.00060662,0.00087000,-0.00000411,0.00008884,-0.0000837
 5,-0.00000093,-0.00075225,-0.00147670,0.00000820,0.00169160,-0.0000215
 1,-0.00000758,0.00050318,0.00018790,-0.00000268,0.12455586,-0.11676079
 ,-0.27541697,0.00127934,-0.01439778,-0.01910399,0.00012047,0.00152373,
 0.00090516,0.00001615,0.00415831,-0.00221575,0.00003352,0.00066578,0.0
 0024581,-0.00000563,0.00037901,0.00128943,0.00001701,-0.00069744,-0.00
 103016,0.00000812,-0.00010657,-0.00002560,-0.00000331,0.00011089,0.000
 19725,-0.00000009,0.00004408,0.00108824,-0.00002071,-0.00004084,0.0000
 3920,-0.00000337,0.12500564,0.29288142,0.00066526,0.00127596,-0.034022
 34,0.00005187,0.00007678,0.00251194,0.00001585,0.00006517,0.00493456,-
 0.00000711,0.00003477,0.00647609,-0.00000306,-0.00000603,-0.00076576,0
 .00001441,0.00001492,0.00513275,0.00000305,0.00000577,0.00051631,-0.00
 000082,-0.00000334,-0.00078398,0.00000094,0.00000229,0.00021399,-0.000
 00787,-0.00002061,-0.00342561,-0.00000163,-0.00000371,-0.00071077,-0.0
 0072319,-0.00141917,0.02361912,-0.02463494,0.00472188,0.00002039,-0.21
 108592,-0.00515313,0.00023294,0.00416047,0.00254631,-0.00000953,-0.019
 12147,-0.00380502,0.00005497,0.00054764,-0.00039528,0.00001199,-0.0010
 4975,-0.00174450,0.00000829,0.00123129,0.00181375,-0.00001644,-0.00002
 460,0.00019551,-0.00000079,0.00001105,0.00001109,-0.00000097,-0.000209
 67,-0.00066977,0.00000352,0.00000603,0.00006162,-0.00000059,0.00079879
 ,-0.00124411,0.00000063,0.48733041,0.02923961,0.00445348,-0.00004882,0
 .00078331,-0.08934587,0.00008065,0.00226430,-0.00459336,0.00004311,-0.
 02838615,0.00247911,0.00005836,-0.00101185,-0.00403860,0.00005354,-0.0
 0095483,-0.00076121,0.00000106,-0.00162153,0.00019989,-0.00001767,-0.0
 0132466,-0.00000474,0.00000222,0.00002356,0.00018318,-0.00000362,0.001
 96366,0.00000848,-0.00000254,0.00032407,-0.00053501,0.00000105,0.00066
 783,0.00097531,-0.00001726,-0.01201031,0.58360861,-0.00009176,-0.00001
 206,0.00336522,0.00020581,0.00008955,-0.07145939,-0.00000823,0.0000426
 8,0.00557266,0.00016741,0.00002150,0.00593247,0.00001482,0.00005263,0.
 00733631,0.00000467,0.00000224,-0.00084277,-0.00000072,-0.00002283,-0.
 00419556,0.00000617,-0.00000006,0.00004710,-0.00000103,-0.00000360,-0.
 00060083,-0.00000852,0.00000141,0.00009661,-0.00000179,0.00000145,-0.0
 0019823,-0.00000812,-0.00001438,-0.00257708,0.00013475,-0.00017876,0.5
 4059166,0.00063847,-0.00105007,0.00071441,-0.01424076,-0.01744331,-0.0
 2634675,0.00015849,-0.00035362,0.00103329,-0.00283948,0.00182070,-0.00
 028361,-0.00058908,-0.00046028,0.00139479,-0.00028279,-0.00016808,-0.0
 0019137,0.00003585,-0.00014601,-0.00051882,-0.00032011,-0.00004376,0.0
 0003624,-0.00001695,0.00005594,-0.00006426,-0.00003239,0.00019447,0.00
 001643,0.00001583,-0.00008208,-0.00006899,0.00010643,0.00068745,-0.000
 65448,-0.07523958,-0.04093401,-0.07184058,0.08448655,0.00217117,0.0000
 1258,0.00020525,-0.00177170,-0.00052952,0.00058419,-0.00136423,-0.0005
 5970,0.00032263,-0.00132756,-0.00007797,0.00012897,0.00039923,-0.00041
 704,0.00054556,0.00029477,0.00085206,0.00003567,0.00002711,0.00030359,
 -0.00048603,-0.00007005,-0.00001911,-0.00005938,-0.00004219,0.00002777
 ,-0.00019254,-0.00001218,0.00014762,0.00000384,0.00000575,-0.00000100,
 0.00000106,-0.00000011,-0.00008105,-0.00037359,-0.04025175,-0.10954613
 ,-0.10260086,0.04644765,0.11481050,0.00019025,-0.00040883,0.00099511,0
 .00079717,0.00161486,0.00331537,-0.00042169,-0.00012218,0.00022266,0.0
 0011529,0.00052006,-0.00033323,0.00029665,-0.00003250,-0.00017513,0.00
 007733,0.00030588,-0.00006150,0.00006241,0.00006899,0.00007358,0.00000
 154,0.00000466,0.00002441,-0.00001000,0.00003611,-0.00004614,-0.000055
 79,0.00016218,0.00000116,0.00000950,-0.00001981,0.00000138,-0.00021721
 ,0.00028472,-0.00038478,-0.07075384,-0.10271465,-0.21593004,0.07701842
 ,0.11341700,0.23334904,0.00063575,-0.00105532,-0.00070371,-0.01416371,
 -0.01720613,0.02655764,0.00015668,-0.00036268,-0.00102981,-0.00283897,
 0.00182169,0.00027448,-0.00059415,-0.00047292,-0.00138926,-0.00028245,
 -0.00016724,0.00019357,0.00003722,-0.00014147,0.00052023,-0.00032022,-
 0.00004410,-0.00003481,-0.00001673,0.00005642,0.00006366,-0.00003228,0
 .00019383,-0.00001811,0.00001601,-0.00008139,0.00006970,0.00010903,0.0
 0069255,0.00064669,-0.07481212,-0.03997052,0.07178449,0.00372336,0.006
 14566,-0.00859049,0.08402468,0.00216873,0.00001451,-0.00020278,-0.0017
 8037,-0.00054906,-0.00054387,-0.00136126,-0.00056145,-0.00031137,-0.00
 132891,-0.00008393,-0.00012726,0.00039487,-0.00042171,-0.00054447,0.00
 029393,0.00084885,-0.00004489,0.00002799,0.00030739,0.00048380,-0.0000
 6988,-0.00001860,0.00005999,-0.00004152,0.00002919,0.00019197,-0.00001
 168,0.00014608,-0.00000513,0.00000566,-0.00000083,-0.00000106,0.000002
 99,-0.00008027,0.00037080,-0.03929859,-0.10767645,0.10172821,0.0061820
 2,0.00873168,-0.01401667,0.04540475,0.11274490,-0.00020903,0.00042097,
 0.00099591,-0.00072849,-0.00152791,0.00325785,0.00043436,0.00013044,0.
 00022622,-0.00009562,-0.00052781,-0.00032778,-0.00029903,0.00003618,-0
 .00016539,-0.00007935,-0.00031371,-0.00005864,-0.00006256,-0.00007070,
 0.00006841,0.00000013,-0.00000413,0.00002402,0.00001029,-0.00003697,-0
 .00004778,0.00005600,-0.00016409,0.00000258,-0.00000959,0.00002008,0.0
 0000103,0.00021572,-0.00028959,-0.00038815,0.07069158,0.10184403,-0.21
 822722,0.00845601,0.01371420,-0.02232013,-0.07698748,-0.11244969,0.235
 87653,-0.00659627,-0.00206751,0.00002112,-0.01255341,0.03220591,-0.000
 13062,0.00052599,0.00174298,-0.00000770,0.00124992,0.00195288,-0.00001
 114,-0.00009313,0.00000708,-0.00000017,-0.00001534,-0.00036990,0.00000
 164,-0.00045372,-0.00148159,0.00000806,0.00003775,-0.00001369,-0.00000
 005,0.00000475,-0.00009259,0.00000046,-0.00075171,-0.00005986,0.000001
 25,-0.00010736,0.00014144,-0.00000058,0.00006691,-0.00001992,-0.000000
 53,-0.08790763,0.09094753,-0.00035737,0.00439618,-0.01065156,0.0014804
 6,0.00435790,-0.01058873,-0.00139294,0.09783918,0.00005094,0.00059190,
 0.00000262,-0.00175332,0.00186699,-0.00001256,-0.00055883,0.00014073,0
 .00000344,-0.00189147,0.00064471,-0.00000111,0.00017196,0.00035398,-0.
 00000272,0.00002571,0.00009666,-0.00000070,-0.00011780,0.00043755,0.00
 000002,0.00007873,0.00001107,-0.00000033,0.00004247,0.00003731,-0.0000
 0011,0.00015011,-0.00011119,-0.00000018,-0.00001191,0.00002654,-0.0000
 0040,-0.00023624,0.00033197,-0.00000275,0.09522229,-0.27540670,0.00089
 289,0.00529298,-0.01365425,0.00090017,0.00518686,-0.01343030,-0.000781
 29,-0.10165248,0.29806303,0.00001143,0.00000580,0.00118232,0.00002465,
 -0.00006348,-0.00145478,0.00000283,-0.00000001,0.00070961,0.00000645,-
 0.00000688,-0.00021801,-0.00000092,-0.00000248,-0.00018496,-0.00000017
 ,-0.00000011,-0.00004811,0.00000183,0.00000207,0.00040361,-0.00000047,
 -0.00000019,-0.00003424,-0.00000016,0.00000009,0.00002761,0.00000029,0
 .00000014,-0.00010031,0.00000012,-0.00000063,-0.00006525,0.00000046,-0
 .00000307,-0.00034629,-0.00037691,0.00089929,-0.04891090,0.01129927,-0
 .02524596,0.00126821,-0.01135679,0.02541241,0.00108255,0.00038810,-0.0
 0099700,0.04668892||0.00026671,-0.00037158,0.00000130,-0.00000427,0.00
 043242,-0.00000197,-0.00004936,-0.00003597,0.00000025,-0.00010794,-0.0
 0026063,0.00000135,0.00008018,-0.00014972,0.00000056,-0.00001624,0.000
 12865,-0.00000057,-0.00001938,0.00007585,-0.00000032,0.00003963,0.0000
 8945,-0.00000047,0.00005159,-0.00001141,-0.00000003,-0.00030968,0.0000
 9866,-0.00000001,0.00007305,0.00006015,-0.00000037,-0.00003709,-0.0000
 0445,0.00000008,0.00015183,-0.00003748,-0.00000006,-0.00003855,-0.0000
 5646,-0.00009990,-0.00003824,-0.00005554,0.00010053,-0.00004223,0.0000
 9804,-0.00000038|||@


 Boundary, n.  In political geography, an imaginary
 line between two nations, separating the imaginary
 rights of one from the imaginary rights of another.
                               -- Ambrose Bierce
 Job cpu time:       0 days  0 hours  2 minutes 29.0 seconds.
 File lengths (MBytes):  RWF=     52 Int=      0 D2E=      0 Chk=      3 Scr=      1
 Normal termination of Gaussian 09 at Thu Sep 14 13:51:45 2023.
