 Entering Link 1 = C:\G09W\l1.exe PID=     14724.
  
 Copyright (c) 1988,1990,1992,1993,1995,1998,2003,2009,2013,
            Gaussian, Inc.  All Rights Reserved.
  
 This is part of the Gaussian(R) 09 program.  It is based on
 the Gaussian(R) 03 system (copyright 2003, Gaussian, Inc.),
 the Gaussian(R) 98 system (copyright 1998, Gaussian, Inc.),
 the Gaussian(R) 94 system (copyright 1995, Gaussian, Inc.),
 the Gaussian 92(TM) system (copyright 1992, Gaussian, Inc.),
 the Gaussian 90(TM) system (copyright 1990, Gaussian, Inc.),
 the Gaussian 88(TM) system (copyright 1988, Gaussian, Inc.),
 the Gaussian 86(TM) system (copyright 1986, Carnegie Mellon
 University), and the Gaussian 82(TM) system (copyright 1983,
 Carnegie Mellon University). Gaussian is a federally registered
 trademark of Gaussian, Inc.
  
 This software contains proprietary and confidential information,
 including trade secrets, belonging to Gaussian, Inc.
  
 This software is provided under written license and may be
 used, copied, transmitted, or stored only in accord with that
 written license.
  
 The following legend is applicable only to US Government
 contracts under FAR:
  
                    RESTRICTED RIGHTS LEGEND
  
 Use, reproduction and disclosure by the US Government is
 subject to restrictions as set forth in subparagraphs (a)
 and (c) of the Commercial Computer Software - Restricted
 Rights clause in FAR 52.227-19.
  
 Gaussian, Inc.
 340 Quinnipiac St., Bldg. 40, Wallingford CT 06492
  
  
 ---------------------------------------------------------------
 Warning -- This program may not be used in any manner that
 competes with the business of Gaussian, Inc. or will provide
 assistance to any competitor of Gaussian, Inc.  The licensee
 of this program is prohibited from giving any competitor of
 Gaussian, Inc. access to this program.  By using this program,
 the user acknowledges that Gaussian, Inc. is engaged in the
 business of creating and licensing software in the field of
 computational chemistry and represents and warrants to the
 licensee that it is not a competitor of Gaussian, Inc. and that
 it will not use this program in any manner prohibited above.
 ---------------------------------------------------------------
  

 Cite this work as:
 Gaussian 09, Revision D.01,
 M. J. Frisch, G. W. Trucks, H. B. Schlegel, G. E. Scuseria, 
 M. A. Robb, J. R. Cheeseman, G. Scalmani, V. Barone, B. Mennucci, 
 G. A. Petersson, H. Nakatsuji, M. Caricato, X. Li, H. P. Hratchian, 
 A. F. Izmaylov, J. Bloino, G. Zheng, J. L. Sonnenberg, M. Hada, 
 M. Ehara, K. Toyota, R. Fukuda, J. Hasegawa, M. Ishida, T. Nakajima, 
 Y. Honda, O. Kitao, H. Nakai, T. Vreven, J. A. Montgomery, Jr., 
 J. E. Peralta, F. Ogliaro, M. Bearpark, J. J. Heyd, E. Brothers, 
 K. N. Kudin, V. N. Staroverov, T. Keith, R. Kobayashi, J. Normand, 
 K. Raghavachari, A. Rendell, J. C. Burant, S. S. Iyengar, J. Tomasi, 
 M. Cossi, N. Rega, J. M. Millam, M. Klene, J. E. Knox, J. B. Cross, 
 V. Bakken, C. Adamo, J. Jaramillo, R. Gomperts, R. E. Stratmann, 
 O. Yazyev, A. J. Austin, R. Cammi, C. Pomelli, J. W. Ochterski, 
 R. L. Martin, K. Morokuma, V. G. Zakrzewski, G. A. Voth, 
 P. Salvador, J. J. Dannenberg, S. Dapprich, A. D. Daniels, 
 O. Farkas, J. B. Foresman, J. V. Ortiz, J. Cioslowski, 
 and D. J. Fox, Gaussian, Inc., Wallingford CT, 2013.
 
 ******************************************
 Gaussian 09:  EM64W-G09RevD.01 13-Apr-2013
                14-Sep-2023 
 ******************************************
 %nprocshared=2
 Will use up to    2 processors via shared memory.
 %mem=2GB
 %chk=E:\PROJECT- VIT group\ML\Substrates\molecule_8.chk
 -----------------------------------------------------
 # opt freq b3lyp/6-31g nosymm empiricaldispersion=gd3
 -----------------------------------------------------
 1/14=-1,18=20,19=15,26=3,38=1/1,3;
 2/9=110,12=2,15=1,17=6,18=5,40=1/2;
 3/5=1,6=6,11=2,16=1,25=1,30=1,71=1,74=-5,124=31/1,2,3;
 4//1;
 5/5=2,38=5/2;
 6/7=2,8=2,9=2,10=2,28=1/1;
 7/30=1/1,2,3,16;
 1/14=-1,18=20,19=15,26=3/3(2);
 2/9=110,15=1/2;
 99//99;
 2/9=110,15=1/2;
 3/5=1,6=6,11=2,16=1,25=1,30=1,71=1,74=-5,124=31/1,2,3;
 4/5=5,16=3,69=1/1;
 5/5=2,38=5/2;
 7/30=1/1,2,3,16;
 1/14=-1,18=20,19=15,26=3/3(-5);
 2/9=110,15=1/2;
 6/7=2,8=2,9=2,10=2,19=2,28=1/1;
 99/9=1/99;
 -----------
 molecule_28
 -----------
 Symbolic Z-matrix:
 Charge =  0 Multiplicity = 1
 C                    -0.26413  -0.70775   0. 
 C                     1.13103  -0.70775   0. 
 C                     1.82857   0.5       0. 
 C                     1.13092   1.70851  -0.0012 
 C                    -0.26391   1.70843  -0.00168 
 C                    -0.96151   0.50022  -0.00068 
 H                    -0.81389  -1.66007   0.00045 
 H                     1.68054  -1.66026   0.00132 
 H                    -0.81403   2.66071  -0.00263 
 H                    -2.03151   0.50025  -0.00044 
 O                     3.25857   0.49986   0.00123 
 H                     3.5798    0.49937  -0.90343 
 C                     1.90142   3.0419   -0.00128 
 H                     2.54202   3.08371   0.85475 
 H                     2.49068   3.11327  -0.89155 
 H                     1.20691   3.85516   0.0329 
 

 GradGradGradGradGradGradGradGradGradGradGradGradGradGradGradGradGradGrad
 Berny optimization.
 Initialization pass.
                           ----------------------------
                           !    Initial Parameters    !
                           ! (Angstroms and Degrees)  !
 --------------------------                            --------------------------
 ! Name  Definition              Value          Derivative Info.                !
 --------------------------------------------------------------------------------
 ! R1    R(1,2)                  1.3952         estimate D2E/DX2                !
 ! R2    R(1,6)                  1.3948         estimate D2E/DX2                !
 ! R3    R(1,7)                  1.0996         estimate D2E/DX2                !
 ! R4    R(2,3)                  1.3947         estimate D2E/DX2                !
 ! R5    R(2,8)                  1.0997         estimate D2E/DX2                !
 ! R6    R(3,4)                  1.3954         estimate D2E/DX2                !
 ! R7    R(3,11)                 1.43           estimate D2E/DX2                !
 ! R8    R(4,5)                  1.3948         estimate D2E/DX2                !
 ! R9    R(4,13)                 1.54           estimate D2E/DX2                !
 ! R10   R(5,6)                  1.3951         estimate D2E/DX2                !
 ! R11   R(5,9)                  1.0998         estimate D2E/DX2                !
 ! R12   R(6,10)                 1.07           estimate D2E/DX2                !
 ! R13   R(11,12)                0.96           estimate D2E/DX2                !
 ! R14   R(13,14)                1.07           estimate D2E/DX2                !
 ! R15   R(13,15)                1.07           estimate D2E/DX2                !
 ! R16   R(13,16)                1.07           estimate D2E/DX2                !
 ! A1    A(2,1,6)              119.9985         estimate D2E/DX2                !
 ! A2    A(2,1,7)              119.9972         estimate D2E/DX2                !
 ! A3    A(6,1,7)              120.0043         estimate D2E/DX2                !
 ! A4    A(1,2,3)              120.0086         estimate D2E/DX2                !
 ! A5    A(1,2,8)              119.9808         estimate D2E/DX2                !
 ! A6    A(3,2,8)              120.0106         estimate D2E/DX2                !
 ! A7    A(2,3,4)              119.9942         estimate D2E/DX2                !
 ! A8    A(2,3,11)             120.0029         estimate D2E/DX2                !
 ! A9    A(4,3,11)             120.0029         estimate D2E/DX2                !
 ! A10   A(3,4,5)              119.994          estimate D2E/DX2                !
 ! A11   A(3,4,13)             119.9811         estimate D2E/DX2                !
 ! A12   A(5,4,13)             120.0249         estimate D2E/DX2                !
 ! A13   A(4,5,6)              120.0047         estimate D2E/DX2                !
 ! A14   A(4,5,9)              120.0113         estimate D2E/DX2                !
 ! A15   A(6,5,9)              119.984          estimate D2E/DX2                !
 ! A16   A(1,6,5)              120.0            estimate D2E/DX2                !
 ! A17   A(1,6,10)             120.0            estimate D2E/DX2                !
 ! A18   A(5,6,10)             120.0            estimate D2E/DX2                !
 ! A19   A(3,11,12)            109.5            estimate D2E/DX2                !
 ! A20   A(4,13,14)            109.4712         estimate D2E/DX2                !
 ! A21   A(4,13,15)            109.4712         estimate D2E/DX2                !
 ! A22   A(4,13,16)            109.4712         estimate D2E/DX2                !
 ! A23   A(14,13,15)           109.4713         estimate D2E/DX2                !
 ! A24   A(14,13,16)           109.4712         estimate D2E/DX2                !
 ! A25   A(15,13,16)           109.4712         estimate D2E/DX2                !
 ! D1    D(6,1,2,3)              0.0323         estimate D2E/DX2                !
 ! D2    D(6,1,2,8)            179.9532         estimate D2E/DX2                !
 ! D3    D(7,1,2,3)           -179.9729         estimate D2E/DX2                !
 ! D4    D(7,1,2,8)             -0.052          estimate D2E/DX2                !
 ! D5    D(2,1,6,5)              0.0149         estimate D2E/DX2                !
 ! D6    D(2,1,6,10)          -179.9851         estimate D2E/DX2                !
 ! D7    D(7,1,6,5)           -179.9798         estimate D2E/DX2                !
 ! D8    D(7,1,6,10)             0.0202         estimate D2E/DX2                !
 ! D9    D(1,2,3,4)             -0.0568         estimate D2E/DX2                !
 ! D10   D(1,2,3,11)           179.9432         estimate D2E/DX2                !
 ! D11   D(8,2,3,4)           -179.9777         estimate D2E/DX2                !
 ! D12   D(8,2,3,11)             0.0223         estimate D2E/DX2                !
 ! D13   D(2,3,4,5)              0.0341         estimate D2E/DX2                !
 ! D14   D(2,3,4,13)          -179.9964         estimate D2E/DX2                !
 ! D15   D(11,3,4,5)          -179.9659         estimate D2E/DX2                !
 ! D16   D(11,3,4,13)            0.0036         estimate D2E/DX2                !
 ! D17   D(2,3,11,12)           89.9996         estimate D2E/DX2                !
 ! D18   D(4,3,11,12)          -90.0004         estimate D2E/DX2                !
 ! D19   D(3,4,5,6)              0.0131         estimate D2E/DX2                !
 ! D20   D(3,4,5,9)           -179.9995         estimate D2E/DX2                !
 ! D21   D(13,4,5,6)          -179.9563         estimate D2E/DX2                !
 ! D22   D(13,4,5,9)             0.0311         estimate D2E/DX2                !
 ! D23   D(3,4,13,14)          -58.0021         estimate D2E/DX2                !
 ! D24   D(3,4,13,15)           61.998          estimate D2E/DX2                !
 ! D25   D(3,4,13,16)         -178.0021         estimate D2E/DX2                !
 ! D26   D(5,4,13,14)          121.9674         estimate D2E/DX2                !
 ! D27   D(5,4,13,15)         -118.0326         estimate D2E/DX2                !
 ! D28   D(5,4,13,16)            1.9674         estimate D2E/DX2                !
 ! D29   D(4,5,6,1)             -0.0376         estimate D2E/DX2                !
 ! D30   D(4,5,6,10)           179.9624         estimate D2E/DX2                !
 ! D31   D(9,5,6,1)            179.975          estimate D2E/DX2                !
 ! D32   D(9,5,6,10)            -0.025          estimate D2E/DX2                !
 --------------------------------------------------------------------------------
 Trust Radius=3.00D-01 FncErr=1.00D-07 GrdErr=1.00D-06
 Number of steps in this run=     83 maximum allowed number of steps=    100.
 GradGradGradGradGradGradGradGradGradGradGradGradGradGradGradGradGradGrad

                          Input orientation:                          
 ---------------------------------------------------------------------
 Center     Atomic      Atomic             Coordinates (Angstroms)
 Number     Number       Type             X           Y           Z
 ---------------------------------------------------------------------
      1          6           0       -0.264127   -0.707751    0.000000
      2          6           0        1.131033   -0.707751    0.000000
      3          6           0        1.828571    0.500000    0.000000
      4          6           0        1.130917    1.708509   -0.001199
      5          6           0       -0.263908    1.708431   -0.001678
      6          6           0       -0.961509    0.500225   -0.000682
      7          1           0       -0.813886   -1.660068    0.000450
      8          1           0        1.680541   -1.660264    0.001315
      9          1           0       -0.814030    2.660712   -0.002631
     10          1           0       -2.031509    0.500254   -0.000441
     11          8           0        3.258571    0.499858    0.001229
     12          1           0        3.579803    0.499370   -0.903431
     13          6           0        1.901421    3.041897   -0.001282
     14          1           0        2.542019    3.083711    0.854748
     15          1           0        2.490681    3.113268   -0.891551
     16          1           0        1.206914    3.855157    0.032901
 ---------------------------------------------------------------------
                    Distance matrix (angstroms):
                    1          2          3          4          5
     1  C    0.000000
     2  C    1.395160   0.000000
     3  C    2.416205   1.394712   0.000000
     4  C    2.790065   2.416260   1.395427   0.000000
     5  C    2.416183   2.789946   2.416356   1.394825   0.000000
     6  C    1.394829   2.416183   2.790080   2.416236   1.395138
     7  H    1.099610   2.165553   3.412986   3.889675   3.413102
     8  H    2.165414   1.099655   2.165330   3.413316   3.889601
     9  H    3.413055   3.889707   3.413506   2.165528   1.099761
    10  H    2.140774   3.385402   3.860080   3.385383   2.141053
    11  O    3.723938   2.446372   1.430000   2.446989   3.724045
    12  H    4.129058   2.875726   1.970533   2.876296   4.129055
    13  C    4.330065   3.827971   2.542941   1.540000   2.542987
    14  H    4.793770   4.134810   2.813390   2.148263   3.240075
    15  H    4.794165   4.152553   2.839441   2.148263   3.217639
    16  H    4.794285   4.563657   3.412421   2.148263   2.602488
                    6          7          8          9         10
     6  C    0.000000
     7  H    2.165331   0.000000
     8  H    3.412938   2.494427   0.000000
     9  H    2.165516   4.320781   4.989362   0.000000
    10  H    1.070000   2.479838   4.295015   2.479887   0.000000
    11  O    4.220080   4.609792   2.675127   4.610356   5.290080
    12  H    4.630169   4.978421   3.014926   4.978816   5.683503
    13  C    3.828376   5.429675   4.707347   2.742076   4.682722
    14  H    4.436312   5.873275   4.896507   3.489569   5.321913
    15  H    4.420323   5.873718   4.923428   3.451970   5.298313
    16  H    3.994840   5.873873   5.535809   2.347802   4.663032
                   11         12         13         14         15
    11  O    0.000000
    12  H    0.960000   0.000000
    13  C    2.881636   3.177307   0.000000
    14  H    2.813936   3.293479   1.070000   0.000000
    15  H    2.866466   2.831747   1.070000   1.747303   0.000000
    16  H    3.932980   4.215285   1.070000   1.747303   1.747303
                   16
    16  H    0.000000
 Symmetry turned off by external request.
 Stoichiometry    C7H8O
 Framework group  C1[X(C7H8O)]
 Deg. of freedom    42
 Full point group                 C1      NOp   1
 Rotational constants (GHZ):      3.2064568      2.1689479      1.3093906
 Standard basis: 6-31G (6D, 7F)
    88 basis functions,   208 primitive gaussians,    88 cartesian basis functions
    29 alpha electrons       29 beta electrons
       nuclear repulsion energy       345.7999592289 Hartrees.
 NAtoms=   16 NActive=   16 NUniq=   16 SFac= 1.00D+00 NAtFMM=   60 NAOKFM=F Big=F
 Integral buffers will be    131072 words long.
 Raffenetti 2 integral format.
 Two-electron integral symmetry is turned off.
 Nuclear repulsion after empirical dispersion term =      345.7900220036 Hartrees.
 One-electron integrals computed using PRISM.
 NBasis=    88 RedAO= T EigKep=  5.81D-04  NBF=    88
 NBsUse=    88 1.00D-06 EigRej= -1.00D+00 NBFU=    88
 ExpMin= 1.61D-01 ExpMax= 5.48D+03 ExpMxC= 8.25D+02 IAcc=1 IRadAn=         1 AccDes= 0.00D+00
 Harris functional with IExCor=  402 and IRadAn=       1 diagonalized for initial guess.
 HarFok:  IExCor=  402 AccDes= 0.00D+00 IRadAn=         1 IDoV= 1 UseB2=F ITyADJ=14
 ICtDFT=  3500011 ScaDFX=  1.000000  1.000000  1.000000  1.000000
 FoFCou: FMM=F IPFlag=           0 FMFlag=      100000 FMFlg1=           0
         NFxFlg=           0 DoJE=T BraDBF=F KetDBF=T FulRan=T
         wScrn=  0.000000 ICntrl=     500 IOpCl=  0 I1Cent=   200000004 NGrid=           0
         NMat0=    1 NMatS0=      1 NMatT0=    0 NMatD0=    1 NMtDS0=    0 NMtDT0=    0
 Symmetry not used in FoFCou.
 Keep R1 ints in memory in canonical form, NReq=8623422.
 Requested convergence on RMS density matrix=1.00D-08 within 128 cycles.
 Requested convergence on MAX density matrix=1.00D-06.
 Requested convergence on             energy=1.00D-06.
 No special actions if energy rises.
 Integral accuracy reduced to 1.0D-05 until final iterations.
 Initial convergence to 1.0D-05 achieved.  Increase integral accuracy.
 SCF Done:  E(RB3LYP) =  -346.697201171     A.U. after   14 cycles
            NFock= 14  Conv=0.51D-08     -V/T= 2.0053

 **********************************************************************

            Population analysis using the SCF density.

 **********************************************************************

 Alpha  occ. eigenvalues --  -19.15418 -10.23844 -10.19468 -10.18703 -10.18651
 Alpha  occ. eigenvalues --  -10.18594 -10.18265 -10.16916  -1.03871  -0.85778
 Alpha  occ. eigenvalues --   -0.77210  -0.74269  -0.68870  -0.61074  -0.59119
 Alpha  occ. eigenvalues --   -0.53340  -0.48556  -0.47303  -0.43965  -0.42702
 Alpha  occ. eigenvalues --   -0.40926  -0.39422  -0.39159  -0.35624  -0.34792
 Alpha  occ. eigenvalues --   -0.34054  -0.28887  -0.24793  -0.23833
 Alpha virt. eigenvalues --    0.00314   0.00703   0.06537   0.09736   0.12861
 Alpha virt. eigenvalues --    0.14760   0.15571   0.16842   0.17726   0.19180
 Alpha virt. eigenvalues --    0.20382   0.22466   0.24544   0.31050   0.32723
 Alpha virt. eigenvalues --    0.36169   0.36635   0.50780   0.52023   0.52370
 Alpha virt. eigenvalues --    0.55657   0.56036   0.58825   0.60756   0.61265
 Alpha virt. eigenvalues --    0.61697   0.64734   0.65028   0.65404   0.66338
 Alpha virt. eigenvalues --    0.67561   0.71771   0.73545   0.77610   0.79050
 Alpha virt. eigenvalues --    0.83494   0.85491   0.86198   0.88212   0.90772
 Alpha virt. eigenvalues --    0.94154   0.96773   0.98746   0.99175   1.00652
 Alpha virt. eigenvalues --    1.02842   1.07238   1.09412   1.12534   1.14876
 Alpha virt. eigenvalues --    1.17958   1.22075   1.23611   1.30686   1.39468
 Alpha virt. eigenvalues --    1.42632   1.49407   1.81910   2.07958
          Condensed to atoms (all electrons):
               1          2          3          4          5          6
     1  C    4.926488   0.482828  -0.029358  -0.021356  -0.052249   0.538252
     2  C    0.482828   5.114789   0.463890  -0.109684  -0.041169  -0.046385
     3  C   -0.029358   0.463890   4.893471   0.399526  -0.025014  -0.039603
     4  C   -0.021356  -0.109684   0.399526   5.060454   0.526509  -0.051001
     5  C   -0.052249  -0.041169  -0.025014   0.526509   4.958856   0.514706
     6  C    0.538252  -0.046385  -0.039603  -0.051001   0.514706   4.911560
     7  H    0.350756  -0.029846   0.003519   0.000613   0.004453  -0.034675
     8  H   -0.033604   0.342749  -0.031282   0.005950   0.000416   0.004506
     9  H    0.004249   0.000478   0.003917  -0.030813   0.348130  -0.035663
    10  H   -0.036354   0.004695   0.000927   0.004583  -0.032178   0.351540
    11  O    0.004199  -0.077044   0.284287  -0.100189   0.003480  -0.000080
    12  H   -0.000049  -0.002786  -0.038584  -0.000989   0.000057   0.000009
    13  C    0.000151   0.007714  -0.058146   0.317312  -0.043289   0.006992
    14  H    0.000008   0.000146  -0.004390  -0.032756   0.000385  -0.000203
    15  H    0.000024   0.000028  -0.004245  -0.033721   0.001108  -0.000246
    16  H   -0.000014  -0.000133   0.006208  -0.035903  -0.003218   0.000281
               7          8          9         10         11         12
     1  C    0.350756  -0.033604   0.004249  -0.036354   0.004199  -0.000049
     2  C   -0.029846   0.342749   0.000478   0.004695  -0.077044  -0.002786
     3  C    0.003519  -0.031282   0.003917   0.000927   0.284287  -0.038584
     4  C    0.000613   0.005950  -0.030813   0.004583  -0.100189  -0.000989
     5  C    0.004453   0.000416   0.348130  -0.032178   0.003480   0.000057
     6  C   -0.034675   0.004506  -0.035663   0.351540  -0.000080   0.000009
     7  H    0.586667  -0.004723  -0.000181  -0.004429  -0.000053   0.000003
     8  H   -0.004723   0.583288   0.000012  -0.000171  -0.000944   0.000108
     9  H   -0.000181   0.000012   0.588641  -0.004085  -0.000052   0.000004
    10  H   -0.004429  -0.000171  -0.004085   0.594363   0.000001   0.000000
    11  O   -0.000053  -0.000944  -0.000052   0.000001   8.264882   0.246466
    12  H    0.000003   0.000108   0.000004   0.000000   0.246466   0.426174
    13  C    0.000005  -0.000157  -0.008406  -0.000189   0.001255  -0.000422
    14  H    0.000000   0.000003   0.000186   0.000003   0.002379  -0.000549
    15  H    0.000000  -0.000001   0.000220   0.000003   0.002626   0.001649
    16  H    0.000000   0.000002   0.005378  -0.000004   0.000469  -0.000034
              13         14         15         16
     1  C    0.000151   0.000008   0.000024  -0.000014
     2  C    0.007714   0.000146   0.000028  -0.000133
     3  C   -0.058146  -0.004390  -0.004245   0.006208
     4  C    0.317312  -0.032756  -0.033721  -0.035903
     5  C   -0.043289   0.000385   0.001108  -0.003218
     6  C    0.006992  -0.000203  -0.000246   0.000281
     7  H    0.000005   0.000000   0.000000   0.000000
     8  H   -0.000157   0.000003  -0.000001   0.000002
     9  H   -0.008406   0.000186   0.000220   0.005378
    10  H   -0.000189   0.000003   0.000003  -0.000004
    11  O    0.001255   0.002379   0.002626   0.000469
    12  H   -0.000422  -0.000549   0.001649  -0.000034
    13  C    5.116440   0.378100   0.368066   0.362381
    14  H    0.378100   0.544866  -0.030714  -0.029482
    15  H    0.368066  -0.030714   0.586884  -0.031328
    16  H    0.362381  -0.029482  -0.031328   0.588661
 Mulliken charges:
               1
     1  C   -0.133972
     2  C   -0.110270
     3  C    0.174877
     4  C    0.101463
     5  C   -0.160982
     6  C   -0.119990
     7  H    0.127891
     8  H    0.133846
     9  H    0.127985
    10  H    0.121295
    11  O   -0.631681
    12  H    0.368944
    13  C   -0.447808
    14  H    0.172019
    15  H    0.139646
    16  H    0.136737
 Sum of Mulliken charges =   0.00000
 Mulliken charges with hydrogens summed into heavy atoms:
               1
     1  C   -0.006081
     2  C    0.023577
     3  C    0.174877
     4  C    0.101463
     5  C   -0.032998
     6  C    0.001305
    11  O   -0.262737
    13  C    0.000594
 Electronic spatial extent (au):  <R**2>=           1297.4897
 Charge=              0.0000 electrons
 Dipole moment (field-independent basis, Debye):
    X=             -0.6091    Y=              0.2907    Z=             -1.7240  Tot=              1.8514
 Quadrupole moment (field-independent basis, Debye-Ang):
   XX=            -46.7590   YY=            -42.5067   ZZ=            -48.2642
   XY=              0.2738   XZ=             -6.6979   YZ=             -0.6548
 Traceless Quadrupole moment (field-independent basis, Debye-Ang):
   XX=             -0.9157   YY=              3.3366   ZZ=             -2.4209
   XY=              0.2738   XZ=             -6.6979   YZ=             -0.6548
 Octapole moment (field-independent basis, Debye-Ang**2):
  XXX=           -144.5958  YYY=           -116.6083  ZZZ=              0.0926  XYY=            -43.7288
  XXY=            -39.5142  XXZ=            -24.4036  XZZ=            -39.4344  YZZ=            -40.8567
  YYZ=              0.8972  XYZ=             -2.8024
 Hexadecapole moment (field-independent basis, Debye-Ang**3):
 XXXX=           -858.6529 YYYY=           -736.5611 ZZZZ=            -56.4685 XXXY=           -171.8497
 XXXZ=            -86.8874 YYYX=           -172.7732 YYYZ=              3.4713 ZZZX=             -0.5666
 ZZZY=              0.5475 XXYY=           -261.0927 XXZZ=           -131.8014 YYZZ=           -140.9617
 XXYZ=            -10.5345 YYXZ=              1.6469 ZZXY=            -51.3315
 N-N= 3.457900220036D+02 E-N=-1.498636488487D+03  KE= 3.448589059658D+02
 Calling FoFJK, ICntrl=      2127 FMM=F ISym2X=0 I1Cent= 0 IOpClX= 0 NMat=1 NMatS=1 NMatT=0.
 -------------------------------------------------------------------
 Center     Atomic                   Forces (Hartrees/Bohr)
 Number     Number              X              Y              Z
 -------------------------------------------------------------------
      1        6          -0.006593462   -0.010469307    0.000637976
      2        6           0.008387042   -0.014584319    0.000305546
      3        6           0.003532571   -0.006604499   -0.002909907
      4        6           0.013273228    0.028397242    0.001283678
      5        6          -0.008000793    0.002406509    0.000800574
      6        6           0.003283379    0.000095625   -0.000307417
      7        1           0.005220121    0.007897243    0.000034092
      8        1          -0.002732765    0.009696164    0.000298541
      9        1           0.005631611   -0.007637843    0.000035254
     10        1          -0.011170096   -0.000042742   -0.000023421
     11        8          -0.017132296    0.000464198    0.016831343
     12        1           0.008554022    0.000075619   -0.016352602
     13        6          -0.018214456   -0.029979238    0.001116448
     14        1           0.012570699    0.002242585    0.011573873
     15        1           0.012264305    0.004275668   -0.013168218
     16        1          -0.008873109    0.013767095   -0.000155760
 -------------------------------------------------------------------
 Cartesian Forces:  Max     0.029979238 RMS     0.010236308

 GradGradGradGradGradGradGradGradGradGradGradGradGradGradGradGradGradGrad
 Berny optimization.
 FormGI is forming the generalized inverse of G from B-inverse, IUseBI=4.
 Internal  Forces:  Max     0.018270132 RMS     0.005623488
 Search for a local minimum.
 Step number   1 out of a maximum of   83
 All quantities printed in internal units (Hartrees-Bohrs-Radians)
 Mixed Optimization -- RFO/linear search
 Second derivative matrix not updated -- first step.
 ITU=  0
     Eigenvalues ---    0.00237   0.01295   0.01387   0.01998   0.02152
     Eigenvalues ---    0.02154   0.02155   0.02155   0.02155   0.02156
     Eigenvalues ---    0.02157   0.07243   0.07243   0.16000   0.16000
     Eigenvalues ---    0.16000   0.16000   0.16000   0.16000   0.16000
     Eigenvalues ---    0.16000   0.22000   0.22493   0.24487   0.25000
     Eigenvalues ---    0.25000   0.28519   0.33709   0.33720   0.33725
     Eigenvalues ---    0.37230   0.37230   0.37230   0.37230   0.40989
     Eigenvalues ---    0.42224   0.42380   0.46412   0.46453   0.46466
     Eigenvalues ---    0.46497   0.55473
 RFO step:  Lambda=-6.79966226D-03 EMin= 2.36824090D-03
 Linear search not attempted -- first point.
 Iteration  1 RMS(Cart)=  0.02518668 RMS(Int)=  0.00058575
 Iteration  2 RMS(Cart)=  0.00067961 RMS(Int)=  0.00016071
 Iteration  3 RMS(Cart)=  0.00000060 RMS(Int)=  0.00016071
 Variable       Old X    -DE/DX   Delta X   Delta X   Delta X     New X
                                 (Linear)    (Quad)   (Total)
    R1        2.63647   0.00389   0.00000   0.00810   0.00806   2.64453
    R2        2.63584   0.00486   0.00000   0.01028   0.01018   2.64602
    R3        2.07796  -0.00945   0.00000  -0.02746  -0.02746   2.05050
    R4        2.63562   0.00198   0.00000   0.00405   0.00412   2.63974
    R5        2.07805  -0.00976   0.00000  -0.02838  -0.02838   2.04966
    R6        2.63697   0.00647   0.00000   0.01377   0.01387   2.65085
    R7        2.70231  -0.00858   0.00000  -0.02059  -0.02059   2.68172
    R8        2.63584   0.00774   0.00000   0.01657   0.01660   2.65244
    R9        2.91018  -0.00952   0.00000  -0.03260  -0.03260   2.87757
   R10        2.63643   0.00624   0.00000   0.01338   0.01331   2.64974
   R11        2.07825  -0.00943   0.00000  -0.02742  -0.02742   2.05082
   R12        2.02201   0.01117   0.00000   0.02947   0.02947   2.05147
   R13        1.81414   0.01827   0.00000   0.03254   0.03254   1.84667
   R14        2.02201   0.01687   0.00000   0.04451   0.04451   2.06652
   R15        2.02201   0.01800   0.00000   0.04747   0.04747   2.06948
   R16        2.02201   0.01622   0.00000   0.04278   0.04278   2.06478
    A1        2.09437  -0.00036   0.00000  -0.00217  -0.00225   2.09212
    A2        2.09435  -0.00041   0.00000  -0.00247  -0.00244   2.09191
    A3        2.09447   0.00077   0.00000   0.00464   0.00468   2.09915
    A4        2.09455  -0.00105   0.00000  -0.00543  -0.00534   2.08920
    A5        2.09406   0.00310   0.00000   0.01814   0.01806   2.11212
    A6        2.09458  -0.00205   0.00000  -0.01272  -0.01280   2.08178
    A7        2.09429   0.00675   0.00000   0.02591   0.02567   2.11996
    A8        2.09445  -0.00262   0.00000  -0.01004  -0.01063   2.08382
    A9        2.09445  -0.00412   0.00000  -0.01587  -0.01646   2.07799
   A10        2.09429  -0.00868   0.00000  -0.03359  -0.03337   2.06092
   A11        2.09407   0.00031   0.00000   0.00110   0.00099   2.09506
   A12        2.09483   0.00837   0.00000   0.03248   0.03237   2.12720
   A13        2.09448   0.00431   0.00000   0.01947   0.01950   2.11398
   A14        2.09459  -0.00325   0.00000  -0.01632  -0.01634   2.07826
   A15        2.09411  -0.00105   0.00000  -0.00315  -0.00317   2.09095
   A16        2.09440  -0.00096   0.00000  -0.00417  -0.00429   2.09011
   A17        2.09439   0.00044   0.00000   0.00183   0.00188   2.09627
   A18        2.09439   0.00052   0.00000   0.00234   0.00238   2.09678
   A19        1.91114   0.00470   0.00000   0.02817   0.02817   1.93931
   A20        1.91063   0.00249   0.00000   0.01389   0.01376   1.92439
   A21        1.91063   0.00446   0.00000   0.02481   0.02464   1.93528
   A22        1.91063   0.00218   0.00000   0.01609   0.01586   1.92649
   A23        1.91063  -0.00460   0.00000  -0.03358  -0.03365   1.87698
   A24        1.91063  -0.00160   0.00000  -0.00566  -0.00585   1.90479
   A25        1.91063  -0.00294   0.00000  -0.01554  -0.01579   1.89484
    D1        0.00056  -0.00006   0.00000  -0.00278  -0.00270  -0.00214
    D2        3.14078  -0.00042   0.00000  -0.01538  -0.01542   3.12535
    D3       -3.14112   0.00003   0.00000   0.00060   0.00066  -3.14046
    D4       -0.00091  -0.00033   0.00000  -0.01200  -0.01206  -0.01296
    D5        0.00026  -0.00022   0.00000  -0.00795  -0.00793  -0.00767
    D6       -3.14133   0.00002   0.00000   0.00090   0.00090  -3.14043
    D7       -3.14124  -0.00031   0.00000  -0.01133  -0.01132   3.13063
    D8        0.00035  -0.00007   0.00000  -0.00248  -0.00248  -0.00213
    D9       -0.00099   0.00032   0.00000   0.01237   0.01260   0.01161
   D10        3.14060  -0.00122   0.00000  -0.04501  -0.04513   3.09547
   D11       -3.14120   0.00067   0.00000   0.02495   0.02507  -3.11613
   D12        0.00039  -0.00086   0.00000  -0.03243  -0.03266  -0.03227
   D13        0.00060  -0.00030   0.00000  -0.01126  -0.01142  -0.01083
   D14       -3.14153  -0.00041   0.00000  -0.01679  -0.01683   3.12483
   D15       -3.14100   0.00124   0.00000   0.04612   0.04612  -3.09488
   D16        0.00006   0.00112   0.00000   0.04059   0.04072   0.04078
   D17        1.57079   0.00084   0.00000   0.03228   0.03176   1.60255
   D18       -1.57080  -0.00070   0.00000  -0.02510  -0.02458  -1.59538
   D19        0.00023   0.00002   0.00000   0.00055   0.00054   0.00077
   D20       -3.14158   0.00003   0.00000   0.00081   0.00081  -3.14078
   D21       -3.14083   0.00014   0.00000   0.00609   0.00606  -3.13477
   D22        0.00054   0.00015   0.00000   0.00635   0.00633   0.00687
   D23       -1.01233   0.00089   0.00000   0.01996   0.02006  -0.99227
   D24        1.08207  -0.00049   0.00000   0.00253   0.00250   1.08456
   D25       -3.10672  -0.00001   0.00000   0.00853   0.00860  -3.09812
   D26        2.12873   0.00077   0.00000   0.01442   0.01442   2.14315
   D27       -2.06006  -0.00061   0.00000  -0.00302  -0.00314  -2.06320
   D28        0.03434  -0.00013   0.00000   0.00299   0.00297   0.03730
   D29       -0.00066   0.00024   0.00000   0.00906   0.00905   0.00839
   D30        3.14094   0.00000   0.00000   0.00020   0.00021   3.14115
   D31        3.14116   0.00023   0.00000   0.00880   0.00878  -3.13325
   D32       -0.00044  -0.00001   0.00000  -0.00005  -0.00006  -0.00050
         Item               Value     Threshold  Converged?
 Maximum Force            0.018270     0.000450     NO 
 RMS     Force            0.005623     0.000300     NO 
 Maximum Displacement     0.082287     0.001800     NO 
 RMS     Displacement     0.025388     0.001200     NO 
 Predicted change in Energy=-3.507076D-03
 GradGradGradGradGradGradGradGradGradGradGradGradGradGradGradGradGradGrad

                          Input orientation:                          
 ---------------------------------------------------------------------
 Center     Atomic      Atomic             Coordinates (Angstroms)
 Number     Number       Type             X           Y           Z
 ---------------------------------------------------------------------
      1          6           0       -0.273872   -0.722443   -0.001586
      2          6           0        1.125490   -0.714425   -0.012430
      3          6           0        1.810600    0.502853   -0.025433
      4          6           0        1.127218    1.727850   -0.014041
      5          6           0       -0.276098    1.701492   -0.002412
      6          6           0       -0.978183    0.487740   -0.001231
      7          1           0       -0.808603   -1.666545    0.009594
      8          1           0        1.689813   -1.640577    0.002197
      9          1           0       -0.821156    2.639901    0.005720
     10          1           0       -2.063733    0.486030    0.008256
     11          8           0        3.228958    0.504350    0.020629
     12          1           0        3.610379    0.507270   -0.879073
     13          6           0        1.907096    3.035708   -0.006690
     14          1           0        2.585564    3.067202    0.850367
     15          1           0        2.514802    3.132933   -0.912521
     16          1           0        1.223231    3.886218    0.046401
 ---------------------------------------------------------------------
                    Distance matrix (angstroms):
                    1          2          3          4          5
     1  C    0.000000
     2  C    1.399427   0.000000
     3  C    2.418045   1.396893   0.000000
     4  C    2.822613   2.442276   1.402768   0.000000
     5  C    2.423936   2.793063   2.406569   1.403612   0.000000
     6  C    1.400214   2.422967   2.788929   2.443512   1.402183
     7  H    1.085077   2.155860   3.401138   3.907669   3.409894
     8  H    2.167727   1.084635   2.147009   3.415125   3.877403
     9  H    3.406601   3.878307   3.390293   2.151369   1.085250
    10  H    2.159655   3.407736   3.874516   3.424147   2.161735
    11  O    3.711513   2.431272   1.419107   2.432173   3.703930
    12  H    4.167683   2.901427   1.991965   2.898997   4.159255
    13  C    4.345152   3.830723   2.534762   1.522747   2.558611
    14  H    4.823236   4.144507   2.818418   2.160518   3.283521
    15  H    4.844629   4.188379   2.863590   2.169543   3.265953
    16  H    4.845965   4.602057   3.434723   2.161347   2.650170
                    6          7          8          9         10
     6  C    0.000000
     7  H    2.160977   0.000000
     8  H    3.412909   2.498561   0.000000
     9  H    2.157893   4.306467   4.962608   0.000000
    10  H    1.085592   2.491773   4.314117   2.486597   0.000000
    11  O    4.207231   4.584191   2.640080   4.578671   5.292737
    12  H    4.671819   5.004258   3.013048   4.996946   5.743113
    13  C    3.849287   5.430145   4.681340   2.756842   4.718958
    14  H    4.480975   5.885204   4.866719   3.535782   5.384010
    15  H    4.475315   5.910187   4.929880   3.494977   5.368139
    16  H    4.049462   5.912942   5.546631   2.394677   4.729362
                   11         12         13         14         15
    11  O    0.000000
    12  H    0.977217   0.000000
    13  C    2.855843   3.170997   0.000000
    14  H    2.769591   3.254913   1.093553   0.000000
    15  H    2.879278   2.845262   1.095121   1.765532   0.000000
    16  H    3.932001   4.239370   1.092637   1.781319   1.776267
                   16
    16  H    0.000000
 Symmetry turned off by external request.
 Stoichiometry    C7H8O
 Framework group  C1[X(C7H8O)]
 Deg. of freedom    42
 Full point group                 C1      NOp   1
 Rotational constants (GHZ):      3.2241489      2.1552061      1.3073408
 Standard basis: 6-31G (6D, 7F)
    88 basis functions,   208 primitive gaussians,    88 cartesian basis functions
    29 alpha electrons       29 beta electrons
       nuclear repulsion energy       345.2833441512 Hartrees.
 NAtoms=   16 NActive=   16 NUniq=   16 SFac= 1.00D+00 NAtFMM=   60 NAOKFM=F Big=F
 Integral buffers will be    131072 words long.
 Raffenetti 2 integral format.
 Two-electron integral symmetry is turned off.
 Nuclear repulsion after empirical dispersion term =      345.2733977571 Hartrees.
 One-electron integrals computed using PRISM.
 NBasis=    88 RedAO= T EigKep=  6.00D-04  NBF=    88
 NBsUse=    88 1.00D-06 EigRej= -1.00D+00 NBFU=    88
 Initial guess from the checkpoint file:  "E:\PROJECT- VIT group\ML\Substrates\molecule_8.chk"
 B after Tr=    -0.016091   -0.003616   -0.007890
         Rot=    1.000000    0.000186    0.000837   -0.000155 Ang=   0.10 deg.
 ExpMin= 1.61D-01 ExpMax= 5.48D+03 ExpMxC= 8.25D+02 IAcc=1 IRadAn=         1 AccDes= 0.00D+00
 Harris functional with IExCor=  402 and IRadAn=       1 diagonalized for initial guess.
 HarFok:  IExCor=  402 AccDes= 0.00D+00 IRadAn=         1 IDoV= 1 UseB2=F ITyADJ=14
 ICtDFT=  3500011 ScaDFX=  1.000000  1.000000  1.000000  1.000000
 FoFCou: FMM=F IPFlag=           0 FMFlag=      100000 FMFlg1=           0
         NFxFlg=           0 DoJE=T BraDBF=F KetDBF=T FulRan=T
         wScrn=  0.000000 ICntrl=     500 IOpCl=  0 I1Cent=   200000004 NGrid=           0
         NMat0=    1 NMatS0=      1 NMatT0=    0 NMatD0=    1 NMtDS0=    0 NMtDT0=    0
 Symmetry not used in FoFCou.
 Keep R1 ints in memory in canonical form, NReq=8623422.
 Requested convergence on RMS density matrix=1.00D-08 within 128 cycles.
 Requested convergence on MAX density matrix=1.00D-06.
 Requested convergence on             energy=1.00D-06.
 No special actions if energy rises.
 Integral accuracy reduced to 1.0D-05 until final iterations.
 Initial convergence to 1.0D-05 achieved.  Increase integral accuracy.
 SCF Done:  E(RB3LYP) =  -346.700936886     A.U. after   13 cycles
            NFock= 13  Conv=0.37D-08     -V/T= 2.0057
 Calling FoFJK, ICntrl=      2127 FMM=F ISym2X=0 I1Cent= 0 IOpClX= 0 NMat=1 NMatS=1 NMatT=0.
 -------------------------------------------------------------------
 Center     Atomic                   Forces (Hartrees/Bohr)
 Number     Number              X              Y              Z
 -------------------------------------------------------------------
      1        6          -0.000587908    0.000377535   -0.000098526
      2        6          -0.000176007   -0.000090939    0.000249008
      3        6           0.001355044   -0.002509312    0.000102131
      4        6           0.002564287    0.008084865    0.000145914
      5        6          -0.000951006   -0.002732646   -0.000239731
      6        6           0.001742160    0.000754681    0.000294032
      7        1          -0.000039383   -0.000143545   -0.000038365
      8        1           0.000712598    0.000568486   -0.000057063
      9        1          -0.000181037    0.000636687    0.000039931
     10        1           0.000263051    0.000357276    0.000000355
     11        8          -0.002929235   -0.000472405    0.000564118
     12        1           0.001199248    0.000219174   -0.000811005
     13        6          -0.006136047   -0.008357547    0.000545300
     14        1           0.001335633    0.000732708    0.000002762
     15        1           0.001314528    0.001243112   -0.000505139
     16        1           0.000514074    0.001331868   -0.000193723
 -------------------------------------------------------------------
 Cartesian Forces:  Max     0.008357547 RMS     0.002147221

 GradGradGradGradGradGradGradGradGradGradGradGradGradGradGradGradGradGrad
 Berny optimization.
 Using GEDIIS/GDIIS optimizer.
 FormGI is forming the generalized inverse of G from B-inverse, IUseBI=4.
 Internal  Forces:  Max     0.005859828 RMS     0.000967952
 Search for a local minimum.
 Step number   2 out of a maximum of   83
 All quantities printed in internal units (Hartrees-Bohrs-Radians)
 Mixed Optimization -- En-DIIS/RFO-DIIS
 Update second derivatives using D2CorX and points    1    2
 DE= -3.74D-03 DEPred=-3.51D-03 R= 1.07D+00
 TightC=F SS=  1.41D+00  RLast= 1.78D-01 DXNew= 5.0454D-01 5.3292D-01
 Trust test= 1.07D+00 RLast= 1.78D-01 DXMaxT set to 5.05D-01
 ITU=  1  0
 Use linear search instead of GDIIS.
     Eigenvalues ---    0.00237   0.01294   0.01364   0.02035   0.02151
     Eigenvalues ---    0.02154   0.02155   0.02155   0.02156   0.02156
     Eigenvalues ---    0.02161   0.07001   0.07037   0.14908   0.15999
     Eigenvalues ---    0.16000   0.16000   0.16000   0.16000   0.16000
     Eigenvalues ---    0.16026   0.22041   0.22506   0.23713   0.24953
     Eigenvalues ---    0.24994   0.27168   0.33696   0.33723   0.34293
     Eigenvalues ---    0.37071   0.37230   0.37230   0.38271   0.40788
     Eigenvalues ---    0.42308   0.42586   0.46228   0.46454   0.46465
     Eigenvalues ---    0.47453   0.55519
 RFO step:  Lambda=-2.66870385D-04 EMin= 2.36744904D-03
 Quartic linear search produced a step of  0.12315.
 Iteration  1 RMS(Cart)=  0.01449315 RMS(Int)=  0.00022209
 Iteration  2 RMS(Cart)=  0.00022529 RMS(Int)=  0.00003232
 Iteration  3 RMS(Cart)=  0.00000004 RMS(Int)=  0.00003232
 Variable       Old X    -DE/DX   Delta X   Delta X   Delta X     New X
                                 (Linear)    (Quad)   (Total)
    R1        2.64453  -0.00009   0.00099  -0.00093   0.00005   2.64459
    R2        2.64602  -0.00035   0.00125  -0.00194  -0.00071   2.64531
    R3        2.05050   0.00014  -0.00338   0.00288  -0.00050   2.05000
    R4        2.63974  -0.00093   0.00051  -0.00242  -0.00190   2.63784
    R5        2.04966  -0.00012  -0.00350   0.00210  -0.00140   2.04827
    R6        2.65085   0.00190   0.00171   0.00360   0.00533   2.65617
    R7        2.68172  -0.00174  -0.00254  -0.00295  -0.00549   2.67624
    R8        2.65244  -0.00014   0.00204  -0.00178   0.00027   2.65271
    R9        2.87757  -0.00586  -0.00402  -0.02020  -0.02421   2.85336
   R10        2.64974  -0.00160   0.00164  -0.00522  -0.00359   2.64615
   R11        2.05082   0.00064  -0.00338   0.00454   0.00116   2.05199
   R12        2.05147  -0.00026   0.00363  -0.00337   0.00026   2.05173
   R13        1.84667   0.00121   0.00401  -0.00039   0.00361   1.85029
   R14        2.06652   0.00085   0.00548  -0.00133   0.00415   2.07067
   R15        2.06948   0.00126   0.00585  -0.00036   0.00548   2.07496
   R16        2.06478   0.00071   0.00527  -0.00162   0.00365   2.06843
    A1        2.09212  -0.00041  -0.00028  -0.00234  -0.00262   2.08950
    A2        2.09191   0.00017  -0.00030   0.00122   0.00092   2.09283
    A3        2.09915   0.00024   0.00058   0.00111   0.00169   2.10084
    A4        2.08920  -0.00020  -0.00066  -0.00015  -0.00080   2.08840
    A5        2.11212   0.00102   0.00222   0.00521   0.00742   2.11954
    A6        2.08178  -0.00083  -0.00158  -0.00505  -0.00664   2.07515
    A7        2.11996   0.00058   0.00316   0.00099   0.00411   2.12407
    A8        2.08382  -0.00057  -0.00131  -0.00209  -0.00349   2.08032
    A9        2.07799  -0.00002  -0.00203   0.00087  -0.00125   2.07674
   A10        2.06092  -0.00117  -0.00411  -0.00194  -0.00602   2.05490
   A11        2.09506   0.00028   0.00012   0.00098   0.00108   2.09614
   A12        2.12720   0.00089   0.00399   0.00096   0.00493   2.13212
   A13        2.11398   0.00028   0.00240  -0.00070   0.00171   2.11569
   A14        2.07826  -0.00031  -0.00201  -0.00024  -0.00226   2.07600
   A15        2.09095   0.00003  -0.00039   0.00095   0.00055   2.09150
   A16        2.09011   0.00091  -0.00053   0.00419   0.00365   2.09375
   A17        2.09627  -0.00009   0.00023   0.00051   0.00075   2.09702
   A18        2.09678  -0.00082   0.00029  -0.00467  -0.00437   2.09240
   A19        1.93931   0.00146   0.00347   0.00775   0.01122   1.95052
   A20        1.92439   0.00097   0.00169   0.00535   0.00699   1.93138
   A21        1.93528   0.00135   0.00303   0.00622   0.00920   1.94448
   A22        1.92649   0.00137   0.00195   0.00954   0.01140   1.93789
   A23        1.87698  -0.00156  -0.00414  -0.01058  -0.01474   1.86225
   A24        1.90479  -0.00091  -0.00072  -0.00368  -0.00449   1.90030
   A25        1.89484  -0.00136  -0.00194  -0.00771  -0.00974   1.88510
    D1       -0.00214  -0.00005  -0.00033  -0.00269  -0.00301  -0.00515
    D2        3.12535  -0.00007  -0.00190  -0.00217  -0.00407   3.12128
    D3       -3.14046  -0.00001   0.00008  -0.00061  -0.00052  -3.14098
    D4       -0.01296  -0.00003  -0.00148  -0.00009  -0.00159  -0.01455
    D5       -0.00767   0.00009  -0.00098   0.00566   0.00468  -0.00299
    D6       -3.14043   0.00003   0.00011   0.00163   0.00174  -3.13869
    D7        3.13063   0.00005  -0.00139   0.00357   0.00218   3.13281
    D8       -0.00213  -0.00001  -0.00031  -0.00045  -0.00076  -0.00289
    D9        0.01161   0.00000   0.00155  -0.00114   0.00044   0.01205
   D10        3.09547  -0.00018  -0.00556  -0.00575  -0.01132   3.08415
   D11       -3.11613   0.00000   0.00309  -0.00174   0.00137  -3.11477
   D12       -0.03227  -0.00018  -0.00402  -0.00634  -0.01039  -0.04267
   D13       -0.01083   0.00001  -0.00141   0.00191   0.00047  -0.01035
   D14        3.12483   0.00000  -0.00207   0.00106  -0.00102   3.12381
   D15       -3.09488   0.00021   0.00568   0.00659   0.01228  -3.08259
   D16        0.04078   0.00019   0.00501   0.00575   0.01079   0.05157
   D17        1.60255   0.00026   0.00391   0.01759   0.02142   1.62396
   D18       -1.59538   0.00011  -0.00303   0.01310   0.01016  -1.58522
   D19        0.00077   0.00003   0.00007   0.00115   0.00121   0.00198
   D20       -3.14078  -0.00003   0.00010  -0.00178  -0.00168   3.14073
   D21       -3.13477   0.00005   0.00075   0.00202   0.00276  -3.13201
   D22        0.00687  -0.00001   0.00078  -0.00092  -0.00014   0.00673
   D23       -0.99227   0.00037   0.00247   0.03464   0.03715  -0.95512
   D24        1.08456  -0.00010   0.00031   0.02886   0.02915   1.11371
   D25       -3.09812  -0.00002   0.00106   0.02956   0.03062  -3.06750
   D26        2.14315   0.00035   0.00178   0.03375   0.03555   2.17870
   D27       -2.06320  -0.00012  -0.00039   0.02797   0.02754  -2.03565
   D28        0.03730  -0.00004   0.00037   0.02866   0.02902   0.06632
   D29        0.00839  -0.00008   0.00111  -0.00492  -0.00381   0.00458
   D30        3.14115  -0.00002   0.00003  -0.00087  -0.00085   3.14029
   D31       -3.13325  -0.00002   0.00108  -0.00197  -0.00089  -3.13414
   D32       -0.00050   0.00004  -0.00001   0.00208   0.00207   0.00157
         Item               Value     Threshold  Converged?
 Maximum Force            0.005860     0.000450     NO 
 RMS     Force            0.000968     0.000300     NO 
 Maximum Displacement     0.049642     0.001800     NO 
 RMS     Displacement     0.014532     0.001200     NO 
 Predicted change in Energy=-1.749520D-04
 GradGradGradGradGradGradGradGradGradGradGradGradGradGradGradGradGradGrad

                          Input orientation:                          
 ---------------------------------------------------------------------
 Center     Atomic      Atomic             Coordinates (Angstroms)
 Number     Number       Type             X           Y           Z
 ---------------------------------------------------------------------
      1          6           0       -0.275628   -0.723617   -0.003456
      2          6           0        1.123765   -0.715010   -0.013489
      3          6           0        1.806895    0.502214   -0.027599
      4          6           0        1.125684    1.731656   -0.017673
      5          6           0       -0.277684    1.700907   -0.005740
      6          6           0       -0.977068    0.487799   -0.001400
      7          1           0       -0.810705   -1.667215    0.008099
      8          1           0        1.694952   -1.636036    0.003461
      9          1           0       -0.823857    2.639374    0.002885
     10          1           0       -2.062744    0.489295    0.009089
     11          8           0        3.221787    0.501018    0.033314
     12          1           0        3.623504    0.516606   -0.859478
     13          6           0        1.901338    3.027113   -0.010309
     14          1           0        2.609683    3.048852    0.825420
     15          1           0        2.492415    3.145610   -0.928046
     16          1           0        1.229170    3.886988    0.072671
 ---------------------------------------------------------------------
                    Distance matrix (angstroms):
                    1          2          3          4          5
     1  C    0.000000
     2  C    1.399456   0.000000
     3  C    2.416640   1.395887   0.000000
     4  C    2.827055   2.446670   1.405587   0.000000
     5  C    2.424526   2.792986   2.404748   1.403756   0.000000
     6  C    1.399840   2.420825   2.784124   2.443156   1.400281
     7  H    1.084813   2.156232   3.399931   3.911852   3.410066
     8  H    2.171576   1.083897   2.141404   3.415532   3.876412
     9  H    3.407389   3.878839   3.389578   2.150601   1.085864
    10  H    2.159884   3.406567   3.869835   3.422024   2.157467
    11  O    3.705806   2.425410   1.416203   2.431196   3.699670
    12  H    4.180210   2.912261   1.998073   2.902427   4.165417
    13  C    4.336728   3.822056   2.526724   1.509935   2.550879
    14  H    4.821160   4.132599   2.803119   2.155937   3.293125
    15  H    4.846426   4.196904   2.875463   2.167026   3.257494
    16  H    4.850556   4.604011   3.435188   2.159706   2.656259
                    6          7          8          9         10
     6  C    0.000000
     7  H    2.161447   0.000000
     8  H    3.413267   2.505856   0.000000
     9  H    2.157027   4.306612   4.962211   0.000000
    10  H    1.085728   2.493620   4.317099   2.481475   0.000000
    11  O    4.199019   4.578522   2.626617   4.576104   5.284600
    12  H    4.679999   5.018363   3.016263   5.002883   5.752266
    13  C    3.838413   5.421461   4.667735   2.752673   4.706893
    14  H    4.484129   5.882887   4.843607   3.554355   5.389741
    15  H    4.467655   5.911874   4.936375   3.481461   5.355717
    16  H    4.053080   5.917300   5.543063   2.403401   4.731286
                   11         12         13         14         15
    11  O    0.000000
    12  H    0.979130   0.000000
    13  C    2.850727   3.160631   0.000000
    14  H    2.737437   3.206086   1.095750   0.000000
    15  H    2.906899   2.862818   1.098023   1.760044   0.000000
    16  H    3.928977   4.238067   1.094569   1.781830   1.773940
                   16
    16  H    0.000000
 Symmetry turned off by external request.
 Stoichiometry    C7H8O
 Framework group  C1[X(C7H8O)]
 Deg. of freedom    42
 Full point group                 C1      NOp   1
 Rotational constants (GHZ):      3.2282089      2.1618471      1.3103129
 Standard basis: 6-31G (6D, 7F)
    88 basis functions,   208 primitive gaussians,    88 cartesian basis functions
    29 alpha electrons       29 beta electrons
       nuclear repulsion energy       345.5844441307 Hartrees.
 NAtoms=   16 NActive=   16 NUniq=   16 SFac= 1.00D+00 NAtFMM=   60 NAOKFM=F Big=F
 Integral buffers will be    131072 words long.
 Raffenetti 2 integral format.
 Two-electron integral symmetry is turned off.
 Nuclear repulsion after empirical dispersion term =      345.5744917500 Hartrees.
 One-electron integrals computed using PRISM.
 NBasis=    88 RedAO= T EigKep=  5.99D-04  NBF=    88
 NBsUse=    88 1.00D-06 EigRej= -1.00D+00 NBFU=    88
 Initial guess from the checkpoint file:  "E:\PROJECT- VIT group\ML\Substrates\molecule_8.chk"
 B after Tr=    -0.004516   -0.001526   -0.001672
         Rot=    0.999999    0.000514    0.000934    0.000116 Ang=   0.12 deg.
 ExpMin= 1.61D-01 ExpMax= 5.48D+03 ExpMxC= 8.25D+02 IAcc=1 IRadAn=         1 AccDes= 0.00D+00
 Harris functional with IExCor=  402 and IRadAn=       1 diagonalized for initial guess.
 HarFok:  IExCor=  402 AccDes= 0.00D+00 IRadAn=         1 IDoV= 1 UseB2=F ITyADJ=14
 ICtDFT=  3500011 ScaDFX=  1.000000  1.000000  1.000000  1.000000
 FoFCou: FMM=F IPFlag=           0 FMFlag=      100000 FMFlg1=           0
         NFxFlg=           0 DoJE=T BraDBF=F KetDBF=T FulRan=T
         wScrn=  0.000000 ICntrl=     500 IOpCl=  0 I1Cent=   200000004 NGrid=           0
         NMat0=    1 NMatS0=      1 NMatT0=    0 NMatD0=    1 NMtDS0=    0 NMtDT0=    0
 Symmetry not used in FoFCou.
 Keep R1 ints in memory in canonical form, NReq=8623422.
 Requested convergence on RMS density matrix=1.00D-08 within 128 cycles.
 Requested convergence on MAX density matrix=1.00D-06.
 Requested convergence on             energy=1.00D-06.
 No special actions if energy rises.
 Integral accuracy reduced to 1.0D-05 until final iterations.
 Initial convergence to 1.0D-05 achieved.  Increase integral accuracy.
 SCF Done:  E(RB3LYP) =  -346.701139153     A.U. after   11 cycles
            NFock= 11  Conv=0.68D-08     -V/T= 2.0057
 Calling FoFJK, ICntrl=      2127 FMM=F ISym2X=0 I1Cent= 0 IOpClX= 0 NMat=1 NMatS=1 NMatT=0.
 -------------------------------------------------------------------
 Center     Atomic                   Forces (Hartrees/Bohr)
 Number     Number              X              Y              Z
 -------------------------------------------------------------------
      1        6          -0.000017571    0.000290445    0.000080498
      2        6          -0.000549666    0.000491691    0.000097434
      3        6           0.000632635   -0.000277876    0.000355732
      4        6           0.000061338    0.000827868   -0.000044515
      5        6           0.000001205   -0.000659443   -0.000106024
      6        6          -0.000017504   -0.000106990   -0.000156946
      7        1          -0.000195434   -0.000210779   -0.000004179
      8        1           0.000331554   -0.000229700   -0.000049459
      9        1          -0.000149266    0.000254988    0.000041392
     10        1           0.000282502    0.000018862    0.000029871
     11        8          -0.000036184   -0.000546920   -0.000841028
     12        1          -0.000247548    0.000391356    0.000691590
     13        6          -0.000676358   -0.000772634    0.000337347
     14        1          -0.000019601    0.000231758   -0.000336311
     15        1           0.000059174    0.000400521    0.000005244
     16        1           0.000540722   -0.000103146   -0.000100645
 -------------------------------------------------------------------
 Cartesian Forces:  Max     0.000841028 RMS     0.000363805

 GradGradGradGradGradGradGradGradGradGradGradGradGradGradGradGradGradGrad
 Berny optimization.
 Using GEDIIS/GDIIS optimizer.
 FormGI is forming the generalized inverse of G from B-inverse, IUseBI=4.
 Internal  Forces:  Max     0.000728779 RMS     0.000201684
 Search for a local minimum.
 Step number   3 out of a maximum of   83
 All quantities printed in internal units (Hartrees-Bohrs-Radians)
 Mixed Optimization -- En-DIIS/RFO-DIIS
 Swapping is turned off.
 Update second derivatives using D2CorX and points    1    2    3
 DE= -2.02D-04 DEPred=-1.75D-04 R= 1.16D+00
 TightC=F SS=  1.41D+00  RLast= 9.43D-02 DXNew= 8.4853D-01 2.8296D-01
 Trust test= 1.16D+00 RLast= 9.43D-02 DXMaxT set to 5.05D-01
 ITU=  1  1  0
     Eigenvalues ---    0.00225   0.01212   0.01361   0.02066   0.02148
     Eigenvalues ---    0.02154   0.02155   0.02155   0.02156   0.02161
     Eigenvalues ---    0.02172   0.06854   0.06979   0.13364   0.15999
     Eigenvalues ---    0.16000   0.16000   0.16000   0.16000   0.16019
     Eigenvalues ---    0.16066   0.21955   0.22411   0.24087   0.24929
     Eigenvalues ---    0.24994   0.28250   0.33718   0.33745   0.34227
     Eigenvalues ---    0.37018   0.37230   0.37287   0.38901   0.40608
     Eigenvalues ---    0.42304   0.42460   0.46237   0.46453   0.46496
     Eigenvalues ---    0.47425   0.56651
 En-DIIS/RFO-DIIS IScMMF=        0 using points:     3    2
 RFO step:  Lambda=-8.47491756D-06.
 DidBck=F Rises=F RFO-DIIS coefs:    1.16176   -0.16176
 Iteration  1 RMS(Cart)=  0.01184265 RMS(Int)=  0.00015225
 Iteration  2 RMS(Cart)=  0.00015210 RMS(Int)=  0.00000435
 Iteration  3 RMS(Cart)=  0.00000002 RMS(Int)=  0.00000435
 Variable       Old X    -DE/DX   Delta X   Delta X   Delta X     New X
                                 (Linear)    (Quad)   (Total)
    R1        2.64459  -0.00002   0.00001   0.00003   0.00004   2.64463
    R2        2.64531  -0.00031  -0.00011  -0.00065  -0.00076   2.64455
    R3        2.05000   0.00028  -0.00008   0.00063   0.00055   2.05055
    R4        2.63784   0.00000  -0.00031   0.00020  -0.00011   2.63774
    R5        2.04827   0.00037  -0.00023   0.00098   0.00076   2.04902
    R6        2.65617   0.00035   0.00086   0.00075   0.00161   2.65778
    R7        2.67624  -0.00029  -0.00089  -0.00071  -0.00160   2.67463
    R8        2.65271   0.00012   0.00004   0.00051   0.00055   2.65326
    R9        2.85336  -0.00026  -0.00392   0.00010  -0.00382   2.84955
   R10        2.64615  -0.00014  -0.00058   0.00003  -0.00055   2.64560
   R11        2.05199   0.00030   0.00019   0.00058   0.00077   2.05275
   R12        2.05173  -0.00028   0.00004  -0.00051  -0.00047   2.05126
   R13        1.85029  -0.00073   0.00058  -0.00133  -0.00074   1.84955
   R14        2.07067  -0.00027   0.00067  -0.00052   0.00015   2.07082
   R15        2.07496   0.00007   0.00089   0.00047   0.00136   2.07632
   R16        2.06843  -0.00042   0.00059  -0.00098  -0.00039   2.06804
    A1        2.08950  -0.00012  -0.00042  -0.00065  -0.00108   2.08842
    A2        2.09283   0.00013   0.00015   0.00079   0.00094   2.09378
    A3        2.10084  -0.00001   0.00027  -0.00013   0.00014   2.10098
    A4        2.08840   0.00021  -0.00013   0.00105   0.00092   2.08932
    A5        2.11954   0.00006   0.00120   0.00042   0.00162   2.12116
    A6        2.07515  -0.00027  -0.00107  -0.00145  -0.00252   2.07262
    A7        2.12407  -0.00012   0.00066  -0.00032   0.00034   2.12441
    A8        2.08032  -0.00001  -0.00057   0.00004  -0.00053   2.07979
    A9        2.07674   0.00014  -0.00020   0.00054   0.00033   2.07707
   A10        2.05490  -0.00025  -0.00097  -0.00107  -0.00204   2.05286
   A11        2.09614   0.00006   0.00018   0.00017   0.00035   2.09649
   A12        2.13212   0.00019   0.00080   0.00092   0.00171   2.13383
   A13        2.11569   0.00018   0.00028   0.00101   0.00129   2.11697
   A14        2.07600  -0.00009  -0.00037  -0.00049  -0.00086   2.07514
   A15        2.09150  -0.00009   0.00009  -0.00052  -0.00043   2.09107
   A16        2.09375   0.00009   0.00059  -0.00001   0.00058   2.09434
   A17        2.09702  -0.00003   0.00012  -0.00003   0.00009   2.09711
   A18        2.09240  -0.00007  -0.00071   0.00003  -0.00068   2.09172
   A19        1.95052   0.00011   0.00181   0.00041   0.00222   1.95275
   A20        1.93138   0.00029   0.00113   0.00209   0.00321   1.93459
   A21        1.94448   0.00037   0.00149   0.00215   0.00363   1.94810
   A22        1.93789   0.00035   0.00184   0.00195   0.00378   1.94167
   A23        1.86225  -0.00033  -0.00238  -0.00173  -0.00412   1.85812
   A24        1.90030  -0.00029  -0.00073  -0.00150  -0.00225   1.89805
   A25        1.88510  -0.00045  -0.00157  -0.00330  -0.00489   1.88022
    D1       -0.00515   0.00003  -0.00049   0.00192   0.00144  -0.00371
    D2        3.12128   0.00005  -0.00066   0.00295   0.00229   3.12357
    D3       -3.14098   0.00000  -0.00008   0.00008  -0.00001  -3.14098
    D4       -0.01455   0.00002  -0.00026   0.00110   0.00085  -0.01370
    D5       -0.00299  -0.00003   0.00076  -0.00191  -0.00115  -0.00414
    D6       -3.13869   0.00000   0.00028  -0.00026   0.00002  -3.13867
    D7        3.13281   0.00000   0.00035  -0.00005   0.00030   3.13311
    D8       -0.00289   0.00003  -0.00012   0.00160   0.00148  -0.00141
    D9        0.01205  -0.00003   0.00007  -0.00119  -0.00112   0.01093
   D10        3.08415   0.00006  -0.00183   0.00312   0.00129   3.08544
   D11       -3.11477  -0.00005   0.00022  -0.00220  -0.00198  -3.11675
   D12       -0.04267   0.00004  -0.00168   0.00211   0.00043  -0.04224
   D13       -0.01035   0.00002   0.00008   0.00042   0.00050  -0.00986
   D14        3.12381   0.00006  -0.00017   0.00387   0.00370   3.12751
   D15       -3.08259  -0.00006   0.00199  -0.00387  -0.00188  -3.08447
   D16        0.05157  -0.00002   0.00175  -0.00041   0.00133   0.05290
   D17        1.62396   0.00031   0.00346   0.02751   0.03097   1.65494
   D18       -1.58522   0.00038   0.00164   0.03167   0.03332  -1.55190
   D19        0.00198  -0.00001   0.00020  -0.00039  -0.00019   0.00179
   D20        3.14073  -0.00001  -0.00027   0.00005  -0.00023   3.14050
   D21       -3.13201  -0.00006   0.00045  -0.00392  -0.00347  -3.13548
   D22        0.00673  -0.00005  -0.00002  -0.00348  -0.00350   0.00323
   D23       -0.95512   0.00005   0.00601   0.02101   0.02703  -0.92809
   D24        1.11371   0.00006   0.00471   0.02159   0.02630   1.14001
   D25       -3.06750  -0.00002   0.00495   0.02019   0.02514  -3.04236
   D26        2.17870   0.00009   0.00575   0.02462   0.03037   2.20907
   D27       -2.03565   0.00011   0.00446   0.02519   0.02965  -2.00601
   D28        0.06632   0.00002   0.00469   0.02379   0.02848   0.09481
   D29        0.00458   0.00002  -0.00062   0.00115   0.00053   0.00511
   D30        3.14029  -0.00001  -0.00014  -0.00050  -0.00064   3.13966
   D31       -3.13414   0.00001  -0.00014   0.00071   0.00057  -3.13357
   D32        0.00157  -0.00001   0.00033  -0.00094  -0.00060   0.00097
         Item               Value     Threshold  Converged?
 Maximum Force            0.000729     0.000450     NO 
 RMS     Force            0.000202     0.000300     YES
 Maximum Displacement     0.043099     0.001800     NO 
 RMS     Displacement     0.011859     0.001200     NO 
 Predicted change in Energy=-2.350723D-05
 GradGradGradGradGradGradGradGradGradGradGradGradGradGradGradGradGradGrad

                          Input orientation:                          
 ---------------------------------------------------------------------
 Center     Atomic      Atomic             Coordinates (Angstroms)
 Number     Number       Type             X           Y           Z
 ---------------------------------------------------------------------
      1          6           0       -0.277958   -0.725103   -0.003167
      2          6           0        1.121478   -0.716794   -0.010075
      3          6           0        1.805984    0.499606   -0.022925
      4          6           0        1.126126    1.730791   -0.016137
      5          6           0       -0.277543    1.699224   -0.008082
      6          6           0       -0.977642    0.486864   -0.004698
      7          1           0       -0.814293   -1.668334    0.007396
      8          1           0        1.694129   -1.637369    0.007541
      9          1           0       -0.823683    2.638199   -0.001704
     10          1           0       -2.063088    0.489868    0.003369
     11          8           0        3.219955    0.496024    0.039552
     12          1           0        3.624558    0.539413   -0.850583
     13          6           0        1.902149    3.023687   -0.012125
     14          1           0        2.630820    3.038554    0.806206
     15          1           0        2.474249    3.155297   -0.940893
     16          1           0        1.236266    3.885629    0.094073
 ---------------------------------------------------------------------
                    Distance matrix (angstroms):
                    1          2          3          4          5
     1  C    0.000000
     2  C    1.399478   0.000000
     3  C    2.417254   1.395830   0.000000
     4  C    2.828964   2.447597   1.406438   0.000000
     5  C    2.424332   2.791846   2.404243   1.404047   0.000000
     6  C    1.399437   2.419737   2.783715   2.444039   1.399989
     7  H    1.085104   2.157069   3.400990   3.914056   3.410101
     8  H    2.172895   1.084296   2.140118   3.415801   3.875640
     9  H    3.407289   3.878105   3.389569   2.150663   1.086271
    10  H    2.159372   3.405536   3.869173   3.422186   2.156582
    11  O    3.705182   2.424251   1.415355   2.431434   3.698979
    12  H    4.188884   2.924024   1.998454   2.890995   4.157086
    13  C    4.336632   3.821079   2.525935   1.507915   2.550544
    14  H    4.825059   4.128809   2.795366   2.156524   3.303853
    15  H    4.848864   4.205889   2.888242   2.168370   3.250022
    16  H    4.853987   4.605032   3.435610   2.160464   2.661282
                    6          7          8          9         10
     6  C    0.000000
     7  H    2.161413   0.000000
     8  H    3.413338   2.508612   0.000000
     9  H    2.156839   4.306553   4.961849   0.000000
    10  H    1.085480   2.493460   4.317619   2.480217   0.000000
    11  O    4.197840   4.578278   2.623078   4.576202   5.283170
    12  H    4.679587   5.031270   3.033367   4.991228   5.751610
    13  C    3.837803   5.421670   4.665737   2.752975   4.705698
    14  H    4.493294   5.887418   4.835237   3.570237   5.401215
    15  H    4.462349   5.914489   4.947501   3.467828   5.346361
    16  H    4.057432   5.921048   5.542620   2.410113   4.735521
                   11         12         13         14         15
    11  O    0.000000
    12  H    0.978738   0.000000
    13  C    2.851028   3.137088   0.000000
    14  H    2.720165   3.158825   1.095832   0.000000
    15  H    2.930713   2.859059   1.098740   1.757982   0.000000
    16  H    3.927775   4.218232   1.094360   1.780295   1.771199
                   16
    16  H    0.000000
 Symmetry turned off by external request.
 Stoichiometry    C7H8O
 Framework group  C1[X(C7H8O)]
 Deg. of freedom    42
 Full point group                 C1      NOp   1
 Rotational constants (GHZ):      3.2302110      2.1615189      1.3104669
 Standard basis: 6-31G (6D, 7F)
    88 basis functions,   208 primitive gaussians,    88 cartesian basis functions
    29 alpha electrons       29 beta electrons
       nuclear repulsion energy       345.6162056351 Hartrees.
 NAtoms=   16 NActive=   16 NUniq=   16 SFac= 1.00D+00 NAtFMM=   60 NAOKFM=F Big=F
 Integral buffers will be    131072 words long.
 Raffenetti 2 integral format.
 Two-electron integral symmetry is turned off.
 Nuclear repulsion after empirical dispersion term =      345.6062454640 Hartrees.
 One-electron integrals computed using PRISM.
 NBasis=    88 RedAO= T EigKep=  5.99D-04  NBF=    88
 NBsUse=    88 1.00D-06 EigRej= -1.00D+00 NBFU=    88
 Initial guess from the checkpoint file:  "E:\PROJECT- VIT group\ML\Substrates\molecule_8.chk"
 B after Tr=    -0.002156   -0.002090    0.000509
         Rot=    1.000000    0.000452    0.000713    0.000280 Ang=   0.10 deg.
 ExpMin= 1.61D-01 ExpMax= 5.48D+03 ExpMxC= 8.25D+02 IAcc=1 IRadAn=         1 AccDes= 0.00D+00
 Harris functional with IExCor=  402 and IRadAn=       1 diagonalized for initial guess.
 HarFok:  IExCor=  402 AccDes= 0.00D+00 IRadAn=         1 IDoV= 1 UseB2=F ITyADJ=14
 ICtDFT=  3500011 ScaDFX=  1.000000  1.000000  1.000000  1.000000
 FoFCou: FMM=F IPFlag=           0 FMFlag=      100000 FMFlg1=           0
         NFxFlg=           0 DoJE=T BraDBF=F KetDBF=T FulRan=T
         wScrn=  0.000000 ICntrl=     500 IOpCl=  0 I1Cent=   200000004 NGrid=           0
         NMat0=    1 NMatS0=      1 NMatT0=    0 NMatD0=    1 NMtDS0=    0 NMtDT0=    0
 Symmetry not used in FoFCou.
 Keep R1 ints in memory in canonical form, NReq=8623422.
 Requested convergence on RMS density matrix=1.00D-08 within 128 cycles.
 Requested convergence on MAX density matrix=1.00D-06.
 Requested convergence on             energy=1.00D-06.
 No special actions if energy rises.
 Integral accuracy reduced to 1.0D-05 until final iterations.
 Initial convergence to 1.0D-05 achieved.  Increase integral accuracy.
 SCF Done:  E(RB3LYP) =  -346.701181105     A.U. after   11 cycles
            NFock= 11  Conv=0.60D-08     -V/T= 2.0057
 Calling FoFJK, ICntrl=      2127 FMM=F ISym2X=0 I1Cent= 0 IOpClX= 0 NMat=1 NMatS=1 NMatT=0.
 -------------------------------------------------------------------
 Center     Atomic                   Forces (Hartrees/Bohr)
 Number     Number              X              Y              Z
 -------------------------------------------------------------------
      1        6           0.000194946    0.000059916    0.000011073
      2        6          -0.000066584    0.000112188    0.000238075
      3        6           0.000185705    0.000544369    0.000036836
      4        6          -0.000541166   -0.000705216   -0.000229441
      5        6           0.000188751    0.000210895   -0.000110663
      6        6          -0.000201802   -0.000021799   -0.000003145
      7        1          -0.000024892   -0.000049187    0.000002096
      8        1           0.000035067   -0.000079613   -0.000019441
      9        1          -0.000053171    0.000038627    0.000031850
     10        1           0.000103672    0.000003868    0.000004797
     11        8           0.000298105   -0.001056848   -0.000337265
     12        1          -0.000255114    0.000623805    0.000373469
     13        6           0.000548636    0.000687060    0.000244551
     14        1          -0.000259200   -0.000123162   -0.000136876
     15        1          -0.000225933   -0.000031583   -0.000060348
     16        1           0.000072980   -0.000213321   -0.000045569
 -------------------------------------------------------------------
 Cartesian Forces:  Max     0.001056848 RMS     0.000303001

 GradGradGradGradGradGradGradGradGradGradGradGradGradGradGradGradGradGrad
 Berny optimization.
 Using GEDIIS/GDIIS optimizer.
 FormGI is forming the generalized inverse of G from B-inverse, IUseBI=4.
 Internal  Forces:  Max     0.000553052 RMS     0.000151137
 Search for a local minimum.
 Step number   4 out of a maximum of   83
 All quantities printed in internal units (Hartrees-Bohrs-Radians)
 Mixed Optimization -- En-DIIS/RFO-DIIS
 Swapping is turned off.
 Update second derivatives using D2CorX and points    1    2    3    4
 DE= -4.20D-05 DEPred=-2.35D-05 R= 1.78D+00
 TightC=F SS=  1.41D+00  RLast= 8.33D-02 DXNew= 8.4853D-01 2.4986D-01
 Trust test= 1.78D+00 RLast= 8.33D-02 DXMaxT set to 5.05D-01
 ITU=  1  1  1  0
     Eigenvalues ---    0.00046   0.00538   0.01382   0.02072   0.02154
     Eigenvalues ---    0.02154   0.02155   0.02156   0.02157   0.02162
     Eigenvalues ---    0.02199   0.06805   0.07001   0.15925   0.15996
     Eigenvalues ---    0.15999   0.16000   0.16000   0.16000   0.16034
     Eigenvalues ---    0.19545   0.22194   0.23047   0.24303   0.24941
     Eigenvalues ---    0.27722   0.32131   0.33717   0.33753   0.36227
     Eigenvalues ---    0.37138   0.37196   0.37573   0.38802   0.41266
     Eigenvalues ---    0.42360   0.45963   0.46234   0.46465   0.47666
     Eigenvalues ---    0.53680   0.60699
 En-DIIS/RFO-DIIS IScMMF=        0 using points:     4    3    2
 RFO step:  Lambda=-1.58180297D-05.
 DidBck=F Rises=F RFO-DIIS coefs:    1.08695    0.64079   -0.72774
 Iteration  1 RMS(Cart)=  0.05358844 RMS(Int)=  0.00318719
 Iteration  2 RMS(Cart)=  0.00319318 RMS(Int)=  0.00005339
 Iteration  3 RMS(Cart)=  0.00001020 RMS(Int)=  0.00005292
 Iteration  4 RMS(Cart)=  0.00000000 RMS(Int)=  0.00005292
 Variable       Old X    -DE/DX   Delta X   Delta X   Delta X     New X
                                 (Linear)    (Quad)   (Total)
    R1        2.64463  -0.00008   0.00004   0.00002   0.00006   2.64469
    R2        2.64455   0.00005  -0.00058  -0.00256  -0.00314   2.64141
    R3        2.05055   0.00006  -0.00032   0.00263   0.00231   2.05286
    R4        2.63774  -0.00006  -0.00139   0.00058  -0.00082   2.63692
    R5        2.04902   0.00009  -0.00095   0.00400   0.00305   2.05207
    R6        2.65778  -0.00001   0.00402   0.00319   0.00722   2.66500
    R7        2.67463   0.00005  -0.00413  -0.00300  -0.00714   2.66750
    R8        2.65326  -0.00014   0.00025   0.00179   0.00205   2.65531
    R9        2.84955   0.00034  -0.01795  -0.00035  -0.01830   2.83124
   R10        2.64560   0.00002  -0.00266  -0.00012  -0.00278   2.64282
   R11        2.05275   0.00006   0.00091   0.00254   0.00345   2.05621
   R12        2.05126  -0.00010   0.00015  -0.00223  -0.00209   2.04917
   R13        1.84955  -0.00042   0.00257  -0.00549  -0.00292   1.84662
   R14        2.07082  -0.00028   0.00304  -0.00232   0.00072   2.07154
   R15        2.07632  -0.00007   0.00411   0.00191   0.00602   2.08233
   R16        2.06804  -0.00022   0.00262  -0.00409  -0.00147   2.06657
    A1        2.08842   0.00007  -0.00200  -0.00255  -0.00457   2.08384
    A2        2.09378  -0.00004   0.00075   0.00308   0.00383   2.09761
    A3        2.10098  -0.00003   0.00124  -0.00050   0.00075   2.10173
    A4        2.08932   0.00004  -0.00050   0.00414   0.00363   2.09295
    A5        2.12116  -0.00003   0.00554   0.00196   0.00750   2.12866
    A6        2.07262  -0.00001  -0.00505  -0.00605  -0.01110   2.06153
    A7        2.12441  -0.00017   0.00302  -0.00147   0.00155   2.12596
    A8        2.07979  -0.00028  -0.00259  -0.00060  -0.00321   2.07658
    A9        2.07707   0.00045  -0.00088   0.00300   0.00210   2.07916
   A10        2.05286   0.00022  -0.00456  -0.00398  -0.00854   2.04432
   A11        2.09649  -0.00004   0.00082   0.00065   0.00143   2.09792
   A12        2.13383  -0.00019   0.00373   0.00338   0.00708   2.14091
   A13        2.11697  -0.00010   0.00135   0.00379   0.00516   2.12213
   A14        2.07514   0.00008  -0.00172  -0.00183  -0.00355   2.07158
   A15        2.09107   0.00002   0.00036  -0.00196  -0.00161   2.08946
   A16        2.09434  -0.00007   0.00270   0.00008   0.00278   2.09712
   A17        2.09711   0.00004   0.00055   0.00001   0.00055   2.09766
   A18        2.09172   0.00003  -0.00324  -0.00012  -0.00337   2.08835
   A19        1.95275  -0.00016   0.00836   0.00167   0.01002   1.96277
   A20        1.93459  -0.00014   0.00537   0.00826   0.01345   1.94804
   A21        1.94810  -0.00013   0.00701   0.00846   0.01535   1.96345
   A22        1.94167  -0.00007   0.00863   0.00789   0.01631   1.95798
   A23        1.85812   0.00022  -0.01108  -0.00662  -0.01779   1.84033
   A24        1.89805   0.00011  -0.00346  -0.00584  -0.00954   1.88851
   A25        1.88022   0.00003  -0.00751  -0.01367  -0.02132   1.85890
    D1       -0.00371   0.00001  -0.00207   0.00758   0.00550   0.00179
    D2        3.12357   0.00002  -0.00277   0.01162   0.00886   3.13243
    D3       -3.14098   0.00000  -0.00038   0.00038   0.00000  -3.14098
    D4       -0.01370   0.00001  -0.00108   0.00443   0.00335  -0.01035
    D5       -0.00414   0.00000   0.00331  -0.00723  -0.00391  -0.00805
    D6       -3.13867   0.00000   0.00127  -0.00088   0.00040  -3.13827
    D7        3.13311   0.00000   0.00161   0.00000   0.00162   3.13473
    D8       -0.00141   0.00001  -0.00043   0.00635   0.00592   0.00451
    D9        0.01093  -0.00001   0.00023  -0.00485  -0.00465   0.00629
   D10        3.08544   0.00002  -0.00812   0.01168   0.00352   3.08897
   D11       -3.11675  -0.00002   0.00082  -0.00885  -0.00802  -3.12477
   D12       -0.04224   0.00001  -0.00753   0.00768   0.00015  -0.04209
   D13       -0.00986   0.00000   0.00039   0.00169   0.00210  -0.00776
   D14        3.12751   0.00001  -0.00042   0.01537   0.01490  -3.14077
   D15       -3.08447   0.00000   0.00878  -0.01468  -0.00589  -3.09035
   D16        0.05290   0.00000   0.00797  -0.00100   0.00692   0.05982
   D17        1.65494   0.00055   0.01828   0.13092   0.14920   1.80413
   D18       -1.55190   0.00055   0.01029   0.14683   0.15713  -1.39477
   D19        0.00179   0.00001   0.00087  -0.00128  -0.00043   0.00136
   D20        3.14050  -0.00001  -0.00125  -0.00017  -0.00142   3.13908
   D21       -3.13548   0.00000   0.00171  -0.01526  -0.01356   3.13414
   D22        0.00323  -0.00002  -0.00041  -0.01415  -0.01455  -0.01132
   D23       -0.92809   0.00000   0.02938   0.09204   0.12146  -0.80664
   D24        1.14001   0.00010   0.02350   0.09466   0.11811   1.25812
   D25       -3.04236   0.00000   0.02447   0.08845   0.11285  -2.92951
   D26        2.20907   0.00000   0.02851   0.10636   0.13495   2.34402
   D27       -2.00601   0.00011   0.02262   0.10897   0.13160  -1.87440
   D28        0.09481   0.00001   0.02360   0.10276   0.12635   0.22115
   D29        0.00511  -0.00001  -0.00273   0.00411   0.00139   0.00650
   D30        3.13966  -0.00001  -0.00068  -0.00222  -0.00288   3.13677
   D31       -3.13357   0.00001  -0.00060   0.00299   0.00239  -3.13118
   D32        0.00097   0.00001   0.00145  -0.00333  -0.00188  -0.00091
         Item               Value     Threshold  Converged?
 Maximum Force            0.000553     0.000450     NO 
 RMS     Force            0.000151     0.000300     YES
 Maximum Displacement     0.201998     0.001800     NO 
 RMS     Displacement     0.053931     0.001200     NO 
 Predicted change in Energy=-1.013593D-04
 GradGradGradGradGradGradGradGradGradGradGradGradGradGradGradGradGradGrad

                          Input orientation:                          
 ---------------------------------------------------------------------
 Center     Atomic      Atomic             Coordinates (Angstroms)
 Number     Number       Type             X           Y           Z
 ---------------------------------------------------------------------
      1          6           0       -0.288190   -0.731324   -0.002184
      2          6           0        1.111294   -0.724910    0.003171
      3          6           0        1.801735    0.487673   -0.005143
      4          6           0        1.128068    1.726607   -0.011438
      5          6           0       -0.276621    1.692152   -0.018696
[...]
 ! D7    D(7,1,6,5)            179.9908         -DE/DX =    0.0                 !
 ! D8    D(7,1,6,10)            -0.0014         -DE/DX =    0.0                 !
 ! D9    D(1,2,3,4)             -0.009          -DE/DX =    0.0                 !
 ! D10   D(1,2,3,11)           179.9895         -DE/DX =    0.0                 !
 ! D11   D(8,2,3,4)           -180.0028         -DE/DX =    0.0                 !
 ! D12   D(8,2,3,11)            -0.0044         -DE/DX =    0.0                 !
 ! D13   D(2,3,4,5)              0.0188         -DE/DX =    0.0                 !
 ! D14   D(2,3,4,13)           179.9922         -DE/DX =    0.0                 !
 ! D15   D(11,3,4,5)          -179.9796         -DE/DX =    0.0                 !
 ! D16   D(11,3,4,13)           -0.0062         -DE/DX =    0.0                 !
 ! D17   D(2,3,11,12)          180.0035         -DE/DX =    0.0                 !
 ! D18   D(4,3,11,12)            0.0019         -DE/DX =    0.0                 !
 ! D19   D(3,4,5,6)             -0.0244         -DE/DX =    0.0                 !
 ! D20   D(3,4,5,9)            179.9659         -DE/DX =    0.0                 !
 ! D21   D(13,4,5,6)          -179.9975         -DE/DX =    0.0                 !
 ! D22   D(13,4,5,9)            -0.0072         -DE/DX =    0.0                 !
 ! D23   D(3,4,13,14)          -60.3544         -DE/DX =    0.0                 !
 ! D24   D(3,4,13,15)           60.6827         -DE/DX =    0.0                 !
 ! D25   D(3,4,13,16)         -179.8269         -DE/DX =    0.0                 !
 ! D26   D(5,4,13,14)          119.618          -DE/DX =    0.0                 !
 ! D27   D(5,4,13,15)         -119.3449         -DE/DX =    0.0                 !
 ! D28   D(5,4,13,16)            0.1455         -DE/DX =    0.0                 !
 ! D29   D(4,5,6,1)              0.0202         -DE/DX =    0.0                 !
 ! D30   D(4,5,6,10)          -179.9875         -DE/DX =    0.0                 !
 ! D31   D(9,5,6,1)           -179.97           -DE/DX =    0.0                 !
 ! D32   D(9,5,6,10)             0.0223         -DE/DX =    0.0                 !
 --------------------------------------------------------------------------------
 GradGradGradGradGradGradGradGradGradGradGradGradGradGradGradGradGradGrad

 1|1|UNPC-LAPTOP-H4OM2LBP|Freq|RB3LYP|6-31G|C7H8O1|SREEKALA P NAIR|14-S
 ep-2023|0||#N Geom=AllCheck Guess=TCheck SCRF=Check GenChk RB3LYP/6-31
 G Freq||molecule_28||0,1|C,-0.3120707102,-0.7393527291,0.0056360441|C,
 1.0810790802,-0.7684703548,-0.0821666134|C,1.79938126,0.4301342299,-0.
 1152031288|C,1.1467991796,1.6772793555,-0.0618292525|C,-0.2541525296,1
 .6786537883,0.0264019142|C,-0.9860895644,0.4874050252,0.0602520025|H,-
 0.8682335217,-1.670843497,0.0312417946|H,1.6321218518,-1.7004470699,-0
 .1260717519|H,-0.772458935,2.6326179983,0.069001912|H,-2.0683970315,0.
 516490888,0.1284975715|O,3.1878512578,0.3125125839,-0.2033730737|H,3.6
 308859392,1.1808183501,-0.2224059241|C,1.9406403369,2.963896131,-0.098
 5420871|H,2.640705228,3.0410306438,0.7464495836|H,2.5256781356,3.06188
 29161,-1.0248969509|H,1.2777665533,3.8319480606,-0.0452450804||Version
 =EM64W-G09RevD.01|HF=-346.7064183|RMSD=2.645e-009|RMSF=1.629e-005|Zero
 Point=0.1334251|Thermal=0.140508|Dipole=-0.0131478,0.7521802,0.0084907
 |DipoleDeriv=0.0928554,-0.045276,-0.0145482,0.0637956,0.15459,-0.00111
 45,-0.0133581,0.0058013,-0.130742,-0.1926555,-0.0034262,0.0024563,-0.2
 053184,0.0305759,0.0146775,0.0003276,0.00197,-0.1532949,1.2209006,-0.0
 01206,-0.0674776,-0.0525062,-0.0104292,0.0017116,-0.0678343,-0.001386,
 0.1479643,-0.193542,0.035534,0.0085768,0.274112,0.1061772,-0.015568,0.
 010854,-0.0007809,-0.0621931,0.084852,0.0321676,-0.0136737,-0.07143,0.
 109143,0.0069986,-0.0147499,0.000645,-0.1369026,0.0520212,-0.0158687,-
 0.013019,-0.0276169,-0.2206256,0.001081,-0.0131326,0.0002901,-0.151745
 5,0.0162048,-0.0873635,0.0061006,-0.0889333,-0.0776928,0.0035189,0.006
 0752,0.0034124,0.1270289,0.0352567,0.0693348,0.0076107,0.0616564,-0.03
 39566,-0.0056794,0.0075182,-0.0061399,0.1449713,0.0318172,0.0629132,0.
 0061242,0.0867955,-0.0971078,-0.0076997,0.006491,-0.0063386,0.1193721,
 -0.1318304,-0.0036052,0.016772,0.0057853,0.0579891,-0.0011632,0.016844
 3,-0.0005971,0.1347079,-1.3698496,0.0385761,0.0548779,0.0796658,-0.149
 1969,-0.0014888,0.05523,0.0010554,-0.5041114,0.3783785,-0.037468,-0.00
 09187,-0.0866649,0.1117679,0.0027751,-0.0014857,-0.000178,0.3720919,0.
 0402977,-0.0167366,0.0051439,-0.017803,0.0377182,0.0000697,0.0053943,0
 .0003174,0.1227571,-0.0496457,-0.0842686,-0.1144123,-0.0264812,0.01783
 88,0.0181366,-0.1048463,-0.0219452,-0.0489512,-0.0215342,-0.0833696,0.
 1088792,-0.0313057,0.017204,-0.0121204,0.1004932,0.0346602,-0.07646,0.
 0064733,0.1400628,0.0075081,0.0362492,-0.0539953,-0.0041348,0.006179,-
 0.0107861,0.0955072|Polar=90.6643938,6.2772139,87.9064216,-3.7512463,0
 .1862528,30.1936346|PG=C01 [X(C7H8O1)]|NImag=0||0.70197215,0.03570719,
 0.73384288,-0.03482128,0.00371297,0.14268525,-0.35306750,-0.02404851,0
 .01797989,0.73150643,0.03340009,-0.13055443,-0.00279616,-0.03711044,0.
 73155062,0.01851666,0.00085395,-0.06265656,-0.03784780,0.00831066,0.13
 514001,-0.03422740,-0.03140371,0.00199540,-0.16376833,-0.11963907,0.00
 476355,0.66826256,-0.07589765,0.03920472,0.00513867,-0.04959255,-0.293
 42694,0.00085259,0.03524820,0.72084425,0.00152497,0.00233721,0.0024594
 7,0.00546944,0.00524451,-0.06848978,-0.03194935,0.00350282,0.15545037,
 -0.04553558,0.03153827,0.00294186,0.05800980,0.01558994,-0.00308175,-0
 .15336673,0.02786250,0.00558191,0.68910057,0.02784297,-0.01847038,-0.0
 0190129,-0.02133310,-0.05100077,0.00076313,0.09802191,-0.26883333,-0.0
 0814402,-0.00258364,0.64391631,0.00290185,-0.00213159,-0.00427822,-0.0
 0346344,-0.00155959,0.00674707,0.00623937,-0.00373856,-0.06969858,-0.0
 3291375,0.00500402,0.16534068,0.05923830,-0.02343813,-0.00345959,-0.04
 689038,-0.02443786,0.00244334,-0.02886838,0.07906495,0.00276924,-0.327
 42118,-0.02919790,0.01625914,0.68366344,0.01908637,-0.06252787,-0.0019
 2545,-0.02844999,-0.01775227,0.00165710,0.03581023,0.03365143,-0.00189
 881,0.03444764,-0.12642753,-0.00282914,-0.01916044,0.74292767,-0.00300
 506,0.00074916,0.00855427,0.00238841,0.00140874,-0.00443863,0.00235590
 ,-0.00464630,0.00237511,0.01690817,0.00117435,-0.06323314,-0.03431734,
 0.00740996,0.14211163,-0.17688735,0.11740604,0.00820250,-0.02945653,0.
 03275142,0.00272641,0.00303498,-0.00220667,-0.00050940,-0.03278710,-0.
 02857832,0.00219673,-0.18758244,-0.12518890,0.00640307,0.75551683,0.05
 880112,-0.28994892,-0.00592530,0.07213127,0.02882826,-0.00432951,-0.00
 262486,-0.07271935,-0.00052869,-0.06969651,0.03390133,0.00464653,-0.06
 612460,-0.28412768,0.00189705,-0.00110959,0.67471278,0.00765525,-0.009
 66584,-0.06552677,0.00310645,-0.00182502,0.00827452,-0.00051001,-0.000
 55838,-0.00442885,0.00177006,0.00207455,0.00660466,0.00701513,0.005638
 96,-0.06512101,-0.03900061,0.00554621,0.13638178,-0.13457237,-0.123791
 52,0.00482605,-0.01257171,-0.03013663,0.00069201,-0.00401305,0.0021632
 5,0.00076485,-0.00071484,0.00075898,0.00000999,-0.00090441,0.00302536,
 0.00051528,0.01135845,0.01642748,-0.00033687,0.14081437,-0.12418573,-0
 .26840733,0.00549609,0.00434799,0.00401574,-0.00026344,0.00159260,0.00
 146237,-0.00016549,0.00080376,0.00041720,-0.00003889,0.00406908,-0.002
 76208,-0.00035242,-0.01818535,-0.01875849,0.00092198,0.13248228,0.2833
 5296,0.00482697,0.00548051,-0.03842297,0.00102264,0.00189647,0.0031256
 4,0.00076301,-0.00020074,0.00779503,0.00000825,-0.00003571,-0.00067501
 ,0.00052595,-0.00028537,0.00677586,-0.00068277,-0.00125485,0.00334761,
 -0.00586383,-0.00575302,0.02685496,-0.01012387,0.02946242,0.00109516,-
 0.13143812,0.12584570,0.00725051,0.01019247,-0.01734538,-0.00050411,-0
 .00186584,-0.00253577,0.00046330,-0.00060861,-0.00087710,-0.00000151,-
 0.00490522,-0.00177989,0.00072793,0.00075403,-0.00041566,-0.00032052,0
 .13651259,-0.00375414,0.00460433,0.00025417,0.12303177,-0.27501558,-0.
 01010947,0.01894270,-0.02112067,-0.00144340,-0.00398848,-0.00215701,0.
 00016929,-0.00121846,0.00031124,0.00008476,-0.00095491,0.00172056,0.00
 000919,0.00052479,0.00085517,0.00001877,-0.13374143,0.28978748,0.00075
 243,-0.00182661,0.00249905,0.00723095,-0.01028913,-0.03683071,-0.00014
 362,0.00082764,0.00482785,0.00045398,0.00007434,0.00591039,-0.00000673
 ,0.00005986,-0.00049036,0.00074084,0.00005934,0.00695915,-0.00031283,0
 .00007676,-0.00425138,-0.00833232,0.01103192,0.02609247,-0.00123157,-0
 .00311834,0.00046752,-0.00074528,-0.00067207,-0.00000063,-0.00448774,-
 0.00204350,0.00068833,-0.01310328,0.02946673,0.00137305,-0.12289929,0.
 11628198,0.00665054,0.01115384,-0.01779353,-0.00067424,0.00039899,-0.0
 0078782,-0.00001431,0.00009613,0.00010199,-0.00005956,0.13050917,-0.00
 422295,-0.00248465,0.00017044,-0.00073058,0.00062162,0.00005874,-0.001
 16100,0.00146433,0.00001817,-0.00355588,0.00007634,0.00019006,0.117374
 29,-0.27340323,-0.00984767,0.01682816,-0.01924595,-0.00129033,0.000731
 62,-0.00110713,-0.00006011,0.00013095,-0.00007021,-0.00000008,-0.12374
 881,0.29121728,0.00045983,0.00009892,0.00667229,-0.00000532,0.00005217
 ,-0.00064413,0.00070086,0.00008024,0.00678233,0.00100467,-0.00189098,0
 .00373952,0.00668659,-0.00979642,-0.03794312,-0.00031786,0.00089673,0.
 00335258,0.00000062,0.00003526,0.00028452,-0.00005892,0.00000102,-0.00
 085955,-0.00793733,0.01054226,0.02661574,-0.01088942,-0.00402753,0.000
 77674,0.00102134,0.00269863,0.00038707,0.00113348,-0.00001274,-0.00010
 131,0.00108178,-0.00263598,0.00033819,-0.01237985,0.00478272,0.0009497
 7,-0.34163101,0.00741477,0.01932343,0.00078354,0.00059997,-0.00028855,
 -0.00060876,-0.00015911,0.00006480,0.00080212,-0.00064445,-0.00030732,
 0.36161254,0.03088275,0.00301662,-0.00193445,0.00163894,-0.00460836,-0
 .00021734,-0.00017200,-0.00148433,0.00000010,-0.00161399,-0.00417417,-
 0.00000968,-0.03040307,0.00391398,0.00193509,0.00755933,-0.06013959,-0
 .00073328,-0.00045558,0.00073197,0.00007283,0.00134393,0.00009015,-0.0
 0008796,0.00035087,0.00069266,0.00002632,-0.00801126,0.06160436,0.0011
 2539,0.00026205,0.00205029,0.00037631,-0.00028424,0.00671771,-0.000099
 67,-0.00001377,-0.00044109,0.00034172,0.00005557,0.00686582,0.00059593
 ,-0.00027463,0.00190710,0.01934033,-0.00073036,-0.03599087,-0.00030375
 ,0.00001168,-0.00391167,0.00007967,0.00000660,0.00044237,-0.00030280,0
 .00008799,-0.00399139,-0.02117215,0.00086992,0.02681203,0.00619173,-0.
 00134675,-0.00008727,-0.04448376,-0.00714083,0.00306238,-0.27006838,0.
 03926241,0.01506100,-0.03883916,0.00489307,0.00291018,0.00314672,0.001
 03628,0.00025817,-0.00479923,0.00174241,0.00025587,-0.00099357,-0.0003
 3216,0.00006925,0.00117538,0.00043778,-0.00029406,-0.00132436,0.000191
 13,0.00008762,-0.00021995,0.00007314,-0.00003623,0.47055526,0.00303112
 ,-0.00829088,-0.00032303,-0.04631261,0.00658500,0.00290295,-0.02108895
 ,-0.10186187,0.00069375,0.04115295,-0.00096602,-0.00266612,-0.00399380
 ,-0.00782585,0.00009937,0.00030878,0.00461050,0.00003778,-0.00158375,0
 .00007175,0.00009852,0.00037162,0.00119956,0.00003844,0.00159716,0.000
 12110,-0.00009997,-0.00000146,0.00035108,0.00001232,0.16407139,0.49252
 486,-0.00004108,-0.00004816,0.00501979,0.00266713,0.00046642,0.0052583
 9,0.01442644,-0.00310674,-0.03805108,0.00327655,-0.00040237,0.00669912
 ,0.00020331,-0.00021585,0.00701932,0.00024144,-0.00005073,-0.00103200,
 0.00005709,0.00002001,0.00016343,-0.00029365,0.00001912,-0.00351361,0.
 00009970,-0.00001077,0.00001144,-0.00003683,0.00000716,-0.00080566,-0.
 02645849,-0.00552868,0.02428822,0.00052307,-0.00236264,0.00005270,-0.0
 0671340,0.00466739,0.00059101,-0.02651384,-0.04649377,0.00094414,0.001
 01170,-0.00153553,-0.00005841,-0.00046399,-0.00100882,0.00000207,0.000
 49068,0.00067460,-0.00003224,-0.00048592,0.00014758,0.00002465,0.00021
 773,0.00008453,-0.00005227,0.00025612,-0.00000662,-0.00001427,0.000059
 75,0.00008902,-0.00000823,-0.12551287,-0.14076059,0.00632963,0.1555591
 5,-0.00004447,-0.00008631,-0.00001545,0.00118468,0.00170496,-0.0000828
 3,0.00904906,-0.00042438,-0.00057941,0.00417739,0.00094564,-0.00022280
 ,-0.00041177,-0.00065537,0.00001766,0.00032879,-0.00000143,-0.00002028
 ,-0.00002853,0.00008794,0.00000459,0.00041902,0.00077237,-0.00001280,0
 .00024591,0.00005110,-0.00001495,-0.00005577,0.00000302,0.00000473,-0.
 20020008,-0.38881068,0.00863067,0.18403416,0.38834983,0.00007306,0.000
 13153,0.00174304,0.00056476,-0.00029292,0.00196954,0.00149949,0.002914
 09,-0.00384680,-0.00002902,0.00013433,0.00010758,0.00001292,0.00005843
 ,-0.00022544,-0.00003463,-0.00004434,-0.00011186,0.00002253,-0.0000071
 0,-0.00012338,-0.00004793,0.00000944,-0.00061514,-0.00001197,0.0000006
 7,0.00002260,-0.00000995,-0.00000472,-0.00008980,0.00571268,0.00488259
 ,-0.00212769,-0.00766749,-0.00760327,0.00385304,-0.00132456,-0.0006731
 1,0.00002453,-0.00152867,0.00505096,0.00053450,0.00941061,0.00921355,-
 0.00033891,-0.12081481,-0.04595454,0.00258796,-0.01931802,-0.03296394,
 0.00113535,-0.00291946,0.00254990,0.00070762,0.00016426,-0.00004630,-0
 .00008132,0.00070450,0.00108028,-0.00003238,0.00056762,-0.00124158,-0.
 00033351,-0.00050632,-0.00100611,0.00005017,0.00161769,0.00336309,-0.0
 0034073,0.00073458,0.00067493,0.00019170,0.54557221,0.00084254,-0.0003
 9772,-0.00004907,0.00345946,-0.00160759,-0.00029542,-0.01164345,-0.033
 04565,0.00036634,-0.05352193,-0.17486279,0.00230802,-0.00625176,-0.001
 93904,0.00033344,0.00204611,0.00237515,-0.00019500,-0.00005628,0.00000
 482,0.00001621,-0.00073779,-0.00052771,0.00004135,0.00206706,0.0011467
 9,-0.00005896,0.00035197,0.00033341,-0.00002261,-0.00654703,-0.0008899
 4,0.00043962,0.00055292,0.00141356,-0.00004765,-0.04972803,0.52022527,
 0.00004770,0.00004832,-0.00080879,0.00050979,-0.00040470,0.00611239,-0
 .00049616,-0.00093964,0.00280470,0.00247973,0.00182912,-0.07217939,0.0
 0139924,0.00199684,0.00388788,0.00069747,-0.00021595,0.00781322,-0.000
 08068,0.00001359,-0.00110267,-0.00005157,-0.00007300,0.00001066,-0.000
 31198,0.00013887,-0.00457191,0.00006374,0.00006185,0.00045031,-0.00045
 578,-0.00019550,-0.00427271,0.00013685,-0.00005608,0.00295424,-0.00136
 659,0.00299534,0.53358825,-0.00008628,0.00007386,-0.00006013,-0.000252
 14,-0.00016728,0.00017925,-0.00167625,0.00187387,0.00062733,-0.0134496
 0,-0.00411971,-0.01161910,0.00026219,-0.00235284,-0.00062688,-0.000368
 08,-0.00041645,0.00112143,-0.00001010,-0.00006289,-0.00008964,0.000017
 86,-0.00007547,-0.00003787,0.00017313,-0.00003449,-0.00073100,-0.00014
 881,-0.00016002,0.00005418,0.00174572,-0.00021011,0.00010460,0.0000611
 9,0.00043439,-0.00044140,-0.14600743,-0.00612561,-0.12142967,0.1616091
 1,-0.00066336,0.00004325,-0.00012992,0.00029403,0.00074592,0.00112140,
 -0.00345755,-0.00028146,-0.00003874,-0.02101241,-0.00342204,-0.0221097
 8,0.00068645,-0.00244249,-0.00078139,-0.00032433,-0.00054008,0.0010860
 5,-0.00000248,-0.00000349,-0.00012287,0.00006585,-0.00004945,-0.000062
 77,-0.00019861,0.00017872,-0.00027559,-0.00013344,-0.00017294,0.000142
 07,0.00237573,0.00125083,0.00052796,0.00104877,-0.00169194,-0.00172808
 ,-0.00894314,-0.04918184,-0.01237011,0.01191822,0.05403721,-0.00017048
 ,0.00008877,-0.00002357,0.00039364,-0.00001375,-0.00027267,-0.00260180
 ,0.00014140,0.00083822,0.00264820,-0.00014968,0.00466728,0.00070501,0.
 00027543,-0.00046941,0.00017266,-0.00017671,-0.00026549,0.00002102,-0.
 00000779,0.00006073,-0.00003593,-0.00006993,-0.00000504,0.00015090,-0.
 00005012,0.00011008,0.00001864,0.00000693,0.00001209,0.00144781,0.0003
 3215,0.00025961,0.00059441,-0.00136575,-0.00118255,-0.12187329,-0.0100
 1712,-0.19813672,0.13594686,0.01206596,0.21650655,-0.00005351,0.000058
 14,0.00006664,-0.00033113,-0.00016163,-0.00018315,-0.00137692,0.001854
 84,-0.00030140,-0.01195477,-0.00437797,0.01369253,0.00024533,-0.002376
 37,0.00047878,-0.00052721,-0.00036605,-0.00110230,-0.00000079,-0.00006
 307,0.00009748,0.00002655,-0.00006625,0.00003201,0.00023383,-0.0000413
 2,0.00072486,-0.00015547,-0.00015810,-0.00003608,0.00151434,-0.0002612
 2,-0.00025927,0.00011859,0.00055594,0.00028953,-0.11567027,-0.00747539
 ,0.11057733,0.01145351,0.00151057,-0.01949776,0.12748341,-0.00065249,0
 .00004525,0.00021406,0.00016526,0.00076473,-0.00113193,-0.00350788,-0.
 00027497,0.00043760,-0.01797006,-0.00405995,0.02448484,0.00080789,-0.0
 0242844,0.00065185,-0.00045311,-0.00053562,-0.00104443,0.00001275,-0.0
 0000640,0.00012080,0.00007185,-0.00005364,0.00005356,-0.00016070,0.000
 17218,0.00030240,-0.00014990,-0.00016922,-0.00012851,0.00231229,0.0012
 4511,-0.00079783,0.00113044,-0.00169759,0.00156629,-0.00985175,-0.0496
 8265,0.01746445,0.00102164,-0.00003868,-0.00059404,0.01332528,0.054629
 65,0.00015853,-0.00009738,-0.00005048,-0.00037860,0.00005946,-0.000225
 28,0.00280516,-0.00039290,0.00054166,-0.00089471,0.00051133,0.00382601
 ,-0.00078073,-0.00001727,-0.00043570,-0.00014599,0.00022208,-0.0001232
 4,-0.00001282,0.00001467,0.00005391,0.00003361,0.00007780,-0.00001146,
 -0.00017002,0.00005885,0.00004223,-0.00000042,0.00000936,0.00001609,-0
 .00155062,-0.00027568,0.00045207,-0.00072390,0.00128591,-0.00110043,0.
 11091166,0.01479299,-0.22781709,0.01495986,0.00100035,-0.02339709,-0.1
 2406112,-0.01799519,0.24974400,0.00007415,-0.00003570,-0.00000073,0.00
 070938,-0.00053830,-0.00003337,-0.00366709,-0.00295132,0.00027326,0.01
 064903,-0.01813119,-0.00091760,0.00078056,-0.00209216,-0.00009472,0.00
 030884,0.00016993,-0.00002689,-0.00000688,0.00003572,0.00000274,-0.000
 14683,-0.00024560,-0.00000340,-0.00039944,0.00013152,0.00004046,0.0000
 4505,0.00004214,-0.00000480,0.00029444,0.00031636,0.00002415,0.0006574
 5,-0.00036365,-0.00012428,-0.15068191,0.13276721,0.00828058,-0.0133240
 1,0.01683568,0.00208011,-0.01100549,0.01389849,-0.00014989,0.16571276,
 -0.00017336,0.00041145,0.00001373,0.00132437,-0.00085092,-0.00009058,-
 0.00396622,-0.00315414,0.00019804,0.01837043,-0.02488283,-0.00149661,0
 .00263512,0.00148754,-0.00013367,-0.00022746,-0.00013148,0.00001784,-0
 .00007174,0.00004501,0.00000397,-0.00027833,-0.00034659,0.00001614,-0.
 00158831,0.00056905,0.00010155,-0.00001641,0.00001138,0.00000120,-0.00
 082879,0.00068546,0.00005017,-0.00026144,0.00003927,0.00003070,0.12847
 578,-0.21336408,-0.01029341,-0.00159712,0.00156847,-0.00046575,-0.0019
 5741,0.00209025,0.00074562,-0.13983911,0.23582215,-0.00000474,0.000006
 19,0.00008389,-0.00001427,0.00002707,0.00021248,0.00025142,0.00013957,
 0.00108144,-0.00049588,0.00090330,-0.00044377,-0.00005143,0.00014636,-
 0.00027436,-0.00003018,-0.00001150,-0.00013342,0.00000133,-0.00000189,
 0.00002538,-0.00000373,0.00001373,-0.00016470,0.00005281,-0.00000698,0
 .00037677,-0.00000585,-0.00000214,-0.00004333,0.00001746,-0.00000889,0
 .00063136,-0.00011866,0.00003005,-0.00122696,0.00822325,-0.01060749,-0
 .04873236,-0.01795784,0.02167546,0.00129797,0.01948189,-0.02360391,-0.
 00151520,-0.00934561,0.01130107,0.04882480||0.00001870,-0.00001374,-0.
 00000143,-0.00002832,-0.00000651,0.00000569,-0.00004313,0.00004668,0.0
 0000929,0.00005898,-0.00002754,-0.00000190,-0.00002670,-0.00000588,0.0
 0000091,-0.00000255,0.00002482,-0.00000033,-0.00001129,0.00000156,0.00
 000130,0.00000270,-0.00000227,0.00000171,0.00000460,0.00000566,-0.0000
 0085,0.00000066,-0.00000179,-0.00000203,0.00002496,-0.00001068,-0.0000
 0342,-0.00000448,-0.00000173,0.00000253,-0.00000713,0.00000601,-0.0000
 1849,0.00000555,-0.00000342,0.00000480,0.00000278,-0.00000509,0.000003
 34,0.00000468,-0.00000607,-0.00000112|||@


 THE TEST OF A FIRST RATE INTELLIGENCE IS THE ABILITY TO HOLD TWO OPPOSED
 IDEAS IN THE MIND AT THE SAME TIME, AND STILL RETAIN THE ABILITY TO FUNCTION.
 ONE SHOULD, FOR EXAMPLE, BE ABLE TO SEE THAT THINGS ARE HOPELESS AND YET BE
 DETERMINED TO MAKE THEM OTHERWISE.

                                                       -- F. SCOTT FITZGERALD
 Job cpu time:       0 days  0 hours  2 minutes  9.0 seconds.
 File lengths (MBytes):  RWF=     22 Int=      0 D2E=      0 Chk=      3 Scr=      1
 Normal termination of Gaussian 09 at Thu Sep 14 12:15:58 2023.
