 Entering Gaussian System, Link 0=C:\G09W\g09.exe
 Input=C:\Users\123\Desktop\ML project\molecule_3.gjf
 Output=C:\Users\123\Desktop\ML project\molecule_3.log
 Initial command:
 C:/G09W\l1.exe ".\Gau-2260.inp" "C:\Users\123\Desktop\ML project\molecule_3.log" /scrdir=".\"
 Entering Link 1 = C:/G09W\l1.exe PID=      6800.
  
 Copyright (c) 1988,1990,1992,1993,1995,1998,2003,2009,2013,
            Gaussian, Inc.  All Rights Reserved.
  
 This is part of the Gaussian(R) 09 program.  It is based on
 the Gaussian(R) 03 system (copyright 2003, Gaussian, Inc.),
 the Gaussian(R) 98 system (copyright 1998, Gaussian, Inc.),
 the Gaussian(R) 94 system (copyright 1995, Gaussian, Inc.),
 the Gaussian 92(TM) system (copyright 1992, Gaussian, Inc.),
 the Gaussian 90(TM) system (copyright 1990, Gaussian, Inc.),
 the Gaussian 88(TM) system (copyright 1988, Gaussian, Inc.),
 the Gaussian 86(TM) system (copyright 1986, Carnegie Mellon
 University), and the Gaussian 82(TM) system (copyright 1983,
 Carnegie Mellon University). Gaussian is a federally registered
 trademark of Gaussian, Inc.
  
 This software contains proprietary and confidential information,
 including trade secrets, belonging to Gaussian, Inc.
  
 This software is provided under written license and may be
 used, copied, transmitted, or stored only in accord with that
 written license.
  
 The following legend is applicable only to US Government
 contracts under FAR:
  
                    RESTRICTED RIGHTS LEGEND
  
 Use, reproduction and disclosure by the US Government is
 subject to restrictions as set forth in subparagraphs (a)
 and (c) of the Commercial Computer Software - Restricted
 Rights clause in FAR 52.227-19.
  
 Gaussian, Inc.
 340 Quinnipiac St., Bldg. 40, Wallingford CT 06492
  
  
 ---------------------------------------------------------------
 Warning -- This program may not be used in any manner that
 competes with the business of Gaussian, Inc. or will provide
 assistance to any competitor of Gaussian, Inc.  The licensee
 of this program is prohibited from giving any competitor of
 Gaussian, Inc. access to this program.  By using this program,
 the user acknowledges that Gaussian, Inc. is engaged in the
 business of creating and licensing software in the field of
 computational chemistry and represents and warrants to the
 licensee that it is not a competitor of Gaussian, Inc. and that
 it will not use this program in any manner prohibited above.
 ---------------------------------------------------------------
  

 Cite this work as:
 Gaussian 09, Revision D.01,
 M. J. Frisch, G. W. Trucks, H. B. Schlegel, G. E. Scuseria, 
 M. A. Robb, J. R. Cheeseman, G. Scalmani, V. Barone, B. Mennucci, 
 G. A. Petersson, H. Nakatsuji, M. Caricato, X. Li, H. P. Hratchian, 
 A. F. Izmaylov, J. Bloino, G. Zheng, J. L. Sonnenberg, M. Hada, 
 M. Ehara, K. Toyota, R. Fukuda, J. Hasegawa, M. Ishida, T. Nakajima, 
 Y. Honda, O. Kitao, H. Nakai, T. Vreven, J. A. Montgomery, Jr., 
 J. E. Peralta, F. Ogliaro, M. Bearpark, J. J. Heyd, E. Brothers, 
 K. N. Kudin, V. N. Staroverov, T. Keith, R. Kobayashi, J. Normand, 
 K. Raghavachari, A. Rendell, J. C. Burant, S. S. Iyengar, J. Tomasi, 
 M. Cossi, N. Rega, J. M. Millam, M. Klene, J. E. Knox, J. B. Cross, 
 V. Bakken, C. Adamo, J. Jaramillo, R. Gomperts, R. E. Stratmann, 
 O. Yazyev, A. J. Austin, R. Cammi, C. Pomelli, J. W. Ochterski, 
 R. L. Martin, K. Morokuma, V. G. Zakrzewski, G. A. Voth, 
 P. Salvador, J. J. Dannenberg, S. Dapprich, A. D. Daniels, 
 O. Farkas, J. B. Foresman, J. V. Ortiz, J. Cioslowski, 
 and D. J. Fox, Gaussian, Inc., Wallingford CT, 2013.
 
 ******************************************
 Gaussian 09:  EM64W-G09RevD.01 13-Apr-2013
                24-Aug-2023 
 ******************************************
 %nprocshared=2
 Will use up to    2 processors via shared memory.
 %mem=4GB
 %chk=C:\Users\123\Desktop\ML project\molecule_3.chk
 --------------------------------------------------------------------
 # opt freq b3lyp/6-31+g(d) geom=connectivity empiricaldispersion=gd3
 --------------------------------------------------------------------
 1/14=-1,18=20,19=15,26=3,38=1,57=2/1,3;
 2/9=110,12=2,17=6,18=5,40=1/2;
 3/5=1,6=6,7=11,11=2,16=1,25=1,30=1,71=1,74=-5,124=31/1,2,3;
 4//1;
 5/5=2,38=5/2;
 6/7=2,8=2,9=2,10=2,28=1/1;
 7//1,2,3,16;
 1/14=-1,18=20,19=15,26=3/3(2);
 2/9=110/2;
 99//99;
 2/9=110/2;
 3/5=1,6=6,7=11,11=2,16=1,25=1,30=1,71=1,74=-5,124=31/1,2,3;
 4/5=5,16=3,69=1/1;
 5/5=2,38=5/2;
 7//1,2,3,16;
 1/14=-1,18=20,19=15,26=3/3(-5);
 2/9=110/2;
 6/7=2,8=2,9=2,10=2,19=2,28=1/1;
 99/9=1/99;
 -------------------
 Title Card Required
 -------------------
 Symbolic Z-matrix:
 Charge =  0 Multiplicity = 2
 C                    -6.55986  -2.3606   -1.17145 
 C                    -5.19617  -2.3366   -1.49349 
 C                    -4.50182  -1.11944  -1.51171 
 C                    -5.17116   0.07371  -1.20791 
 C                    -6.53485   0.04971  -0.88588 
 C                    -7.2292   -1.16745  -0.86765 
 H                    -7.09001  -3.28993  -1.15754 
 H                    -4.68512  -3.24759  -1.72545 
 H                    -4.64101   1.00304  -1.22182 
 H                    -7.0459    0.9607   -0.65392 
 C                    -3.00326  -1.09306  -1.86559 
 C                    -1.83439  -1.07249  -2.14162 
 C                    -8.72775  -1.19383  -0.51377 
 H                    -8.9497   -0.39137   0.15831 
 H                    -9.30705  -1.08202  -1.40642 
 H                    -8.96772  -2.12643  -0.04733 
 

 GradGradGradGradGradGradGradGradGradGradGradGradGradGradGradGradGradGrad
 Berny optimization.
 Initialization pass.
                           ----------------------------
                           !    Initial Parameters    !
                           ! (Angstroms and Degrees)  !
 --------------------------                            --------------------------
 ! Name  Definition              Value          Derivative Info.                !
 --------------------------------------------------------------------------------
 ! R1    R(1,2)                  1.4014         estimate D2E/DX2                !
 ! R2    R(1,6)                  1.4014         estimate D2E/DX2                !
 ! R3    R(1,7)                  1.07           estimate D2E/DX2                !
 ! R4    R(2,3)                  1.4014         estimate D2E/DX2                !
 ! R5    R(2,8)                  1.07           estimate D2E/DX2                !
 ! R6    R(3,4)                  1.4014         estimate D2E/DX2                !
 ! R7    R(3,11)                 1.54           estimate D2E/DX2                !
 ! R8    R(4,5)                  1.4014         estimate D2E/DX2                !
 ! R9    R(4,9)                  1.07           estimate D2E/DX2                !
 ! R10   R(5,6)                  1.4014         estimate D2E/DX2                !
 ! R11   R(5,10)                 1.07           estimate D2E/DX2                !
 ! R12   R(6,13)                 1.54           estimate D2E/DX2                !
 ! R13   R(11,12)                1.2012         estimate D2E/DX2                !
 ! R14   R(13,14)                1.07           estimate D2E/DX2                !
 ! R15   R(13,15)                1.07           estimate D2E/DX2                !
 ! R16   R(13,16)                1.07           estimate D2E/DX2                !
 ! A1    A(2,1,6)              120.0            estimate D2E/DX2                !
 ! A2    A(2,1,7)              120.0            estimate D2E/DX2                !
 ! A3    A(6,1,7)              120.0            estimate D2E/DX2                !
 ! A4    A(1,2,3)              120.0            estimate D2E/DX2                !
 ! A5    A(1,2,8)              120.0            estimate D2E/DX2                !
 ! A6    A(3,2,8)              120.0            estimate D2E/DX2                !
 ! A7    A(2,3,4)              120.0            estimate D2E/DX2                !
 ! A8    A(2,3,11)             120.0            estimate D2E/DX2                !
 ! A9    A(4,3,11)             120.0            estimate D2E/DX2                !
 ! A10   A(3,4,5)              120.0            estimate D2E/DX2                !
 ! A11   A(3,4,9)              120.0            estimate D2E/DX2                !
 ! A12   A(5,4,9)              120.0            estimate D2E/DX2                !
 ! A13   A(4,5,6)              120.0            estimate D2E/DX2                !
 ! A14   A(4,5,10)             120.0            estimate D2E/DX2                !
 ! A15   A(6,5,10)             120.0            estimate D2E/DX2                !
 ! A16   A(1,6,5)              120.0            estimate D2E/DX2                !
 ! A17   A(1,6,13)             120.0            estimate D2E/DX2                !
 ! A18   A(5,6,13)             120.0            estimate D2E/DX2                !
 ! A19   A(6,13,14)            109.4712         estimate D2E/DX2                !
 ! A20   A(6,13,15)            109.4712         estimate D2E/DX2                !
 ! A21   A(6,13,16)            109.4712         estimate D2E/DX2                !
 ! A22   A(14,13,15)           109.4713         estimate D2E/DX2                !
 ! A23   A(14,13,16)           109.4712         estimate D2E/DX2                !
 ! A24   A(15,13,16)           109.4712         estimate D2E/DX2                !
 ! A25   L(3,11,12,8,-1)       179.9999         estimate D2E/DX2                !
 ! A26   L(3,11,12,8,-2)       180.0            estimate D2E/DX2                !
 ! D1    D(6,1,2,3)              0.0            estimate D2E/DX2                !
 ! D2    D(6,1,2,8)           -179.9998         estimate D2E/DX2                !
 ! D3    D(7,1,2,3)            179.9998         estimate D2E/DX2                !
 ! D4    D(7,1,2,8)              0.0            estimate D2E/DX2                !
 ! D5    D(2,1,6,5)              0.0            estimate D2E/DX2                !
 ! D6    D(2,1,6,13)           179.9999         estimate D2E/DX2                !
 ! D7    D(7,1,6,5)           -179.9997         estimate D2E/DX2                !
 ! D8    D(7,1,6,13)             0.0001         estimate D2E/DX2                !
 ! D9    D(1,2,3,4)              0.0            estimate D2E/DX2                !
 ! D10   D(1,2,3,11)          -179.9999         estimate D2E/DX2                !
 ! D11   D(8,2,3,4)            179.9999         estimate D2E/DX2                !
 ! D12   D(8,2,3,11)            -0.0001         estimate D2E/DX2                !
 ! D13   D(2,3,4,5)             -0.0001         estimate D2E/DX2                !
 ! D14   D(2,3,4,9)           -180.0            estimate D2E/DX2                !
 ! D15   D(11,3,4,5)           179.9998         estimate D2E/DX2                !
 ! D16   D(11,3,4,9)            -0.0001         estimate D2E/DX2                !
 ! D17   D(3,4,5,6)              0.0002         estimate D2E/DX2                !
 ! D18   D(3,4,5,10)          -179.9998         estimate D2E/DX2                !
 ! D19   D(9,4,5,6)           -180.0            estimate D2E/DX2                !
 ! D20   D(9,4,5,10)             0.0            estimate D2E/DX2                !
 ! D21   D(4,5,6,1)             -0.0001         estimate D2E/DX2                !
 ! D22   D(4,5,6,13)          -180.0            estimate D2E/DX2                !
 ! D23   D(10,5,6,1)           179.9999         estimate D2E/DX2                !
 ! D24   D(10,5,6,13)            0.0            estimate D2E/DX2                !
 ! D25   D(1,6,13,14)          149.9978         estimate D2E/DX2                !
 ! D26   D(1,6,13,15)          -90.0022         estimate D2E/DX2                !
 ! D27   D(1,6,13,16)           29.9978         estimate D2E/DX2                !
 ! D28   D(5,6,13,14)          -30.0023         estimate D2E/DX2                !
 ! D29   D(5,6,13,15)           89.9977         estimate D2E/DX2                !
 ! D30   D(5,6,13,16)         -150.0023         estimate D2E/DX2                !
 --------------------------------------------------------------------------------
 Trust Radius=3.00D-01 FncErr=1.00D-07 GrdErr=1.00D-06
 Number of steps in this run=     82 maximum allowed number of steps=    100.
 GradGradGradGradGradGradGradGradGradGradGradGradGradGradGradGradGradGrad

                          Input orientation:                          
 ---------------------------------------------------------------------
 Center     Atomic      Atomic             Coordinates (Angstroms)
 Number     Number       Type             X           Y           Z
 ---------------------------------------------------------------------
      1          6           0       -6.559857   -2.360602   -1.171455
      2          6           0       -5.196170   -2.336597   -1.493485
      3          6           0       -4.501821   -1.119441   -1.511711
      4          6           0       -5.171159    0.073711   -1.207906
      5          6           0       -6.534847    0.049707   -0.885877
      6          6           0       -7.229195   -1.167450   -0.867650
      7          1           0       -7.090008   -3.289927   -1.157542
      8          1           0       -4.685116   -3.247595   -1.725450
      9          1           0       -4.641009    1.003037   -1.221822
     10          1           0       -7.045902    0.960705   -0.653918
     11          6           0       -3.003265   -1.093062   -1.865593
     12          6           0       -1.834391   -1.072488   -2.141622
     13          6           0       -8.727753   -1.193828   -0.513773
     14          1           0       -8.949699   -0.391366    0.158308
     15          1           0       -9.307045   -1.082015   -1.406420
     16          1           0       -8.967719   -2.126432   -0.047332
 ---------------------------------------------------------------------
                    Distance matrix (angstroms):
                    1          2          3          4          5
     1  C    0.000000
     2  C    1.401400   0.000000
     3  C    2.427296   1.401400   0.000000
     4  C    2.802800   2.427296   1.401400   0.000000
     5  C    2.427296   2.802800   2.427296   1.401400   0.000000
     6  C    1.401400   2.427296   2.802800   2.427296   1.401400
     7  H    1.070000   2.146700   3.396345   3.872800   3.396345
     8  H    2.146700   1.070000   2.146700   3.396345   3.872800
     9  H    3.872800   3.396345   2.146700   1.070000   2.146700
    10  H    3.396345   3.872800   3.396345   2.146700   1.070000
    11  C    3.838989   2.548270   1.540000   2.548270   3.838989
    12  C    4.993044   3.649604   2.741200   3.649606   4.993045
    13  C    2.548270   3.838989   4.342800   3.838989   2.548270
    14  H    3.370090   4.538869   4.806524   4.044775   2.667655
    15  H    3.039249   4.298936   4.806523   4.298914   3.039218
    16  H    2.667637   4.044764   4.806525   4.538879   3.370105
                    6          7          8          9         10
     6  C    0.000000
     7  H    2.146700   0.000000
     8  H    3.396345   2.471400   0.000000
     9  H    3.396345   4.942800   4.280590   0.000000
    10  H    2.146700   4.280590   4.942800   2.471400   0.000000
    11  C    4.342800   4.693509   2.736837   2.736837   4.693509
    12  C    5.544000   5.788520   3.609837   3.609839   5.788522
    13  C    1.540000   2.736837   4.693509   4.693509   2.736837
    14  H    2.148263   3.686675   5.467473   4.734336   2.472297
    15  H    2.148263   3.138800   5.114073   5.114041   3.138747
    16  H    2.148263   2.472263   4.734319   5.467488   3.686698
                   11         12         13         14         15
    11  C    0.000000
    12  C    1.201200   0.000000
    13  C    5.882800   7.084000   0.000000
    14  H    6.320494   7.508743   1.070000   0.000000
    15  H    6.320491   7.508740   1.070000   1.747303   0.000000
    16  H    6.320494   7.508743   1.070000   1.747303   1.747303
                   16
    16  H    0.000000
 Stoichiometry    C9H7(2)
 Framework group  C1[X(C9H7)]
 Deg. of freedom    42
 Full point group                 C1      NOp   1
 Largest Abelian subgroup         C1      NOp   1
 Largest concise Abelian subgroup C1      NOp   1
                         Standard orientation:                         
 ---------------------------------------------------------------------
 Center     Atomic      Atomic             Coordinates (Angstroms)
 Number     Number       Type             X           Y           Z
 ---------------------------------------------------------------------
      1          6           0       -0.945969    1.213648   -0.000001
      2          6           0        0.455431    1.213648   -0.000001
      3          6           0        1.156131    0.000000   -0.000002
      4          6           0        0.455431   -1.213648   -0.000002
      5          6           0       -0.945969   -1.213648    0.000000
      6          6           0       -1.646669    0.000000   -0.000001
      7          1           0       -1.480968    2.140295    0.000002
      8          1           0        0.990432    2.140295    0.000001
      9          1           0        0.990431   -2.140296   -0.000002
     10          1           0       -1.480969   -2.140295    0.000002
     11          6           0        2.696131   -0.000001    0.000001
     12          6           0        3.897331    0.000001    0.000003
     13          6           0       -3.186669    0.000000    0.000002
     14          1           0       -3.543336   -0.873632   -0.504434
     15          1           0       -3.543333   -0.000038    1.008808
     16          1           0       -3.543336    0.873671   -0.504367
 ---------------------------------------------------------------------
 Rotational constants (GHZ):      5.4786611      0.9887406      0.8418745
 Standard basis: 6-31+G(d) (6D, 7F)
 There are   185 symmetry adapted cartesian basis functions of A   symmetry.
 There are   185 symmetry adapted basis functions of A   symmetry.
   185 basis functions,   316 primitive gaussians,   185 cartesian basis functions
    31 alpha electrons       30 beta electrons
       nuclear repulsion energy       359.5844917939 Hartrees.
 NAtoms=   16 NActive=   16 NUniq=   16 SFac= 1.00D+00 NAtFMM=   60 NAOKFM=F Big=F
 Integral buffers will be    131072 words long.
 Raffenetti 2 integral format.
 Two-electron integral symmetry is turned on.
 Nuclear repulsion after empirical dispersion term =      359.5747897910 Hartrees.
 One-electron integrals computed using PRISM.
 NBasis=   185 RedAO= T EigKep=  2.67D-06  NBF=   185
 NBsUse=   184 1.00D-06 EigRej=  1.70D-07 NBFU=   184
 ExpMin= 4.38D-02 ExpMax= 3.05D+03 ExpMxC= 4.57D+02 IAcc=2 IRadAn=         4 AccDes= 0.00D+00
 Harris functional with IExCor=  402 and IRadAn=       4 diagonalized for initial guess.
 HarFok:  IExCor=  402 AccDes= 0.00D+00 IRadAn=         4 IDoV= 1 UseB2=F ITyADJ=14
 ICtDFT=  3500011 ScaDFX=  1.000000  1.000000  1.000000  1.000000
 FoFCou: FMM=F IPFlag=           0 FMFlag=      100000 FMFlg1=           0
         NFxFlg=           0 DoJE=T BraDBF=F KetDBF=T FulRan=T
         wScrn=  0.000000 ICntrl=     500 IOpCl=  0 I1Cent=   200000004 NGrid=           0
         NMat0=    1 NMatS0=      1 NMatT0=    0 NMatD0=    1 NMtDS0=    0 NMtDT0=    0
 Petite list used in FoFCou.
 Initial guess <Sx>= 0.0000 <Sy>= 0.0000 <Sz>= 0.5000 <S**2>= 0.7500 S= 0.5000
 Keep R1 and R2 ints in memory in canonical form, NReq=299370286.
 Requested convergence on RMS density matrix=1.00D-08 within 128 cycles.
 Requested convergence on MAX density matrix=1.00D-06.
 Requested convergence on             energy=1.00D-06.
 No special actions if energy rises.
 EnCoef did     2 forward-backward iterations
 Rare condition: small coef for last iteration:  0.000D+00
 SCF Done:  E(UB3LYP) =  -347.007944788     A.U. after   37 cycles
            NFock= 37  Conv=0.90D-08     -V/T= 2.0094
 <Sx>= 0.0000 <Sy>= 0.0000 <Sz>= 0.5000 <S**2>= 0.7652 S= 0.5076
 <L.S>= 0.000000000000E+00
 Annihilation of the first spin contaminant:
 S**2 before annihilation     0.7652,   after     0.7501

 **********************************************************************

            Population analysis using the SCF density.

 **********************************************************************

 Orbital symmetries:
 Alpha Orbitals:
       Occupied  (A) (A) (A) (A) (A) (A) (A) (A) (A) (A) (A) (A)
                 (A) (A) (A) (A) (A) (A) (A) (A) (A) (A) (A) (A)
                 (A) (A) (A) (A) (A) (A) (A)
       Virtual   (A) (A) (A) (A) (A) (A) (A) (A) (A) (A) (A) (A)
                 (A) (A) (A) (A) (A) (A) (A) (A) (A) (A) (A) (A)
                 (A) (A) (A) (A) (A) (A) (A) (A) (A) (A) (A) (A)
                 (A) (A) (A) (A) (A) (A) (A) (A) (A) (A) (A) (A)
                 (A) (A) (A) (A) (A) (A) (A) (A) (A) (A) (A) (A)
                 (A) (A) (A) (A) (A) (A) (A) (A) (A) (A) (A) (A)
                 (A) (A) (A) (A) (A) (A) (A) (A) (A) (A) (A) (A)
                 (A) (A) (A) (A) (A) (A) (A) (A) (A) (A) (A) (A)
                 (A) (A) (A) (A) (A) (A) (A) (A) (A) (A) (A) (A)
                 (A) (A) (A) (A) (A) (A) (A) (A) (A) (A) (A) (A)
                 (A) (A) (A) (A) (A) (A) (A) (A) (A) (A) (A) (A)
                 (A) (A) (A) (A) (A) (A) (A) (A) (A) (A) (A) (A)
                 (A) (A) (A) (A) (A) (A) (A) (A) (A)
 Beta  Orbitals:
       Occupied  (A) (A) (A) (A) (A) (A) (A) (A) (A) (A) (A) (A)
                 (A) (A) (A) (A) (A) (A) (A) (A) (A) (A) (A) (A)
                 (A) (A) (A) (A) (A) (A)
       Virtual   (A) (A) (A) (A) (A) (A) (A) (A) (A) (A) (A) (A)
                 (A) (A) (A) (A) (A) (A) (A) (A) (A) (A) (A) (A)
                 (A) (A) (A) (A) (A) (A) (A) (A) (A) (A) (A) (A)
                 (A) (A) (A) (A) (A) (A) (A) (A) (A) (A) (A) (A)
                 (A) (A) (A) (A) (A) (A) (A) (A) (A) (A) (A) (A)
                 (A) (A) (A) (A) (A) (A) (A) (A) (A) (A) (A) (A)
                 (A) (A) (A) (A) (A) (A) (A) (A) (A) (A) (A) (A)
                 (A) (A) (A) (A) (A) (A) (A) (A) (A) (A) (A) (A)
                 (A) (A) (A) (A) (A) (A) (A) (A) (A) (A) (A) (A)
                 (A) (A) (A) (A) (A) (A) (A) (A) (A) (A) (A) (A)
                 (A) (A) (A) (A) (A) (A) (A) (A) (A) (A) (A) (A)
                 (A) (A) (A) (A) (A) (A) (A) (A) (A) (A) (A) (A)
                 (A) (A) (A) (A) (A) (A) (A) (A) (A) (A)
 The electronic state is 2-A.
 Alpha  occ. eigenvalues --  -10.25613 -10.24046 -10.22892 -10.22891 -10.22175
 Alpha  occ. eigenvalues --  -10.22174 -10.21008 -10.20538 -10.20168  -0.89447
 Alpha  occ. eigenvalues --   -0.81631  -0.78072  -0.76894  -0.71652  -0.64468
 Alpha  occ. eigenvalues --   -0.62126  -0.55712  -0.49668  -0.49227  -0.45690
 Alpha  occ. eigenvalues --   -0.45664  -0.45414  -0.42164  -0.39980  -0.37955
 Alpha  occ. eigenvalues --   -0.37688  -0.33497  -0.30130  -0.29042  -0.28607
 Alpha  occ. eigenvalues --   -0.25963
 Alpha virt. eigenvalues --   -0.05139  -0.04427  -0.00580   0.01229   0.01378
 Alpha virt. eigenvalues --    0.03148   0.03966   0.04327   0.04699   0.04854
 Alpha virt. eigenvalues --    0.05752   0.06605   0.06771   0.07388   0.07708
 Alpha virt. eigenvalues --    0.08541   0.09360   0.10709   0.11693   0.11789
 Alpha virt. eigenvalues --    0.12152   0.13805   0.13841   0.14276   0.14481
 Alpha virt. eigenvalues --    0.14627   0.16069   0.17934   0.18753   0.18860
 Alpha virt. eigenvalues --    0.18953   0.19549   0.19641   0.20027   0.20501
 Alpha virt. eigenvalues --    0.22284   0.22755   0.23267   0.23808   0.24632
 Alpha virt. eigenvalues --    0.25850   0.26857   0.27220   0.27293   0.28996
 Alpha virt. eigenvalues --    0.29615   0.30650   0.31018   0.34158   0.34398
 Alpha virt. eigenvalues --    0.35938   0.37155   0.43173   0.54159   0.57087
 Alpha virt. eigenvalues --    0.57569   0.63753   0.64740   0.65204   0.65878
 Alpha virt. eigenvalues --    0.68437   0.69203   0.69233   0.71056   0.71372
 Alpha virt. eigenvalues --    0.71949   0.73658   0.74091   0.74644   0.76325
 Alpha virt. eigenvalues --    0.76433   0.78366   0.79941   0.80659   0.83318
 Alpha virt. eigenvalues --    0.84774   0.88315   0.88846   0.92258   0.93476
 Alpha virt. eigenvalues --    0.96261   0.96883   0.98630   1.02011   1.03513
 Alpha virt. eigenvalues --    1.07034   1.10720   1.12630   1.15353   1.17063
 Alpha virt. eigenvalues --    1.17959   1.21758   1.24968   1.25244   1.27688
 Alpha virt. eigenvalues --    1.31869   1.33780   1.37709   1.42397   1.42712
 Alpha virt. eigenvalues --    1.43355   1.44954   1.47249   1.51857   1.53194
 Alpha virt. eigenvalues --    1.56054   1.73607   1.74025   1.81367   1.81572
 Alpha virt. eigenvalues --    1.83280   1.87505   1.89663   1.90364   1.92401
 Alpha virt. eigenvalues --    1.94805   1.98300   2.04997   2.06814   2.08925
 Alpha virt. eigenvalues --    2.11362   2.12773   2.16009   2.16380   2.25103
 Alpha virt. eigenvalues --    2.25652   2.27082   2.34447   2.37162   2.37445
 Alpha virt. eigenvalues --    2.44782   2.49185   2.57029   2.61412   2.62932
 Alpha virt. eigenvalues --    2.67816   2.69739   2.72405   2.76655   2.85643
 Alpha virt. eigenvalues --    2.88823   3.08325   3.21700   3.42129   4.15277
 Alpha virt. eigenvalues --    4.19392   4.21612   4.23777   4.29712   4.36577
 Alpha virt. eigenvalues --    4.40718   4.57863   4.77173
  Beta  occ. eigenvalues --  -10.25593 -10.23895 -10.22794 -10.22794 -10.22220
  Beta  occ. eigenvalues --  -10.22219 -10.20558 -10.20543 -10.19221  -0.89222
  Beta  occ. eigenvalues --   -0.81164  -0.77977  -0.74961  -0.71023  -0.64343
  Beta  occ. eigenvalues --   -0.61858  -0.55436  -0.49601  -0.49097  -0.45658
  Beta  occ. eigenvalues --   -0.45389  -0.45152  -0.42139  -0.39250  -0.37889
  Beta  occ. eigenvalues --   -0.37519  -0.30268  -0.28351  -0.28074  -0.25358
  Beta virt. eigenvalues --   -0.18426  -0.04048  -0.04015  -0.00566   0.01273
  Beta virt. eigenvalues --    0.01381   0.03488   0.04060   0.04370   0.04888
  Beta virt. eigenvalues --    0.05495   0.06060   0.06888   0.07445   0.07725
  Beta virt. eigenvalues --    0.07834   0.08751   0.09414   0.11406   0.11995
  Beta virt. eigenvalues --    0.11999   0.12243   0.13852   0.13889   0.14418
  Beta virt. eigenvalues --    0.14709   0.14715   0.16212   0.18832   0.18893
  Beta virt. eigenvalues --    0.18995   0.19306   0.19649   0.19808   0.20395
  Beta virt. eigenvalues --    0.20765   0.22582   0.22771   0.23275   0.23923
  Beta virt. eigenvalues --    0.24634   0.26044   0.26988   0.27305   0.27401
  Beta virt. eigenvalues --    0.29111   0.29645   0.30738   0.31166   0.34217
  Beta virt. eigenvalues --    0.34700   0.35998   0.37381   0.43270   0.54240
  Beta virt. eigenvalues --    0.57763   0.58265   0.63916   0.64771   0.65860
  Beta virt. eigenvalues --    0.66086   0.68629   0.69339   0.70221   0.71190
  Beta virt. eigenvalues --    0.71482   0.72141   0.74268   0.74718   0.74946
  Beta virt. eigenvalues --    0.76499   0.76675   0.79124   0.80473   0.81239
  Beta virt. eigenvalues --    0.84078   0.84993   0.89067   0.90594   0.92303
  Beta virt. eigenvalues --    0.94076   0.96613   0.96922   0.98719   1.02045
  Beta virt. eigenvalues --    1.03569   1.07078   1.10897   1.12719   1.15512
  Beta virt. eigenvalues --    1.17342   1.18036   1.22052   1.25128   1.25627
  Beta virt. eigenvalues --    1.27898   1.33201   1.34745   1.38228   1.42605
  Beta virt. eigenvalues --    1.42838   1.43793   1.45385   1.47400   1.52036
  Beta virt. eigenvalues --    1.55675   1.58653   1.75242   1.75848   1.81504
  Beta virt. eigenvalues --    1.81823   1.83502   1.87669   1.89666   1.90478
  Beta virt. eigenvalues --    1.94924   1.97292   1.98333   2.05249   2.07120
  Beta virt. eigenvalues --    2.09510   2.11589   2.13508   2.16535   2.16592
  Beta virt. eigenvalues --    2.25399   2.25937   2.27283   2.34537   2.37256
  Beta virt. eigenvalues --    2.37674   2.46385   2.50069   2.57438   2.61683
  Beta virt. eigenvalues --    2.63087   2.70416   2.70583   2.72480   2.76733
  Beta virt. eigenvalues --    2.85959   2.89124   3.08526   3.22707   3.42573
  Beta virt. eigenvalues --    4.16142   4.20391   4.21695   4.24705   4.29957
  Beta virt. eigenvalues --    4.36659   4.41031   4.58296   4.77595
          Condensed to atoms (all electrons):
               1          2          3          4          5          6
     1  C    7.158072  -0.212994  -0.308865  -0.614664  -0.294391   0.212095
     2  C   -0.212994   9.818073  -0.152539  -2.744904  -0.614652   0.180028
     3  C   -0.308865  -0.152539   9.941259  -0.152515  -0.308899  -0.404078
     4  C   -0.614664  -2.744904  -0.152515   9.818076  -0.212964   0.179956
     5  C   -0.294391  -0.614652  -0.308899  -0.212964   7.158005   0.212132
     6  C    0.212095   0.180028  -0.404078   0.179956   0.212132   6.845533
     7  H    0.240073  -0.019113  -0.004388  -0.024722   0.060827   0.054815
     8  H   -0.062945   0.284294   0.029838   0.048701  -0.016804   0.002814
     9  H   -0.016804   0.048700   0.029836   0.284297  -0.062947   0.002814
    10  H    0.060832  -0.024724  -0.004390  -0.019115   0.240069   0.054817
    11  C    0.513083  -0.846875  -5.181349  -0.846834   0.513066  -0.945226
    12  C   -0.224751   0.155664   3.306538   0.155641  -0.224748   0.332384
    13  C   -0.238815   0.206378  -0.271176   0.206372  -0.238837  -0.713217
    14  H    0.037104  -0.011225  -0.001976   0.010964  -0.024309  -0.129032
    15  H   -0.016741   0.001317  -0.003752   0.001318  -0.016753  -0.038515
    16  H   -0.024313   0.010966  -0.001977  -0.011225   0.037104  -0.129034
               7          8          9         10         11         12
     1  C    0.240073  -0.062945  -0.016804   0.060832   0.513083  -0.224751
     2  C   -0.019113   0.284294   0.048700  -0.024724  -0.846875   0.155664
     3  C   -0.004388   0.029838   0.029836  -0.004390  -5.181349   3.306538
     4  C   -0.024722   0.048701   0.284297  -0.019115  -0.846834   0.155641
     5  C    0.060827  -0.016804  -0.062947   0.240069   0.513066  -0.224748
     6  C    0.054815   0.002814   0.002814   0.054817  -0.945226   0.332384
     7  H    0.529224  -0.004276   0.000017  -0.000157   0.002460  -0.001007
     8  H   -0.004276   0.505378  -0.000150   0.000017  -0.003080   0.005088
     9  H    0.000017  -0.000150   0.505378  -0.004276  -0.003079   0.005087
    10  H   -0.000157   0.000017  -0.004276   0.529224   0.002460  -0.001007
    11  C    0.002460  -0.003080  -0.003079   0.002460  21.514704  -9.233629
    12  C   -0.001007   0.005088   0.005087  -0.001007  -9.233629  12.319550
    13  C   -0.025009   0.002883   0.002883  -0.025007  -0.208594   0.077237
    14  H    0.000094   0.000002  -0.000003   0.002789   0.000290   0.000023
    15  H    0.000344   0.000001   0.000001   0.000344  -0.000498   0.000110
    16  H    0.002790  -0.000003   0.000002   0.000094   0.000290   0.000023
              13         14         15         16
     1  C   -0.238815   0.037104  -0.016741  -0.024313
     2  C    0.206378  -0.011225   0.001317   0.010966
     3  C   -0.271176  -0.001976  -0.003752  -0.001977
     4  C    0.206372   0.010964   0.001318  -0.011225
     5  C   -0.238837  -0.024309  -0.016753   0.037104
     6  C   -0.713217  -0.129032  -0.038515  -0.129034
     7  H   -0.025009   0.000094   0.000344   0.002790
     8  H    0.002883   0.000002   0.000001  -0.000003
     9  H    0.002883  -0.000003   0.000001   0.000002
    10  H   -0.025007   0.002789   0.000344   0.000094
    11  C   -0.208594   0.000290  -0.000498   0.000290
    12  C    0.077237   0.000023   0.000110   0.000023
    13  C    6.612259   0.460259   0.410060   0.460266
    14  H    0.460259   0.490632  -0.026638  -0.025825
    15  H    0.410060  -0.026638   0.476444  -0.026638
    16  H    0.460266  -0.025825  -0.026638   0.490632
          Atomic-Atomic Spin Densities.
               1          2          3          4          5          6
     1  C   -0.053356  -0.036480   0.014860  -0.002256   0.026942   0.000586
     2  C   -0.036480   0.074584   0.017497   0.028472  -0.002257   0.012085
     3  C    0.014860   0.017497   0.063364   0.017499   0.014861   0.020396
     4  C   -0.002256   0.028472   0.017499   0.074580  -0.036479   0.012087
     5  C    0.026942  -0.002257   0.014861  -0.036479  -0.053355   0.000584
     6  C    0.000586   0.012085   0.020396   0.012087   0.000584   0.146198
     7  H    0.000217   0.000002   0.000608  -0.000182   0.000089   0.000111
     8  H    0.000525   0.003230  -0.003478  -0.000594   0.000133   0.000675
     9  H    0.000133  -0.000594  -0.003478   0.003230   0.000525   0.000675
    10  H    0.000089  -0.000182   0.000608   0.000002   0.000217   0.000111
    11  C    0.039227  -0.060965  -0.167750  -0.060968   0.039228  -0.061431
    12  C   -0.015088   0.013553   0.096803   0.013554  -0.015088   0.029412
    13  C   -0.021001   0.020595  -0.029013   0.020595  -0.021002  -0.032561
    14  H   -0.000989   0.000760  -0.000882   0.001003  -0.001376  -0.003036
    15  H    0.002823  -0.002104   0.002184  -0.002104   0.002824  -0.000102
    16  H   -0.001375   0.001003  -0.000882   0.000760  -0.000989  -0.003035
               7          8          9         10         11         12
     1  C    0.000217   0.000525   0.000133   0.000089   0.039227  -0.015088
     2  C    0.000002   0.003230  -0.000594  -0.000182  -0.060965   0.013553
     3  C    0.000608  -0.003478  -0.003478   0.000608  -0.167750   0.096803
     4  C   -0.000182  -0.000594   0.003230   0.000002  -0.060968   0.013554
     5  C    0.000089   0.000133   0.000525   0.000217   0.039228  -0.015088
     6  C    0.000111   0.000675   0.000675   0.000111  -0.061431   0.029412
     7  H    0.001133   0.000029   0.000000   0.000000   0.000307  -0.000127
     8  H    0.000029  -0.003710   0.000002   0.000000   0.000632  -0.000865
     9  H    0.000000   0.000002  -0.003710   0.000029   0.000632  -0.000865
    10  H    0.000000   0.000000   0.000029   0.001133   0.000307  -0.000127
    11  C    0.000307   0.000632   0.000632   0.000307   0.641977  -0.258141
    12  C   -0.000127  -0.000865  -0.000865  -0.000127  -0.258141   0.828126
    13  C   -0.000742  -0.000100  -0.000100  -0.000742  -0.018213   0.006145
    14  H   -0.000002   0.000000   0.000000  -0.000031  -0.000128   0.000027
    15  H    0.000012   0.000000   0.000000   0.000012   0.000262  -0.000062
    16  H   -0.000031   0.000000   0.000000  -0.000002  -0.000128   0.000027
              13         14         15         16
     1  C   -0.021001  -0.000989   0.002823  -0.001375
     2  C    0.020595   0.000760  -0.002104   0.001003
     3  C   -0.029013  -0.000882   0.002184  -0.000882
     4  C    0.020595   0.001003  -0.002104   0.000760
     5  C   -0.021002  -0.001376   0.002824  -0.000989
     6  C   -0.032561  -0.003036  -0.000102  -0.003035
     7  H   -0.000742  -0.000002   0.000012  -0.000031
     8  H   -0.000100   0.000000   0.000000   0.000000
     9  H   -0.000100   0.000000   0.000000   0.000000
    10  H   -0.000742  -0.000031   0.000012  -0.000002
    11  C   -0.018213  -0.000128   0.000262  -0.000128
    12  C    0.006145   0.000027  -0.000062   0.000027
    13  C    0.059946   0.004790  -0.004719   0.004789
    14  H    0.004790   0.001888  -0.000931   0.000330
    15  H   -0.004719  -0.000931   0.009317  -0.000931
    16  H    0.004789   0.000330  -0.000931   0.001887
 Mulliken charges and spin densities:
               1          2
     1  C   -0.205976  -0.045142
     2  C   -0.078393   0.069198
     3  C   -0.511567   0.043196
     4  C   -0.078380   0.069197
     5  C   -0.205899  -0.045141
     6  C    0.281716   0.122753
     7  H    0.188029   0.001425
     8  H    0.208242  -0.003520
     9  H    0.208242  -0.003520
    10  H    0.188029   0.001425
    11  C    0.722812   0.094849
    12  C   -0.672203   0.697283
    13  C   -0.717944  -0.011333
    14  H    0.216850   0.001424
    15  H    0.239596   0.006480
    16  H    0.216848   0.001424
 Sum of Mulliken charges =   0.00000   1.00000
 Mulliken charges and spin densities with hydrogens summed into heavy atoms:
               1          2
     1  C   -0.017947  -0.043717
     2  C    0.129848   0.065679
     3  C   -0.511567   0.043196
     4  C    0.129862   0.065678
     5  C   -0.017870  -0.043716
     6  C    0.281716   0.122753
    11  C    0.722812   0.094849
    12  C   -0.672203   0.697283
    13  C   -0.044650  -0.002006
 Electronic spatial extent (au):  <R**2>=           1321.2290
 Charge=              0.0000 electrons
 Dipole moment (field-independent basis, Debye):
    X=             -6.1248    Y=              0.0000    Z=              0.5703  Tot=              6.1513
 Quadrupole moment (field-independent basis, Debye-Ang):
   XX=            -69.6179   YY=            -47.6208   ZZ=            -55.8941
   XY=              0.0000   XZ=              2.4323   YZ=              0.0000
 Traceless Quadrupole moment (field-independent basis, Debye-Ang):
   XX=            -11.9070   YY=             10.0901   ZZ=              1.8169
   XY=              0.0000   XZ=              2.4323   YZ=              0.0000
 Octapole moment (field-independent basis, Debye-Ang**2):
  XXX=           -133.9755  YYY=              0.0001  ZZZ=              1.5769  XYY=            -10.7674
  XXY=             -0.0001  XXZ=             12.0655  XZZ=             -7.3432  YZZ=             -0.0001
  YYZ=             -0.2790  XYZ=              0.0000
 Hexadecapole moment (field-independent basis, Debye-Ang**3):
 XXXX=          -2004.3343 YYYY=           -293.4961 ZZZZ=            -74.6630 XXXY=             -0.0001
 XXXZ=             52.3362 YYYX=             -0.0002 YYYZ=              0.0000 ZZZX=              1.8153
 ZZZY=              0.0000 XXYY=           -314.4813 XXZZ=           -276.3219 YYZZ=            -73.0512
 XXYZ=              0.0000 YYXZ=              3.5358 ZZXY=              0.0003
 N-N= 3.595747897910D+02 E-N=-1.521067921446D+03  KE= 3.437666495727D+02
                          Isotropic Fermi Contact Couplings
        Atom                 a.u.       MegaHertz       Gauss      10(-4) cm-1
     1  C(13)             -0.00613      -6.88648      -2.45727      -2.29708
     2  C(13)              0.00563       6.33072       2.25896       2.11170
     3  C(13)             -0.00282      -3.17335      -1.13233      -1.05852
     4  C(13)              0.00563       6.33067       2.25894       2.11168
     5  C(13)             -0.00613      -6.88645      -2.45725      -2.29707
     6  C(13)              0.01176      13.22070       4.71747       4.40995
     7  H(1)               0.00041       1.83593       0.65511       0.61240
     8  H(1)              -0.00114      -5.08123      -1.81311      -1.69492
     9  H(1)              -0.00114      -5.08119      -1.81310      -1.69490
    10  H(1)               0.00041       1.83593       0.65511       0.61240
    11  C(13)              0.07419      83.40905      29.76242      27.82226
    12  C(13)              0.29355     330.00320     117.75334     110.07722
    13  C(13)             -0.00265      -2.98354      -1.06460      -0.99520
    14  H(1)               0.00085       3.80090       1.35626       1.26784
    15  H(1)               0.00349      15.59866       5.56599       5.20315
    16  H(1)               0.00085       3.79988       1.35589       1.26750
 --------------------------------------------------------
       Center         ----  Spin Dipole Couplings  ----
                      3XX-RR        3YY-RR        3ZZ-RR
 --------------------------------------------------------
     1   Atom        0.016589      0.012836     -0.029425
     2   Atom       -0.036182     -0.038321      0.074504
     3   Atom        0.003317     -0.020624      0.017307
     4   Atom       -0.036182     -0.038321      0.074503
     5   Atom        0.016589      0.012836     -0.029425
     6   Atom       -0.054461     -0.060082      0.114544
     7   Atom        0.001369      0.000743     -0.002112
     8   Atom       -0.001539      0.005234     -0.003695
     9   Atom       -0.001539      0.005234     -0.003695
    10   Atom        0.001369      0.000743     -0.002112
    11   Atom       -0.048203     -0.237335      0.285538
    12   Atom        0.121305     -0.270140      0.148835
    13   Atom       -0.000160     -0.003431      0.003591
    14   Atom        0.001773     -0.000479     -0.001294
    15   Atom        0.001935     -0.001859     -0.000076
    16   Atom        0.001773     -0.000479     -0.001294
 --------------------------------------------------------
                        XY            XZ            YZ
 --------------------------------------------------------
     1   Atom        0.000524      0.003845     -0.000608
     2   Atom       -0.002332      0.008995     -0.006213
     3   Atom        0.000000     -0.043218      0.000000
     4   Atom        0.002332      0.008996      0.006213
     5   Atom       -0.000524      0.003845      0.000608
     6   Atom        0.000000     -0.001122      0.000000
     7   Atom        0.000369      0.000089      0.000186
     8   Atom        0.000352      0.000066     -0.000603
     9   Atom       -0.000352      0.000066      0.000603
    10   Atom       -0.000369      0.000089     -0.000186
    11   Atom        0.000001     -0.175116     -0.000001
    12   Atom       -0.000001      0.509901      0.000000
    13   Atom        0.000000     -0.000426      0.000000
    14   Atom        0.001315      0.000549      0.000258
    15   Atom        0.000000     -0.001385      0.000000
    16   Atom       -0.001315      0.000549     -0.000258
 --------------------------------------------------------


 ---------------------------------------------------------------------------------
              Anisotropic Spin Dipole Couplings in Principal Axis System
 ---------------------------------------------------------------------------------

       Atom             a.u.   MegaHertz   Gauss  10(-4) cm-1        Axes

              Baa    -0.0298    -3.993    -1.425    -1.332 -0.0828  0.0153  0.9964
     1 C(13)  Bbb     0.0128     1.717     0.613     0.573 -0.1123  0.9934 -0.0245
              Bcc     0.0170     2.276     0.812     0.759  0.9902  0.1139  0.0806
 
              Baa    -0.0398    -5.343    -1.907    -1.782  0.5326  0.8464  0.0041
     2 C(13)  Bbb    -0.0358    -4.800    -1.713    -1.601  0.8425 -0.5297 -0.0986
              Bcc     0.0756    10.143     3.619     3.383  0.0813 -0.0559  0.9951
 
              Baa    -0.0335    -4.491    -1.603    -1.498  0.7615  0.0000  0.6482
     3 C(13)  Bbb    -0.0206    -2.768    -0.988    -0.923  0.0000  1.0000  0.0000
              Bcc     0.0541     7.259     2.590     2.421 -0.6482  0.0000  0.7615
 
              Baa    -0.0398    -5.343    -1.907    -1.782 -0.5326  0.8464 -0.0041
     4 C(13)  Bbb    -0.0358    -4.800    -1.713    -1.601  0.8425  0.5297 -0.0986
              Bcc     0.0756    10.143     3.619     3.383  0.0813  0.0559  0.9951
 
              Baa    -0.0298    -3.993    -1.425    -1.332 -0.0828 -0.0153  0.9964
     5 C(13)  Bbb     0.0128     1.717     0.613     0.573  0.1123  0.9934  0.0245
              Bcc     0.0170     2.276     0.812     0.759  0.9902 -0.1139  0.0806
 
              Baa    -0.0601    -8.062    -2.877    -2.689  0.0000  1.0000  0.0000
     6 C(13)  Bbb    -0.0545    -7.309    -2.608    -2.438  1.0000  0.0000  0.0066
              Bcc     0.1146    15.372     5.485     5.127 -0.0066  0.0000  1.0000
 
              Baa    -0.0021    -1.134    -0.405    -0.378 -0.0188 -0.0624  0.9979
     7 H(1)   Bbb     0.0006     0.309     0.110     0.103 -0.4272  0.9029  0.0484
              Bcc     0.0015     0.826     0.295     0.275  0.9040  0.4254  0.0437
 
              Baa    -0.0037    -1.995    -0.712    -0.666 -0.0408  0.0686  0.9968
     8 H(1)   Bbb    -0.0016    -0.828    -0.296    -0.276  0.9979 -0.0478  0.0442
              Bcc     0.0053     2.824     1.008     0.942  0.0507  0.9965 -0.0665
 
              Baa    -0.0037    -1.995    -0.712    -0.666 -0.0408 -0.0686  0.9968
     9 H(1)   Bbb    -0.0016    -0.828    -0.296    -0.276  0.9979  0.0478  0.0442
              Bcc     0.0053     2.824     1.008     0.942 -0.0507  0.9965  0.0665
 
              Baa    -0.0021    -1.134    -0.405    -0.378 -0.0188  0.0625  0.9979
    10 H(1)   Bbb     0.0006     0.309     0.110     0.103  0.4272  0.9029 -0.0484
              Bcc     0.0015     0.826     0.295     0.275  0.9040 -0.4254  0.0437
 
              Baa    -0.2373   -31.848   -11.364   -10.623  0.0000  1.0000  0.0000
    11 C(13)  Bbb    -0.1232   -16.535    -5.900    -5.516  0.9192  0.0000  0.3938
              Bcc     0.3606    48.384    17.264    16.139 -0.3938  0.0000  0.9192
 
              Baa    -0.3750   -50.324   -17.957   -16.786  0.7166  0.0000 -0.6975
    12 C(13)  Bbb    -0.2701   -36.250   -12.935   -12.092  0.0000  1.0000  0.0000
              Bcc     0.6452    86.574    30.892    28.878  0.6975  0.0000  0.7166
 
              Baa    -0.0034    -0.460    -0.164    -0.154  0.0000  1.0000  0.0000
    13 C(13)  Bbb    -0.0002    -0.028    -0.010    -0.009  0.9938  0.0000  0.1115
              Bcc     0.0036     0.488     0.174     0.163 -0.1115  0.0000  0.9938
 
              Baa    -0.0014    -0.743    -0.265    -0.248 -0.1386 -0.0790  0.9872
    14 H(1)   Bbb    -0.0011    -0.578    -0.206    -0.193 -0.4202  0.9073  0.0137
              Bcc     0.0025     1.321     0.471     0.441  0.8968  0.4129  0.1589
 
              Baa    -0.0019    -0.992    -0.354    -0.331  0.0000  1.0000  0.0000
    15 H(1)   Bbb    -0.0008    -0.417    -0.149    -0.139  0.4541  0.0000  0.8909
              Bcc     0.0026     1.409     0.503     0.470  0.8909  0.0000 -0.4541
 
              Baa    -0.0014    -0.742    -0.265    -0.248 -0.1386  0.0789  0.9872
    16 H(1)   Bbb    -0.0011    -0.578    -0.206    -0.193  0.4202  0.9073 -0.0135
              Bcc     0.0025     1.321     0.471     0.441  0.8968 -0.4129  0.1589
 

 ---------------------------------------------------------------------------------

 Calling FoFJK, ICntrl=      2127 FMM=F ISym2X=0 I1Cent= 0 IOpClX= 1 NMat=1 NMatS=1 NMatT=0.
 ***** Axes restored to original set *****
 -------------------------------------------------------------------
 Center     Atomic                   Forces (Hartrees/Bohr)
 Number     Number              X              Y              Z
 -------------------------------------------------------------------
      1        6           0.018717839    0.012466579   -0.004446680
      2        6          -0.016355217   -0.000558428    0.004509163
      3        6           0.073371566    0.000507985   -0.010713778
      4        6          -0.016351490   -0.000175999    0.004554457
      5        6           0.018469737   -0.011462739   -0.007281572
      6        6          -0.020886243   -0.000502914    0.006071929
      7        1          -0.005646239   -0.010515215    0.000168691
      8        1           0.006528961   -0.008888835   -0.001978243
      9        1           0.006714250    0.008969499    0.000137604
     10        1          -0.005430331    0.010298042    0.002634630
     11        6          -0.173954040   -0.001174344    0.025147240
     12        6           0.104032673    0.000861812   -0.016385969
     13        6           0.036717373    0.000262505   -0.005433783
     14        1          -0.006776868    0.012327010    0.010195008
     15        1          -0.012099365    0.001811896   -0.014226553
     16        1          -0.007052606   -0.014226853    0.007047857
 -------------------------------------------------------------------
 Cartesian Forces:  Max     0.173954040 RMS     0.033057558

 GradGradGradGradGradGradGradGradGradGradGradGradGradGradGradGradGradGrad
 Berny optimization.
 FormGI is forming the generalized inverse of G from B-inverse, IUseBI=4.
 Internal  Forces:  Max     0.105013165 RMS     0.015854519
 Search for a local minimum.
 Step number   1 out of a maximum of   82
 All quantities printed in internal units (Hartrees-Bohrs-Radians)
 Mixed Optimization -- RFO/linear search
 Second derivative matrix not updated -- first step.
 ITU=  0
     Eigenvalues ---    0.00237   0.01337   0.02070   0.02070   0.02070
     Eigenvalues ---    0.02070   0.02070   0.02070   0.02070   0.02070
     Eigenvalues ---    0.04718   0.04718   0.07243   0.07243   0.16000
     Eigenvalues ---    0.16000   0.16000   0.16000   0.16000   0.16000
     Eigenvalues ---    0.16000   0.22000   0.22981   0.24000   0.25000
     Eigenvalues ---    0.25000   0.28519   0.28519   0.37230   0.37230
     Eigenvalues ---    0.37230   0.37230   0.37230   0.37230   0.37230
     Eigenvalues ---    0.41268   0.41640   0.45389   0.45389   0.45389
     Eigenvalues ---    0.45389   1.04222
 RFO step:  Lambda=-3.33309167D-02 EMin= 2.36824119D-03
 Linear search not attempted -- first point.
 Maximum step size (   0.300) exceeded in Quadratic search.
    -- Step size scaled by   0.935
 Iteration  1 RMS(Cart)=  0.03564757 RMS(Int)=  0.00214295
 Iteration  2 RMS(Cart)=  0.00360067 RMS(Int)=  0.00004822
 Iteration  3 RMS(Cart)=  0.00002070 RMS(Int)=  0.00004525
 Iteration  4 RMS(Cart)=  0.00000000 RMS(Int)=  0.00004525
 Variable       Old X    -DE/DX   Delta X   Delta X   Delta X     New X
                                 (Linear)    (Quad)   (Total)
    R1        2.64826  -0.00840   0.00000  -0.01612  -0.01612   2.63214
    R2        2.64826   0.00439   0.00000   0.00815   0.00817   2.65643
    R3        2.02201   0.01193   0.00000   0.02751   0.02751   2.04952
    R4        2.64826   0.00583   0.00000   0.01146   0.01144   2.65970
    R5        2.02201   0.01112   0.00000   0.02563   0.02563   2.04763
    R6        2.64826   0.00583   0.00000   0.01146   0.01144   2.65970
    R7        2.91018  -0.07006   0.00000  -0.20570  -0.20570   2.70448
    R8        2.64826  -0.00840   0.00000  -0.01613  -0.01613   2.63214
    R9        2.02201   0.01112   0.00000   0.02563   0.02563   2.04763
   R10        2.64826   0.00439   0.00000   0.00815   0.00817   2.65643
   R11        2.02201   0.01193   0.00000   0.02751   0.02751   2.04952
   R12        2.91018  -0.01106   0.00000  -0.03246  -0.03246   2.87771
   R13        2.26994   0.10501   0.00000   0.09131   0.09131   2.36125
   R14        2.02201   0.01705   0.00000   0.03932   0.03932   2.06133
   R15        2.02201   0.01861   0.00000   0.04290   0.04290   2.06491
   R16        2.02201   0.01705   0.00000   0.03932   0.03932   2.06133
    A1        2.09440   0.00323   0.00000   0.01122   0.01123   2.10563
    A2        2.09440  -0.00191   0.00000  -0.00704  -0.00705   2.08735
    A3        2.09440  -0.00132   0.00000  -0.00418  -0.00419   2.09021
    A4        2.09440  -0.00200   0.00000  -0.00701  -0.00703   2.08736
    A5        2.09440   0.00228   0.00000   0.00970   0.00971   2.10411
    A6        2.09440  -0.00028   0.00000  -0.00270  -0.00269   2.09171
    A7        2.09440   0.00091   0.00000   0.00382   0.00377   2.09817
    A8        2.09440  -0.00046   0.00000  -0.00191  -0.00190   2.09250
    A9        2.09440  -0.00046   0.00000  -0.00191  -0.00190   2.09250
   A10        2.09440  -0.00200   0.00000  -0.00701  -0.00703   2.08736
   A11        2.09440  -0.00028   0.00000  -0.00270  -0.00269   2.09171
   A12        2.09440   0.00228   0.00000   0.00970   0.00971   2.10411
   A13        2.09440   0.00323   0.00000   0.01122   0.01123   2.10563
   A14        2.09440  -0.00191   0.00000  -0.00704  -0.00705   2.08735
   A15        2.09440  -0.00132   0.00000  -0.00418  -0.00419   2.09021
   A16        2.09440  -0.00337   0.00000  -0.01224  -0.01221   2.08218
   A17        2.09440   0.00169   0.00000   0.00612   0.00610   2.10049
   A18        2.09440   0.00169   0.00000   0.00612   0.00609   2.10049
   A19        1.91063   0.00360   0.00000   0.01815   0.01800   1.92864
   A20        1.91063   0.00175   0.00000   0.00702   0.00697   1.91760
   A21        1.91063   0.00360   0.00000   0.01816   0.01800   1.92864
   A22        1.91063  -0.00312   0.00000  -0.01655  -0.01660   1.89403
   A23        1.91063  -0.00271   0.00000  -0.01024  -0.01047   1.90016
   A24        1.91063  -0.00312   0.00000  -0.01655  -0.01660   1.89403
   A25        3.14159   0.00000   0.00000   0.00000   0.00000   3.14159
   A26        3.14159   0.01423   0.00000   0.16525   0.16525   3.30685
    D1        0.00000  -0.00032   0.00000  -0.00573  -0.00572  -0.00572
    D2       -3.14159  -0.00007   0.00000  -0.00137  -0.00134   3.14025
    D3        3.14159  -0.00024   0.00000  -0.00419  -0.00419   3.13740
    D4        0.00000   0.00001   0.00000   0.00018   0.00019   0.00019
    D5        0.00000   0.00007   0.00000   0.00172   0.00171   0.00172
    D6        3.14159  -0.00029   0.00000  -0.00546  -0.00544   3.13615
    D7       -3.14159  -0.00001   0.00000   0.00018   0.00018  -3.14141
    D8        0.00000  -0.00037   0.00000  -0.00700  -0.00698  -0.00698
    D9        0.00000   0.00057   0.00000   0.00974   0.00974   0.00974
   D10       -3.14159   0.00097   0.00000   0.01689   0.01688  -3.12471
   D11        3.14159   0.00032   0.00000   0.00537   0.00539  -3.13620
   D12        0.00000   0.00073   0.00000   0.01252   0.01253   0.01253
   D13        0.00000  -0.00057   0.00000  -0.00974  -0.00974  -0.00974
   D14       -3.14159  -0.00032   0.00000  -0.00537  -0.00539   3.13620
   D15        3.14159  -0.00097   0.00000  -0.01689  -0.01688   3.12471
   D16        0.00000  -0.00073   0.00000  -0.01252  -0.01253  -0.01253
   D17        0.00000   0.00032   0.00000   0.00573   0.00572   0.00572
   D18       -3.14159   0.00024   0.00000   0.00419   0.00419  -3.13740
   D19       -3.14159   0.00007   0.00000   0.00136   0.00134  -3.14025
   D20        0.00000  -0.00001   0.00000  -0.00018  -0.00019  -0.00019
   D21        0.00000  -0.00007   0.00000  -0.00172  -0.00171  -0.00172
   D22       -3.14159   0.00029   0.00000   0.00546   0.00544  -3.13615
   D23        3.14159   0.00001   0.00000  -0.00018  -0.00018   3.14141
   D24        0.00000   0.00037   0.00000   0.00700   0.00698   0.00698
   D25        2.61796   0.00073   0.00000   0.00844   0.00854   2.62649
   D26       -1.57083   0.00018   0.00000   0.00359   0.00362  -1.56722
   D27        0.52356  -0.00037   0.00000  -0.00126  -0.00130   0.52226
   D28       -0.52364   0.00037   0.00000   0.00126   0.00130  -0.52233
   D29        1.57076  -0.00018   0.00000  -0.00359  -0.00362   1.56714
   D30       -2.61803  -0.00073   0.00000  -0.00844  -0.00854  -2.62657
         Item               Value     Threshold  Converged?
 Maximum Force            0.105013     0.000450     NO 
 RMS     Force            0.015855     0.000300     NO 
 Maximum Displacement     0.208012     0.001800     NO 
 RMS     Displacement     0.038057     0.001200     NO 
 Predicted change in Energy=-1.812160D-02
 GradGradGradGradGradGradGradGradGradGradGradGradGradGradGradGradGradGrad

                          Input orientation:                          
 ---------------------------------------------------------------------
 Center     Atomic      Atomic             Coordinates (Angstroms)
 Number     Number       Type             X           Y           Z
 ---------------------------------------------------------------------
      1          6           0       -6.544019   -2.360104   -1.175660
      2          6           0       -5.191196   -2.342615   -1.506785
      3          6           0       -4.498306   -1.117865   -1.535347
      4          6           0       -5.165161    0.080745   -1.219811
      5          6           0       -6.518136    0.049079   -0.890367
      6          6           0       -7.220737   -1.168168   -0.863574
      7          1           0       -7.078874   -3.303431   -1.157465
      8          1           0       -4.670658   -3.262381   -1.745902
      9          1           0       -4.624654    1.019679   -1.238820
     10          1           0       -7.032930    0.973186   -0.651030
     11          6           0       -3.113340   -1.090165   -1.894906
     12          6           0       -1.873060   -1.077095   -2.046019
     13          6           0       -8.701565   -1.194202   -0.509380
     14          1           0       -8.945614   -0.378806    0.172846
     15          1           0       -9.302141   -1.080451   -1.415122
     16          1           0       -8.964564   -2.141046   -0.035904
 ---------------------------------------------------------------------
                    Distance matrix (angstroms):
                    1          2          3          4          5
     1  C    0.000000
     2  C    1.392867   0.000000
     3  C    2.420221   1.407454   0.000000
     4  C    2.803738   2.440432   1.407454   0.000000
     5  C    2.426154   2.803738   2.420221   1.392867   0.000000
     6  C    1.405723   2.431478   2.804539   2.431478   1.405723
     7  H    1.084559   2.146747   3.402767   3.888295   3.409559
     8  H    2.156098   1.083561   2.161709   3.420204   3.887272
     9  H    3.887272   3.420204   2.161709   1.083561   2.156098
    10  H    3.409559   3.888295   3.402767   2.146747   1.084559
    11  C    3.728219   2.456981   1.431147   2.456981   3.728219
    12  C    4.921534   3.591983   2.674765   3.586244   4.917371
    13  C    2.541312   3.825750   4.327334   3.825749   2.541311
    14  H    3.392885   4.557780   4.821066   4.054936   2.684428
    15  H    3.049933   4.301317   4.805484   4.301293   3.049899
    16  H    2.684413   4.054926   4.821067   4.557791   3.392899
                    6          7          8          9         10
     6  C    0.000000
     7  H    2.160056   0.000000
     8  H    3.415719   2.479405   0.000000
     9  H    3.415718   4.971830   4.312225   0.000000
    10  H    2.160056   4.306743   4.971830   2.479405   0.000000
    11  C    4.235616   4.600851   2.676931   2.676932   4.600851
    12  C    5.477602   5.731196   3.562597   3.552366   5.724850
    13  C    1.522821   2.738976   4.696229   4.696228   2.738974
    14  H    2.161587   3.715895   5.501985   4.755970   2.482945
    15  H    2.155026   3.154511   5.130386   5.130352   3.154454
    16  H    2.161588   2.482914   4.755956   5.502000   3.715916
                   11         12         13         14         15
    11  C    0.000000
    12  C    1.249520   0.000000
    13  C    5.758365   7.000247   0.000000
    14  H    6.228728   7.445266   1.090808   0.000000
    15  H    6.207378   7.455822   1.092702   1.772303   0.000000
    16  H    6.228729   7.447281   1.090808   1.774662   1.772304
                   16
    16  H    0.000000
 Stoichiometry    C9H7(2)
 Framework group  C1[X(C9H7)]
 Deg. of freedom    42
 Full point group                 C1      NOp   1
 Largest Abelian subgroup         C1      NOp   1
 Largest concise Abelian subgroup C1      NOp   1
                         Standard orientation:                         
 ---------------------------------------------------------------------
 Center     Atomic      Atomic             Coordinates (Angstroms)
 Number     Number       Type             X           Y           Z
 ---------------------------------------------------------------------
      1          6           0       -0.924562    1.213068   -0.001294
      2          6           0        0.468218    1.221473    0.011876
      3          6           0        1.170638    0.001895    0.024534
      4          6           0        0.470434   -1.218958    0.012050
      5          6           0       -0.922359   -1.213085   -0.001119
      6          6           0       -1.633699   -0.000654   -0.008971
      7          1           0       -1.465861    2.152871   -0.007098
      8          1           0        1.013427    2.157865    0.016529
      9          1           0        1.017343   -2.154358    0.016837
     10          1           0       -1.461950   -2.153870   -0.006789
     11          6           0        2.601369    0.003197    0.059041
     12          6           0        3.843484   -0.004125   -0.076593
     13          6           0       -3.156502   -0.002038   -0.016208
     14          1           0       -3.535343   -0.889731   -0.524484
     15          1           0       -3.532784   -0.002347    1.009662
     16          1           0       -3.536957    0.884930   -0.524542
 ---------------------------------------------------------------------
 Rotational constants (GHZ):      5.4303534      1.0168191      0.8614424
 Standard basis: 6-31+G(d) (6D, 7F)
 There are   185 symmetry adapted cartesian basis functions of A   symmetry.
 There are   185 symmetry adapted basis functions of A   symmetry.
   185 basis functions,   316 primitive gaussians,   185 cartesian basis functions
    31 alpha electrons       30 beta electrons
       nuclear repulsion energy       361.2703032568 Hartrees.
 NAtoms=   16 NActive=   16 NUniq=   16 SFac= 1.00D+00 NAtFMM=   60 NAOKFM=F Big=F
 Integral buffers will be    131072 words long.
 Raffenetti 2 integral format.
 Two-electron integral symmetry is turned on.
 Nuclear repulsion after empirical dispersion term =      361.2605381938 Hartrees.
 One-electron integrals computed using PRISM.
 NBasis=   185 RedAO= T EigKep=  2.94D-06  NBF=   185
 NBsUse=   184 1.00D-06 EigRej=  4.49D-07 NBFU=   184
 Initial guess from the checkpoint file:  "C:\Users\123\Desktop\ML project\molecule_3.chk"
 B after Tr=     0.000000    0.000000    0.000000
         Rot=    1.000000    0.000036    0.000003   -0.000154 Ang=   0.02 deg.
 Initial guess <Sx>= 0.0000 <Sy>= 0.0000 <Sz>= 0.5000 <S**2>= 0.7653 S= 0.5076
 ExpMin= 4.38D-02 ExpMax= 3.05D+03 ExpMxC= 4.57D+02 IAcc=2 IRadAn=         4 AccDes= 0.00D+00
 Harris functional with IExCor=  402 and IRadAn=       4 diagonalized for initial guess.
 HarFok:  IExCor=  402 AccDes= 0.00D+00 IRadAn=         4 IDoV= 1 UseB2=F ITyADJ=14
 ICtDFT=  3500011 ScaDFX=  1.000000  1.000000  1.000000  1.000000
 FoFCou: FMM=F IPFlag=           0 FMFlag=      100000 FMFlg1=           0
         NFxFlg=           0 DoJE=T BraDBF=F KetDBF=T FulRan=T
         wScrn=  0.000000 ICntrl=     500 IOpCl=  0 I1Cent=   200000004 NGrid=           0
         NMat0=    1 NMatS0=      1 NMatT0=    0 NMatD0=    1 NMtDS0=    0 NMtDT0=    0
 Petite list used in FoFCou.
 Keep R1 and R2 ints in memory in canonical form, NReq=299370286.
 Requested convergence on RMS density matrix=1.00D-08 within 128 cycles.
 Requested convergence on MAX density matrix=1.00D-06.
 Requested convergence on             energy=1.00D-06.
 No special actions if energy rises.
 SCF Done:  E(UB3LYP) =  -347.029427057     A.U. after   26 cycles
            NFock= 26  Conv=0.84D-08     -V/T= 2.0097
 <Sx>= 0.0000 <Sy>= 0.0000 <Sz>= 0.5000 <S**2>= 0.7688 S= 0.5094
 <L.S>= 0.000000000000E+00
 Annihilation of the first spin contaminant:
 S**2 before annihilation     0.7688,   after     0.7502
 Calling FoFJK, ICntrl=      2127 FMM=F ISym2X=0 I1Cent= 0 IOpClX= 1 NMat=1 NMatS=1 NMatT=0.
 ***** Axes restored to original set *****
 -------------------------------------------------------------------
 Center     Atomic                   Forces (Hartrees/Bohr)
 Number     Number              X              Y              Z
 -------------------------------------------------------------------
      1        6           0.007850757   -0.000217494   -0.002107578
      2        6          -0.014684587   -0.006166631    0.002116179
      3        6           0.037392834    0.000409163   -0.008283389
      4        6          -0.014535959    0.005858620    0.003493116
      5        6           0.007867111    0.000516392   -0.002009225
      6        6          -0.011183798   -0.000282090    0.003382192
      7        1          -0.001283245   -0.001327144    0.000449922
      8        1           0.001642750   -0.000225402   -0.000259740
      9        1           0.001651476    0.000240293   -0.000206939
     10        1          -0.001250947    0.001212913    0.000753142
     11        6          -0.062628713   -0.000399923    0.009007559
     12        6           0.043209768    0.000243456   -0.004628679
     13        6           0.013730196    0.000027548   -0.001476093
     14        1          -0.002328152    0.001767498    0.001078592
     15        1          -0.003080986    0.000263831   -0.001950871
     16        1          -0.002368505   -0.001921030    0.000641812
 -------------------------------------------------------------------
 Cartesian Forces:  Max     0.062628713 RMS     0.013213351

 GradGradGradGradGradGradGradGradGradGradGradGradGradGradGradGradGradGrad
 Berny optimization.
 Using GEDIIS/GDIIS optimizer.
 FormGI is forming the generalized inverse of G from B-inverse, IUseBI=4.
 Internal  Forces:  Max     0.043452395 RMS     0.006125378
 Search for a local minimum.
 Step number   2 out of a maximum of   82
 All quantities printed in internal units (Hartrees-Bohrs-Radians)
 Mixed Optimization -- RFO/linear search
 Update second derivatives using D2CorX and points    1    2
 DE= -2.15D-02 DEPred=-1.81D-02 R= 1.19D+00
 TightC=F SS=  1.41D+00  RLast= 3.03D-01 DXNew= 5.0454D-01 9.0774D-01
 Trust test= 1.19D+00 RLast= 3.03D-01 DXMaxT set to 5.05D-01
 ITU=  1  0
 Use linear search instead of GDIIS.
     Eigenvalues ---    0.00237   0.01329   0.02070   0.02070   0.02070
     Eigenvalues ---    0.02070   0.02070   0.02070   0.02071   0.02079
     Eigenvalues ---    0.04718   0.05135   0.07022   0.07125   0.15749
     Eigenvalues ---    0.16000   0.16000   0.16000   0.16000   0.16000
     Eigenvalues ---    0.16017   0.22000   0.22403   0.23271   0.24999
     Eigenvalues ---    0.24999   0.26467   0.28770   0.37157   0.37230
     Eigenvalues ---    0.37230   0.37230   0.37230   0.37230   0.37464
     Eigenvalues ---    0.41277   0.42252   0.45055   0.45389   0.45389
     Eigenvalues ---    0.45901   0.88629
 RFO step:  Lambda=-3.28832792D-03 EMin= 2.36824119D-03
 Quartic linear search produced a step of  0.30688.
 Iteration  1 RMS(Cart)=  0.01435615 RMS(Int)=  0.00059811
 Iteration  2 RMS(Cart)=  0.00099368 RMS(Int)=  0.00007711
 Iteration  3 RMS(Cart)=  0.00000202 RMS(Int)=  0.00007709
 Iteration  4 RMS(Cart)=  0.00000000 RMS(Int)=  0.00007709
 Variable       Old X    -DE/DX   Delta X   Delta X   Delta X     New X
                                 (Linear)    (Quad)   (Total)
    R1        2.63214  -0.00401  -0.00495  -0.00664  -0.01159   2.62055
    R2        2.65643   0.00286   0.00251   0.00496   0.00744   2.66388
    R3        2.04952   0.00179   0.00844  -0.00256   0.00588   2.05540
    R4        2.65970   0.00998   0.00351   0.02594   0.02947   2.68917
    R5        2.04763   0.00107   0.00786  -0.00450   0.00336   2.05100
    R6        2.65970   0.00997   0.00351   0.02592   0.02945   2.68915
    R7        2.70448  -0.01992  -0.06313  -0.01751  -0.08064   2.62384
    R8        2.63214  -0.00401  -0.00495  -0.00664  -0.01159   2.62054
    R9        2.04763   0.00104   0.00786  -0.00460   0.00326   2.05090
   R10        2.65643   0.00287   0.00251   0.00498   0.00746   2.66389
   R11        2.04952   0.00179   0.00844  -0.00256   0.00588   2.05540
   R12        2.87771  -0.00619  -0.00996  -0.01658  -0.02655   2.85117
   R13        2.36125   0.04345   0.02802   0.03174   0.05976   2.42102
   R14        2.06133   0.00252   0.01207  -0.00383   0.00824   2.06957
   R15        2.06491   0.00334   0.01317  -0.00212   0.01105   2.07596
   R16        2.06133   0.00252   0.01207  -0.00383   0.00824   2.06957
    A1        2.10563   0.00147   0.00345   0.00179   0.00517   2.11080
    A2        2.08735  -0.00016  -0.00216   0.00435   0.00222   2.08957
    A3        2.09021  -0.00131  -0.00128  -0.00613  -0.00739   2.08282
    A4        2.08736   0.00186  -0.00216   0.01461   0.01240   2.09976
    A5        2.10411   0.00042   0.00298   0.00067   0.00362   2.10773
    A6        2.09171  -0.00228  -0.00082  -0.01521  -0.01607   2.07563
    A7        2.09817  -0.00586   0.00116  -0.02946  -0.02830   2.06987
    A8        2.09250   0.00293  -0.00058   0.01473   0.01414   2.10663
    A9        2.09250   0.00293  -0.00058   0.01477   0.01418   2.10668
   A10        2.08736   0.00184  -0.00216   0.01451   0.01229   2.09965
   A11        2.09171  -0.00227  -0.00082  -0.01512  -0.01598   2.07573
   A12        2.10411   0.00043   0.00298   0.00068   0.00362   2.10773
   A13        2.10563   0.00149   0.00345   0.00189   0.00528   2.11091
   A14        2.08735  -0.00018  -0.00216   0.00426   0.00213   2.08948
   A15        2.09021  -0.00131  -0.00128  -0.00615  -0.00741   2.08280
   A16        2.08218  -0.00079  -0.00375  -0.00309  -0.00692   2.07527
   A17        2.10049   0.00040   0.00187   0.00155   0.00345   2.10394
   A18        2.10049   0.00040   0.00187   0.00154   0.00344   2.10393
   A19        1.92864   0.00188   0.00553   0.00754   0.01293   1.94157
   A20        1.91760   0.00115   0.00214   0.00447   0.00656   1.92416
   A21        1.92864   0.00189   0.00553   0.00755   0.01294   1.94158
   A22        1.89403  -0.00188  -0.00509  -0.00881  -0.01395   1.88009
   A23        1.90016  -0.00132  -0.00321  -0.00259  -0.00601   1.89415
   A24        1.89403  -0.00188  -0.00509  -0.00881  -0.01395   1.88008
   A25        3.14159  -0.00047   0.00000  -0.01221  -0.01221   3.12938
   A26        3.30685   0.00120   0.05071  -0.14145  -0.09074   3.21611
    D1       -0.00572   0.00010  -0.00176   0.01739   0.01586   0.01014
    D2        3.14025  -0.00007  -0.00041  -0.00088  -0.00122   3.13903
    D3        3.13740   0.00012  -0.00128   0.01505   0.01393  -3.13185
    D4        0.00019  -0.00005   0.00006  -0.00322  -0.00315  -0.00296
    D5        0.00172  -0.00008   0.00053  -0.00700  -0.00641  -0.00470
    D6        3.13615  -0.00033  -0.00167  -0.00781  -0.00947   3.12667
    D7       -3.14141  -0.00009   0.00005  -0.00465  -0.00448   3.13730
    D8       -0.00698  -0.00035  -0.00214  -0.00546  -0.00754  -0.01452
    D9        0.00974  -0.00018   0.00299  -0.02831  -0.02519  -0.01545
   D10       -3.12471  -0.00003   0.00518  -0.03462  -0.02943   3.12904
   D11       -3.13620   0.00000   0.00166  -0.01013  -0.00837   3.13861
   D12        0.01253   0.00015   0.00385  -0.01644  -0.01261  -0.00008
   D13       -0.00974   0.00018  -0.00299   0.02858   0.02545   0.01572
   D14        3.13620  -0.00001  -0.00165   0.00975   0.00799  -3.13900
   D15        3.12471   0.00003  -0.00518   0.03489   0.02970  -3.12877
   D16       -0.01253  -0.00016  -0.00385   0.01606   0.01223  -0.00030
   D17        0.00572  -0.00011   0.00175  -0.01792  -0.01640  -0.01068
   D18       -3.13740  -0.00012   0.00128  -0.01544  -0.01432   3.13146
   D19       -3.14025   0.00007   0.00041   0.00101   0.00134  -3.13891
   D20       -0.00019   0.00006  -0.00006   0.00349   0.00343   0.00324
   D21       -0.00172   0.00008  -0.00053   0.00727   0.00668   0.00497
   D22       -3.13615   0.00034   0.00167   0.00808   0.00975  -3.12640
   D23        3.14141   0.00010  -0.00006   0.00477   0.00460  -3.13717
   D24        0.00698   0.00035   0.00214   0.00558   0.00766   0.01464
   D25        2.62649   0.00054   0.00262   0.00375   0.00648   2.63298
   D26       -1.56722   0.00013   0.00111   0.00043   0.00159  -1.56563
   D27        0.52226  -0.00028  -0.00040  -0.00289  -0.00331   0.51895
   D28       -0.52233   0.00028   0.00040   0.00291   0.00333  -0.51901
   D29        1.56714  -0.00013  -0.00111  -0.00041  -0.00157   1.56557
   D30       -2.62657  -0.00054  -0.00262  -0.00373  -0.00646  -2.63304
         Item               Value     Threshold  Converged?
 Maximum Force            0.043452     0.000450     NO 
 RMS     Force            0.006125     0.000300     NO 
 Maximum Displacement     0.072491     0.001800     NO 
 RMS     Displacement     0.014484     0.001200     NO 
 Predicted change in Energy=-3.032613D-03
 GradGradGradGradGradGradGradGradGradGradGradGradGradGradGradGradGradGrad

                          Input orientation:                          
 ---------------------------------------------------------------------
 Center     Atomic      Atomic             Coordinates (Angstroms)
 Number     Number       Type             X           Y           Z
 ---------------------------------------------------------------------
      1          6           0       -6.540124   -2.360273   -1.173476
      2          6           0       -5.195231   -2.342944   -1.511102
      3          6           0       -4.476369   -1.115030   -1.534124
      4          6           0       -5.171537    0.087098   -1.223205
      5          6           0       -6.516536    0.050734   -0.887522
      6          6           0       -7.223951   -1.168261   -0.859413
      7          1           0       -7.078125   -3.305278   -1.150047
      8          1           0       -4.670956   -3.262715   -1.750107
      9          1           0       -4.629160    1.026959   -1.241504
     10          1           0       -7.036244    0.974219   -0.642363
     11          6           0       -3.126079   -1.090024   -1.856545
     12          6           0       -1.864560   -1.090035   -2.079941
     13          6           0       -8.691926   -1.195102   -0.511954
     14          1           0       -8.953598   -0.378053    0.168746
     15          1           0       -9.299660   -1.081427   -1.420000
     16          1           0       -8.970901   -2.143511   -0.040690
 ---------------------------------------------------------------------
                    Distance matrix (angstroms):
                    1          2          3          4          5
     1  C    0.000000
     2  C    1.386733   0.000000
     3  C    2.437167   1.423048   0.000000
     4  C    2.804483   2.447151   1.423039   0.000000
     5  C    2.428020   2.804352   2.437084   1.386733   0.000000
     6  C    1.409662   2.433163   2.829713   2.433243   1.409672
     7  H    1.087671   2.145166   3.422548   3.892126   3.412788
     8  H    2.154227   1.085342   2.167271   3.427748   3.889622
     9  H    3.889699   3.427735   2.167277   1.085287   2.154184
    10  H    3.412778   3.891992   3.422449   2.145109   1.087669
    11  C    3.706187   2.443467   1.388476   2.443488   3.706148
    12  C    4.929106   3.603711   2.668349   3.613272   4.936000
    13  C    2.534853   3.813490   4.338451   3.813535   2.534853
    14  H    3.399354   4.561579   4.846491   4.056831   2.690507
    15  H    3.051436   4.294888   4.824758   4.294832   3.051410
    16  H    2.690513   4.056792   4.846538   4.561701   3.399373
                    6          7          8          9         10
     6  C    0.000000
     7  H    2.161615   0.000000
     8  H    3.420213   2.481198   0.000000
     9  H    3.420223   4.977357   4.319923   0.000000
    10  H    2.161611   4.309709   4.977278   2.481090   0.000000
    11  C    4.218169   4.585320   2.668063   2.668173   4.585273
    12  C    5.497170   5.740494   3.564434   3.581571   5.751008
    13  C    1.508773   2.732098   4.687882   4.687843   2.732077
    14  H    2.161762   3.718234   5.508565   4.760633   2.482496
    15  H    2.151828   3.154934   5.127562   5.127448   3.154909
    16  H    2.161771   2.482535   4.760698   5.508589   3.718218
                   11         12         13         14         15
    11  C    0.000000
    12  C    1.281146   0.000000
    13  C    5.726920   7.005894   0.000000
    14  H    6.210369   7.471142   1.095169   0.000000
    15  H    6.189003   7.464336   1.098549   1.771612   0.000000
    16  H    6.210403   7.467827   1.095169   1.777921   1.771610
                   16
    16  H    0.000000
 Stoichiometry    C9H7(2)
 Framework group  C1[X(C9H7)]
 Deg. of freedom    42
 Full point group                 C1      NOp   1
 Largest Abelian subgroup         C1      NOp   1
 Largest concise Abelian subgroup C1      NOp   1
                         Standard orientation:                         
 ---------------------------------------------------------------------
 Center     Atomic      Atomic             Coordinates (Angstroms)
 Number     Number       Type             X           Y           Z
 ---------------------------------------------------------------------
      1          6           0       -0.920964    1.214051   -0.002683
      2          6           0        0.465600    1.221451    0.017677
      3          6           0        1.190332   -0.003224    0.018665
      4          6           0        0.461910   -1.225697    0.017698
      5          6           0       -0.924618   -1.213965   -0.002982
      6          6           0       -1.639228    0.001128   -0.010466
      7          1           0       -1.465193    2.155724   -0.012451
      8          1           0        1.015776    2.157005    0.021237
      9          1           0        1.009144   -2.162912    0.020906
     10          1           0       -1.471696   -2.153980   -0.013102
     11          6           0        2.578796   -0.005291    0.023991
     12          6           0        3.857805    0.006857   -0.048976
     13          6           0       -3.147997    0.003393   -0.013256
     14          1           0       -3.545223   -0.884897   -0.515795
     15          1           0       -3.530064    0.003809    1.016713
     16          1           0       -3.542566    0.893021   -0.515523
 ---------------------------------------------------------------------
 Rotational constants (GHZ):      5.4172748      1.0169858      0.8609985
 Standard basis: 6-31+G(d) (6D, 7F)
 There are   185 symmetry adapted cartesian basis functions of A   symmetry.
 There are   185 symmetry adapted basis functions of A   symmetry.
   185 basis functions,   316 primitive gaussians,   185 cartesian basis functions
    31 alpha electrons       30 beta electrons
       nuclear repulsion energy       361.0245083504 Hartrees.
 NAtoms=   16 NActive=   16 NUniq=   16 SFac= 1.00D+00 NAtFMM=   60 NAOKFM=F Big=F
 Integral buffers will be    131072 words long.
 Raffenetti 2 integral format.
 Two-electron integral symmetry is turned on.
 Nuclear repulsion after empirical dispersion term =      361.0147544525 Hartrees.
 One-electron integrals computed using PRISM.
 NBasis=   185 RedAO= T EigKep=  2.80D-06  NBF=   185
 NBsUse=   184 1.00D-06 EigRej=  1.36D-07 NBFU=   184
 Initial guess from the checkpoint file:  "C:\Users\123\Desktop\ML project\molecule_3.chk"
 B after Tr=     0.000000    0.000000    0.000000
         Rot=    1.000000   -0.000153   -0.000003    0.000415 Ang=  -0.05 deg.
 Initial guess <Sx>= 0.0000 <Sy>= 0.0000 <Sz>= 0.5000 <S**2>= 0.7690 S= 0.5095
 ExpMin= 4.38D-02 ExpMax= 3.05D+03 ExpMxC= 4.57D+02 IAcc=2 IRadAn=         4 AccDes= 0.00D+00
 Harris functional with IExCor=  402 and IRadAn=       4 diagonalized for initial guess.
 HarFok:  IExCor=  402 AccDes= 0.00D+00 IRadAn=         4 IDoV= 1 UseB2=F ITyADJ=14
 ICtDFT=  3500011 ScaDFX=  1.000000  1.000000  1.000000  1.000000
 FoFCou: FMM=F IPFlag=           0 FMFlag=      100000 FMFlg1=           0
         NFxFlg=           0 DoJE=T BraDBF=F KetDBF=T FulRan=T
         wScrn=  0.000000 ICntrl=     500 IOpCl=  0 I1Cent=   200000004 NGrid=           0
         NMat0=    1 NMatS0=      1 NMatT0=    0 NMatD0=    1 NMtDS0=    0 NMtDT0=    0
 Petite list used in FoFCou.
 Keep R1 and R2 ints in memory in canonical form, NReq=299370286.
 Requested convergence on RMS density matrix=1.00D-08 within 128 cycles.
 Requested convergence on MAX density matrix=1.00D-06.
 Requested convergence on             energy=1.00D-06.
 No special actions if energy rises.
 SCF Done:  E(UB3LYP) =  -347.032289534     A.U. after   24 cycles
            NFock= 24  Conv=0.69D-08     -V/T= 2.0099
 <Sx>= 0.0000 <Sy>= 0.0000 <Sz>= 0.5000 <S**2>= 0.7655 S= 0.5077
 <L.S>= 0.000000000000E+00
 Annihilation of the first spin contaminant:
 S**2 before annihilation     0.7655,   after     0.7502
[...]
 ! D4    D(7,1,2,8)              0.007          -DE/DX =    0.0                 !
 ! D5    D(2,1,6,5)             -0.2562         -DE/DX =    0.0                 !
 ! D6    D(2,1,6,13)           178.3116         -DE/DX =    0.0                 !
 ! D7    D(7,1,6,5)            179.6652         -DE/DX =    0.0                 !
 ! D8    D(7,1,6,13)            -1.7671         -DE/DX =    0.0                 !
 ! D9    D(1,2,3,4)              0.0638         -DE/DX =    0.0                 !
 ! D10   D(1,2,3,11)           179.9707         -DE/DX =    0.0                 !
 ! D11   D(8,2,3,4)           -179.7706         -DE/DX =    0.0                 !
 ! D12   D(8,2,3,11)             0.1363         -DE/DX =    0.0                 !
 ! D13   D(2,3,4,5)             -0.0635         -DE/DX =    0.0                 !
 ! D14   D(2,3,4,9)            179.7702         -DE/DX =    0.0                 !
 ! D15   D(11,3,4,5)          -179.9704         -DE/DX =    0.0                 !
 ! D16   D(11,3,4,9)            -0.1367         -DE/DX =    0.0                 !
 ! D17   D(3,4,5,6)             -0.0983         -DE/DX =    0.0                 !
 ! D18   D(3,4,5,10)           179.8229         -DE/DX =    0.0                 !
 ! D19   D(9,4,5,6)           -179.9279         -DE/DX =    0.0                 !
 ! D20   D(9,4,5,10)            -0.0067         -DE/DX =    0.0                 !
 ! D21   D(4,5,6,1)              0.2565         -DE/DX =    0.0                 !
 ! D22   D(4,5,6,13)          -178.3113         -DE/DX =    0.0                 !
 ! D23   D(10,5,6,1)          -179.665          -DE/DX =    0.0                 !
 ! D24   D(10,5,6,13)            1.7672         -DE/DX =    0.0                 !
 ! D25   D(1,6,13,14)          151.561          -DE/DX =    0.0                 !
 ! D26   D(1,6,13,15)          -89.2718         -DE/DX =    0.0                 !
 ! D27   D(1,6,13,16)           29.8956         -DE/DX =    0.0                 !
 ! D28   D(5,6,13,14)          -29.8992         -DE/DX =    0.0                 !
 ! D29   D(5,6,13,15)           89.2681         -DE/DX =    0.0                 !
 ! D30   D(5,6,13,16)         -151.5645         -DE/DX =    0.0                 !
 --------------------------------------------------------------------------------
 GradGradGradGradGradGradGradGradGradGradGradGradGradGradGradGradGradGrad

 1|1|UNPC-DESKTOP-LNBVCDA|Freq|UB3LYP|6-31+G(d)|C9H7(2)|123|24-Aug-2023
 |0||#N Geom=AllCheck Guess=TCheck SCRF=Check GenChk UB3LYP/6-31+G(d) F
 req||Title Card Required||0,2|C,-6.5382919689,-2.3623425494,-1.1593226
 615|C,-5.1944153517,-2.3468699328,-1.4914415418|C,-4.470451697,-1.1183
 971991,-1.5234113033|C,-5.1692042158,0.0831757358,-1.2035932647|C,-6.5
 132782296,0.0481280647,-0.8737882816|C,-7.2246726638,-1.1699103075,-0.
 8472700595|H,-7.0769433056,-3.3066711077,-1.1361642091|H,-4.6674670197
 ,-3.2654795222,-1.7301719601|H,-4.6229790895,1.0211493347,-1.222400938
 4|H,-7.0325466182,0.971736155,-0.6293596167|C,-3.1156979927,-1.0929890
 823,-1.8564019888|C,-1.8702914494,-1.0698909799,-2.1601522581|C,-8.695
 1690857,-1.1929267329,-0.5241731996|H,-8.9735388337,-0.3744951571,0.14
 80714986|H,-9.288140276,-1.0779521809,-1.4425605303|H,-8.9918680928,-2
 .1399071983,-0.0611075051||Version=EM64W-G09RevD.01|State=2-A|HF=-347.
 032441|S2=0.764584|S2-1=0.|S2A=0.750135|RMSD=3.766e-009|RMSF=4.470e-00
 6|ZeroPoint=0.1245289|Thermal=0.1330674|Dipole=-3.0061616,-0.052476,0.
 7060079|DipoleDeriv=-0.5582416,0.236058,0.1291394,0.4445342,0.0114307,
 -0.0853699,0.1660633,-0.0400185,-0.1592934,0.4624122,-0.1154067,-0.144
 1866,0.2605289,0.0425156,-0.0548374,-0.1221862,0.0403386,-0.0318583,-0
 .6224879,-0.0019718,0.1074579,-0.0096176,0.1585171,0.0398119,0.0968879
 ,0.044498,-0.2056939,0.4722431,0.1357172,-0.1113553,-0.2269978,0.03606
 22,0.0805848,-0.1518894,-0.0207046,-0.025047,-0.580562,-0.2491914,0.07
 24012,-0.462468,-0.012332,0.1146608,0.0499753,0.0719791,-0.1204776,0.8
 264431,0.0127832,-0.1572793,0.0018492,0.1967895,0.0234449,-0.0845472,0
 .0218978,0.0138035,0.014774,-0.0789734,0.0229396,-0.0840276,-0.0398732
 ,0.0026778,0.0267028,0.0014147,0.1286269,0.0443408,0.0498454,0.0234629
 ,0.0194761,0.0043693,-0.0180079,0.0225572,-0.0239343,0.1102048,0.04570
 66,-0.0552011,0.0117813,-0.0237282,0.0015603,-0.0086826,0.0186788,-0.0
 021964,0.1136859,0.0174184,0.0708278,0.0411538,0.0752802,-0.0340351,-0
 .04273,0.0427183,-0.0407486,0.1180049,-0.8468753,-0.0349338,0.2925186,
 -0.0403009,-0.1848546,-0.0844507,0.3515551,-0.084747,0.4622916,1.03506
 86,0.0349184,-0.3566928,0.0401276,-0.2738713,0.0377224,-0.4094122,0.03
 59071,-0.5300952,-0.25825,-0.0033404,0.0543949,0.0255154,0.1067107,-0.
 0047945,-0.1928563,-0.0008513,0.1337349,0.0104365,-0.012612,0.0147422,
 0.028307,-0.0357657,-0.0910662,0.1059303,-0.0738344,0.0059979,-0.07333
 91,0.0040768,-0.020053,0.0038588,0.0924879,0.0177206,-0.017036,0.01779
 9,-0.0541261,0.0109126,0.0074039,0.0195755,-0.0523371,-0.0697116,0.073
 3159,0.0968584,0.0532008,0.040241|Polar=194.6053783,2.6321645,95.36882
 13,-30.632122,3.1416361,71.4711054|PG=C01 [X(C9H7)]|NImag=0||0.6702963
 2,0.06389455,0.68730786,-0.12616296,0.04937580,0.16489930,-0.34560260,
 -0.03889939,0.06591584,0.67241732,0.02092591,-0.13032920,-0.01407990,-
 0.04172025,0.67500397,0.07340326,0.00112015,-0.07700362,-0.13858286,0.
 07470183,0.17686470,-0.03778472,-0.01873857,0.00954788,-0.12567475,-0.
 07108807,0.00569538,0.64071875,-0.04752719,0.02164513,0.01381077,-0.05
 353943,-0.24878052,-0.00852138,0.01403009,0.58174352,0.00618144,0.0060
 1157,0.00880588,0.00745161,-0.00408061,-0.07068657,-0.12385754,0.05061
 325,0.17037490,-0.03618665,0.01881739,0.01060317,0.04334294,0.00852434
 ,-0.00693035,-0.12317541,0.04779691,0.01920829,0.67486179,0.01744476,-
 0.01061327,-0.00541058,-0.00845955,-0.04604602,-0.00445086,0.06555663,
 -0.24420736,-0.03734291,0.07307681,0.67861327,0.00991191,-0.00543047,-
 0.00811980,-0.00890151,-0.00910189,0.01198984,0.02140401,-0.03321890,-
 0.07758414,-0.12512378,0.04882825,0.17075065,0.05656848,-0.01610751,-0
 .01477624,-0.03701317,-0.01883489,0.00557881,-0.03647180,0.04602139,0.
 01709358,-0.34547490,-0.03306548,0.06694465,0.66827527,0.01692821,-0.0
 5104698,-0.01167111,-0.02032199,-0.01211865,0.00401866,0.01716066,0.02
 415245,-0.00249691,0.02686236,-0.13012210,-0.01519858,-0.03224110,0.68
 253939,-0.01086628,-0.00274062,0.01039268,0.00609839,0.00405365,-0.005
 66476,0.01365926,-0.01014336,0.00494248,0.07373175,-0.00011445,-0.0774
 9530,-0.13725548,0.07752591,0.17178055,-0.15405299,0.09582621,0.032781
 52,-0.02977979,0.02756341,0.01171629,0.01108904,0.00005334,-0.00478561
 ,-0.03191882,-0.02839763,0.00521802,-0.15671262,-0.10292694,0.00945463
 ,0.60216229,0.02772639,-0.25255139,-0.02791158,0.07079378,0.02809999,-
 0.01479188,-0.00003531,-0.04039089,-0.00393949,-0.07163373,0.02455239,
 0.02025637,-0.03489157,-0.25702091,-0.01598312,0.01194089,0.62866346,0
 .02477223,-0.04602470,-0.07744406,0.01687371,-0.00326852,-0.00015028,-
 0.00427118,-0.00395471,-0.00729078,0.00022736,0.00874310,0.00577650,0.
 01780102,0.00209334,-0.07038317,-0.09787885,0.05180373,0.20607172,-0.1
 2585400,-0.12033033,0.00811317,-0.01144638,-0.02894663,0.00030655,-0.0
 0382724,0.00182523,0.00337228,-0.00061217,0.00055115,-0.00001506,-0.00
 100237,0.00295078,0.00202104,0.01026008,0.01405628,0.00001449,0.132025
 69,-0.11980344,-0.26960402,0.00255869,0.00152726,0.00395370,-0.0003153
 8,0.00074616,0.00178050,-0.00084465,0.00085988,0.00017762,-0.00017302,
 0.00366220,-0.00255302,-0.00180453,-0.01515945,-0.01978111,0.00110068,
 0.12879709,0.28505123,0.00803503,0.00302724,-0.03935510,0.00392845,0.0
 0718162,0.00391658,0.00319605,-0.00123652,0.00761086,0.00009960,-0.000
 04913,-0.00079385,0.00202942,-0.00186472,0.00499848,-0.00298985,-0.006
 14057,0.00337458,-0.01158852,-0.00168782,0.02828156,-0.00881300,0.0265
 9703,0.00676471,-0.12502720,0.11861364,0.03540203,0.00982219,-0.015711
 11,-0.00371651,-0.00139752,-0.00323402,0.00123675,-0.00052021,-0.00063
 324,-0.00015178,-0.00451914,-0.00187460,0.00283470,0.00025338,-0.00009
 062,-0.00118691,0.12885823,-0.00315311,0.00609365,0.00078901,0.1167537
 4,-0.26515684,-0.05555360,0.01386981,-0.01866007,-0.00593398,-0.003944
 67,-0.00292525,0.00002966,-0.00051970,0.00021650,0.00024773,-0.0012228
 4,0.00113638,-0.00054406,0.00044851,0.00076675,0.00051865,-0.12391820,
 0.27817755,0.00320452,-0.00644850,0.00428738,0.03518740,-0.05594295,-0
 .05399084,-0.00013134,0.00130553,0.00275957,0.00105746,-0.00008192,0.0
 0470331,-0.00006173,0.00029869,-0.00072816,0.00321286,-0.00050861,0.00
 744775,-0.00115410,0.00063813,-0.00417714,-0.04027682,0.06049235,0.042
 40196,-0.00048511,0.00065635,-0.00000519,-0.00126273,0.00284742,0.0019
 0877,0.00987503,0.01554137,0.00009028,-0.13006672,-0.12667594,0.006993
 09,-0.00931131,-0.02712398,0.00035550,-0.00448499,0.00127020,0.0032215
 3,0.00001746,-0.00008538,-0.00025230,0.00066797,0.00076156,0.00009976,
 0.13419859,0.00054110,0.00026442,0.00000404,0.00356171,-0.00266905,-0.
 00185407,-0.01404508,-0.01856430,0.00085139,-0.12478159,-0.27391550,0.
 00169292,0.00260915,0.00523666,-0.00072698,0.00054163,0.00120424,-0.00
 099958,-0.00007916,-0.00001019,0.00014193,-0.00079331,-0.00091109,-0.0
 0000348,0.13314592,0.28740898,0.00007050,-0.00007041,-0.00081764,0.001
 92954,-0.00166983,0.00430291,-0.00353336,-0.00641194,0.00264307,0.0072
 0015,0.00206496,-0.04022884,0.00402353,0.00653544,0.00565849,0.0034064
 6,-0.00105831,0.00734068,-0.00024277,0.00012862,-0.00089609,-0.0000893
 8,-0.00039028,0.00071393,-0.01046591,-0.00043335,0.02783602,-0.0011724
 0,-0.00336540,0.00126660,-0.00062651,-0.00052539,-0.00005248,-0.003847
 67,-0.00244547,0.00289986,-0.01092321,0.02840585,0.00702970,-0.1210350
 6,0.11220379,0.03508261,0.01028914,-0.01427339,-0.00343925,0.00060437,
 -0.00077261,-0.00021250,0.00002427,0.00013372,-0.00021008,0.00024474,-
 0.00016450,-0.00122664,0.12688549,-0.00402646,-0.00284622,-0.00006299,
 -0.00089427,0.00012589,0.00018697,-0.00140302,0.00168674,-0.00067704,-
 0.00199448,0.00494839,0.00075378,0.11169564,-0.26039635,-0.05564510,0.
 01479566,-0.01970407,-0.00658668,0.00077337,-0.00104125,-0.00032327,0.
 00013271,0.00000429,0.00007975,0.00039164,0.00077075,0.00057892,-0.119
 46464,0.27524919,0.00113303,-0.00006069,0.00544279,-0.00011562,0.00025
 047,-0.00073128,0.00295399,-0.00025864,0.00773305,0.00336142,-0.006924
 43,0.00236671,0.03482392,-0.05603767,-0.05336456,0.00064570,0.00062521
 ,0.00324331,-0.00001962,0.00001547,0.00031063,-0.00023025,0.00008138,-
 0.00091015,-0.00112945,0.00069225,-0.00416360,-0.04033004,0.06095379,0
 .04325794,0.00493903,-0.00471036,-0.00053258,-0.03971889,-0.01814143,0
 .00815455,-0.34495204,-0.00626436,0.07609210,-0.03822125,0.01634297,0.
 01397763,0.00481619,0.00458764,-0.00018452,-0.00157966,-0.00017509,0.0
 0050443,-0.00081798,-0.00015853,0.00017884,0.00112894,0.00086800,-0.00
 075230,0.00123109,-0.00058006,-0.00084353,-0.00091245,0.00026839,0.000
 09769,1.11307091,-0.00517477,-0.00338147,0.00065592,-0.02927493,0.0042
 4460,0.00680638,-0.00644232,-0.07097819,-0.00374264,0.02749040,0.00611
 563,-0.00682384,0.00513755,-0.00303337,-0.00198382,-0.00002731,-0.0052
 5330,-0.00057655,-0.00135724,0.00013623,0.00042420,-0.00057254,0.00095
 622,0.00040351,0.00072341,0.00096241,0.00015674,0.00137148,0.00014313,
 -0.00030096,0.02078746,0.08654985,-0.00120920,0.00047941,0.00278235,0.
 00838919,0.00421145,0.00566935,0.07711023,-0.00326745,-0.04771944,0.01
 461528,-0.00489571,0.00244087,0.00026855,-0.00160913,0.00233446,0.0000
 0944,-0.00051615,-0.00053285,-0.00011401,-0.00011331,-0.00040036,-0.00
 066439,0.00005852,-0.00143741,-0.00062013,0.00050285,-0.00142014,0.000
 15863,0.00028581,-0.00037185,-0.26481074,0.00387969,0.08078968,0.00404
 390,-0.00404013,-0.00209152,-0.00395051,-0.00149100,0.00219081,0.00798
 641,0.00024159,-0.00049326,-0.00456830,0.00116248,0.00055256,0.0045091
 6,0.00434563,-0.00036077,-0.00374522,0.00004344,0.00069877,-0.00009796
 ,0.00015791,-0.00007202,0.00006406,0.00010039,0.00006854,-0.00006914,-
 0.00020586,-0.00004953,0.00000737,-0.00026003,0.00001577,-0.69853264,-
 0.01264133,0.16662147,0.69261039,0.00016882,0.00051270,-0.00010112,0.0
 0069146,-0.00123134,-0.00021654,0.00035510,0.01019253,0.00138699,-0.00
 090163,-0.00130695,-0.00011335,-0.00001872,0.00068284,0.00005649,-0.00
 010250,0.00010724,0.00003236,0.00012757,-0.00005421,-0.00004639,0.0001
 8177,0.00015627,0.00004415,-0.00015419,0.00012668,0.00010230,-0.000140
 92,-0.00003827,0.00004692,-0.01289297,-0.01701155,0.00092054,0.0126351
 7,0.00787980,-0.00090174,0.00100810,0.00089248,0.00101369,0.00017025,-
 0.00008665,-0.00174490,0.00107800,-0.00024190,0.00111118,-0.00017273,0
 .00041662,-0.00113940,-0.00114520,0.00049110,0.00108460,-0.00001653,-0
 .00016453,0.00006494,0.00006284,-0.00001311,-0.00012613,0.00005504,-0.
 00036982,-0.00009064,0.00009518,-0.00034305,0.00004320,-0.00007293,-0.
 00007126,0.16824612,0.00104825,-0.04222220,-0.16700061,-0.00213242,0.0
 4186033,-0.02118472,0.00517763,0.00726127,0.00469260,0.00095833,0.0006
 7938,-0.00351946,-0.00002728,0.00038924,0.00468778,-0.00131348,0.00059
 295,-0.02194050,-0.00622453,0.00592749,-0.20554422,-0.00240674,0.03028
 680,0.00070771,-0.00110931,-0.00141666,-0.00002862,-0.00017102,-0.0002
 9425,-0.00003869,0.00024653,-0.00022480,0.00070198,0.00141974,-0.00110
 797,0.00000359,-0.00002135,0.00021857,0.00124791,0.00004349,-0.0004647
 2,0.48485371,0.02857083,0.00378337,-0.00470374,0.00152493,-0.00487897,
 -0.00068996,0.00018442,-0.00061701,-0.00002589,-0.00236440,-0.00479240
 ,-0.00172636,-0.02950096,0.00341886,0.00402896,-0.00317386,-0.09076212
 ,-0.00146672,0.00107245,0.00065529,-0.00067027,0.00124357,0.00016973,-
 0.00046413,-0.00124252,0.00007363,0.00064109,-0.00081652,0.00061734,0.
 00145527,0.00007638,0.00034867,0.00013437,-0.00011810,-0.00000640,-0.0
 0000736,0.00171441,0.58963581,0.00959201,-0.00053005,0.00529763,0.0029
 7650,-0.00174431,0.00516718,-0.00165413,0.00003940,-0.00076684,0.00249
 594,-0.00069985,0.00506333,0.00273538,-0.00014136,0.00642235,0.0368261
 0,-0.00153312,-0.08121786,-0.00097416,0.00129731,-0.00254110,0.0001667
 4,0.00011225,-0.00068955,-0.00013385,0.00006200,-0.00056772,-0.0012097
 4,-0.00052238,-0.00249730,-0.00032674,0.00004133,0.00002756,0.00078737
 ,0.00002705,-0.00029985,-0.00519811,0.00617391,0.53870207,-0.00531544,
 -0.00200309,0.00128210,-0.00045830,0.00150564,-0.00049238,-0.00000406,
 0.00010646,0.00015207,0.00010977,0.00005502,-0.00039452,0.00074360,0.0
 0156816,-0.00060046,-0.00945199,0.02653090,0.02042554,0.00006885,-0.00
 003171,0.00019266,-0.00041651,-0.00004975,0.00013849,0.00005151,-0.000
 02412,0.00005546,-0.00020388,-0.00121216,0.00035136,-0.00008699,-0.000
 13315,0.00001187,0.00013499,0.00000127,-0.00003603,-0.06271142,0.04541
 706,0.04096266,0.07119270,-0.00019830,0.00064018,-0.00081705,0.0001744
 5,0.00000518,-0.00010086,-0.00045923,0.00010879,0.00000657,0.00089355,
 0.00010529,0.00030729,-0.00208161,0.00020248,0.00103049,0.00138044,0.0
 0066557,0.00225174,-0.00018020,0.00044764,0.00004937,0.00006178,-0.000
 00334,0.00005563,0.00004744,0.00000830,-0.00003241,-0.00025517,0.00018
 638,-0.00035563,0.00000965,0.00006464,-0.00000494,0.00015585,0.0000051
 5,-0.00005476,0.04706602,-0.19973833,-0.12274272,-0.05179204,0.2130492
 1,0.00155956,0.00041924,0.00014824,-0.00094034,-0.00048015,0.00048089,
 0.00034392,0.00027566,-0.00011742,0.00002092,0.00014799,0.00012178,-0.
 00028818,-0.00057774,0.00049595,-0.00086252,-0.00329330,-0.00311164,-0
 .00008662,-0.00008847,-0.00008137,0.00003072,0.00004466,-0.00011398,0.
 00000330,-0.00000282,-0.00003413,0.00035740,0.00070400,-0.00007107,0.0
 0008057,0.00007426,0.00002539,-0.00023693,0.00000585,0.00003952,0.0431
 6756,-0.12240871,-0.14858177,-0.04521276,0.13564645,0.15738007,-0.0001
 4654,-0.00138243,0.00101934,0.00001286,-0.00024110,0.00139544,-0.00026
 521,0.00003806,-0.00023111,0.00004057,-0.00010507,0.00142189,-0.000157
 39,0.00109784,0.00133766,-0.02194209,0.00327534,-0.02571710,-0.0001022
 2,0.00035816,-0.00057346,-0.00014858,0.00003305,-0.00015290,-0.0001493
 6,0.00000717,-0.00015765,-0.00011119,-0.00021331,-0.00064704,-0.000276
 17,-0.00000147,0.00004860,0.00023725,0.00000444,-0.00006477,-0.1170483
 8,0.01475401,-0.11817951,0.00474143,-0.00156214,0.00690491,0.13024642,
 0.00162058,-0.00018846,-0.00134490,-0.00106685,-0.00044819,-0.00014419
 ,-0.00009874,0.00072449,0.00011762,0.00126908,-0.00050159,0.00001060,-
 0.00182601,-0.00065088,0.00130447,-0.00015465,0.00016053,-0.00087791,0
 .00012061,-0.00014770,0.00026141,0.00004032,-0.00001834,0.00008579,-0.
 00003938,0.00000761,-0.00011367,-0.00009770,-0.00010695,-0.00025176,0.
 00001836,0.00004361,0.00001536,0.00002380,-0.00000032,-0.00001118,0.01
 410637,-0.04757578,0.02290713,-0.01412291,0.00326473,-0.02160471,-0.01
 582261,0.04786757,0.00104957,-0.00066613,-0.00060364,-0.00102280,-0.00
 007967,-0.00005380,0.00087204,0.00011253,-0.00026591,-0.00074974,-0.00
 001041,-0.00003526,0.00065825,0.00063647,-0.00012602,0.00322028,-0.001
 18024,0.00973843,-0.00009310,-0.00013687,-0.00009876,0.00001661,-0.000
 01782,0.00013156,0.00000608,-0.00001290,0.00010787,-0.00011625,0.00013
 577,-0.00012702,0.00002008,0.00001233,-0.00003818,-0.00035425,-0.00000
 982,0.00009193,-0.11270331,0.02285179,-0.22769421,-0.01020243,0.002859
 64,-0.01704138,0.12604285,-0.02536066,0.24768858,0.00075042,-0.0013919
 6,-0.00098710,0.00009512,0.00005006,-0.00037319,0.00003094,-0.00013960
 ,0.00015329,-0.00049790,-0.00134450,-0.00084829,-0.00527335,0.00176670
 ,0.00175097,-0.01006904,-0.03034679,0.01364579,-0.00017722,0.00110237,
 0.00063217,0.00005174,0.00001051,0.00006450,-0.00041835,0.00002046,0.0
 0014792,0.00007502,-0.00000878,0.00019712,-0.00009168,0.00013608,-0.00
 003339,0.00012233,0.00000184,0.00000520,-0.06487926,-0.05734170,0.0311
 3354,0.00160574,0.00673951,-0.00484151,0.00506862,0.01602974,-0.006643
 88,0.07360687,0.00206212,0.00031369,-0.00109126,-0.00085068,0.00022547
 ,-0.00019527,0.00040748,0.00016420,0.00009672,0.00002976,-0.00008216,-
 0.00009245,-0.00003839,0.00049310,0.00089427,-0.00093641,0.00087399,-0
 .00172552,0.00017052,0.00022254,0.00041429,-0.00004319,-0.00000242,0.0
 0004606,-0.00006393,0.00000645,-0.00002788,0.00020687,0.00040100,0.000
 06900,-0.00003605,0.00009288,-0.00008132,-0.00010981,-0.00001416,0.000
 09543,-0.05945882,-0.25033170,0.09725341,-0.00581559,-0.01901186,0.011
 13779,-0.00023993,-0.00243033,0.00086599,0.06471606,0.26907931,0.00022
 711,0.00053006,0.00039513,-0.00020119,-0.00012144,-0.00002364,0.000409
 71,-0.00022225,-0.00019683,-0.00092864,0.00036867,0.00062759,0.0015639
 1,-0.00036608,0.00024542,-0.00105908,0.00418758,-0.00269779,0.00039548
 ,-0.00063770,-0.00013579,-0.00001010,0.00001048,-0.00002839,0.00001917
 ,-0.00000938,-0.00013177,-0.00004101,0.00021159,-0.00004633,0.00009842
 ,-0.00007480,0.00007279,-0.00027641,-0.00000300,0.00002039,0.03288657,
 0.09687775,-0.09582392,-0.00663363,-0.01809881,0.01046094,0.00755283,0
 .02500659,-0.01167420,-0.03400313,-0.10765927,0.09893641||0.00000169,-
 0.00000669,-0.00000039,-0.00000648,-0.00000155,0.00000309,0.00000896,-
 0.00000425,-0.00001065,-0.00000985,0.00000668,0.00000382,0.00000503,0.
 00000702,0.00000092,-0.00000222,-0.00000042,-0.00000673,-0.00000213,0.
 00000256,0.00000221,0.00000160,0.00000133,0.00000183,0.00000271,-0.000
 00228,0.00000144,-0.00000155,-0.00000315,0.00000143,0.00001030,0.00000
 128,0.00000016,-0.00001155,0.00000046,-0.00000109,-0.00000468,-0.00000
 090,0.00000412,0.00000217,-0.00000143,0.00000019,0.00000385,0.00000001
 ,-0.00000082,0.00000215,0.00000132,0.00000047|||@


 ERWIN WITH HIS PSI CAN DO
 CALCULATIONS QUITE A FEW.
 BUT ONE THING HAS NOT BEEN SEEN
 JUST WHAT DOES PSI REALLY MEAN.
 -- WALTER HUCKEL, TRANS. BY FELIX BLOCH
 Job cpu time:       0 days  0 hours 12 minutes 24.0 seconds.
 File lengths (MBytes):  RWF=    117 Int=      0 D2E=      0 Chk=      5 Scr=      1
 Normal termination of Gaussian 09 at Thu Aug 24 15:37:03 2023.
